Generated by trjconv : CNT in water t= 427.00000
33518
    1C        C    1   2.842   2.767   4.749
    1C        C    2   2.900   2.720   4.869
    1C        C    3   2.844   2.770   4.988
    1C        C    4   2.843   2.770   4.261
    1C        C    5   2.900   2.729   4.384
    1C        C    6   2.850   2.777   4.507
    1C        C    7   3.013   2.641   4.625
    1C        C    8   2.894   2.717   4.627
    1C        C    9   3.078   2.606   4.746
    1C        C   10   3.008   2.630   4.866
    1C        C   11   3.180   2.492   4.973
    1C        C   12   3.061   2.564   4.978
    1C        C   13   2.848   2.772   3.772
    1C        C   14   2.896   2.720   3.894
    1C        C   15   2.845   2.771   4.016
    1C        C   16   3.018   2.652   4.141
    1C        C   17   2.898   2.726   4.139
    1C        C   18   3.084   2.620   4.262
    1C        C   19   3.020   2.655   4.383
    1C        C   20   3.212   2.566   4.506
    1C        C   21   3.078   2.610   4.504
    1C        C   22   3.282   2.545   4.627
    1C        C   23   3.211   2.557   4.749
    1C        C   24   3.415   2.483   4.864
    1C        C   25   3.274   2.504   4.865
    1C        C   26   3.492   2.471   4.980
    1C        C   27   2.846   2.767   3.283
    1C        C   28   2.901   2.720   3.404
    1C        C   29   2.849   2.767   3.526
    1C        C   30   3.017   2.643   3.653
    1C        C   31   2.902   2.725   3.650
    1C        C   32   3.080   2.610   3.775
    1C        C   33   3.015   2.643   3.896
    1C        C   34   3.206   2.555   4.018
    1C        C   35   3.076   2.610   4.019
    1C        C   36   3.277   2.538   4.139
    1C        C   37   3.214   2.564   4.262
    1C        C   38   3.419   2.511   4.383
    1C        C   39   3.282   2.547   4.384
    1C        C   40   3.490   2.504   4.504
    1C        C   41   3.419   2.512   4.626
    1C        C   42   3.634   2.486   4.744
    1C        C   43   3.492   2.486   4.744
    1C        C   44   3.708   2.484   4.864
    1C        C   45   3.631   2.477   4.981
    1C        C   46   2.832   2.748   2.793
    1C        C   47   2.892   2.709   2.915
    1C        C   48   2.842   2.758   3.038
    1C        C   49   3.016   2.638   3.161
    1C        C   50   2.900   2.719   3.161
    1C        C   51   3.079   2.611   3.285
    1C        C   52   3.017   2.638   3.408
    1C        C   53   3.209   2.551   3.529
    1C        C   54   3.079   2.607   3.531
    1C        C   55   3.277   2.530   3.651
    1C        C   56   3.209   2.553   3.773
    1C        C   57   3.414   2.512   3.896
    1C        C   58   3.275   2.533   3.896
    1C        C   59   3.488   2.510   4.016
    1C        C   60   3.416   2.515   4.138
    1C        C   61   3.629   2.504   4.259
    1C        C   62   3.488   2.506   4.259
    1C        C   63   3.703   2.507   4.379
    1C        C   64   3.632   2.503   4.501
    1C        C   65   3.839   2.544   4.624
    1C        C   66   3.704   2.502   4.622
    1C        C   67   3.904   2.571   4.746
    1C        C   68   3.842   2.526   4.865
    1C        C   69   4.053   2.589   4.981
    1C        C   70   3.924   2.536   4.978
    1C        C   71   2.822   2.735   2.307
    1C        C   72   2.880   2.690   2.427
    1C        C   73   2.830   2.744   2.548
    1C        C   74   3.005   2.626   2.672
    1C        C   75   2.887   2.703   2.671
    1C        C   76   3.075   2.601   2.793
    1C        C   77   3.015   2.640   2.914
    1C        C   78   3.207   2.556   3.038
    1C        C   79   3.075   2.606   3.037
    1C        C   80   3.276   2.534   3.160
    1C        C   81   3.210   2.557   3.283
    1C        C   82   3.412   2.499   3.404
    1C        C   83   3.273   2.529   3.406
    1C        C   84   3.484   2.495   3.525
    1C        C   85   3.416   2.508   3.649
    1C        C   86   3.624   2.504   3.770
    1C        C   87   3.483   2.502   3.773
    1C        C   88   3.696   2.515   3.891
    1C        C   89   3.630   2.508   4.015
    1C        C   90   3.837   2.552   4.136
    1C        C   91   3.700   2.515   4.137
    1C        C   92   3.905   2.569   4.259
    1C        C   93   3.840   2.540   4.380
    1C        C   94   4.029   2.636   4.498
    1C        C   95   3.908   2.563   4.502
    1C        C   96   4.087   2.677   4.620
    1C        C   97   4.032   2.634   4.742
    1C        C   98   4.190   2.771   4.864
    1C        C   99   4.099   2.660   4.865
    1C        C  100   4.214   2.845   4.980
    1C        C  101   2.819   2.730   2.069
    1C        C  102   2.991   2.595   2.192
    1C        C  103   2.874   2.678   2.187
    1C        C  104   3.063   2.573   2.312
    1C        C  105   3.000   2.615   2.431
    1C        C  106   3.201   2.537   2.550
    1C        C  107   3.070   2.590   2.552
    1C        C  108   3.271   2.521   2.671
    1C        C  109   3.204   2.545   2.793
    1C        C  110   3.412   2.505   2.916
    1C        C  111   3.273   2.532   2.916
    1C        C  112   3.484   2.501   3.037
    1C        C  113   3.415   2.507   3.161
    1C        C  114   3.625   2.503   3.281
    1C        C  115   3.484   2.495   3.283
    1C        C  116   3.695   2.515   3.403
    1C        C  117   3.625   2.504   3.526
    1C        C  118   3.833   2.542   3.647
    1C        C  119   3.696   2.510   3.648
    1C        C  120   3.902   2.569   3.768
    1C        C  121   3.833   2.549   3.890
    1C        C  122   4.026   2.639   4.013
    1C        C  123   3.900   2.575   4.012
    1C        C  124   4.093   2.672   4.133
    1C        C  125   4.032   2.633   4.255
    1C        C  126   4.197   2.767   4.378
    1C        C  127   4.090   2.675   4.376
    1C        C  128   4.248   2.819   4.499
    1C        C  129   4.194   2.769   4.620
    1C        C  130   4.324   2.938   4.742
    1C        C  131   4.240   2.823   4.742
    1C        C  132   4.359   3.004   4.862
    1C        C  133   4.284   2.966   4.973
    1C        C  134   3.171   2.471   2.081
    1C        C  135   3.039   2.516   2.083
    1C        C  136   3.260   2.482   2.189
    1C        C  137   3.196   2.521   2.309
    1C        C  138   3.407   2.486   2.429
    1C        C  139   3.267   2.507   2.429
    1C        C  140   3.481   2.488   2.549
    1C        C  141   3.411   2.499   2.671
    1C        C  142   3.623   2.498   2.790
    1C        C  143   3.482   2.497   2.793
    1C        C  144   3.694   2.504   2.912
    1C        C  145   3.625   2.497   3.035
    1C        C  146   3.831   2.540   3.158
    1C        C  147   3.695   2.503   3.158
    1C        C  148   3.897   2.570   3.279
    1C        C  149   3.833   2.543   3.402
    1C        C  150   4.026   2.629   3.525
    1C        C  151   3.899   2.567   3.525
    1C        C  152   4.088   2.665   3.647
    1C        C  153   4.028   2.631   3.770
    1C        C  154   4.198   2.763   3.889
    1C        C  155   4.085   2.679   3.891
    1C        C  156   4.247   2.813   4.011
    1C        C  157   4.197   2.767   4.135
    1C        C  158   4.339   2.926   4.254
    1C        C  159   4.248   2.818   4.257
    1C        C  160   4.380   2.985   4.376
    1C        C  161   4.338   2.928   4.498
    1C        C  162   4.437   3.117   4.617
    1C        C  163   4.370   2.993   4.620
    1C        C  164   4.467   3.186   4.736
    1C        C  165   4.435   3.123   4.858
    1C        C  166   4.507   3.324   4.974
    1C        C  167   4.474   3.189   4.975
    1C        C  168   3.476   2.432   2.073
    1C        C  169   3.399   2.461   2.187
    1C        C  170   3.617   2.467   2.308
    1C        C  171   3.475   2.467   2.306
    1C        C  172   3.693   2.486   2.425
    1C        C  173   3.622   2.482   2.547
    1C        C  174   3.829   2.542   2.668
    1C        C  175   3.693   2.501   2.668
    1C        C  176   3.894   2.568   2.790
    1C        C  177   3.830   2.543   2.913
    1C        C  178   4.026   2.622   3.032
    1C        C  179   3.899   2.561   3.035
    1C        C  180   4.083   2.662   3.155
    1C        C  181   4.025   2.631   3.280
    1C        C  182   4.198   2.750   3.399
    1C        C  183   4.087   2.663   3.402
    1C        C  184   4.250   2.799   3.521
    1C        C  185   4.198   2.753   3.644
    1C        C  186   4.334   2.921   3.764
    1C        C  187   4.248   2.809   3.764
    1C        C  188   4.374   2.982   3.885
    1C        C  189   4.336   2.923   4.008
    1C        C  190   4.444   3.105   4.127
    1C        C  191   4.378   2.980   4.130
    1C        C  192   4.472   3.172   4.248
    1C        C  193   4.444   3.111   4.372
    1C        C  194   4.501   3.316   4.492
    1C        C  195   4.465   3.180   4.494
    1C        C  196   4.520   3.389   4.611
    1C        C  197   4.508   3.322   4.735
    1C        C  198   4.555   3.536   4.851
    1C        C  199   4.527   3.396   4.856
    1C        C  200   4.578   3.622   4.963
    1C        C  201   3.615   2.417   2.072
    1C        C  202   3.823   2.513   2.183
    1C        C  203   3.689   2.463   2.186
    1C        C  204   3.897   2.542   2.301
    1C        C  205   3.830   2.524   2.424
    1C        C  206   4.023   2.619   2.543
    1C        C  207   3.896   2.555   2.545
    1C        C  208   4.086   2.656   2.664
    1C        C  209   4.023   2.626   2.786
    1C        C  210   4.199   2.742   2.909
    1C        C  211   4.085   2.658   2.909
    1C        C  212   4.246   2.796   3.031
    1C        C  213   4.193   2.752   3.154
    1C        C  214   4.336   2.909   3.274
    1C        C  215   4.246   2.800   3.275
    1C        C  216   4.372   2.971   3.395
    1C        C  217   4.331   2.914   3.518
    1C        C  218   4.428   3.105   3.637
    1C        C  219   4.370   2.977   3.639
    1C        C  220   4.461   3.171   3.758
    1C        C  221   4.442   3.106   3.882
    1C        C  222   4.504   3.308   4.006
    1C        C  223   4.467   3.171   4.004
    1C        C  224   4.517   3.381   4.126
    1C        C  225   4.504   3.310   4.248
    1C        C  226   4.519   3.525   4.366
    1C        C  227   4.511   3.384   4.368
    1C        C  228   4.520   3.598   4.487
    1C        C  229   4.527   3.530   4.611
    1C        C  230   4.508   3.746   4.730
    1C        C  231   4.536   3.607   4.729
    1C        C  232   4.493   3.823   4.848
    1C        C  233   4.541   3.757   4.961
    1C        C  234   4.015   2.612   2.063
    1C        C  235   3.894   2.543   2.066
    1C        C  236   4.083   2.648   2.180
    1C        C  237   4.021   2.611   2.302
    1C        C  238   4.202   2.732   2.421
    1C        C  239   4.086   2.650   2.421
    1C        C  240   4.253   2.785   2.542
    1C        C  241   4.200   2.740   2.665
    1C        C  242   4.338   2.902   2.786
    1C        C  243   4.250   2.791   2.787
    1C        C  244   4.376   2.965   2.906
    1C        C  245   4.336   2.906   3.028
    1C        C  246   4.440   3.091   3.149
    1C        C  247   4.375   2.965   3.150
    1C        C  248   4.459   3.161   3.271
    1C        C  249   4.433   3.099   3.395
    1C        C  250   4.495   3.305   3.516
    1C        C  251   4.460   3.168   3.515
    1C        C  252   4.504   3.376   3.638
    1C        C  253   4.498   3.308   3.762
    1C        C  254   4.524   3.518   3.879
    1C        C  255   4.516   3.377   3.884
    1C        C  256   4.521   3.590   4.001
    1C        C  257   4.521   3.522   4.125
    1C        C  258   4.492   3.736   4.245
    1C        C  259   4.513   3.597   4.245
    1C        C  260   4.474   3.807   4.366
    1C        C  261   4.491   3.736   4.487
    1C        C  262   4.430   3.942   4.604
    1C        C  263   4.480   3.810   4.608
    1C        C  264   4.400   4.012   4.723
    1C        C  265   4.440   3.954   4.846
    1C        C  266   4.325   4.136   4.960
    1C        C  267   4.403   4.021   4.963
    1C        C  268   4.260   2.778   2.065
    1C        C  269   4.194   2.735   2.181
    1C        C  270   4.347   2.889   2.301
    1C        C  271   4.255   2.781   2.300
    1C        C  272   4.382   2.956   2.420
    1C        C  273   4.339   2.897   2.541
    1C        C  274   4.445   3.082   2.662
    1C        C  275   4.377   2.958   2.663
    1C        C  276   4.473   3.153   2.781
    1C        C  277   4.438   3.092   2.904
    1C        C  278   4.497   3.294   3.026
    1C        C  279   4.465   3.157   3.027
    1C        C  280   4.508   3.366   3.148
    1C        C  281   4.493   3.298   3.271
    1C        C  282   4.520   3.511   3.393
    1C        C  283   4.504   3.371   3.391
    1C        C  284   4.521   3.586   3.513
    1C        C  285   4.516   3.516   3.636
    1C        C  286   4.493   3.727   3.753
    1C        C  287   4.517   3.588   3.757
    1C        C  288   4.472   3.794   3.876
    1C        C  289   4.496   3.729   3.999
    1C        C  290   4.429   3.933   4.119
    1C        C  291   4.479   3.801   4.120
    1C        C  292   4.398   4.002   4.239
    1C        C  293   4.425   3.939   4.362
    1C        C  294   4.328   4.130   4.481
    1C        C  295   4.398   4.007   4.483
    1C        C  296   4.282   4.188   4.601
    1C        C  297   4.321   4.130   4.724
    1C        C  298   4.202   4.317   4.840
    1C        C  299   4.285   4.200   4.842
    1C        C  300   4.171   4.403   4.950
    1C        C  301   4.352   2.882   2.065
    1C        C  302   4.475   3.067   2.178
    1C        C  303   4.400   2.945   2.181
    1C        C  304   4.483   3.145   2.296
    1C        C  305   4.452   3.078   2.416
    1C        C  306   4.508   3.282   2.540
    1C        C  307   4.475   3.144   2.539
    1C        C  308   4.518   3.359   2.658
    1C        C  309   4.502   3.291   2.781
    1C        C  310   4.517   3.502   2.901
    1C        C  311   4.517   3.360   2.903
    1C        C  312   4.510   3.572   3.023
    1C        C  313   4.515   3.507   3.148
    1C        C  314   4.490   3.719   3.266
    1C        C  315   4.512   3.579   3.269
    1C        C  316   4.479   3.791   3.387
    1C        C  317   4.496   3.725   3.510
    1C        C  318   4.425   3.928   3.629
    1C        C  319   4.476   3.796   3.631
    1C        C  320   4.395   3.991   3.752
    1C        C  321   4.426   3.928   3.874
    1C        C  322   4.319   4.112   3.994
    1C        C  323   4.398   3.995   3.996
    1C        C  324   4.277   4.171   4.115
    1C        C  325   4.322   4.121   4.239
    1C        C  326   4.185   4.286   4.355
    1C        C  327   4.283   4.185   4.359
    1C        C  328   4.136   4.340   4.476
    1C        C  329   4.189   4.294   4.599
    1C        C  330   4.025   4.437   4.718
    1C        C  331   4.140   4.353   4.717
    1C        C  332   3.971   4.492   4.836
    1C        C  333   4.052   4.478   4.949
    1C        C  334   4.556   3.268   2.062
    1C        C  335   4.533   3.130   2.064
    1C        C  336   4.531   3.350   2.173
    1C        C  337   4.513   3.285   2.296
    1C        C  338   4.517   3.496   2.412
    1C        C  339   4.519   3.355   2.419
    1C        C  340   4.518   3.568   2.533
    1C        C  341   4.527   3.500   2.656
    1C        C  342   4.490   3.710   2.775
    1C        C  343   4.517   3.571   2.778
    1C        C  344   4.478   3.780   2.897
    1C        C  345   4.492   3.712   3.020
    1C        C  346   4.426   3.916   3.137
    1C        C  347   4.475   3.784   3.141
    1C        C  348   4.393   3.980   3.259
    1C        C  349   4.430   3.924   3.384
    1C        C  350   4.324   4.109   3.504
    1C        C  351   4.398   3.989   3.505
    1C        C  352   4.277   4.166   3.624
    1C        C  353   4.320   4.111   3.747
    1C        C  354   4.180   4.267   3.868
    1C        C  355   4.282   4.169   3.870
    1C        C  356   4.125   4.318   3.988
    1C        C  357   4.179   4.273   4.111
    1C        C  358   4.011   4.404   4.234
    1C        C  359   4.128   4.325   4.231
    1C        C  360   3.954   4.449   4.355
    1C        C  361   4.019   4.419   4.477
    1C        C  362   3.829   4.521   4.594
    1C        C  363   3.958   4.463   4.596
    1C        C  364   3.765   4.554   4.715
    1C        C  365   3.840   4.545   4.835
    1C        C  366   3.628   4.590   4.952
    1C        C  367   3.766   4.574   4.950
    1C        C  368   4.508   3.565   2.052
    1C        C  369   4.518   3.491   2.170
    1C        C  370   4.501   3.707   2.289
    1C        C  371   4.513   3.566   2.290
    1C        C  372   4.483   3.780   2.409
    1C        C  373   4.494   3.707   2.530
    1C        C  374   4.429   3.910   2.652
    1C        C  375   4.476   3.777   2.652
    1C        C  376   4.404   3.978   2.773
    1C        C  377   4.435   3.915   2.895
    1C        C  378   4.325   4.100   3.013
    1C        C  379   4.402   3.982   3.015
    1C        C  380   4.282   4.158   3.134
    1C        C  381   4.322   4.102   3.258
    1C        C  382   4.177   4.256   3.379
    1C        C  383   4.281   4.161   3.380
    1C        C  384   4.125   4.308   3.500
    1C        C  385   4.181   4.270   3.624
    1C        C  386   4.007   4.389   3.743
    1C        C  387   4.126   4.314   3.746
    1C        C  388   3.944   4.425   3.864
    1C        C  389   4.006   4.394   3.987
    1C        C  390   3.818   4.485   4.109
    1C        C  391   3.949   4.433   4.110
    1C        C  392   3.754   4.521   4.230
    1C        C  393   3.826   4.509   4.351
    1C        C  394   3.619   4.557   4.475
    1C        C  395   3.758   4.534   4.472
    1C        C  396   3.547   4.566   4.596
    1C        C  397   3.625   4.567   4.714
    1C        C  398   3.413   4.551   4.840
    1C        C  399   3.552   4.578   4.835
    1C        C  400   3.346   4.518   4.959
    1C        C  401   4.507   3.704   2.055
    1C        C  402   4.449   3.917   2.168
    1C        C  403   4.490   3.782   2.170
    1C        C  404   4.408   3.980   2.288
    1C        C  405   4.434   3.912   2.409
    1C        C  406   4.331   4.100   2.527
    1C        C  407   4.398   3.975   2.530
    1C        C  408   4.283   4.155   2.648
    1C        C  409   4.323   4.094   2.769
    1C        C  410   4.179   4.253   2.889
    1C        C  411   4.278   4.152   2.890
    1C        C  412   4.122   4.295   3.011
    1C        C  413   4.174   4.250   3.135
    1C        C  414   4.002   4.374   3.253
    1C        C  415   4.122   4.299   3.256
    1C        C  416   3.942   4.408   3.376
    1C        C  417   4.006   4.384   3.500
    1C        C  418   3.810   4.469   3.622
    1C        C  419   3.943   4.421   3.621
    1C        C  420   3.745   4.496   3.744
    1C        C  421   3.814   4.481   3.866
    1C        C  422   3.609   4.534   3.987
    1C        C  423   3.748   4.506   3.989
    1C        C  424   3.543   4.547   4.111
    1C        C  425   3.615   4.547   4.233
    1C        C  426   3.403   4.552   4.357
    1C        C  427   3.544   4.556   4.355
    1C        C  428   3.332   4.548   4.479
    1C        C  429   3.406   4.556   4.599
    1C        C  430   3.197   4.519   4.724
    1C        C  431   3.337   4.544   4.722
    1C        C  432   3.127   4.496   4.846
    1C        C  433   3.208   4.500   4.960
    1C        C  434   4.379   4.124   2.050
    1C        C  435   4.448   4.002   2.056
    1C        C  436   4.304   4.170   2.163
    1C        C  437   4.337   4.103   2.284
    1C        C  438   4.187   4.254   2.403
    1C        C  439   4.289   4.157   2.405
    1C        C  440   4.127   4.299   2.523
    1C        C  441   4.183   4.255   2.645
    1C        C  442   4.009   4.376   2.769
    1C        C  443   4.130   4.303   2.767
    1C        C  444   3.942   4.412   2.888
    1C        C  445   4.005   4.374   3.009
    1C        C  446   3.810   4.463   3.134
    1C        C  447   3.941   4.408   3.130
    1C        C  448   3.745   4.490   3.256
    1C        C  449   3.812   4.463   3.378
    1C        C  450   3.607   4.524   3.499
    1C        C  451   3.744   4.489   3.499
    1C        C  452   3.539   4.539   3.622
    1C        C  453   3.608   4.531   3.745
    1C        C  454   3.395   4.540   3.867
    1C        C  455   3.536   4.542   3.867
    1C        C  456   3.331   4.526   3.992
    1C        C  457   3.402   4.539   4.114
    1C        C  458   3.193   4.504   4.238
    1C        C  459   3.331   4.533   4.236
    1C        C  460   3.126   4.490   4.362
    1C        C  461   3.195   4.517   4.482
    1C        C  462   2.999   4.434   4.606
    1C        C  463   3.128   4.493   4.604
    1C        C  464   2.932   4.403   4.726
    1C        C  465   2.994   4.442   4.848
    1C        C  466   2.807   4.338   4.959
    1C        C  467   2.905   4.438   4.959
    1C        C  468   4.124   4.292   2.044
    1C        C  469   4.185   4.250   2.163
    1C        C  470   4.006   4.373   2.281
    1C        C  471   4.128   4.300   2.283
    1C        C  472   3.941   4.402   2.403
    1C        C  473   4.007   4.373   2.525
    1C        C  474   3.816   4.465   2.646
    1C        C  475   3.946   4.409   2.647
    1C        C  476   3.744   4.484   2.766
    1C        C  477   3.810   4.463   2.889
    1C        C  478   3.605   4.510   3.011
    1C        C  479   3.744   4.486   3.012
    1C        C  480   3.534   4.523   3.133
    1C        C  481   3.606   4.517   3.254
    1C        C  482   3.395   4.528   3.378
    1C        C  483   3.536   4.527   3.377
    1C        C  484   3.327   4.529   3.502
    1C        C  485   3.398   4.542   3.624
    1C        C  486   3.188   4.503   3.749
    1C        C  487   3.325   4.537   3.745
    1C        C  488   3.125   4.481   3.873
    1C        C  489   3.192   4.501   3.996
    1C        C  490   2.998   4.416   4.115
    1C        C  491   3.122   4.483   4.118
    1C        C  492   2.940   4.388   4.241
    1C        C  493   3.001   4.425   4.363
    1C        C  494   2.831   4.301   4.484
    1C        C  495   2.941   4.389   4.486
    1C        C  496   2.775   4.256   4.606
    1C        C  497   2.821   4.314   4.726
    1C        C  498   2.665   4.167   4.842
    1C        C  499   2.755   4.276   4.845
    1C        C  500   2.600   4.119   4.956
    1C        C  501   4.001   4.357   2.044
    1C        C  502   3.813   4.463   2.157
    1C        C  503   3.944   4.411   2.160
    1C        C  504   3.745   4.477   2.280
    1C        C  505   3.808   4.450   2.403
    1C        C  506   3.605   4.504   2.522
    1C        C  507   3.744   4.476   2.525
    1C        C  508   3.533   4.512   2.644
    1C        C  509   3.605   4.511   2.765
    1C        C  510   3.395   4.522   2.889
    1C        C  511   3.537   4.520   2.888
    1C        C  512   3.322   4.521   3.009
    1C        C  513   3.393   4.534   3.130
    1C        C  514   3.188   4.500   3.257
    1C        C  515   3.327   4.529   3.255
    1C        C  516   3.123   4.476   3.380
    1C        C  517   3.188   4.501   3.503
    1C        C  518   2.995   4.418   3.625
    1C        C  519   3.122   4.480   3.626
    1C        C  520   2.936   4.382   3.748
    1C        C  521   2.998   4.417   3.869
    1C        C  522   2.832   4.288   3.996
    1C        C  523   2.940   4.379   3.992
    1C        C  524   2.786   4.239   4.121
    1C        C  525   2.833   4.295   4.241
    1C        C  526   2.698   4.132   4.365
    1C        C  527   2.784   4.244   4.363
    1C        C  528   2.651   4.077   4.487
    1C        C  529   2.688   4.144   4.605
    1C        C  530   2.588   3.957   4.731
    1C        C  531   2.647   4.086   4.727
    1C        C  532   2.541   3.902   4.853
    1C        C  533   2.534   3.995   4.961
    1C        C  534   3.613   4.554   2.042
    1C        C  535   3.746   4.509   2.043
    1C        C  536   3.535   4.532   2.160
    1C        C  537   3.607   4.513   2.280
    1C        C  538   3.393   4.517   2.402
    1C        C  539   3.534   4.518   2.401
    1C        C  540   3.320   4.513   2.523
    1C        C  541   3.392   4.516   2.644
    1C        C  542   3.184   4.487   2.767
    1C        C  543   3.323   4.514   2.768
    1C        C  544   3.117   4.472   2.890
    1C        C  545   3.183   4.496   3.013
    1C        C  546   2.993   4.409   3.138
    1C        C  547   3.118   4.474   3.137
    1C        C  548   2.935   4.371   3.261
    1C        C  549   2.998   4.411   3.381
    1C        C  550   2.825   4.288   3.507
    1C        C  551   2.937   4.374   3.503
    1C        C  552   2.776   4.237   3.629
    1C        C  553   2.828   4.290   3.749
    1C        C  554   2.701   4.125   3.877
    1C        C  555   2.782   4.241   3.873
    1C        C  556   2.665   4.063   3.998
    1C        C  557   2.701   4.126   4.120
    1C        C  558   2.606   3.940   4.244
    1C        C  559   2.665   4.068   4.243
    1C        C  560   2.571   3.879   4.367
    1C        C  561   2.591   3.949   4.488
    1C        C  562   2.532   3.748   4.615
    1C        C  563   2.566   3.885   4.611
    1C        C  564   2.517   3.679   4.738
    1C        C  565   2.521   3.760   4.855
    1C        C  566   2.536   3.545   4.979
    1C        C  567   2.532   3.684   4.972
    1C        C  568   3.329   4.474   2.039
    1C        C  569   3.394   4.510   2.158
    1C        C  570   3.183   4.480   2.280
    1C        C  571   3.322   4.511   2.280
    1C        C  572   3.116   4.460   2.402
    1C        C  573   3.180   4.489   2.525
    1C        C  574   2.985   4.406   2.649
    1C        C  575   3.112   4.468   2.647
    1C        C  576   2.927   4.370   2.773
    1C        C  577   2.993   4.404   2.893
    1C        C  578   2.826   4.277   3.018
    1C        C  579   2.935   4.367   3.016
    1C        C  580   2.780   4.226   3.141
    1C        C  581   2.828   4.278   3.263
    1C        C  582   2.697   4.116   3.386
    1C        C  583   2.777   4.232   3.386
    1C        C  584   2.663   4.057   3.509
    1C        C  585   2.700   4.118   3.631
    1C        C  586   2.603   3.934   3.754
    1C        C  587   2.668   4.060   3.756
    1C        C  588   2.577   3.872   3.878
    1C        C  589   2.604   3.936   4.001
    1C        C  590   2.542   3.735   4.127
    1C        C  591   2.578   3.872   4.124
    1C        C  592   2.523   3.671   4.252
    1C        C  593   2.536   3.743   4.372
    1C        C  594   2.518   3.533   4.499
    1C        C  595   2.521   3.674   4.495
    1C        C  596   2.520   3.464   4.622
    1C        C  597   2.518   3.537   4.744
    1C        C  598   2.533   3.324   4.864
    1C        C  599   2.525   3.465   4.865
    1C        C  600   2.535   3.246   4.981
    1C        C  601   3.195   4.441   2.042
    1C        C  602   2.987   4.385   2.161
    1C        C  603   3.119   4.440   2.159
    1C        C  604   2.926   4.359   2.286
    1C        C  605   2.989   4.399   2.406
    1C        C  606   2.817   4.275   2.530
    1C        C  607   2.928   4.362   2.528
    1C        C  608   2.768   4.226   2.653
    1C        C  609   2.821   4.277   2.774
    1C        C  610   2.691   4.112   2.896
    1C        C  611   2.773   4.227   2.897
    1C        C  612   2.653   4.054   3.019
    1C        C  613   2.691   4.116   3.140
    1C        C  614   2.602   3.926   3.265
    1C        C  615   2.656   4.056   3.264
    1C        C  616   2.578   3.863   3.389
    1C        C  617   2.608   3.926   3.512
    1C        C  618   2.536   3.728   3.638
    1C        C  619   2.578   3.863   3.635
    1C        C  620   2.522   3.662   3.763
    1C        C  621   2.535   3.737   3.882
    1C        C  622   2.513   3.526   4.011
    1C        C  623   2.527   3.667   4.004
    1C        C  624   2.515   3.456   4.134
    1C        C  625   2.515   3.530   4.254
    1C        C  626   2.537   3.321   4.380
    1C        C  627   2.517   3.461   4.378
    1C        C  628   2.562   3.253   4.501
    1C        C  629   2.542   3.325   4.621
    1C        C  630   2.592   3.117   4.748
    1C        C  631   2.554   3.254   4.743
    1C        C  632   2.616   3.046   4.869
    1C        C  633   2.556   3.108   4.983
    1C        C  634   2.786   4.300   2.053
    1C        C  635   2.897   4.386   2.050
    1C        C  636   2.743   4.234   2.169
    1C        C  637   2.809   4.277   2.286
    1C        C  638   2.675   4.115   2.411
    1C        C  639   2.762   4.226   2.409
    1C        C  640   2.640   4.053   2.533
    1C        C  641   2.681   4.115   2.654
    1C        C  642   2.588   3.924   2.777
    1C        C  643   2.647   4.052   2.776
    1C        C  644   2.570   3.857   2.900
    1C        C  645   2.596   3.925   3.022
    1C        C  646   2.529   3.724   3.147
    1C        C  647   2.575   3.857   3.144
    1C        C  648   2.522   3.655   3.271
    1C        C  649   2.538   3.728   3.391
    1C        C  650   2.511   3.521   3.517
    1C        C  651   2.521   3.662   3.514
    1C        C  652   2.514   3.454   3.641
    1C        C  653   2.516   3.521   3.766
    1C        C  654   2.532   3.313   3.890
    1C        C  655   2.515   3.454   3.890
    1C        C  656   2.549   3.247   4.014
    1C        C  657   2.536   3.316   4.136
    1C        C  658   2.605   3.117   4.260
    1C        C  659   2.554   3.249   4.259
    1C        C  660   2.634   3.053   4.382
    1C        C  661   2.603   3.118   4.503
    1C        C  662   2.707   2.937   4.628
    1C        C  663   2.630   3.055   4.627
    1C        C  664   2.753   2.878   4.748
    1C        C  665   2.701   2.931   4.869
    1C        C  666   2.747   2.869   4.986
    1C        C  667   2.679   4.023   2.058
    1C        C  668   2.681   4.107   2.170
    1C        C  669   2.587   3.916   2.291
    1C        C  670   2.640   4.048   2.292
    1C        C  671   2.564   3.851   2.414
    1C        C  672   2.588   3.922   2.534
    1C        C  673   2.520   3.721   2.660
    1C        C  674   2.559   3.857   2.656
    1C        C  675   2.509   3.653   2.783
    1C        C  676   2.528   3.723   2.904
    1C        C  677   2.511   3.511   3.029
    1C        C  678   2.515   3.653   3.026
    1C        C  679   2.510   3.441   3.151
    1C        C  680   2.512   3.514   3.272
    1C        C  681   2.533   3.308   3.403
    1C        C  682   2.513   3.447   3.397
    1C        C  683   2.551   3.241   3.526
    1C        C  684   2.532   3.313   3.646
    1C        C  685   2.600   3.113   3.770
    1C        C  686   2.548   3.244   3.768
    1C        C  687   2.630   3.051   3.893
    1C        C  688   2.601   3.116   4.015
    1C        C  689   2.712   2.936   4.138
    1C        C  690   2.635   3.054   4.137
    1C        C  691   2.750   2.877   4.261
    1C        C  692   2.710   2.934   4.384
    1C        C  693   2.757   2.883   4.507
    1C        C  694   2.622   3.896   2.055
    1C        C  695   2.523   3.708   2.179
    1C        C  696   2.573   3.839   2.174
    1C        C  697   2.505   3.639   2.301
    1C        C  698   2.523   3.716   2.418
    1C        C  699   2.496   3.506   2.545
    1C        C  700   2.512   3.646   2.540
    1C        C  701   2.500   3.437   2.668
    1C        C  702   2.500   3.512   2.789
    1C        C  703   2.525   3.297   2.911
    1C        C  704   2.506   3.437   2.908
    1C        C  705   2.549   3.233   3.034
    1C        C  706   2.536   3.303   3.157
    1C        C  707   2.596   3.104   3.280
    1C        C  708   2.549   3.237   3.281
    1C        C  709   2.627   3.042   3.404
    1C        C  710   2.602   3.109   3.526
    1C        C  711   2.709   2.928   3.648
    1C        C  712   2.634   3.047   3.649
    1C        C  713   2.756   2.879   3.773
    1C        C  714   2.708   2.933   3.894
    1C        C  715   2.749   2.874   4.016
    1C        C  716   2.451   3.501   2.064
    1C        C  717   2.497   3.634   2.063
    1C        C  718   2.471   3.425   2.183
    1C        C  719   2.481   3.499   2.304
    1C        C  720   2.517   3.292   2.426
    1C        C  721   2.481   3.429   2.427
    1C        C  722   2.541   3.226   2.549
    1C        C  723   2.528   3.299   2.669
    1C        C  724   2.591   3.094   2.793
    1C        C  725   2.539   3.226   2.789
    1C        C  726   2.624   3.033   2.916
    1C        C  727   2.593   3.099   3.037
    1C        C  728   2.708   2.922   3.159
    1C        C  729   2.628   3.037   3.160
    1C        C  730   2.747   2.868   3.283
    1C        C  731   2.703   2.923   3.406
    1C        C  732   2.750   2.868   3.527
    1C        C  733   2.489   3.202   2.072
    1C        C  734   2.496   3.284   2.186
    1C        C  735   2.579   3.084   2.305
    1C        C  736   2.531   3.218   2.307
    1C        C  737   2.612   3.025   2.429
    1C        C  738   2.592   3.095   2.550
    1C        C  739   2.695   2.909   2.668
    1C        C  740   2.622   3.030   2.672
    1C        C  741   2.740   2.855   2.791
    1C        C  742   2.699   2.913   2.913
    1C        C  743   2.749   2.864   3.036
    1C        C  744   2.546   3.075   2.072
    1C        C  745   2.687   2.901   2.186
    1C        C  746   2.608   3.017   2.184
    1C        C  747   2.732   2.845   2.308
    1C        C  748   2.688   2.906   2.428
    1C        C  749   2.733   2.846   2.548
    1C        C  750   2.737   2.843   2.069
    1C        C  751   3.654   2.293   2.001
    1C        O  752   3.639   2.182   2.058
    1C        O  753   3.720   2.272   1.879
    1C        C  754   4.615   3.055   1.965
    1C        O  755   4.563   3.020   1.856
    1C        O  756   4.751   3.087   1.964
    1C        C  757   4.426   4.207   1.937
    1C        O  758   4.512   4.298   1.940
    1C        O  759   4.369   4.193   1.809
    1C        C  760   3.569   4.639   1.929
    1C        O  761   3.580   4.764   1.924
    1C        O  762   3.572   4.604   1.793
    1C        C  763   2.870   4.492   1.950
    1C        O  764   2.910   4.498   1.831
    1C        O  765   2.799   4.606   1.989
    1C        C  766   2.334   3.494   1.974
    1C        O  767   2.343   3.512   1.849
    1C        O  768   2.212   3.543   2.022
    1C        C  769   4.677   3.591   5.069
    1C        O  770   4.645   3.554   5.185
    1C        O  771   4.813   3.618   5.045
    1C        C  772   4.273   4.455   5.044
    1C        O  773   4.252   4.448   5.168
    1C        O  774   4.385   4.534   5.015
    1C        C  775   4.159   2.505   5.042
    1C        O  776   4.159   2.380   5.026
    1C        O  777   4.226   2.535   5.161
    1C        C  778   2.882   4.555   5.047
    1C        O  779   2.814   4.655   5.011
    1C        O  780   2.937   4.568   5.175
    1C        C  781   2.461   3.036   5.071
    1C        O  782   2.348   3.017   5.021
    1C        O  783   2.462   3.045   5.210
    1C        C  784   2.406   4.007   5.036
    1C        O  785   2.298   4.059   4.997
    1C        O  786   2.394   3.959   5.167
    1C        C  787   2.943   2.436   2.003
    1C        O  788   2.935   2.466   1.881
    1C        O  789   2.841   2.359   2.056
    1C        C  790   3.196   2.403   5.090
    1C        O  791   3.126   2.300   5.106
    1C        O  792   3.255   2.446   5.210
    1C        H  793   4.278   3.035   5.055
    1C        H  794   4.217   2.794   5.074
    1C        H  795   4.502   3.130   5.060
    1C        H  796   4.470   3.379   5.059
    1C        H  797   4.592   3.821   5.030
    1C        H  798   4.440   3.979   5.054
    1C        H  799   4.244   4.132   5.030
    1C        H  800   4.016   4.503   5.046
    1C        H  801   3.812   4.559   5.046
    1C        H  802   3.577   4.608   5.044
    1C        H  803   3.399   4.481   5.044
    1C        H  804   3.163   4.547   5.045
    1C        H  805   3.887   2.493   5.069
    1C        H  806   3.679   2.504   5.073
    1C        H  807   3.058   2.624   5.066
    1C        H  808   3.447   2.433   5.069
    1C        H  809   2.872   2.726   5.082
    1C        H  810   2.720   2.910   5.081
    1C        H  811   2.517   3.291   5.076
    1C        H  812   2.499   3.498   5.067
    1C        H  813   2.574   3.735   5.057
    1C        H  814   2.593   4.183   5.041
    1C        H  815   2.789   4.294   5.055
    1C        H  816   2.718   2.881   1.971
    1C        H  817   2.858   2.699   1.975
    1C        H  818   3.212   2.442   1.987
    1C        H  819   3.432   2.437   1.975
    1C        H  820   3.852   2.538   1.967
    1C        H  821   4.056   2.642   1.970
    1C        H  822   4.237   2.739   1.968
    1C        H  823   4.380   2.923   1.970
    1C        H  824   4.600   3.312   1.975
    1C        H  825   4.460   3.521   1.967
    1C        H  826   4.548   3.754   1.970
    1C        H  827   3.803   4.549   1.962
    1C        H  828   3.975   4.400   1.949
    1C        H  829   4.185   4.314   1.960
    1C        H  830   4.530   3.993   1.989
    1C        H  831   2.619   3.844   1.961
    1C        H  832   2.717   4.058   1.964
    1C        H  833   2.733   4.283   1.962
    1C        H  834   3.367   4.495   1.942
    1C        H  835   3.151   4.419   1.946
    1C        H  836   2.516   3.010   1.992
    1C        H  837   2.393   3.198   2.026
    1C        H  838   2.565   3.652   1.982
    2V3OU   H29  839   2.807   3.552   5.062
    2V3OU   C27  840   2.785   3.503   5.160
    2V3OU   H27  841   2.725   3.569   5.227
    2V3OU   H28  842   2.728   3.407   5.151
    2V3OU   O11  843   2.909   3.469   5.224
    2V3OU   C15  844   2.920   3.403   5.345
    2V3OU   C13  845   3.052   3.373   5.382
    2V3OU   C14  846   3.081   3.265   5.467
    2V3OU   C16  847   2.973   3.190   5.511
    2V3OU    H6  848   2.993   3.103   5.576
    2V3OU   C12  849   3.217   3.229   5.512
    2V3OU    O2  850   3.236   3.116   5.561
    2V3OU   C10  851   3.329   3.307   5.457
    2V3OU    C8  852   3.462   3.271   5.481
    2V3OU   O10  853   3.487   3.145   5.525
    2V3OU   H26  854   3.398   3.117   5.553
    2V3OU    C6  855   3.567   3.353   5.429
    2V3OU    C5  856   3.538   3.471   5.362
    2V3OU    C4  857   3.705   3.296   5.437
    2V3OU    H4  858   3.723   3.235   5.530
    2V3OU    H5  859   3.713   3.224   5.350
    2V3OU    C2  860   3.817   3.399   5.426
    2V3OU    O6  861   3.800   3.473   5.547
    2V3OU   H21  862   3.766   3.557   5.513
    2V3OU    C3  863   3.787   3.494   5.310
    2V3OU    H2  864   3.869   3.569   5.302
    2V3OU    H3  865   3.786   3.437   5.214
    2V3OU   C25  866   3.952   3.332   5.398
    2V3OU    O7  867   3.992   3.294   5.288
    2V3OU   C26  868   4.033   3.287   5.518
    2V3OU   H22  869   4.071   3.383   5.561
    2V3OU   H23  870   4.122   3.227   5.483
    2V3OU    O8  871   3.964   3.205   5.609
    2V3OU   H24  872   3.926   3.270   5.670
    2V3OU    C1  873   3.651   3.562   5.324
    2V3OU    H1  874   3.630   3.615   5.227
    2V3OU    O3  875   3.661   3.657   5.431
    2V3OU   C19  876   3.620   3.792   5.413
    2V3OU    H9  877   3.523   3.806   5.357
    2V3OU    O4  878   3.717   3.846   5.326
    2V3OU   C20  879   3.850   3.878   5.371
    2V3OU   H10  880   3.905   3.782   5.394
    2V3OU   C24  881   3.613   3.861   5.550
    2V3OU   H16  882   3.551   3.796   5.618
    2V3OU   H17  883   3.563   3.960   5.531
    2V3OU   C23  884   3.755   3.875   5.604
    2V3OU   H15  885   3.796   3.770   5.619
    2V3OU    N1  886   3.739   3.953   5.725
    2V3OU   H19  887   3.809   3.925   5.791
    2V3OU   H20  888   3.651   3.933   5.768
    2V3OU   C21  889   3.850   3.950   5.505
    2V3OU   H11  890   3.952   3.930   5.550
    2V3OU    O5  891   3.829   4.090   5.510
    2V3OU   H18  892   3.786   4.106   5.596
    2V3OU   C22  893   3.916   3.950   5.254
    2V3OU   H12  894   3.863   4.048   5.240
    2V3OU   H13  895   3.905   3.891   5.160
    2V3OU   H14  896   4.026   3.961   5.272
    2V3OU   C11  897   3.162   3.470   5.364
    2V3OU    O1  898   3.139   3.585   5.322
    2V3OU    C9  899   3.301   3.426   5.385
    2V3OU    C7  900   3.403   3.506   5.333
    2V3OU    O9  901   3.387   3.616   5.252
    2V3OU   H25  902   3.292   3.633   5.241
    2V3OU   C17  903   2.818   3.320   5.396
    2V3OU    H7  904   2.719   3.349   5.359
    2V3OU   C18  905   2.839   3.213   5.482
    2V3OU    H8  906   2.754   3.152   5.516
    3SOL     OW  907   3.878   4.079   4.369
    3SOL    HW1  908   3.840   4.076   4.461
    3SOL    HW2  909   3.935   3.999   4.354
    4SOL     OW  910   6.182   0.020   0.193
    4SOL    HW1  911   6.092   0.052   0.162
    4SOL    HW2  912   6.249   0.094   0.182
    5SOL     OW  913   4.576   1.329   1.242
    5SOL    HW1  914   4.514   1.256   1.272
    5SOL    HW2  915   4.540   1.371   1.159
    6SOL     OW  916   5.347   0.496   2.182
    6SOL    HW1  917   5.293   0.553   2.120
    6SOL    HW2  918   5.306   0.498   2.273
    7SOL     OW  919   2.426   4.366   3.076
    7SOL    HW1  920   2.460   4.408   3.160
    7SOL    HW2  921   2.486   4.291   3.049
    8SOL     OW  922   1.874   3.382   5.626
    8SOL    HW1  923   1.788   3.406   5.671
    8SOL    HW2  924   1.856   3.319   5.551
    9SOL     OW  925   5.972   1.054   6.607
    9SOL    HW1  926   5.874   1.065   6.625
    9SOL    HW2  927   5.990   0.959   6.581
   10SOL     OW  928   4.704   5.170   3.439
   10SOL    HW1  929   4.788   5.222   3.455
   10SOL    HW2  930   4.725   5.073   3.439
   11SOL     OW  931   2.351   0.847   0.700
   11SOL    HW1  932   2.267   0.886   0.739
   11SOL    HW2  933   2.378   0.767   0.754
   12SOL     OW  934   3.008   5.150   3.381
   12SOL    HW1  935   3.078   5.096   3.428
   12SOL    HW2  936   3.051   5.225   3.331
   13SOL     OW  937   4.484   6.186   1.577
   13SOL    HW1  938   4.388   6.191   1.605
   13SOL    HW2  939   4.542   6.189   1.659
   14SOL     OW  940   4.394   5.252   4.835
   14SOL    HW1  941   4.312   5.307   4.849
   14SOL    HW2  942   4.474   5.304   4.865
   15SOL     OW  943   6.854   5.661   6.266
   15SOL    HW1  944   6.864   5.761   6.267
   15SOL    HW2  945   6.766   5.637   6.226
   16SOL     OW  946   0.696   3.792   5.364
   16SOL    HW1  947   0.687   3.711   5.305
   16SOL    HW2  948   0.762   3.772   5.437
   17SOL     OW  949   6.158   1.180   5.231
   17SOL    HW1  950   6.133   1.184   5.328
   17SOL    HW2  951   6.254   1.207   5.220
   18SOL     OW  952   3.381   0.759   5.782
   18SOL    HW1  953   3.407   0.803   5.869
   18SOL    HW2  954   3.459   0.762   5.720
   19SOL     OW  955   1.502   1.320   3.372
   19SOL    HW1  956   1.424   1.362   3.325
   19SOL    HW2  957   1.536   1.242   3.319
   20SOL     OW  958   5.743   2.077   5.465
   20SOL    HW1  959   5.662   2.023   5.442
   20SOL    HW2  960   5.748   2.158   5.406
   21SOL     OW  961   2.541   5.053   2.574
   21SOL    HW1  962   2.536   5.117   2.498
   21SOL    HW2  963   2.499   5.095   2.655
   22SOL     OW  964   1.824   6.023   5.811
   22SOL    HW1  965   1.788   6.007   5.720
   22SOL    HW2  966   1.889   6.100   5.809
   23SOL     OW  967   5.208   4.116   2.005
   23SOL    HW1  968   5.221   4.213   1.987
   23SOL    HW2  969   5.290   4.079   2.049
   24SOL     OW  970   4.527   1.094   1.741
   24SOL    HW1  971   4.466   1.119   1.666
   24SOL    HW2  972   4.511   0.999   1.766
   25SOL     OW  973   2.242   0.401   3.896
   25SOL    HW1  974   2.332   0.371   3.927
   25SOL    HW2  975   2.171   0.343   3.936
   26SOL     OW  976   1.043   3.190   6.920
   26SOL    HW1  977   1.053   3.189   6.820
   26SOL    HW2  978   1.130   3.215   6.962
   27SOL     OW  979   6.754   1.354   1.047
   27SOL    HW1  980   6.699   1.434   1.071
   27SOL    HW2  981   6.827   1.343   1.114
   28SOL     OW  982   2.814   0.823   4.781
   28SOL    HW1  983   2.869   0.868   4.710
   28SOL    HW2  984   2.866   0.747   4.820
   29SOL     OW  985   6.945   0.454   0.777
   29SOL    HW1  986   6.882   0.509   0.832
   29SOL    HW2  987   6.964   0.502   0.691
   30SOL     OW  988   4.195   0.463   4.899
   30SOL    HW1  989   4.167   0.379   4.851
   30SOL    HW2  990   4.219   0.440   4.993
   31SOL     OW  991   1.138   3.405   4.787
   31SOL    HW1  992   1.153   3.490   4.737
   31SOL    HW2  993   1.086   3.424   4.870
   32SOL     OW  994   2.046   0.106   1.034
   32SOL    HW1  995   1.994   0.174   1.087
   32SOL    HW2  996   2.090   0.151   0.957
   33SOL     OW  997   0.524   5.237   5.933
   33SOL    HW1  998   0.606   5.180   5.923
   33SOL    HW2  999   0.550   5.326   5.972
   34SOL     OW 1000   2.379   5.391   5.151
   34SOL    HW1 1001   2.371   5.485   5.185
   34SOL    HW2 1002   2.408   5.331   5.225
   35SOL     OW 1003   3.430   3.014   0.510
   35SOL    HW1 1004   3.335   3.026   0.479
   35SOL    HW2 1005   3.443   2.920   0.540
   36SOL     OW 1006   4.943   0.864   4.363
   36SOL    HW1 1007   4.961   0.818   4.275
   36SOL    HW2 1008   4.953   0.798   4.437
   37SOL     OW 1009   2.521   0.828   3.699
   37SOL    HW1 1010   2.587   0.885   3.650
   37SOL    HW2 1011   2.454   0.791   3.635
   38SOL     OW 1012   0.437   4.608   2.290
   38SOL    HW1 1013   0.346   4.636   2.319
   38SOL    HW2 1014   0.494   4.594   2.371
   39SOL     OW 1015   6.638   5.388   5.955
   39SOL    HW1 1016   6.655   5.469   5.898
   39SOL    HW2 1017   6.721   5.332   5.959
   40SOL     OW 1018   3.974   0.759   5.986
   40SOL    HW1 1019   3.884   0.785   5.951
   40SOL    HW2 1020   4.045   0.792   5.925
   41SOL     OW 1021   6.085   4.004   1.618
   41SOL    HW1 1022   6.067   4.095   1.582
   41SOL    HW2 1023   6.079   3.937   1.544
   42SOL     OW 1024   2.339   5.973   6.022
   42SOL    HW1 1025   2.339   6.030   5.940
   42SOL    HW2 1026   2.270   6.006   6.086
   43SOL     OW 1027   4.733   6.671   4.319
   43SOL    HW1 1028   4.826   6.659   4.356
   43SOL    HW2 1029   4.705   6.766   4.333
   44SOL     OW 1030   6.219   1.678   5.891
   44SOL    HW1 1031   6.248   1.731   5.971
   44SOL    HW2 1032   6.124   1.700   5.869
   45SOL     OW 1033   3.452   4.949   0.236
   45SOL    HW1 1034   3.412   4.978   0.149
   45SOL    HW2 1035   3.447   4.849   0.244
   46SOL     OW 1036   0.675   2.862   4.471
   46SOL    HW1 1037   0.666   2.916   4.554
   46SOL    HW2 1038   0.736   2.910   4.407
   47SOL     OW 1039   5.758   3.171   1.450
   47SOL    HW1 1040   5.778   3.083   1.406
   47SOL    HW2 1041   5.685   3.159   1.517
   48SOL     OW 1042   6.594   3.658   0.580
   48SOL    HW1 1043   6.530   3.674   0.504
   48SOL    HW2 1044   6.676   3.613   0.545
   49SOL     OW 1045   4.190   3.227   0.130
   49SOL    HW1 1046   4.203   3.311   0.184
   49SOL    HW2 1047   4.170   3.252   0.035
   50SOL     OW 1048   6.642   3.668   6.295
   50SOL    HW1 1049   6.649   3.640   6.391
   50SOL    HW2 1050   6.666   3.590   6.237
   51SOL     OW 1051   2.551   5.977   2.941
   51SOL    HW1 1052   2.554   5.911   2.865
   51SOL    HW2 1053   2.461   6.020   2.944
   52SOL     OW 1054   5.784   2.888   1.478
   52SOL    HW1 1055   5.879   2.857   1.482
   52SOL    HW2 1056   5.737   2.862   1.562
   53SOL     OW 1057   3.699   0.596   2.374
   53SOL    HW1 1058   3.748   0.682   2.356
   53SOL    HW2 1059   3.761   0.519   2.360
   54SOL     OW 1060   5.417   6.851   0.414
   54SOL    HW1 1061   5.377   6.937   0.444
   54SOL    HW2 1062   5.370   6.775   0.459
   55SOL     OW 1063   1.145   3.377   6.238
   55SOL    HW1 1064   1.196   3.291   6.238
   55SOL    HW2 1065   1.149   3.419   6.148
   56SOL     OW 1066   1.181   2.473   6.783
   56SOL    HW1 1067   1.221   2.385   6.756
   56SOL    HW2 1068   1.239   2.547   6.750
   57SOL     OW 1069   4.649   0.742   6.840
   57SOL    HW1 1070   4.711   0.689   6.783
   57SOL    HW2 1071   4.607   0.682   6.908
   58SOL     OW 1072   0.768   0.341   6.061
   58SOL    HW1 1073   0.833   0.338   6.137
   58SOL    HW2 1074   0.674   0.336   6.097
   59SOL     OW 1075   5.270   3.315   5.898
   59SOL    HW1 1076   5.321   3.385   5.949
   59SOL    HW2 1077   5.332   3.270   5.834
   60SOL     OW 1078   5.411   0.181   2.610
   60SOL    HW1 1079   5.412   0.264   2.555
   60SOL    HW2 1080   5.485   0.184   2.677
   61SOL     OW 1081   6.742   6.931   5.237
   61SOL    HW1 1082   6.802   7.009   5.222
   61SOL    HW2 1083   6.784   6.868   5.302
   62SOL     OW 1084   0.239   2.206   2.235
   62SOL    HW1 1085   0.228   2.277   2.305
   62SOL    HW2 1086   0.304   2.237   2.166
   63SOL     OW 1087   4.349   6.041   4.883
   63SOL    HW1 1088   4.260   6.071   4.850
   63SOL    HW2 1089   4.375   5.957   4.836
   64SOL     OW 1090   0.930   4.434   0.201
   64SOL    HW1 1091   0.930   4.420   0.300
   64SOL    HW2 1092   0.853   4.385   0.160
   65SOL     OW 1093   0.727   0.108   5.409
   65SOL    HW1 1094   0.755   0.013   5.423
   65SOL    HW2 1095   0.701   0.148   5.496
   66SOL     OW 1096   4.367   0.722   2.510
   66SOL    HW1 1097   4.298   0.783   2.471
   66SOL    HW2 1098   4.427   0.774   2.572
   67SOL     OW 1099   0.884   2.266   0.727
   67SOL    HW1 1100   0.884   2.241   0.824
   67SOL    HW2 1101   0.977   2.262   0.691
   68SOL     OW 1102   6.718   2.347   5.728
   68SOL    HW1 1103   6.723   2.299   5.640
   68SOL    HW2 1104   6.790   2.312   5.789
   69SOL     OW 1105   0.580   4.909   6.240
   69SOL    HW1 1106   0.558   4.838   6.307
   69SOL    HW2 1107   0.679   4.911   6.225
   70SOL     OW 1108   5.472   3.157   4.306
   70SOL    HW1 1109   5.406   3.232   4.299
   70SOL    HW2 1110   5.549   3.174   4.245
   71SOL     OW 1111   4.585   1.709   3.961
   71SOL    HW1 1112   4.659   1.776   3.962
   71SOL    HW2 1113   4.568   1.679   3.868
   72SOL     OW 1114   0.321   0.772   3.653
   72SOL    HW1 1115   0.383   0.732   3.720
   72SOL    HW2 1116   0.372   0.794   3.569
   73SOL     OW 1117   2.876   0.810   1.209
   73SOL    HW1 1118   2.909   0.871   1.281
   73SOL    HW2 1119   2.820   0.862   1.144
   74SOL     OW 1120   1.797   2.498   0.314
   74SOL    HW1 1121   1.861   2.521   0.387
   74SOL    HW2 1122   1.811   2.402   0.286
   75SOL     OW 1123   4.141   2.641   0.310
   75SOL    HW1 1124   4.121   2.717   0.373
   75SOL    HW2 1125   4.239   2.630   0.301
   76SOL     OW 1126   3.395   4.691   5.244
   76SOL    HW1 1127   3.306   4.718   5.279
   76SOL    HW2 1128   3.444   4.771   5.209
   77SOL     OW 1129   1.584   4.197   4.446
   77SOL    HW1 1130   1.520   4.126   4.476
   77SOL    HW2 1131   1.649   4.159   4.380
   78SOL     OW 1132   4.961   1.904   1.028
   78SOL    HW1 1133   4.863   1.921   1.017
   78SOL    HW2 1134   4.974   1.834   1.099
   79SOL     OW 1135   1.953   5.145   2.541
   79SOL    HW1 1136   1.889   5.124   2.466
   79SOL    HW2 1137   2.028   5.078   2.539
   80SOL     OW 1138   4.620   2.046   4.492
   80SOL    HW1 1139   4.668   2.015   4.574
   80SOL    HW2 1140   4.626   2.146   4.485
   81SOL     OW 1141   2.998   5.657   1.500
   81SOL    HW1 1142   2.900   5.652   1.483
   81SOL    HW2 1143   3.044   5.582   1.451
   82SOL     OW 1144   1.449   5.974   1.409
   82SOL    HW1 1145   1.444   5.915   1.328
   82SOL    HW2 1146   1.413   6.065   1.387
   83SOL     OW 1147   5.142   1.276   4.632
   83SOL    HW1 1148   5.058   1.238   4.593
   83SOL    HW2 1149   5.146   1.253   4.729
   84SOL     OW 1150   5.774   2.436   2.652
   84SOL    HW1 1151   5.813   2.406   2.565
   84SOL    HW2 1152   5.773   2.360   2.716
   85SOL     OW 1153   2.022   0.611   3.926
   85SOL    HW1 1154   2.106   0.570   3.961
   85SOL    HW2 1155   1.980   0.666   3.998
   86SOL     OW 1156   5.456   0.603   6.598
   86SOL    HW1 1157   5.398   0.523   6.584
   86SOL    HW2 1158   5.399   0.684   6.614
   87SOL     OW 1159   3.049   4.161   0.211
   87SOL    HW1 1160   2.976   4.093   0.204
   87SOL    HW2 1161   3.121   4.127   0.271
   88SOL     OW 1162   3.096   3.531   6.838
   88SOL    HW1 1163   3.113   3.629   6.825
   88SOL    HW2 1164   3.085   3.512   6.935
   89SOL     OW 1165   2.941   3.307   2.960
   89SOL    HW1 1166   2.867   3.251   2.996
   89SOL    HW2 1167   2.958   3.282   2.864
   90SOL     OW 1168   5.042   4.126   3.293
   90SOL    HW1 1169   4.996   4.078   3.218
   90SOL    HW2 1170   4.999   4.101   3.380
   91SOL     OW 1171   4.768   5.119   5.788
   91SOL    HW1 1172   4.681   5.071   5.783
   91SOL    HW2 1173   4.767   5.198   5.728
   92SOL     OW 1174   5.582   4.271   6.392
   92SOL    HW1 1175   5.512   4.309   6.331
   92SOL    HW2 1176   5.577   4.317   6.481
   93SOL     OW 1177   2.923   3.257   2.058
   93SOL    HW1 1178   2.967   3.234   1.971
   93SOL    HW2 1179   2.940   3.184   2.125
   94SOL     OW 1180   3.397   1.694   5.698
   94SOL    HW1 1181   3.337   1.724   5.624
   94SOL    HW2 1182   3.418   1.772   5.757
   95SOL     OW 1183   0.644   0.566   4.743
   95SOL    HW1 1184   0.578   0.633   4.776
   95SOL    HW2 1185   0.676   0.511   4.821
   96SOL     OW 1186   4.902   4.938   0.200
   96SOL    HW1 1187   4.847   4.938   0.284
   96SOL    HW2 1188   4.906   4.845   0.164
   97SOL     OW 1189   2.231   5.261   5.466
   97SOL    HW1 1190   2.172   5.309   5.532
   97SOL    HW2 1191   2.176   5.203   5.408
   98SOL     OW 1192   1.134   2.835   3.199
   98SOL    HW1 1193   1.212   2.898   3.208
   98SOL    HW2 1194   1.099   2.812   3.290
   99SOL     OW 1195   3.908   3.037   4.829
   99SOL    HW1 1196   3.831   2.999   4.777
   99SOL    HW2 1197   3.987   2.976   4.820
  100SOL     OW 1198   0.281   0.129   3.355
  100SOL    HW1 1199   0.348   0.056   3.368
  100SOL    HW2 1200   0.276   0.185   3.438
  101SOL     OW 1201   6.969   3.706   2.561
  101SOL    HW1 1202   6.885   3.655   2.578
  101SOL    HW2 1203   6.978   3.725   2.463
  102SOL     OW 1204   2.863   0.020   0.427
  102SOL    HW1 1205   2.920   0.010   0.508
  102SOL    HW2 1206   2.919   0.007   0.345
  103SOL     OW 1207   2.288   0.795   1.839
  103SOL    HW1 1208   2.383   0.806   1.869
  103SOL    HW2 1209   2.228   0.788   1.918
  104SOL     OW 1210   1.029   5.071   1.361
  104SOL    HW1 1211   1.041   5.161   1.401
  104SOL    HW2 1212   0.962   5.019   1.415
  105SOL     OW 1213   5.302   1.294   5.668
  105SOL    HW1 1214   5.375   1.258   5.726
  105SOL    HW2 1215   5.311   1.393   5.661
  106SOL     OW 1216   5.588   5.551   2.160
  106SOL    HW1 1217   5.516   5.482   2.168
  106SOL    HW2 1218   5.676   5.510   2.185
  107SOL     OW 1219   5.775   0.649   1.023
  107SOL    HW1 1220   5.791   0.584   0.949
  107SOL    HW2 1221   5.775   0.742   0.987
  108SOL     OW 1222   1.858   0.703   5.640
  108SOL    HW1 1223   1.825   0.621   5.688
  108SOL    HW2 1224   1.818   0.784   5.681
  109SOL     OW 1225   2.163   1.009   4.001
  109SOL    HW1 1226   2.175   0.992   4.098
  109SOL    HW2 1227   2.119   0.930   3.958
  110SOL     OW 1228   2.871   4.596   5.657
  110SOL    HW1 1229   2.910   4.511   5.693
  110SOL    HW2 1230   2.866   4.590   5.557
  111SOL     OW 1231   6.863   1.943   1.684
  111SOL    HW1 1232   6.848   1.868   1.621
  111SOL    HW2 1233   6.916   1.910   1.763
  112SOL     OW 1234   4.753   0.069   6.662
  112SOL    HW1 1235   4.758   7.015   6.723
  112SOL    HW2 1236   4.795   0.047   6.574
  113SOL     OW 1237   6.638   6.210   1.713
  113SOL    HW1 1238   6.546   6.171   1.720
  113SOL    HW2 1239   6.633   6.295   1.660
  114SOL     OW 1240   0.233   3.970   3.427
  114SOL    HW1 1241   0.267   3.879   3.450
  114SOL    HW2 1242   0.137   3.964   3.398
  115SOL     OW 1243   6.223   0.626   3.558
  115SOL    HW1 1244   6.201   0.590   3.648
  115SOL    HW2 1245   6.169   0.708   3.540
  116SOL     OW 1246   1.179   4.962   0.790
  116SOL    HW1 1247   1.190   5.050   0.743
  116SOL    HW2 1248   1.244   4.957   0.867
  117SOL     OW 1249   2.343   1.540   0.059
  117SOL    HW1 1250   2.332   1.600   7.005
  117SOL    HW2 1251   2.324   1.592   0.143
  118SOL     OW 1252   1.325   1.662   4.520
  118SOL    HW1 1253   1.396   1.621   4.577
  118SOL    HW2 1254   1.281   1.591   4.465
  119SOL     OW 1255   6.694   6.109   6.554
  119SOL    HW1 1256   6.614   6.049   6.556
  119SOL    HW2 1257   6.774   6.056   6.527
  120SOL     OW 1258   4.669   2.305   4.513
  120SOL    HW1 1259   4.583   2.349   4.487
  120SOL    HW2 1260   4.695   2.336   4.605
  121SOL     OW 1261   1.541   3.835   6.762
  121SOL    HW1 1262   1.609   3.763   6.747
  121SOL    HW2 1263   1.506   3.828   6.856
  122SOL     OW 1264   0.522   4.018   0.001
  122SOL    HW1 1265   0.453   3.948   7.008
  122SOL    HW2 1266   0.611   3.976   0.014
  123SOL     OW 1267   1.075   1.205   1.716
  123SOL    HW1 1268   1.134   1.282   1.743
  123SOL    HW2 1269   0.996   1.200   1.778
  124SOL     OW 1270   2.321   2.731   0.594
  124SOL    HW1 1271   2.312   2.695   0.501
  124SOL    HW2 1272   2.417   2.740   0.617
  125SOL     OW 1273   3.848   3.643   0.186
  125SOL    HW1 1274   3.828   3.680   0.095
  125SOL    HW2 1275   3.768   3.592   0.219
  126SOL     OW 1276   3.594   3.187   4.557
  126SOL    HW1 1277   3.660   3.262   4.556
  126SOL    HW2 1278   3.538   3.194   4.639
  127SOL     OW 1279   0.438   5.801   6.396
  127SOL    HW1 1280   0.345   5.835   6.408
  127SOL    HW2 1281   0.436   5.701   6.389
  128SOL     OW 1282   5.018   3.713   0.661
  128SOL    HW1 1283   5.114   3.729   0.639
  128SOL    HW2 1284   5.002   3.734   0.757
  129SOL     OW 1285   1.856   5.864   1.074
  129SOL    HW1 1286   1.832   5.865   1.171
  129SOL    HW2 1287   1.839   5.774   1.036
  130SOL     OW 1288   5.268   2.458   5.015
  130SOL    HW1 1289   5.342   2.522   5.035
  130SOL    HW2 1290   5.196   2.469   5.083
  131SOL     OW 1291   7.014   2.479   3.807
  131SOL    HW1 1292   6.973   2.399   3.762
  131SOL    HW2 1293   0.015   2.546   3.739
  132SOL     OW 1294   3.958   3.604   2.423
  132SOL    HW1 1295   4.026   3.593   2.351
  132SOL    HW2 1296   3.965   3.697   2.461
  133SOL     OW 1297   5.605   6.520   6.122
  133SOL    HW1 1298   5.531   6.575   6.160
  133SOL    HW2 1299   5.608   6.432   6.169
  134SOL     OW 1300   5.062   1.152   1.685
  134SOL    HW1 1301   5.085   1.198   1.600
  134SOL    HW2 1302   4.991   1.085   1.669
  135SOL     OW 1303   4.924   3.747   4.279
  135SOL    HW1 1304   4.983   3.783   4.207
  135SOL    HW2 1305   4.845   3.808   4.291
  136SOL     OW 1306   3.256   6.856   5.574
  136SOL    HW1 1307   3.314   6.850   5.655
  136SOL    HW2 1308   3.313   6.856   5.492
  137SOL     OW 1309   3.008   2.372   5.604
  137SOL    HW1 1310   2.961   2.311   5.541
  137SOL    HW2 1311   3.075   2.428   5.553
  138SOL     OW 1312   0.930   6.016   5.971
  138SOL    HW1 1313   0.850   6.075   5.979
  138SOL    HW2 1314   0.902   5.925   5.941
  139SOL     OW 1315   2.100   5.885   0.314
  139SOL    HW1 1316   2.143   5.975   0.312
  139SOL    HW2 1317   2.002   5.896   0.329
  140SOL     OW 1318   2.438   0.315   2.307
  140SOL    HW1 1319   2.497   0.362   2.242
  140SOL    HW2 1320   2.343   0.345   2.294
  141SOL     OW 1321   6.614   3.939   0.218
  141SOL    HW1 1322   6.649   4.012   0.277
  141SOL    HW2 1323   6.686   3.912   0.153
  142SOL     OW 1324   1.453   4.239   2.628
  142SOL    HW1 1325   1.439   4.146   2.660
  142SOL    HW2 1326   1.544   4.247   2.586
  143SOL     OW 1327   4.597   6.570   1.740
  143SOL    HW1 1328   4.641   6.490   1.779
  143SOL    HW2 1329   4.664   6.621   1.685
  144SOL     OW 1330   3.465   4.897   3.640
  144SOL    HW1 1331   3.546   4.955   3.647
  144SOL    HW2 1332   3.492   4.801   3.638
  145SOL     OW 1333   0.060   4.811   3.025
  145SOL    HW1 1334   0.123   4.883   3.054
  145SOL    HW2 1335   0.080   4.727   3.077
  146SOL     OW 1336   5.751   1.381   6.407
  146SOL    HW1 1337   5.822   1.362   6.474
  146SOL    HW2 1338   5.763   1.474   6.371
  147SOL     OW 1339   4.755   1.140   4.925
  147SOL    HW1 1340   4.696   1.147   5.005
  147SOL    HW2 1341   4.851   1.143   4.954
  148SOL     OW 1342   1.282   5.508   0.633
  148SOL    HW1 1343   1.352   5.579   0.639
  148SOL    HW2 1344   1.273   5.462   0.722
  149SOL     OW 1345   1.871   3.159   5.458
  149SOL    HW1 1346   1.895   3.098   5.534
  149SOL    HW2 1347   1.913   3.125   5.374
  150SOL     OW 1348   4.194   1.801   4.579
  150SOL    HW1 1349   4.251   1.728   4.616
  150SOL    HW2 1350   4.156   1.772   4.491
  151SOL     OW 1351   4.384   2.679   0.741
  151SOL    HW1 1352   4.320   2.673   0.818
  151SOL    HW2 1353   4.452   2.750   0.760
  152SOL     OW 1354   1.083   1.354   0.242
  152SOL    HW1 1355   1.160   1.290   0.245
  152SOL    HW2 1356   1.115   1.445   0.268
  153SOL     OW 1357   3.095   1.059   3.771
  153SOL    HW1 1358   3.184   1.105   3.770
  153SOL    HW2 1359   3.106   0.967   3.810
  154SOL     OW 1360   5.988   1.467   1.444
  154SOL    HW1 1361   5.969   1.537   1.514
  154SOL    HW2 1362   6.055   1.402   1.480
  155SOL     OW 1363   1.849   0.175   2.020
  155SOL    HW1 1364   1.782   0.165   1.947
  155SOL    HW2 1365   1.810   0.142   2.106
  156SOL     OW 1366   5.305   2.229   0.416
  156SOL    HW1 1367   5.222   2.187   0.452
  156SOL    HW2 1368   5.289   2.261   0.322
  157SOL     OW 1369   4.588   5.174   6.978
  157SOL    HW1 1370   4.507   5.128   7.014
  157SOL    HW2 1371   4.665   5.159   0.015
  158SOL     OW 1372   0.282   2.908   3.053
  158SOL    HW1 1373   0.290   3.008   3.046
  158SOL    HW2 1374   0.292   2.867   2.962
  159SOL     OW 1375   5.590   5.422   0.384
  159SOL    HW1 1376   5.568   5.416   0.482
  159SOL    HW2 1377   5.667   5.362   0.363
  160SOL     OW 1378   6.077   6.742   1.185
  160SOL    HW1 1379   6.110   6.832   1.213
  160SOL    HW2 1380   6.056   6.743   1.087
  161SOL     OW 1381   0.296   6.486   0.207
  161SOL    HW1 1382   0.290   6.409   0.271
  161SOL    HW2 1383   0.346   6.459   0.125
  162SOL     OW 1384   4.083   6.963   6.994
  162SOL    HW1 1385   4.135   0.017   6.963
  162SOL    HW2 1386   4.040   6.919   6.915
  163SOL     OW 1387   6.694   3.753   3.402
  163SOL    HW1 1388   6.770   3.704   3.444
  163SOL    HW2 1389   6.712   3.766   3.304
  164SOL     OW 1390   1.995   2.079   3.488
  164SOL    HW1 1391   1.996   1.980   3.471
  164SOL    HW2 1392   1.921   2.121   3.435
  165SOL     OW 1393   0.716   6.281   3.355
  165SOL    HW1 1394   0.715   6.183   3.337
  165SOL    HW2 1395   0.773   6.327   3.286
  166SOL     OW 1396   6.845   3.617   2.980
  166SOL    HW1 1397   6.746   3.630   2.969
  166SOL    HW2 1398   6.884   3.696   3.028
  167SOL     OW 1399   4.665   1.966   6.554
  167SOL    HW1 1400   4.621   1.994   6.468
  167SOL    HW2 1401   4.706   1.876   6.543
  168SOL     OW 1402   5.012   4.240   2.204
  168SOL    HW1 1403   5.093   4.202   2.158
  168SOL    HW2 1404   4.933   4.181   2.187
  169SOL     OW 1405   6.142   2.295   1.276
  169SOL    HW1 1406   6.203   2.307   1.197
  169SOL    HW2 1407   6.057   2.252   1.246
  170SOL     OW 1408   0.576   5.362   2.848
  170SOL    HW1 1409   0.521   5.430   2.798
  170SOL    HW2 1410   0.668   5.398   2.860
  171SOL     OW 1411   2.858   3.686   0.402
  171SOL    HW1 1412   2.831   3.775   0.439
  171SOL    HW2 1413   2.956   3.671   0.420
  172SOL     OW 1414   6.391   1.984   0.319
  172SOL    HW1 1415   6.312   2.046   0.314
  172SOL    HW2 1416   6.371   1.901   0.266
  173SOL     OW 1417   7.022   2.207   5.172
  173SOL    HW1 1418   0.018   2.287   5.227
  173SOL    HW2 1419   0.051   2.209   5.087
  174SOL     OW 1420   6.298   5.182   5.379
  174SOL    HW1 1421   6.384   5.232   5.387
  174SOL    HW2 1422   6.222   5.247   5.381
  175SOL     OW 1423   0.917   6.986   0.923
  175SOL    HW1 1424   0.934   0.050   0.965
  175SOL    HW2 1425   0.830   6.950   0.956
  176SOL     OW 1426   5.479   4.658   2.348
  176SOL    HW1 1427   5.447   4.583   2.406
  176SOL    HW2 1428   5.508   4.734   2.405
  177SOL     OW 1429   5.978   2.581   4.319
  177SOL    HW1 1430   5.902   2.556   4.379
  177SOL    HW2 1431   6.065   2.562   4.365
  178SOL     OW 1432   1.802   6.456   5.121
  178SOL    HW1 1433   1.885   6.440   5.175
  178SOL    HW2 1434   1.732   6.389   5.145
  179SOL     OW 1435   3.926   4.680   1.225
  179SOL    HW1 1436   4.011   4.668   1.277
  179SOL    HW2 1437   3.938   4.646   1.132
  180SOL     OW 1438   4.264   1.665   0.758
  180SOL    HW1 1439   4.349   1.612   0.750
  180SOL    HW2 1440   4.198   1.634   0.689
  181SOL     OW 1441   3.257   2.254   5.607
  181SOL    HW1 1442   3.307   2.309   5.541
  181SOL    HW2 1443   3.170   2.300   5.630
  182SOL     OW 1444   4.986   2.280   6.675
  182SOL    HW1 1445   5.008   2.254   6.581
  182SOL    HW2 1446   4.930   2.209   6.716
  183SOL     OW 1447   3.538   1.629   3.697
  183SOL    HW1 1448   3.475   1.686   3.645
  183SOL    HW2 1449   3.629   1.633   3.655
  184SOL     OW 1450   6.111   6.116   3.687
  184SOL    HW1 1451   6.181   6.102   3.617
  184SOL    HW2 1452   6.052   6.035   3.691
  185SOL     OW 1453   0.164   1.220   4.221
  185SOL    HW1 1454   0.203   1.165   4.295
  185SOL    HW2 1455   0.236   1.243   4.155
  186SOL     OW 1456   4.643   5.980   3.860
  186SOL    HW1 1457   4.657   6.073   3.896
  186SOL    HW2 1458   4.701   5.965   3.781
  187SOL     OW 1459   4.291   6.406   1.802
  187SOL    HW1 1460   4.313   6.501   1.824
  187SOL    HW2 1461   4.315   6.388   1.706
  188SOL     OW 1462   1.605   2.808   2.980
  188SOL    HW1 1463   1.648   2.894   3.007
  188SOL    HW2 1464   1.662   2.731   3.009
  189SOL     OW 1465   6.090   5.255   6.298
  189SOL    HW1 1466   6.057   5.203   6.377
  189SOL    HW2 1467   6.023   5.248   6.224
  190SOL     OW 1468   6.390   0.196   0.054
  190SOL    HW1 1469   6.489   0.182   0.056
  190SOL    HW2 1470   6.354   0.162   6.992
  191SOL     OW 1471   6.550   1.059   5.444
  191SOL    HW1 1472   6.537   1.072   5.542
  191SOL    HW2 1473   6.645   1.033   5.426
  192SOL     OW 1474   0.862   5.602   0.770
  192SOL    HW1 1475   0.785   5.540   0.759
  192SOL    HW2 1476   0.837   5.677   0.832
  193SOL     OW 1477   2.872   6.010   6.441
  193SOL    HW1 1478   2.779   5.998   6.477
  193SOL    HW2 1479   2.906   5.922   6.406
  194SOL     OW 1480   3.931   0.012   2.148
  194SOL    HW1 1481   3.988   0.064   2.212
  194SOL    HW2 1482   3.969   6.945   2.137
  195SOL     OW 1483   3.135   1.013   1.662
  195SOL    HW1 1484   3.071   1.083   1.694
  195SOL    HW2 1485   3.144   0.942   1.732
  196SOL     OW 1486   1.995   1.097   0.404
  196SOL    HW1 1487   2.016   1.160   0.479
  196SOL    HW2 1488   1.905   1.118   0.367
  197SOL     OW 1489   2.249   6.148   0.612
  197SOL    HW1 1490   2.304   6.231   0.605
  197SOL    HW2 1491   2.227   6.115   0.520
  198SOL     OW 1492   4.492   6.721   6.821
  198SOL    HW1 1493   4.522   6.773   6.901
  198SOL    HW2 1494   4.392   6.717   6.820
  199SOL     OW 1495   6.417   6.354   2.859
  199SOL    HW1 1496   6.514   6.331   2.872
  199SOL    HW2 1497   6.362   6.306   2.927
  200SOL     OW 1498   0.407   4.174   3.481
  200SOL    HW1 1499   0.481   4.130   3.430
  200SOL    HW2 1500   0.321   4.129   3.459
  201SOL     OW 1501   3.150   0.843   6.876
  201SOL    HW1 1502   3.242   0.807   6.892
  201SOL    HW2 1503   3.152   0.908   6.801
  202SOL     OW 1504   3.797   0.006   3.412
  202SOL    HW1 1505   3.715   6.995   3.367
  202SOL    HW2 1506   3.823   6.972   3.488
  203SOL     OW 1507   5.444   3.819   6.031
  203SOL    HW1 1508   5.351   3.855   6.030
  203SOL    HW2 1509   5.510   3.894   6.023
  204SOL     OW 1510   2.382   6.759   0.457
  204SOL    HW1 1511   2.458   6.695   0.469
  204SOL    HW2 1512   2.350   6.754   0.362
  205SOL     OW 1513   6.145   1.727   0.976
  205SOL    HW1 1514   6.153   1.810   0.920
  205SOL    HW2 1515   6.151   1.647   0.917
  206SOL     OW 1516   0.930   4.387   2.153
  206SOL    HW1 1517   0.882   4.461   2.105
  206SOL    HW2 1518   1.009   4.358   2.098
  207SOL     OW 1519   4.678   0.763   5.853
  207SOL    HW1 1520   4.762   0.722   5.816
  207SOL    HW2 1521   4.600   0.730   5.799
  208SOL     OW 1522   4.891   5.790   6.110
  208SOL    HW1 1523   4.920   5.878   6.149
  208SOL    HW2 1524   4.811   5.756   6.159
  209SOL     OW 1525   6.557   5.286   5.407
  209SOL    HW1 1526   6.593   5.289   5.500
  209SOL    HW2 1527   6.624   5.245   5.346
  210SOL     OW 1528   4.090   2.684   1.140
  210SOL    HW1 1529   4.114   2.748   1.067
  210SOL    HW2 1530   4.169   2.627   1.162
  211SOL     OW 1531   1.200   1.207   0.777
  211SOL    HW1 1532   1.217   1.282   0.841
  211SOL    HW2 1533   1.181   1.123   0.828
  212SOL     OW 1534   0.681   5.092   4.280
  212SOL    HW1 1535   0.721   5.000   4.287
  212SOL    HW2 1536   0.738   5.157   4.331
  213SOL     OW 1537   5.488   2.188   6.804
  213SOL    HW1 1538   5.569   2.200   6.746
  213SOL    HW2 1539   5.503   2.111   6.866
  214SOL     OW 1540   0.808   0.122   2.583
  214SOL    HW1 1541   0.804   0.073   2.497
  214SOL    HW2 1542   0.717   0.159   2.606
  215SOL     OW 1543   3.452   3.272   2.906
  215SOL    HW1 1544   3.470   3.203   2.976
  215SOL    HW2 1545   3.505   3.252   2.824
  216SOL     OW 1546   0.836   0.173   5.857
  216SOL    HW1 1547   0.801   0.220   5.938
  216SOL    HW2 1548   0.895   0.236   5.805
  217SOL     OW 1549   0.949   3.119   3.340
  217SOL    HW1 1550   0.872   3.180   3.321
  217SOL    HW2 1551   0.925   3.058   3.415
  218SOL     OW 1552   1.194   3.461   5.480
  218SOL    HW1 1553   1.270   3.524   5.465
  218SOL    HW2 1554   1.229   3.367   5.486
  219SOL     OW 1555   4.680   5.162   0.560
  219SOL    HW1 1556   4.706   5.088   0.498
  219SOL    HW2 1557   4.762   5.205   0.596
  220SOL     OW 1558   2.521   5.345   0.615
  220SOL    HW1 1559   2.468   5.262   0.632
  220SOL    HW2 1560   2.462   5.414   0.573
  221SOL     OW 1561   5.530   2.232   4.075
  221SOL    HW1 1562   5.493   2.153   4.124
  221SOL    HW2 1563   5.613   2.204   4.027
  222SOL     OW 1564   0.506   5.913   5.830
  222SOL    HW1 1565   0.469   5.824   5.807
  222SOL    HW2 1566   0.528   5.963   5.745
  223SOL     OW 1567   6.950   3.920   1.959
  223SOL    HW1 1568   6.901   3.833   1.953
  223SOL    HW2 1569   6.895   3.993   1.917
  224SOL     OW 1570   2.662   2.322   1.840
  224SOL    HW1 1571   2.724   2.326   1.918
  224SOL    HW2 1572   2.712   2.341   1.756
  225SOL     OW 1573   5.684   0.989   6.936
  225SOL    HW1 1574   5.613   0.991   7.005
  225SOL    HW2 1575   5.755   1.055   6.958
  226SOL     OW 1576   0.265   5.830   0.812
  226SOL    HW1 1577   0.315   5.914   0.834
  226SOL    HW2 1578   0.221   5.840   0.723
  227SOL     OW 1579   1.394   3.476   3.522
  227SOL    HW1 1580   1.401   3.403   3.453
  227SOL    HW2 1581   1.483   3.519   3.534
  228SOL     OW 1582   4.828   0.146   3.560
  228SOL    HW1 1583   4.790   0.105   3.477
  228SOL    HW2 1584   4.908   0.200   3.537
  229SOL     OW 1585   6.288   6.010   2.264
  229SOL    HW1 1586   6.211   6.069   2.291
  229SOL    HW2 1587   6.369   6.034   2.318
  230SOL     OW 1588   2.273   4.316   5.029
  230SOL    HW1 1589   2.268   4.353   4.936
  230SOL    HW2 1590   2.276   4.216   5.026
  231SOL     OW 1591   0.799   2.798   6.100
  231SOL    HW1 1592   0.839   2.885   6.072
  231SOL    HW2 1593   0.823   2.779   6.195
  232SOL     OW 1594   1.841   4.188   6.819
  232SOL    HW1 1595   1.774   4.122   6.785
  232SOL    HW2 1596   1.821   4.279   6.782
  233SOL     OW 1597   2.361   1.178   5.788
  233SOL    HW1 1598   2.365   1.209   5.693
  233SOL    HW2 1599   2.453   1.179   5.828
  234SOL     OW 1600   2.741   5.375   6.805
  234SOL    HW1 1601   2.812   5.379   6.874
  234SOL    HW2 1602   2.666   5.318   6.837
  235SOL     OW 1603   3.058   3.672   4.559
  235SOL    HW1 1604   2.998   3.674   4.638
  235SOL    HW2 1605   3.003   3.672   4.475
  236SOL     OW 1606   6.520   2.241   5.505
  236SOL    HW1 1607   6.469   2.311   5.555
  236SOL    HW2 1608   6.578   2.285   5.436
  237SOL     OW 1609   0.358   6.690   1.077
  237SOL    HW1 1610   0.334   6.748   0.999
  237SOL    HW2 1611   0.413   6.613   1.046
  238SOL     OW 1612   5.583   3.048   2.704
  238SOL    HW1 1613   5.672   3.068   2.663
  238SOL    HW2 1614   5.552   3.127   2.757
  239SOL     OW 1615   6.552   5.896   6.760
  239SOL    HW1 1616   6.488   5.887   6.837
  239SOL    HW2 1617   6.626   5.957   6.786
  240SOL     OW 1618   0.039   4.283   5.908
  240SOL    HW1 1619   6.996   4.212   5.925
  240SOL    HW2 1620   0.091   4.299   5.991
  241SOL     OW 1621   0.214   0.612   2.986
  241SOL    HW1 1622   0.184   0.674   3.058
  241SOL    HW2 1623   0.259   0.664   2.913
  242SOL     OW 1624   1.444   3.726   4.415
  242SOL    HW1 1625   1.529   3.728   4.468
  242SOL    HW2 1626   1.432   3.636   4.374
  243SOL     OW 1627   5.890   6.890   5.326
  243SOL    HW1 1628   5.793   6.910   5.340
  243SOL    HW2 1629   5.905   6.865   5.230
  244SOL     OW 1630   5.607   2.363   5.370
  244SOL    HW1 1631   5.654   2.365   5.282
  244SOL    HW2 1632   5.538   2.290   5.370
  245SOL     OW 1633   5.886   2.509   4.022
  245SOL    HW1 1634   5.953   2.481   4.090
  245SOL    HW2 1635   5.856   2.429   3.970
  246SOL     OW 1636   4.918   3.765   3.316
  246SOL    HW1 1637   4.958   3.830   3.381
  246SOL    HW2 1638   4.911   3.675   3.359
  247SOL     OW 1639   2.348   1.383   3.313
  247SOL    HW1 1640   2.278   1.422   3.252
  247SOL    HW2 1641   2.380   1.454   3.375
  248SOL     OW 1642   6.225   1.527   3.334
  248SOL    HW1 1643   6.317   1.557   3.355
  248SOL    HW2 1644   6.213   1.523   3.235
  249SOL     OW 1645   3.542   6.770   3.842
  249SOL    HW1 1646   3.632   6.755   3.801
  249SOL    HW2 1647   3.511   6.862   3.820
  250SOL     OW 1648   5.637   3.387   5.961
  250SOL    HW1 1649   5.614   3.432   6.047
  250SOL    HW2 1650   5.619   3.449   5.885
  251SOL     OW 1651   4.449   2.424   0.093
  251SOL    HW1 1652   4.479   2.354   0.158
  251SOL    HW2 1653   4.404   2.381   0.015
  252SOL     OW 1654   0.215   0.469   6.021
  252SOL    HW1 1655   0.189   0.555   5.976
  252SOL    HW2 1656   0.301   0.436   5.982
  253SOL     OW 1657   3.200   3.255   0.250
  253SOL    HW1 1658   3.172   3.160   0.240
  253SOL    HW2 1659   3.150   3.297   0.326
  254SOL     OW 1660   5.712   2.713   5.191
  254SOL    HW1 1661   5.739   2.779   5.120
  254SOL    HW2 1662   5.626   2.670   5.164
  255SOL     OW 1663   2.608   1.859   3.045
  255SOL    HW1 1664   2.673   1.894   2.977
  255SOL    HW2 1665   2.601   1.923   3.121
  256SOL     OW 1666   5.393   4.981   0.347
  256SOL    HW1 1667   5.464   5.009   0.412
  256SOL    HW2 1668   5.406   5.030   0.261
  257SOL     OW 1669   2.834   6.053   6.011
  257SOL    HW1 1670   2.752   5.995   6.008
  257SOL    HW2 1671   2.820   6.126   6.078
  258SOL     OW 1672   5.461   4.349   4.700
  258SOL    HW1 1673   5.555   4.384   4.699
  258SOL    HW2 1674   5.430   4.338   4.794
  259SOL     OW 1675   1.594   1.989   2.630
  259SOL    HW1 1676   1.611   1.909   2.687
  259SOL    HW2 1677   1.534   1.965   2.554
  260SOL     OW 1678   5.205   0.418   5.788
  260SOL    HW1 1679   5.189   0.357   5.710
  260SOL    HW2 1680   5.303   0.419   5.809
  261SOL     OW 1681   0.863   3.930   2.314
  261SOL    HW1 1682   0.836   3.859   2.378
  261SOL    HW2 1683   0.783   3.963   2.265
  262SOL     OW 1684   0.731   4.211   2.037
  262SOL    HW1 1685   0.786   4.266   2.099
  262SOL    HW2 1686   0.710   4.123   2.079
  263SOL     OW 1687   1.051   2.011   4.282
  263SOL    HW1 1688   0.987   1.967   4.219
  263SOL    HW2 1689   1.002   2.036   4.366
  264SOL     OW 1690   2.375   4.950   6.418
  264SOL    HW1 1691   2.364   4.930   6.321
  264SOL    HW2 1692   2.334   5.039   6.438
  265SOL     OW 1693   5.085   4.028   4.692
  265SOL    HW1 1694   5.092   3.930   4.672
  265SOL    HW2 1695   5.173   4.072   4.672
  266SOL     OW 1696   4.187   1.910   0.536
  266SOL    HW1 1697   4.168   1.841   0.466
  266SOL    HW2 1698   4.205   1.866   0.624
  267SOL     OW 1699   1.699   1.926   6.046
  267SOL    HW1 1700   1.614   1.977   6.032
  267SOL    HW2 1701   1.714   1.913   6.144
  268SOL     OW 1702   4.165   4.840   4.707
  268SOL    HW1 1703   4.235   4.799   4.649
  268SOL    HW2 1704   4.192   4.833   4.802
  269SOL     OW 1705   0.567   2.008   5.730
  269SOL    HW1 1706   0.664   1.995   5.711
  269SOL    HW2 1707   0.555   2.087   5.791
  270SOL     OW 1708   5.363   1.192   3.020
  270SOL    HW1 1709   5.329   1.196   2.926
  270SOL    HW2 1710   5.459   1.221   3.022
  271SOL     OW 1711   1.420   0.720   6.943
  271SOL    HW1 1712   1.370   0.743   0.001
  271SOL    HW2 1713   1.372   0.646   6.895
  272SOL     OW 1714   3.425   6.240   3.381
  272SOL    HW1 1715   3.483   6.320   3.368
  272SOL    HW2 1716   3.447   6.171   3.312
  273SOL     OW 1717   2.258   6.254   5.131
  273SOL    HW1 1718   2.188   6.275   5.063
  273SOL    HW2 1719   2.214   6.230   5.217
  274SOL     OW 1720   6.375   2.433   1.984
  274SOL    HW1 1721   6.312   2.467   1.915
  274SOL    HW2 1722   6.348   2.466   2.075
  275SOL     OW 1723   6.763   5.888   5.156
  275SOL    HW1 1724   6.762   5.954   5.081
  275SOL    HW2 1725   6.674   5.842   5.162
  276SOL     OW 1726   6.822   6.171   3.568
  276SOL    HW1 1727   6.882   6.135   3.639
  276SOL    HW2 1728   6.806   6.268   3.584
  277SOL     OW 1729   4.227   1.170   5.357
  277SOL    HW1 1730   4.262   1.261   5.378
  277SOL    HW2 1731   4.302   1.104   5.360
  278SOL     OW 1732   6.033   3.367   2.336
  278SOL    HW1 1733   5.964   3.428   2.297
  278SOL    HW2 1734   6.054   3.295   2.270
  279SOL     OW 1735   0.215   2.712   4.143
  279SOL    HW1 1736   0.254   2.762   4.220
  279SOL    HW2 1737   0.180   2.624   4.175
  280SOL     OW 1738   3.620   0.364   4.147
  280SOL    HW1 1739   3.619   0.358   4.247
  280SOL    HW2 1740   3.530   0.339   4.111
  281SOL     OW 1741   5.041   6.049   3.846
  281SOL    HW1 1742   5.010   5.954   3.855
  281SOL    HW2 1743   5.129   6.060   3.891
  282SOL     OW 1744   4.541   1.922   0.404
  282SOL    HW1 1745   4.459   1.977   0.425
  282SOL    HW2 1746   4.602   1.975   0.345
  283SOL     OW 1747   6.233   2.041   4.964
  283SOL    HW1 1748   6.135   2.025   4.975
  283SOL    HW2 1749   6.267   1.989   4.886
  284SOL     OW 1750   5.942   5.575   3.889
  284SOL    HW1 1751   5.972   5.670   3.883
  284SOL    HW2 1752   6.007   5.516   3.841
  285SOL     OW 1753   4.049   0.622   6.245
  285SOL    HW1 1754   4.002   0.645   6.160
  285SOL    HW2 1755   4.011   0.538   6.282
  286SOL     OW 1756   3.430   4.994   4.913
  286SOL    HW1 1757   3.361   4.975   4.842
  286SOL    HW2 1758   3.510   5.036   4.872
  287SOL     OW 1759   3.031   6.681   5.629
  287SOL    HW1 1760   3.023   6.593   5.582
  287SOL    HW2 1761   3.101   6.737   5.584
  288SOL     OW 1762   3.533   1.041   0.795
  288SOL    HW1 1763   3.515   0.949   0.762
  288SOL    HW2 1764   3.460   1.070   0.857
  289SOL     OW 1765   0.003   6.172   4.260
  289SOL    HW1 1766   6.956   6.214   4.205
  289SOL    HW2 1767   7.010   6.188   4.357
  290SOL     OW 1768   3.217   0.927   4.906
  290SOL    HW1 1769   3.276   0.878   4.969
  290SOL    HW2 1770   3.124   0.889   4.910
  291SOL     OW 1771   4.212   0.183   4.834
  291SOL    HW1 1772   4.257   0.181   4.744
  291SOL    HW2 1773   4.274   0.144   4.903
  292SOL     OW 1774   4.245   0.282   3.813
  292SOL    HW1 1775   4.167   0.343   3.801
  292SOL    HW2 1776   4.217   0.203   3.867
  293SOL     OW 1777   5.971   6.871   2.573
  293SOL    HW1 1778   5.900   6.931   2.538
  293SOL    HW2 1779   5.931   6.784   2.602
  294SOL     OW 1780   6.307   0.797   5.813
  294SOL    HW1 1781   6.404   0.821   5.821
  294SOL    HW2 1782   6.280   0.801   5.716
  295SOL     OW 1783   1.091   1.753   5.139
  295SOL    HW1 1784   1.014   1.723   5.196
  295SOL    HW2 1785   1.131   1.836   5.179
  296SOL     OW 1786   0.419   2.126   1.821
  296SOL    HW1 1787   0.368   2.159   1.742
  296SOL    HW2 1788   0.497   2.071   1.790
  297SOL     OW 1789   5.649   3.773   3.734
  297SOL    HW1 1790   5.727   3.715   3.712
  297SOL    HW2 1791   5.564   3.724   3.713
  298SOL     OW 1792   3.326   1.007   6.717
  298SOL    HW1 1793   3.407   1.062   6.697
  298SOL    HW2 1794   3.350   0.934   6.781
  299SOL     OW 1795   2.402   1.575   6.390
  299SOL    HW1 1796   2.363   1.625   6.312
  299SOL    HW2 1797   2.436   1.486   6.358
  300SOL     OW 1798   3.723   0.399   2.912
  300SOL    HW1 1799   3.648   0.389   2.846
  300SOL    HW2 1800   3.731   0.495   2.939
  301SOL     OW 1801   6.438   5.289   0.957
  301SOL    HW1 1802   6.347   5.257   0.988
  301SOL    HW2 1803   6.508   5.228   0.995
  302SOL     OW 1804   6.200   5.711   0.912
  302SOL    HW1 1805   6.241   5.686   0.824
  302SOL    HW2 1806   6.256   5.782   0.955
  303SOL     OW 1807   5.855   5.548   2.299
  303SOL    HW1 1808   5.854   5.518   2.395
  303SOL    HW2 1809   5.899   5.478   2.243
  304SOL     OW 1810   1.838   0.018   5.528
  304SOL    HW1 1811   1.745   0.017   5.490
  304SOL    HW2 1812   1.842   6.984   5.608
  305SOL     OW 1813   1.277   2.976   2.533
  305SOL    HW1 1814   1.371   2.946   2.548
  305SOL    HW2 1815   1.236   3.003   2.620
  306SOL     OW 1816   6.589   0.184   2.516
  306SOL    HW1 1817   6.650   0.235   2.576
  306SOL    HW2 1818   6.607   0.209   2.420
  307SOL     OW 1819   3.526   3.130   3.180
  307SOL    HW1 1820   3.613   3.163   3.219
  307SOL    HW2 1821   3.452   3.190   3.211
  308SOL     OW 1822   5.988   1.691   3.853
  308SOL    HW1 1823   5.922   1.720   3.923
  308SOL    HW2 1824   5.943   1.687   3.764
  309SOL     OW 1825   0.940   6.048   6.470
  309SOL    HW1 1826   0.848   6.012   6.455
  309SOL    HW2 1827   1.007   5.987   6.426
  310SOL     OW 1828   5.437   6.525   4.929
  310SOL    HW1 1829   5.476   6.464   4.860
  310SOL    HW2 1830   5.419   6.473   5.013
  311SOL     OW 1831   1.984   5.562   2.638
  311SOL    HW1 1832   1.920   5.578   2.713
  311SOL    HW2 1833   1.954   5.484   2.584
  312SOL     OW 1834   4.514   2.090   3.023
  312SOL    HW1 1835   4.525   2.032   3.103
  312SOL    HW2 1836   4.426   2.071   2.979
  313SOL     OW 1837   4.055   3.686   3.746
  313SOL    HW1 1838   4.109   3.695   3.663
  313SOL    HW2 1839   3.966   3.646   3.725
  314SOL     OW 1840   2.271   6.534   5.357
  314SOL    HW1 1841   2.278   6.517   5.258
  314SOL    HW2 1842   2.249   6.631   5.372
  315SOL     OW 1843   6.714   1.572   3.311
  315SOL    HW1 1844   6.660   1.498   3.272
  315SOL    HW2 1845   6.728   1.643   3.242
  316SOL     OW 1846   3.828   1.258   5.063
  316SOL    HW1 1847   3.913   1.213   5.036
  316SOL    HW2 1848   3.794   1.216   5.147
  317SOL     OW 1849   0.939   1.259   1.496
  317SOL    HW1 1850   0.928   1.357   1.477
  317SOL    HW2 1851   0.965   1.246   1.592
  318SOL     OW 1852   6.779   0.530   5.359
  318SOL    HW1 1853   6.879   0.526   5.365
  318SOL    HW2 1854   6.752   0.565   5.270
  319SOL     OW 1855   1.604   2.611   2.557
  319SOL    HW1 1856   1.592   2.564   2.644
  319SOL    HW2 1857   1.536   2.578   2.492
  320SOL     OW 1858   6.326   2.986   6.785
  320SOL    HW1 1859   6.264   3.006   6.709
  320SOL    HW2 1860   6.320   2.889   6.808
  321SOL     OW 1861   4.382   3.217   1.450
  321SOL    HW1 1862   4.435   3.170   1.520
  321SOL    HW2 1863   4.292   3.242   1.487
  322SOL     OW 1864   3.886   3.868   5.962
  322SOL    HW1 1865   3.821   3.848   6.035
  322SOL    HW2 1866   3.931   3.956   5.982
  323SOL     OW 1867   0.120   3.158   3.781
  323SOL    HW1 1868   0.026   3.182   3.805
  323SOL    HW2 1869   0.181   3.234   3.803
  324SOL     OW 1870   1.025   6.990   3.800
  324SOL    HW1 1871   1.023   0.065   3.796
  324SOL    HW2 1872   0.971   6.959   3.879
  325SOL     OW 1873   0.525   3.589   2.492
  325SOL    HW1 1874   0.504   3.530   2.571
  325SOL    HW2 1875   0.531   3.533   2.410
  326SOL     OW 1876   1.171   6.452   6.803
  326SOL    HW1 1877   1.171   6.465   6.704
  326SOL    HW2 1878   1.084   6.412   6.831
  327SOL     OW 1879   4.165   5.027   3.177
  327SOL    HW1 1880   4.188   5.065   3.266
  327SOL    HW2 1881   4.162   4.927   3.183
  328SOL     OW 1882   2.415   4.329   2.348
  328SOL    HW1 1883   2.473   4.409   2.366
  328SOL    HW2 1884   2.407   4.275   2.431
  329SOL     OW 1885   3.409   3.880   1.962
  329SOL    HW1 1886   3.473   3.957   1.968
  329SOL    HW2 1887   3.328   3.900   2.016
  330SOL     OW 1888   3.872   5.082   0.489
  330SOL    HW1 1889   3.936   5.153   0.462
  330SOL    HW2 1890   3.779   5.108   0.461
  331SOL     OW 1891   5.523   5.755   6.877
  331SOL    HW1 1892   5.597   5.787   6.818
  331SOL    HW2 1893   5.540   5.660   6.903
  332SOL     OW 1894   5.366   2.129   3.099
  332SOL    HW1 1895   5.322   2.185   3.028
  332SOL    HW2 1896   5.367   2.033   3.070
  333SOL     OW 1897   3.884   1.228   6.173
  333SOL    HW1 1898   3.798   1.214   6.123
  333SOL    HW2 1899   3.928   1.139   6.188
  334SOL     OW 1900   3.348   3.803   3.870
  334SOL    HW1 1901   3.406   3.750   3.810
  334SOL    HW2 1902   3.389   3.893   3.886
  335SOL     OW 1903   3.148   0.596   6.005
  335SOL    HW1 1904   3.179   0.578   5.912
  335SOL    HW2 1905   3.066   0.542   6.024
  336SOL     OW 1906   3.245   1.799   3.092
  336SOL    HW1 1907   3.205   1.708   3.084
  336SOL    HW2 1908   3.345   1.791   3.094
  337SOL     OW 1909   2.025   0.683   6.089
  337SOL    HW1 1910   2.009   0.781   6.077
  337SOL    HW2 1911   2.123   0.666   6.093
  338SOL     OW 1912   4.478   1.822   1.959
  338SOL    HW1 1913   4.483   1.724   1.938
  338SOL    HW2 1914   4.394   1.860   1.920
  339SOL     OW 1915   3.867   4.963   4.627
  339SOL    HW1 1916   3.908   4.876   4.602
  339SOL    HW2 1917   3.938   5.033   4.633
  340SOL     OW 1918   4.457   1.884   3.678
  340SOL    HW1 1919   4.379   1.918   3.731
  340SOL    HW2 1920   4.504   1.961   3.635
  341SOL     OW 1921   5.971   6.819   3.917
  341SOL    HW1 1922   5.970   6.766   3.833
  341SOL    HW2 1923   5.948   6.760   3.994
  342SOL     OW 1924   4.996   2.229   1.786
  342SOL    HW1 1925   4.976   2.235   1.688
  342SOL    HW2 1926   5.010   2.133   1.811
  343SOL     OW 1927   1.052   5.689   3.358
  343SOL    HW1 1928   0.987   5.707   3.432
  343SOL    HW2 1929   1.102   5.773   3.337
  344SOL     OW 1930   1.678   1.292   1.704
  344SOL    HW1 1931   1.589   1.315   1.665
  344SOL    HW2 1932   1.740   1.371   1.696
  345SOL     OW 1933   6.238   3.145   4.206
  345SOL    HW1 1934   6.251   3.230   4.155
  345SOL    HW2 1935   6.198   3.076   4.145
  346SOL     OW 1936   1.839   0.012   2.610
  346SOL    HW1 1937   1.829   0.097   2.558
  346SOL    HW2 1938   1.797   0.023   2.700
  347SOL     OW 1939   2.803   4.843   0.595
  347SOL    HW1 1940   2.724   4.870   0.541
  347SOL    HW2 1941   2.868   4.919   0.600
  348SOL     OW 1942   5.107   5.654   2.407
  348SOL    HW1 1943   5.140   5.735   2.456
  348SOL    HW2 1944   5.132   5.661   2.311
  349SOL     OW 1945   6.853   3.910   1.164
  349SOL    HW1 1946   6.756   3.930   1.175
  349SOL    HW2 1947   6.865   3.815   1.136
  350SOL     OW 1948   3.533   2.941   0.076
  350SOL    HW1 1949   3.545   3.037   0.052
  350SOL    HW2 1950   3.449   2.906   0.034
  351SOL     OW 1951   3.466   4.442   1.374
  351SOL    HW1 1952   3.563   4.459   1.360
  351SOL    HW2 1953   3.439   4.360   1.323
  352SOL     OW 1954   4.231   6.700   3.032
  352SOL    HW1 1955   4.287   6.679   3.113
  352SOL    HW2 1956   4.153   6.756   3.059
  353SOL     OW 1957   2.469   6.153   6.572
  353SOL    HW1 1958   2.370   6.149   6.583
  353SOL    HW2 1959   2.502   6.244   6.594
  354SOL     OW 1960   6.667   2.695   0.682
  354SOL    HW1 1961   6.676   2.712   0.781
  354SOL    HW2 1962   6.573   2.671   0.661
  355SOL     OW 1963   2.150   2.478   2.412
  355SOL    HW1 1964   2.117   2.384   2.413
  355SOL    HW2 1965   2.129   2.520   2.324
  356SOL     OW 1966   1.223   0.166   6.150
  356SOL    HW1 1967   1.204   0.081   6.101
  356SOL    HW2 1968   1.154   0.235   6.127
  357SOL     OW 1969   5.760   6.854   4.685
  357SOL    HW1 1970   5.851   6.871   4.723
  357SOL    HW2 1971   5.753   6.896   4.595
  358SOL     OW 1972   5.236   5.776   0.810
  358SOL    HW1 1973   5.312   5.840   0.820
  358SOL    HW2 1974   5.174   5.786   0.887
  359SOL     OW 1975   3.151   2.148   2.190
  359SOL    HW1 1976   3.241   2.123   2.154
  359SOL    HW2 1977   3.092   2.177   2.115
  360SOL     OW 1978   0.969   4.744   3.889
  360SOL    HW1 1979   1.046   4.698   3.844
  360SOL    HW2 1980   1.004   4.801   3.963
  361SOL     OW 1981   6.719   6.153   3.153
  361SOL    HW1 1982   6.814   6.124   3.143
  361SOL    HW2 1983   6.706   6.194   3.244
  362SOL     OW 1984   4.001   4.279   0.945
  362SOL    HW1 1985   3.978   4.264   1.042
  362SOL    HW2 1986   3.939   4.225   0.888
  363SOL     OW 1987   6.157   5.016   2.468
  363SOL    HW1 1988   6.184   5.082   2.398
  363SOL    HW2 1989   6.062   4.989   2.454
  364SOL     OW 1990   0.685   5.298   6.958
  364SOL    HW1 1991   0.767   5.355   6.970
  364SOL    HW2 1992   0.642   5.284   0.022
  365SOL     OW 1993   3.484   1.602   2.289
  365SOL    HW1 1994   3.419   1.567   2.357
  365SOL    HW2 1995   3.474   1.701   2.282
  366SOL     OW 1996   5.731   3.007   0.650
  366SOL    HW1 1997   5.831   3.005   0.652
  366SOL    HW2 1998   5.700   3.099   0.627
  367SOL     OW 1999   4.494   2.015   5.977
  367SOL    HW1 2000   4.435   2.073   6.034
  367SOL    HW2 2001   4.589   2.044   5.989
  368SOL     OW 2002   6.334   1.867   6.070
  368SOL    HW1 2003   6.348   1.905   5.979
  368SOL    HW2 2004   6.261   1.918   6.117
  369SOL     OW 2005   5.604   3.488   2.661
  369SOL    HW1 2006   5.541   3.416   2.631
  369SOL    HW2 2007   5.670   3.507   2.589
  370SOL     OW 2008   2.339   2.873   4.320
  370SOL    HW1 2009   2.354   2.817   4.401
  370SOL    HW2 2010   2.312   2.965   4.347
  371SOL     OW 2011   2.073   4.209   0.251
  371SOL    HW1 2012   2.058   4.210   0.152
  371SOL    HW2 2013   2.168   4.184   0.270
  372SOL     OW 2014   2.848   6.709   5.333
  372SOL    HW1 2015   2.766   6.704   5.276
  372SOL    HW2 2016   2.827   6.760   5.417
  373SOL     OW 2017   6.221   6.568   4.532
  373SOL    HW1 2018   6.241   6.477   4.496
  373SOL    HW2 2019   6.123   6.575   4.552
  374SOL     OW 2020   2.709   1.657   2.354
  374SOL    HW1 2021   2.730   1.727   2.423
  374SOL    HW2 2022   2.610   1.645   2.349
  375SOL     OW 2023   1.216   4.680   5.040
  375SOL    HW1 2024   1.148   4.612   5.016
  375SOL    HW2 2025   1.225   4.746   4.965
  376SOL     OW 2026   2.720   1.072   4.021
  376SOL    HW1 2027   2.710   1.035   3.929
  376SOL    HW2 2028   2.695   1.003   4.089
  377SOL     OW 2029   1.686   2.114   6.860
  377SOL    HW1 2030   1.589   2.140   6.863
  377SOL    HW2 2031   1.738   2.184   6.813
  378SOL     OW 2032   2.646   1.580   0.873
  378SOL    HW1 2033   2.738   1.603   0.840
  378SOL    HW2 2034   2.633   1.481   0.869
  379SOL     OW 2035   6.146   2.622   6.609
  379SOL    HW1 2036   6.158   2.540   6.666
  379SOL    HW2 2037   6.130   2.594   6.515
  380SOL     OW 2038   3.191   1.360   1.558
  380SOL    HW1 2039   3.197   1.297   1.481
  380SOL    HW2 2040   3.270   1.348   1.618
  381SOL     OW 2041   1.690   4.454   3.325
  381SOL    HW1 2042   1.779   4.500   3.328
  381SOL    HW2 2043   1.676   4.404   3.410
  382SOL     OW 2044   6.423   0.686   0.382
  382SOL    HW1 2045   6.371   0.739   0.315
  382SOL    HW2 2046   6.363   0.659   0.457
  383SOL     OW 2047   3.805   2.912   1.466
  383SOL    HW1 2048   3.835   2.992   1.415
  383SOL    HW2 2049   3.808   2.831   1.407
  384SOL     OW 2050   6.502   3.558   4.728
  384SOL    HW1 2051   6.480   3.548   4.631
  384SOL    HW2 2052   6.498   3.655   4.753
  385SOL     OW 2053   4.572   4.855   6.593
  385SOL    HW1 2054   4.622   4.937   6.564
  385SOL    HW2 2055   4.523   4.816   6.515
  386SOL     OW 2056   4.327   0.256   4.596
  386SOL    HW1 2057   4.418   0.281   4.627
  386SOL    HW2 2058   4.269   0.337   4.590
  387SOL     OW 2059   2.504   5.158   3.357
  387SOL    HW1 2060   2.469   5.066   3.371
  387SOL    HW2 2061   2.586   5.171   3.412
  388SOL     OW 2062   1.763   2.722   6.460
  388SOL    HW1 2063   1.774   2.765   6.550
  388SOL    HW2 2064   1.853   2.715   6.416
  389SOL     OW 2065   2.897   3.556   3.122
  389SOL    HW1 2066   2.913   3.484   3.053
  389SOL    HW2 2067   2.917   3.645   3.081
  390SOL     OW 2068   2.613   1.363   4.059
  390SOL    HW1 2069   2.682   1.432   4.079
  390SOL    HW2 2070   2.657   1.274   4.049
  391SOL     OW 2071   1.580   2.499   0.159
  391SOL    HW1 2072   1.553   2.570   0.093
  391SOL    HW2 2073   1.673   2.518   0.192
  392SOL     OW 2074   2.118   5.052   1.534
  392SOL    HW1 2075   2.040   4.993   1.555
  392SOL    HW2 2076   2.127   5.061   1.435
  393SOL     OW 2077   6.066   4.378   4.973
  393SOL    HW1 2078   6.140   4.313   4.991
  393SOL    HW2 2079   6.014   4.349   4.892
  394SOL     OW 2080   0.045   6.611   0.308
  394SOL    HW1 2081   0.036   6.618   0.407
  394SOL    HW2 2082   0.127   6.558   0.286
  395SOL     OW 2083   4.834   3.979   2.642
  395SOL    HW1 2084   4.805   3.990   2.547
  395SOL    HW2 2085   4.767   4.023   2.702
  396SOL     OW 2086   3.160   3.936   3.103
  396SOL    HW1 2087   3.173   3.872   3.179
  396SOL    HW2 2088   3.220   4.015   3.116
  397SOL     OW 2089   4.502   2.325   5.634
  397SOL    HW1 2090   4.593   2.323   5.593
  397SOL    HW2 2091   4.510   2.320   5.733
  398SOL     OW 2092   0.690   5.651   2.375
  398SOL    HW1 2093   0.657   5.585   2.443
  398SOL    HW2 2094   0.719   5.735   2.421
  399SOL     OW 2095   4.605   5.514   1.360
  399SOL    HW1 2096   4.621   5.612   1.368
  399SOL    HW2 2097   4.674   5.464   1.412
  400SOL     OW 2098   0.032   0.073   5.282
  400SOL    HW1 2099   0.066   7.005   5.272
  400SOL    HW2 2100   0.108   0.135   5.301
  401SOL     OW 2101   4.611   1.348   6.189
  401SOL    HW1 2102   4.651   1.310   6.272
  401SOL    HW2 2103   4.577   1.275   6.131
  402SOL     OW 2104   6.276   6.258   2.533
  402SOL    HW1 2105   6.213   6.329   2.564
  402SOL    HW2 2106   6.241   6.219   2.447
  403SOL     OW 2107   4.747   2.460   6.013
  403SOL    HW1 2108   4.724   2.511   6.096
  403SOL    HW2 2109   4.830   2.499   5.972
  404SOL     OW 2110   1.458   6.639   3.359
  404SOL    HW1 2111   1.517   6.714   3.389
  404SOL    HW2 2112   1.516   6.561   3.331
  405SOL     OW 2113   1.573   2.663   1.102
  405SOL    HW1 2114   1.566   2.565   1.120
  405SOL    HW2 2115   1.605   2.710   1.184
  406SOL     OW 2116   0.913   2.617   4.173
  406SOL    HW1 2117   0.844   2.588   4.106
  406SOL    HW2 2118   0.999   2.570   4.154
  407SOL     OW 2119   3.058   0.081   4.691
  407SOL    HW1 2120   3.110   0.108   4.772
  407SOL    HW2 2121   3.103   0.003   4.647
  408SOL     OW 2122   1.318   0.037   3.189
  408SOL    HW1 2123   1.403   0.023   3.136
  408SOL    HW2 2124   1.243   7.014   3.143
  409SOL     OW 2125   6.237   3.244   2.896
  409SOL    HW1 2126   6.285   3.331   2.904
  409SOL    HW2 2127   6.247   3.209   2.803
  410SOL     OW 2128   2.296   0.086   0.335
  410SOL    HW1 2129   2.296   0.022   0.259
  410SOL    HW2 2130   2.345   0.046   0.413
  411SOL     OW 2131   5.524   5.412   6.742
  411SOL    HW1 2132   5.426   5.395   6.756
  411SOL    HW2 2133   5.535   5.473   6.663
  412SOL     OW 2134   3.621   6.420   3.046
  412SOL    HW1 2135   3.572   6.457   2.967
  412SOL    HW2 2136   3.719   6.420   3.028
  413SOL     OW 2137   3.428   5.296   0.370
  413SOL    HW1 2138   3.332   5.295   0.340
  413SOL    HW2 2139   3.472   5.211   0.339
  414SOL     OW 2140   4.391   5.024   1.564
  414SOL    HW1 2141   4.364   5.091   1.494
  414SOL    HW2 2142   4.400   5.069   1.652
  415SOL     OW 2143   1.230   5.828   0.693
  415SOL    HW1 2144   1.291   5.834   0.614
  415SOL    HW2 2145   1.137   5.808   0.663
  416SOL     OW 2146   4.096   5.669   4.762
  416SOL    HW1 2147   4.058   5.638   4.674
  416SOL    HW2 2148   4.023   5.712   4.816
  417SOL     OW 2149   3.061   6.291   1.794
  417SOL    HW1 2150   3.019   6.280   1.884
  417SOL    HW2 2151   3.130   6.220   1.781
  418SOL     OW 2152   4.821   6.241   0.041
  418SOL    HW1 2153   4.822   6.328   0.090
  418SOL    HW2 2154   4.829   6.166   0.106
  419SOL     OW 2155   0.481   0.740   1.030
  419SOL    HW1 2156   0.523   0.680   1.098
  419SOL    HW2 2157   0.448   0.686   0.953
  420SOL     OW 2158   6.116   3.821   1.406
  420SOL    HW1 2159   6.171   3.750   1.449
  420SOL    HW2 2160   6.058   3.781   1.335
  421SOL     OW 2161   1.277   4.745   6.276
  421SOL    HW1 2162   1.245   4.673   6.338
  421SOL    HW2 2163   1.321   4.817   6.330
  422SOL     OW 2164   5.749   4.707   0.333
  422SOL    HW1 2165   5.795   4.629   0.292
  422SOL    HW2 2166   5.791   4.792   0.301
  423SOL     OW 2167   6.277   3.212   0.396
  423SOL    HW1 2168   6.270   3.189   0.493
  423SOL    HW2 2169   6.368   3.186   0.363
  424SOL     OW 2170   3.060   3.429   0.095
  424SOL    HW1 2171   2.970   3.385   0.102
  424SOL    HW2 2172   3.130   3.358   0.084
  425SOL     OW 2173   5.524   1.731   1.674
  425SOL    HW1 2174   5.564   1.816   1.708
  425SOL    HW2 2175   5.555   1.655   1.732
  426SOL     OW 2176   5.117   2.716   5.556
  426SOL    HW1 2177   5.100   2.659   5.475
  426SOL    HW2 2178   5.193   2.677   5.608
  427SOL     OW 2179   5.584   4.297   2.016
  427SOL    HW1 2180   5.530   4.247   2.083
  427SOL    HW2 2181   5.650   4.236   1.974
  428SOL     OW 2182   4.175   0.342   5.310
  428SOL    HW1 2183   4.250   0.304   5.364
  428SOL    HW2 2184   4.194   0.438   5.291
  429SOL     OW 2185   2.304   5.173   0.373
  429SOL    HW1 2186   2.333   5.220   0.290
  429SOL    HW2 2187   2.249   5.235   0.429
  430SOL     OW 2188   1.818   6.769   4.212
  430SOL    HW1 2189   1.727   6.744   4.243
  430SOL    HW2 2190   1.870   6.686   4.190
  431SOL     OW 2191   3.184   1.234   6.787
  431SOL    HW1 2192   3.245   1.293   6.840
  431SOL    HW2 2193   3.231   1.150   6.762
  432SOL     OW 2194   0.154   2.187   0.531
  432SOL    HW1 2195   0.093   2.108   0.530
  432SOL    HW2 2196   0.148   2.235   0.443
  433SOL     OW 2197   2.566   0.234   4.209
  433SOL    HW1 2198   2.579   0.155   4.269
  433SOL    HW2 2199   2.635   0.303   4.229
  434SOL     OW 2200   5.357   4.836   1.106
  434SOL    HW1 2201   5.363   4.935   1.105
  434SOL    HW2 2202   5.297   4.806   1.031
  435SOL     OW 2203   3.665   3.016   5.970
  435SOL    HW1 2204   3.600   3.045   6.040
  435SOL    HW2 2205   3.704   3.096   5.925
  436SOL     OW 2206   1.598   0.086   1.071
  436SOL    HW1 2207   1.630   7.023   1.106
  436SOL    HW2 2208   1.641   0.160   1.123
  437SOL     OW 2209   6.779   6.798   6.595
  437SOL    HW1 2210   6.809   6.784   6.500
  437SOL    HW2 2211   6.753   6.710   6.635
  438SOL     OW 2212   2.007   2.666   2.202
  438SOL    HW1 2213   2.083   2.714   2.245
  438SOL    HW2 2214   1.925   2.677   2.258
  439SOL     OW 2215   6.017   4.557   3.314
  439SOL    HW1 2216   6.052   4.603   3.233
  439SOL    HW2 2217   5.984   4.466   3.289
  440SOL     OW 2218   0.933   2.079   4.512
  440SOL    HW1 2219   0.840   2.095   4.478
  440SOL    HW2 2220   0.973   2.167   4.540
  441SOL     OW 2221   1.168   1.904   3.201
  441SOL    HW1 2222   1.078   1.889   3.159
  441SOL    HW2 2223   1.223   1.821   3.193
  442SOL     OW 2224   0.241   4.176   0.057
  442SOL    HW1 2225   0.233   4.276   0.054
  442SOL    HW2 2226   0.337   4.150   0.066
  443SOL     OW 2227   1.127   4.592   4.686
  443SOL    HW1 2228   1.124   4.680   4.734
  443SOL    HW2 2229   1.204   4.592   4.622
  444SOL     OW 2230   4.591   3.084   6.214
  444SOL    HW1 2231   4.609   3.043   6.303
  444SOL    HW2 2232   4.588   3.183   6.223
  445SOL     OW 2233   2.053   5.464   3.027
  445SOL    HW1 2234   2.030   5.504   3.116
  445SOL    HW2 2235   2.100   5.532   2.971
  446SOL     OW 2236   4.002   4.882   3.626
  446SOL    HW1 2237   4.074   4.835   3.575
  446SOL    HW2 2238   4.009   4.981   3.611
  447SOL     OW 2239   0.232   4.256   6.533
  447SOL    HW1 2240   0.217   4.169   6.486
  447SOL    HW2 2241   0.310   4.247   6.596
  448SOL     OW 2242   3.564   0.605   5.019
  448SOL    HW1 2243   3.507   0.556   5.085
  448SOL    HW2 2244   3.647   0.552   5.001
  449SOL     OW 2245   5.112   0.806   5.066
  449SOL    HW1 2246   5.157   0.846   4.986
  449SOL    HW2 2247   5.179   0.794   5.139
  450SOL     OW 2248   0.447   5.957   3.348
  450SOL    HW1 2249   0.538   5.998   3.356
  450SOL    HW2 2250   0.449   5.864   3.383
  451SOL     OW 2251   0.990   2.300   2.378
  451SOL    HW1 2252   1.034   2.384   2.412
  451SOL    HW2 2253   1.058   2.244   2.330
  452SOL     OW 2254   6.714   5.813   0.070
  452SOL    HW1 2255   6.689   5.906   0.043
  452SOL    HW2 2256   6.752   5.765   7.016
  453SOL     OW 2257   2.993   0.819   6.411
  453SOL    HW1 2258   2.957   0.870   6.333
  453SOL    HW2 2259   2.946   0.849   6.494
  454SOL     OW 2260   6.882   5.966   5.957
  454SOL    HW1 2261   6.851   6.026   5.883
  454SOL    HW2 2262   6.957   5.909   5.924
  455SOL     OW 2263   6.773   0.449   4.318
  455SOL    HW1 2264   6.781   0.389   4.398
  455SOL    HW2 2265   6.864   0.466   4.280
  456SOL     OW 2266   4.697   5.767   5.409
  456SOL    HW1 2267   4.795   5.749   5.420
  456SOL    HW2 2268   4.655   5.693   5.358
  457SOL     OW 2269   2.081   3.762   3.388
  457SOL    HW1 2270   2.127   3.819   3.456
  457SOL    HW2 2271   2.134   3.764   3.303
  458SOL     OW 2272   5.546   5.700   5.240
  458SOL    HW1 2273   5.610   5.766   5.281
  458SOL    HW2 2274   5.524   5.729   5.147
  459SOL     OW 2275   1.581   0.298   3.925
  459SOL    HW1 2276   1.594   0.296   3.825
  459SOL    HW2 2277   1.484   0.287   3.946
  460SOL     OW 2278   0.312   1.268   2.267
  460SOL    HW1 2279   0.298   1.266   2.366
  460SOL    HW2 2280   0.253   1.199   2.224
  461SOL     OW 2281   5.064   7.002   4.617
  461SOL    HW1 2282   5.148   0.015   4.578
  461SOL    HW2 2283   5.088   6.934   4.687
  462SOL     OW 2284   4.171   2.242   5.884
  462SOL    HW1 2285   4.197   2.324   5.934
  462SOL    HW2 2286   4.152   2.265   5.788
  463SOL     OW 2287   6.227   5.792   3.007
  463SOL    HW1 2288   6.290   5.727   2.966
  463SOL    HW2 2289   6.280   5.868   3.046
  464SOL     OW 2290   2.693   1.939   6.424
  464SOL    HW1 2291   2.651   1.887   6.498
  464SOL    HW2 2292   2.761   2.002   6.462
  465SOL     OW 2293   0.915   1.850   4.654
  465SOL    HW1 2294   0.928   1.772   4.593
  465SOL    HW2 2295   0.945   1.933   4.607
  466SOL     OW 2296   0.360   6.175   3.533
  466SOL    HW1 2297   0.407   6.087   3.537
  466SOL    HW2 2298   0.268   6.162   3.497
  467SOL     OW 2299   0.960   0.250   6.269
  467SOL    HW1 2300   0.904   0.204   6.338
  467SOL    HW2 2301   1.043   0.286   6.312
  468SOL     OW 2302   3.259   6.236   0.816
  468SOL    HW1 2303   3.180   6.293   0.796
  468SOL    HW2 2304   3.335   6.262   0.757
  469SOL     OW 2305   3.069   4.479   0.501
  469SOL    HW1 2306   3.029   4.487   0.409
  469SOL    HW2 2307   3.005   4.515   0.568
  470SOL     OW 2308   3.112   0.440   2.534
  470SOL    HW1 2309   3.176   0.512   2.558
  470SOL    HW2 2310   3.069   0.461   2.446
  471SOL     OW 2311   1.831   2.158   4.727
  471SOL    HW1 2312   1.805   2.061   4.732
  471SOL    HW2 2313   1.861   2.179   4.634
  472SOL     OW 2314   4.801   3.647   6.736
  472SOL    HW1 2315   4.799   3.677   6.831
  472SOL    HW2 2316   4.708   3.643   6.700
  473SOL     OW 2317   0.500   2.818   1.072
  473SOL    HW1 2318   0.501   2.720   1.093
  473SOL    HW2 2319   0.407   2.845   1.044
  474SOL     OW 2320   4.742   4.951   4.080
  474SOL    HW1 2321   4.649   4.915   4.094
  474SOL    HW2 2322   4.738   5.028   4.017
  475SOL     OW 2323   6.165   0.849   6.778
  475SOL    HW1 2324   6.114   0.827   6.695
  475SOL    HW2 2325   6.199   0.765   6.820
  476SOL     OW 2326   6.795   3.903   2.250
  476SOL    HW1 2327   6.828   3.980   2.196
  476SOL    HW2 2328   6.871   3.841   2.268
  477SOL     OW 2329   2.259   4.739   4.879
  477SOL    HW1 2330   2.350   4.729   4.919
  477SOL    HW2 2331   2.190   4.744   4.952
  478SOL     OW 2332   3.035   6.218   2.134
  478SOL    HW1 2333   3.075   6.200   2.223
  478SOL    HW2 2334   2.949   6.267   2.146
  479SOL     OW 2335   4.617   2.020   6.971
  479SOL    HW1 2336   4.524   2.035   7.004
  479SOL    HW2 2337   4.619   1.940   6.910
  480SOL     OW 2338   1.907   0.121   6.890
  480SOL    HW1 2339   1.837   0.105   6.959
  480SOL    HW2 2340   1.990   0.158   6.933
  481SOL     OW 2341   2.047   6.878   0.722
  481SOL    HW1 2342   2.134   6.922   0.746
  481SOL    HW2 2343   2.060   6.819   0.642
  482SOL     OW 2344   4.625   4.457   2.460
  482SOL    HW1 2345   4.658   4.362   2.460
  482SOL    HW2 2346   4.674   4.509   2.391
  483SOL     OW 2347   5.399   2.552   1.760
  483SOL    HW1 2348   5.357   2.574   1.848
  483SOL    HW2 2349   5.328   2.531   1.693
  484SOL     OW 2350   1.215   2.588   5.064
  484SOL    HW1 2351   1.164   2.545   5.138
  484SOL    HW2 2352   1.312   2.595   5.089
  485SOL     OW 2353   4.042   5.643   2.076
  485SOL    HW1 2354   3.947   5.625   2.100
  485SOL    HW2 2355   4.094   5.664   2.160
  486SOL     OW 2356   0.374   1.577   0.863
  486SOL    HW1 2357   0.348   1.661   0.910
  486SOL    HW2 2358   0.292   1.525   0.840
  487SOL     OW 2359   0.750   1.613   6.766
  487SOL    HW1 2360   0.785   1.685   6.707
  487SOL    HW2 2361   0.756   1.525   6.720
  488SOL     OW 2362   0.743   0.823   1.637
  488SOL    HW1 2363   0.683   0.803   1.559
  488SOL    HW2 2364   0.740   0.746   1.702
  489SOL     OW 2365   3.410   6.057   0.343
  489SOL    HW1 2366   3.365   5.967   0.343
  489SOL    HW2 2367   3.343   6.128   0.323
  490SOL     OW 2368   7.007   5.903   4.230
  490SOL    HW1 2369   6.994   5.998   4.204
  490SOL    HW2 2370   6.923   5.852   4.213
  491SOL     OW 2371   6.969   2.513   3.274
  491SOL    HW1 2372   0.003   2.530   3.195
  491SOL    HW2 2373   6.961   2.414   3.289
  492SOL     OW 2374   3.209   0.144   4.929
  492SOL    HW1 2375   3.198   0.059   4.980
  492SOL    HW2 2376   3.280   0.199   4.973
  493SOL     OW 2377   5.658   5.805   5.804
  493SOL    HW1 2378   5.605   5.738   5.751
  493SOL    HW2 2379   5.651   5.895   5.760
  494SOL     OW 2380   0.382   6.511   6.969
  494SOL    HW1 2381   0.399   6.608   6.953
  494SOL    HW2 2382   0.352   6.468   6.884
  495SOL     OW 2383   5.523   5.915   3.267
  495SOL    HW1 2384   5.441   5.867   3.233
  495SOL    HW2 2385   5.559   5.866   3.346
  496SOL     OW 2386   5.064   3.219   2.831
  496SOL    HW1 2387   5.031   3.136   2.876
  496SOL    HW2 2388   4.987   3.279   2.810
  497SOL     OW 2389   3.525   1.467   5.660
  497SOL    HW1 2390   3.521   1.432   5.567
  497SOL    HW2 2391   3.461   1.543   5.670
  498SOL     OW 2392   1.556   4.320   1.834
  498SOL    HW1 2393   1.534   4.294   1.740
  498SOL    HW2 2394   1.654   4.307   1.850
  499SOL     OW 2395   2.941   0.555   4.052
  499SOL    HW1 2396   3.031   0.513   4.059
  499SOL    HW2 2397   2.948   0.641   4.001
  500SOL     OW 2398   0.981   3.896   3.047
  500SOL    HW1 2399   1.001   3.982   3.094
  500SOL    HW2 2400   1.043   3.885   2.969
  501SOL     OW 2401   3.406   0.494   0.762
  501SOL    HW1 2402   3.376   0.485   0.857
  501SOL    HW2 2403   3.334   0.462   0.701
  502SOL     OW 2404   6.089   4.662   6.513
  502SOL    HW1 2405   6.083   4.672   6.613
  502SOL    HW2 2406   6.085   4.564   6.490
  503SOL     OW 2407   5.658   5.266   6.038
  503SOL    HW1 2408   5.692   5.356   6.066
  503SOL    HW2 2409   5.634   5.213   6.120
  504SOL     OW 2410   3.010   6.319   3.506
  504SOL    HW1 2411   3.071   6.298   3.429
  504SOL    HW2 2412   2.919   6.280   3.488
  505SOL     OW 2413   3.405   0.428   6.029
  505SOL    HW1 2414   3.459   0.495   6.079
  505SOL    HW2 2415   3.317   0.468   6.003
  506SOL     OW 2416   1.872   5.433   4.793
  506SOL    HW1 2417   1.914   5.352   4.753
  506SOL    HW2 2418   1.936   5.475   4.858
  507SOL     OW 2419   3.804   0.169   4.145
  507SOL    HW1 2420   3.744   0.249   4.139
  507SOL    HW2 2421   3.891   0.197   4.185
  508SOL     OW 2422   6.394   3.988   2.833
  508SOL    HW1 2423   6.487   3.998   2.799
  508SOL    HW2 2424   6.359   3.897   2.809
  509SOL     OW 2425   3.068   1.743   1.916
  509SOL    HW1 2426   3.139   1.697   1.969
  509SOL    HW2 2427   3.041   1.685   1.839
  510SOL     OW 2428   6.578   4.923   6.033
  510SOL    HW1 2429   6.588   4.938   5.934
  510SOL    HW2 2430   6.484   4.943   6.060
  511SOL     OW 2431   0.108   6.381   6.956
  511SOL    HW1 2432   0.161   6.378   6.872
  511SOL    HW2 2433   0.159   6.431   0.001
  512SOL     OW 2434   0.316   3.123   0.391
  512SOL    HW1 2435   0.333   3.162   0.301
  512SOL    HW2 2436   0.270   3.191   0.448
  513SOL     OW 2437   6.024   6.460   3.129
  513SOL    HW1 2438   5.928   6.487   3.120
  513SOL    HW2 2439   6.073   6.485   3.045
  514SOL     OW 2440   6.657   2.297   4.125
  514SOL    HW1 2441   6.618   2.315   4.035
  514SOL    HW2 2442   6.708   2.377   4.156
  515SOL     OW 2443   2.028   0.152   5.962
  515SOL    HW1 2444   2.069   0.191   5.880
  515SOL    HW2 2445   1.948   0.097   5.937
  516SOL     OW 2446   2.676   4.437   1.715
  516SOL    HW1 2447   2.771   4.460   1.736
  516SOL    HW2 2448   2.615   4.497   1.767
  517SOL     OW 2449   5.257   5.997   2.216
  517SOL    HW1 2450   5.183   5.991   2.283
  517SOL    HW2 2451   5.253   5.918   2.155
  518SOL     OW 2452   2.908   2.117   1.975
  518SOL    HW1 2453   2.886   2.204   2.020
  518SOL    HW2 2454   2.884   2.122   1.879
  519SOL     OW 2455   6.793   0.668   4.966
  519SOL    HW1 2456   6.885   0.679   5.005
  519SOL    HW2 2457   6.781   0.573   4.938
  520SOL     OW 2458   5.717   4.692   6.545
  520SOL    HW1 2459   5.771   4.661   6.467
  520SOL    HW2 2460   5.690   4.613   6.600
  521SOL     OW 2461   6.402   2.725   6.642
  521SOL    HW1 2462   6.305   2.717   6.621
  521SOL    HW2 2463   6.432   2.647   6.697
  522SOL     OW 2464   3.984   2.912   5.623
  522SOL    HW1 2465   3.990   2.910   5.723
  522SOL    HW2 2466   4.015   3.000   5.589
  523SOL     OW 2467   0.240   4.938   3.525
  523SOL    HW1 2468   0.285   4.850   3.535
  523SOL    HW2 2469   0.142   4.928   3.544
  524SOL     OW 2470   2.632   1.114   6.530
  524SOL    HW1 2471   2.551   1.141   6.580
  524SOL    HW2 2472   2.696   1.190   6.525
  525SOL     OW 2473   2.917   3.297   6.470
  525SOL    HW1 2474   2.911   3.290   6.371
  525SOL    HW2 2475   2.958   3.385   6.495
  526SOL     OW 2476   2.783   7.016   4.812
  526SOL    HW1 2477   2.813   6.940   4.756
  526SOL    HW2 2478   2.779   0.074   4.757
  527SOL     OW 2479   6.037   3.338   6.428
  527SOL    HW1 2480   6.100   3.403   6.469
  527SOL    HW2 2481   6.053   3.334   6.329
  528SOL     OW 2482   1.118   1.453   3.830
  528SOL    HW1 2483   1.214   1.431   3.810
  528SOL    HW2 2484   1.082   1.513   3.759
  529SOL     OW 2485   0.313   5.504   4.756
  529SOL    HW1 2486   0.399   5.454   4.771
  529SOL    HW2 2487   0.312   5.543   4.664
  530SOL     OW 2488   2.628   2.875   5.361
  530SOL    HW1 2489   2.614   2.906   5.455
  530SOL    HW2 2490   2.573   2.930   5.298
  531SOL     OW 2491   0.045   0.978   1.653
  531SOL    HW1 2492   0.043   0.888   1.609
  531SOL    HW2 2493   7.009   0.978   1.732
  532SOL     OW 2494   0.536   3.032   6.105
  532SOL    HW1 2495   0.615   3.044   6.044
  532SOL    HW2 2496   0.478   2.959   6.070
  533SOL     OW 2497   4.871   5.668   4.394
  533SOL    HW1 2498   4.966   5.637   4.387
  533SOL    HW2 2499   4.868   5.767   4.384
  534SOL     OW 2500   5.503   5.347   3.352
  534SOL    HW1 2501   5.602   5.336   3.341
  534SOL    HW2 2502   5.462   5.258   3.373
  535SOL     OW 2503   1.022   4.274   4.343
  535SOL    HW1 2504   0.967   4.333   4.402
  535SOL    HW2 2505   1.118   4.279   4.371
  536SOL     OW 2506   7.011   5.161   2.178
  536SOL    HW1 2507   7.015   5.185   2.275
  536SOL    HW2 2508   0.078   5.145   2.143
  537SOL     OW 2509   2.154   6.558   3.762
  537SOL    HW1 2510   2.247   6.523   3.757
  537SOL    HW2 2511   2.108   6.545   3.674
  538SOL     OW 2512   1.821   5.795   3.492
  538SOL    HW1 2513   1.868   5.852   3.425
  538SOL    HW2 2514   1.856   5.815   3.584
  539SOL     OW 2515   0.174   5.833   0.551
  539SOL    HW1 2516   0.113   5.753   0.542
  539SOL    HW2 2517   0.205   5.861   0.460
  540SOL     OW 2518   0.525   1.561   2.045
  540SOL    HW1 2519   0.560   1.485   2.101
  540SOL    HW2 2520   0.467   1.524   1.973
  541SOL     OW 2521   2.873   6.549   4.360
  541SOL    HW1 2522   2.960   6.589   4.334
  541SOL    HW2 2523   2.855   6.469   4.304
  542SOL     OW 2524   6.592   6.583   6.937
  542SOL    HW1 2525   6.536   6.523   6.994
  542SOL    HW2 2526   6.570   6.568   6.841
  543SOL     OW 2527   0.450   4.855   5.589
  543SOL    HW1 2528   0.409   4.944   5.611
  543SOL    HW2 2529   0.549   4.860   5.601
  544SOL     OW 2530   1.238   4.422   1.233
  544SOL    HW1 2531   1.331   4.398   1.205
  544SOL    HW2 2532   1.180   4.341   1.230
  545SOL     OW 2533   3.671   1.750   3.327
  545SOL    HW1 2534   3.706   1.669   3.375
  545SOL    HW2 2535   3.626   1.721   3.242
  546SOL     OW 2536   1.764   3.431   1.504
  546SOL    HW1 2537   1.820   3.408   1.424
  546SOL    HW2 2538   1.813   3.497   1.561
  547SOL     OW 2539   2.261   1.373   6.834
  547SOL    HW1 2540   2.260   1.387   6.933
  547SOL    HW2 2541   2.258   1.462   6.788
  548SOL     OW 2542   3.506   2.870   3.048
  548SOL    HW1 2543   3.519   2.800   3.119
  548SOL    HW2 2544   3.506   2.960   3.091
  549SOL     OW 2545   4.230   3.657   1.842
  549SOL    HW1 2546   4.267   3.681   1.752
  549SOL    HW2 2547   4.207   3.740   1.892
  550SOL     OW 2548   6.831   3.053   3.230
  550SOL    HW1 2549   6.751   3.112   3.220
  550SOL    HW2 2550   6.893   3.092   3.297
  551SOL     OW 2551   0.060   1.973   0.810
  551SOL    HW1 2552   0.072   1.997   0.906
  551SOL    HW2 2553   7.021   2.036   0.767
  552SOL     OW 2554   3.691   5.806   0.766
  552SOL    HW1 2555   3.612   5.755   0.732
  552SOL    HW2 2556   3.770   5.787   0.709
  553SOL     OW 2557   1.743   6.703   2.523
  553SOL    HW1 2558   1.736   6.748   2.434
  553SOL    HW2 2559   1.834   6.662   2.533
  554SOL     OW 2560   5.130   0.146   6.445
  554SOL    HW1 2561   5.204   0.092   6.406
  554SOL    HW2 2562   5.084   0.093   6.516
  555SOL     OW 2563   2.365   5.139   4.153
  555SOL    HW1 2564   2.329   5.221   4.198
  555SOL    HW2 2565   2.463   5.131   4.171
  556SOL     OW 2566   6.156   2.398   4.101
  556SOL    HW1 2567   6.232   2.450   4.061
  556SOL    HW2 2568   6.157   2.411   4.201
  557SOL     OW 2569   0.062   6.225   6.624
  557SOL    HW1 2570   0.017   6.218   6.535
  557SOL    HW2 2571   0.028   6.153   6.685
  558SOL     OW 2572   4.330   3.481   5.243
  558SOL    HW1 2573   4.266   3.424   5.192
  558SOL    HW2 2574   4.404   3.425   5.279
  559SOL     OW 2575   6.472   6.441   6.512
  559SOL    HW1 2576   6.533   6.380   6.563
  559SOL    HW2 2577   6.526   6.508   6.461
  560SOL     OW 2578   3.429   6.522   0.857
  560SOL    HW1 2579   3.438   6.422   0.855
  560SOL    HW2 2580   3.383   6.553   0.774
  561SOL     OW 2581   5.925   7.000   6.499
  561SOL    HW1 2582   5.908   0.069   6.469
  561SOL    HW2 2583   5.957   6.945   6.422
  562SOL     OW 2584   4.750   0.914   6.333
  562SOL    HW1 2585   4.662   0.960   6.337
  562SOL    HW2 2586   4.823   0.981   6.350
  563SOL     OW 2587   2.894   6.572   3.334
  563SOL    HW1 2588   2.988   6.553   3.306
  563SOL    HW2 2589   2.831   6.520   3.276
  564SOL     OW 2590   2.446   2.534   6.186
  564SOL    HW1 2591   2.426   2.588   6.105
  564SOL    HW2 2592   2.369   2.539   6.250
  565SOL     OW 2593   4.627   3.048   5.375
  565SOL    HW1 2594   4.600   2.954   5.355
  565SOL    HW2 2595   4.657   3.054   5.470
  566SOL     OW 2596   4.378   4.681   3.728
  566SOL    HW1 2597   4.315   4.751   3.762
  566SOL    HW2 2598   4.354   4.657   3.634
  567SOL     OW 2599   3.205   3.336   4.126
  567SOL    HW1 2600   3.231   3.402   4.056
  567SOL    HW2 2601   3.265   3.346   4.205
  568SOL     OW 2602   3.767   2.360   1.113
  568SOL    HW1 2603   3.830   2.317   1.178
  568SOL    HW2 2604   3.774   2.313   1.025
  569SOL     OW 2605   1.394   3.128   0.542
  569SOL    HW1 2606   1.454   3.088   0.611
  569SOL    HW2 2607   1.311   3.072   0.533
  570SOL     OW 2608   1.515   6.359   0.184
  570SOL    HW1 2609   1.521   6.458   0.201
  570SOL    HW2 2610   1.419   6.333   0.176
  571SOL     OW 2611   2.964   6.007   2.379
  571SOL    HW1 2612   2.910   5.992   2.462
  571SOL    HW2 2613   3.030   5.933   2.368
  572SOL     OW 2614   2.372   4.627   5.800
  572SOL    HW1 2615   2.384   4.563   5.724
  572SOL    HW2 2616   2.290   4.603   5.852
  573SOL     OW 2617   3.447   1.580   5.178
  573SOL    HW1 2618   3.434   1.557   5.082
  573SOL    HW2 2619   3.358   1.601   5.219
  574SOL     OW 2620   2.282   2.071   4.484
  574SOL    HW1 2621   2.247   2.158   4.448
  574SOL    HW2 2622   2.378   2.082   4.510
  575SOL     OW 2623   6.198   3.769   0.398
  575SOL    HW1 2624   6.214   3.670   0.406
  575SOL    HW2 2625   6.152   3.802   0.480
  576SOL     OW 2626   1.085   2.291   2.012
  576SOL    HW1 2627   1.113   2.201   1.977
  576SOL    HW2 2628   0.991   2.285   2.046
  577SOL     OW 2629   2.644   1.417   3.774
  577SOL    HW1 2630   2.545   1.414   3.789
  577SOL    HW2 2631   2.690   1.435   3.861
  578SOL     OW 2632   6.837   3.409   3.455
  578SOL    HW1 2633   6.869   3.320   3.487
  578SOL    HW2 2634   6.869   3.480   3.518
  579SOL     OW 2635   4.097   1.942   1.431
  579SOL    HW1 2636   4.119   2.017   1.492
  579SOL    HW2 2637   4.005   1.955   1.393
  580SOL     OW 2638   0.764   4.609   6.062
  580SOL    HW1 2639   0.745   4.690   6.008
  580SOL    HW2 2640   0.709   4.533   6.028
  581SOL     OW 2641   3.800   2.901   3.507
  581SOL    HW1 2642   3.844   2.812   3.516
  581SOL    HW2 2643   3.712   2.890   3.461
  582SOL     OW 2644   5.819   4.193   2.273
  582SOL    HW1 2645   5.892   4.158   2.332
  582SOL    HW2 2646   5.798   4.288   2.299
  583SOL     OW 2647   2.879   4.878   0.243
  583SOL    HW1 2648   2.928   4.843   0.323
  583SOL    HW2 2649   2.798   4.929   0.272
  584SOL     OW 2650   6.977   4.950   5.365
  584SOL    HW1 2651   6.929   5.024   5.316
  584SOL    HW2 2652   6.972   4.867   5.310
  585SOL     OW 2653   6.801   2.592   6.000
  585SOL    HW1 2654   6.777   2.686   5.979
  585SOL    HW2 2655   6.718   2.536   6.003
  586SOL     OW 2656   3.048   6.692   0.475
  586SOL    HW1 2657   2.952   6.696   0.502
  586SOL    HW2 2658   3.060   6.737   0.387
  587SOL     OW 2659   2.103   1.716   5.221
  587SOL    HW1 2660   2.081   1.623   5.191
  587SOL    HW2 2661   2.072   1.729   5.315
  588SOL     OW 2662   3.596   6.835   1.290
  588SOL    HW1 2663   3.606   6.895   1.211
  588SOL    HW2 2664   3.531   6.762   1.268
  589SOL     OW 2665   3.652   5.051   1.723
  589SOL    HW1 2666   3.620   5.141   1.755
  589SOL    HW2 2667   3.717   5.064   1.648
  590SOL     OW 2668   0.142   2.680   2.256
  590SOL    HW1 2669   0.234   2.716   2.246
  590SOL    HW2 2670   0.083   2.716   2.184
  591SOL     OW 2671   4.248   0.040   3.439
  591SOL    HW1 2672   4.174   0.060   3.375
  591SOL    HW2 2673   4.225   6.985   3.494
  592SOL     OW 2674   4.848   1.037   0.274
  592SOL    HW1 2675   4.838   1.048   0.373
  592SOL    HW2 2676   4.760   1.053   0.230
  593SOL     OW 2677   4.191   2.152   3.993
  593SOL    HW1 2678   4.249   2.184   3.918
  593SOL    HW2 2679   4.234   2.173   4.081
  594SOL     OW 2680   4.143   3.106   6.844
  594SOL    HW1 2681   4.166   3.019   6.800
  594SOL    HW2 2682   4.044   3.113   6.854
  595SOL     OW 2683   3.969   6.841   4.427
  595SOL    HW1 2684   3.882   6.826   4.473
  595SOL    HW2 2685   3.962   6.812   4.331
  596SOL     OW 2686   1.104   4.019   2.243
  596SOL    HW1 2687   1.159   4.064   2.313
  596SOL    HW2 2688   1.015   3.993   2.282
  597SOL     OW 2689   3.799   6.778   6.746
  597SOL    HW1 2690   3.830   6.805   6.655
  597SOL    HW2 2691   3.731   6.705   6.738
  598SOL     OW 2692   4.132   4.986   0.361
  598SOL    HW1 2693   4.178   4.905   0.397
  598SOL    HW2 2694   4.037   4.987   0.393
  599SOL     OW 2695   0.192   0.256   2.514
  599SOL    HW1 2696   0.231   0.218   2.430
  599SOL    HW2 2697   0.265   0.291   2.572
  600SOL     OW 2698   1.077   6.530   0.763
  600SOL    HW1 2699   1.092   6.435   0.790
  600SOL    HW2 2700   1.086   6.589   0.843
  601SOL     OW 2701   2.700   5.881   3.452
  601SOL    HW1 2702   2.766   5.956   3.446
  601SOL    HW2 2703   2.738   5.800   3.408
  602SOL     OW 2704   1.048   0.370   0.586
  602SOL    HW1 2705   1.142   0.351   0.617
  602SOL    HW2 2706   1.022   0.462   0.614
  603SOL     OW 2707   3.791   1.726   3.602
  603SOL    HW1 2708   3.812   1.799   3.536
  603SOL    HW2 2709   3.830   1.640   3.569
  604SOL     OW 2710   1.522   3.173   0.080
  604SOL    HW1 2711   1.521   3.238   0.004
  604SOL    HW2 2712   1.613   3.134   0.089
  605SOL     OW 2713   0.165   5.973   3.361
  605SOL    HW1 2714   0.141   5.878   3.382
  605SOL    HW2 2715   0.255   5.975   3.318
  606SOL     OW 2716   4.461   0.564   4.737
  606SOL    HW1 2717   4.362   0.562   4.750
  606SOL    HW2 2718   4.495   0.472   4.718
  607SOL     OW 2719   5.943   1.176   3.664
  607SOL    HW1 2720   6.013   1.210   3.603
  607SOL    HW2 2721   5.853   1.185   3.621
  608SOL     OW 2722   2.981   0.396   0.856
  608SOL    HW1 2723   2.965   0.319   0.794
  608SOL    HW2 2724   3.056   0.452   0.822
  609SOL     OW 2725   3.322   2.899   4.834
  609SOL    HW1 2726   3.382   2.858   4.903
  609SOL    HW2 2727   3.363   2.888   4.744
  610SOL     OW 2728   5.120   2.430   3.768
  610SOL    HW1 2729   5.151   2.441   3.673
  610SOL    HW2 2730   5.178   2.364   3.815
  611SOL     OW 2731   7.019   0.473   0.031
  611SOL    HW1 2732   0.050   0.529   6.995
  611SOL    HW2 2733   0.004   0.377   0.005
  612SOL     OW 2734   3.811   5.083   5.808
  612SOL    HW1 2735   3.715   5.098   5.783
  612SOL    HW2 2736   3.858   5.171   5.813
  613SOL     OW 2737   4.159   1.435   5.698
  613SOL    HW1 2738   4.125   1.496   5.769
  613SOL    HW2 2739   4.161   1.484   5.610
  614SOL     OW 2740   6.052   4.674   0.686
  614SOL    HW1 2741   6.093   4.748   0.634
  614SOL    HW2 2742   5.961   4.653   0.649
  615SOL     OW 2743   0.559   0.194   6.880
  615SOL    HW1 2744   0.523   0.186   6.972
  615SOL    HW2 2745   0.518   0.273   6.835
  616SOL     OW 2746   5.689   2.210   4.544
  616SOL    HW1 2747   5.632   2.130   4.560
  616SOL    HW2 2748   5.739   2.199   4.457
  617SOL     OW 2749   0.266   4.514   5.755
  617SOL    HW1 2750   0.232   4.459   5.831
  617SOL    HW2 2751   0.227   4.606   5.759
  618SOL     OW 2752   6.346   3.341   1.727
  618SOL    HW1 2753   6.252   3.347   1.760
  618SOL    HW2 2754   6.398   3.419   1.761
  619SOL     OW 2755   3.242   0.781   0.180
  619SOL    HW1 2756   3.232   0.682   0.178
  619SOL    HW2 2757   3.315   0.806   0.244
  620SOL     OW 2758   5.637   3.507   2.029
  620SOL    HW1 2759   5.602   3.600   2.039
  620SOL    HW2 2760   5.703   3.489   2.102
  621SOL     OW 2761   2.910   6.946   6.124
  621SOL    HW1 2762   2.887   7.020   6.061
  621SOL    HW2 2763   2.837   6.878   6.124
  622SOL     OW 2764   0.920   2.359   5.078
  622SOL    HW1 2765   0.927   2.285   5.011
  622SOL    HW2 2766   0.837   2.347   5.132
  623SOL     OW 2767   6.573   6.387   4.341
  623SOL    HW1 2768   6.487   6.338   4.326
  623SOL    HW2 2769   6.558   6.485   4.330
  624SOL     OW 2770   6.303   1.716   6.449
  624SOL    HW1 2771   6.258   1.656   6.383
  624SOL    HW2 2772   6.325   1.664   6.531
  625SOL     OW 2773   2.222   1.012   0.239
  625SOL    HW1 2774   2.153   1.069   0.285
  625SOL    HW2 2775   2.251   0.939   0.301
  626SOL     OW 2776   1.409   5.878   3.856
  626SOL    HW1 2777   1.432   5.805   3.792
  626SOL    HW2 2778   1.436   5.966   3.817
  627SOL     OW 2779   6.305   6.585   0.145
  627SOL    HW1 2780   6.369   6.517   0.111
  627SOL    HW2 2781   6.332   6.676   0.113
  628SOL     OW 2782   5.374   4.135   5.422
  628SOL    HW1 2783   5.384   4.172   5.329
  628SOL    HW2 2784   5.325   4.202   5.479
  629SOL     OW 2785   6.749   0.817   0.127
  629SOL    HW1 2786   6.719   0.862   0.043
  629SOL    HW2 2787   6.827   0.866   0.166
  630SOL     OW 2788   6.857   1.337   1.303
  630SOL    HW1 2789   6.758   1.345   1.311
  630SOL    HW2 2790   6.899   1.427   1.318
  631SOL     OW 2791   2.535   2.549   4.982
  631SOL    HW1 2792   2.444   2.564   4.945
  631SOL    HW2 2793   2.544   2.599   5.068
  632SOL     OW 2794   5.017   3.202   0.542
  632SOL    HW1 2795   4.991   3.110   0.573
  632SOL    HW2 2796   5.047   3.198   0.447
  633SOL     OW 2797   1.629   5.175   1.040
  633SOL    HW1 2798   1.544   5.178   1.094
  633SOL    HW2 2799   1.615   5.226   0.955
  634SOL     OW 2800   2.888   3.428   3.988
  634SOL    HW1 2801   2.922   3.374   3.911
  634SOL    HW2 2802   2.907   3.525   3.971
  635SOL     OW 2803   5.315   1.118   6.739
  635SOL    HW1 2804   5.338   1.119   6.836
  635SOL    HW2 2805   5.395   1.142   6.685
  636SOL     OW 2806   2.933   0.401   5.976
  636SOL    HW1 2807   2.901   0.474   6.036
  636SOL    HW2 2808   3.014   0.357   6.015
  637SOL     OW 2809   6.431   1.014   2.385
  637SOL    HW1 2810   6.389   1.093   2.340
  637SOL    HW2 2811   6.360   0.957   2.425
  638SOL     OW 2812   5.828   3.430   3.788
  638SOL    HW1 2813   5.861   3.507   3.734
  638SOL    HW2 2814   5.827   3.455   3.885
  639SOL     OW 2815   5.575   4.854   2.874
  639SOL    HW1 2816   5.590   4.895   2.965
  639SOL    HW2 2817   5.584   4.925   2.804
  640SOL     OW 2818   7.023   2.699   2.731
  640SOL    HW1 2819   6.971   2.784   2.733
  640SOL    HW2 2820   6.968   2.626   2.689
  641SOL     OW 2821   2.034   4.769   5.267
  641SOL    HW1 2822   1.944   4.787   5.307
  641SOL    HW2 2823   2.086   4.709   5.328
  642SOL     OW 2824   0.842   3.906   4.560
  642SOL    HW1 2825   0.929   3.892   4.607
  642SOL    HW2 2826   0.859   3.934   4.465
  643SOL     OW 2827   5.398   6.545   6.998
  643SOL    HW1 2828   5.399   6.535   0.072
  643SOL    HW2 2829   5.308   6.579   6.968
  644SOL     OW 2830   0.586   0.320   4.570
  644SOL    HW1 2831   0.631   0.236   4.601
  644SOL    HW2 2832   0.632   0.399   4.611
  645SOL     OW 2833   3.758   4.856   2.710
  645SOL    HW1 2834   3.725   4.873   2.617
  645SOL    HW2 2835   3.695   4.896   2.776
  646SOL     OW 2836   3.636   0.871   5.276
  646SOL    HW1 2837   3.716   0.817   5.249
  646SOL    HW2 2838   3.658   0.968   5.271
  647SOL     OW 2839   4.919   2.075   4.445
  647SOL    HW1 2840   4.939   1.987   4.403
  647SOL    HW2 2841   4.849   2.064   4.516
  648SOL     OW 2842   6.050   1.480   2.821
  648SOL    HW1 2843   6.095   1.410   2.765
  648SOL    HW2 2844   5.965   1.507   2.777
  649SOL     OW 2845   2.377   4.916   0.306
  649SOL    HW1 2846   2.348   5.004   0.344
  649SOL    HW2 2847   2.298   4.869   0.267
  650SOL     OW 2848   6.570   5.594   0.596
  650SOL    HW1 2849   6.632   5.642   0.657
  650SOL    HW2 2850   6.606   5.598   0.502
  651SOL     OW 2851   1.305   0.268   5.712
  651SOL    HW1 2852   1.292   0.367   5.722
  651SOL    HW2 2853   1.330   0.247   5.618
  652SOL     OW 2854   4.441   0.790   2.071
  652SOL    HW1 2855   4.454   0.717   2.138
  652SOL    HW2 2856   4.358   0.841   2.094
  653SOL     OW 2857   6.564   6.360   0.807
  653SOL    HW1 2858   6.474   6.403   0.800
  653SOL    HW2 2859   6.626   6.402   0.740
  654SOL     OW 2860   6.547   6.493   5.572
  654SOL    HW1 2861   6.466   6.483   5.629
  654SOL    HW2 2862   6.572   6.589   5.565
  655SOL     OW 2863   0.214   5.036   2.095
  655SOL    HW1 2864   0.211   4.954   2.038
  655SOL    HW2 2865   0.302   5.040   2.142
  656SOL     OW 2866   3.276   6.581   0.623
  656SOL    HW1 2867   3.295   6.503   0.563
  656SOL    HW2 2868   3.183   6.614   0.608
  657SOL     OW 2869   3.862   3.214   1.856
  657SOL    HW1 2870   3.768   3.200   1.825
  657SOL    HW2 2871   3.925   3.167   1.794
  658SOL     OW 2872   2.241   3.939   4.157
  658SOL    HW1 2873   2.284   3.857   4.120
  658SOL    HW2 2874   2.144   3.921   4.173
  659SOL     OW 2875   3.733   6.200   5.761
  659SOL    HW1 2876   3.729   6.131   5.834
  659SOL    HW2 2877   3.663   6.179   5.692
  660SOL     OW 2878   5.079   4.600   2.553
  660SOL    HW1 2879   5.020   4.598   2.634
  660SOL    HW2 2880   5.039   4.541   2.482
  661SOL     OW 2881   4.984   4.147   4.140
  661SOL    HW1 2882   4.996   4.188   4.050
  661SOL    HW2 2883   4.898   4.178   4.180
  662SOL     OW 2884   4.667   2.667   6.805
  662SOL    HW1 2885   4.630   2.580   6.771
  662SOL    HW2 2886   4.641   2.680   6.900
  663SOL     OW 2887   6.754   4.161   6.973
  663SOL    HW1 2888   6.732   4.203   0.036
  663SOL    HW2 2889   6.766   4.062   6.985
  664SOL     OW 2890   1.434   5.992   6.258
  664SOL    HW1 2891   1.434   6.055   6.180
  664SOL    HW2 2892   1.344   5.994   6.302
  665SOL     OW 2893   3.543   5.490   1.398
  665SOL    HW1 2894   3.599   5.415   1.435
  665SOL    HW2 2895   3.537   5.563   1.466
  666SOL     OW 2896   3.920   1.847   7.020
  666SOL    HW1 2897   3.950   1.908   0.068
  666SOL    HW2 2898   3.956   1.756   0.010
  667SOL     OW 2899   0.462   2.838   3.726
  667SOL    HW1 2900   0.532   2.893   3.772
  667SOL    HW2 2901   0.393   2.898   3.687
  668SOL     OW 2902   4.598   6.577   0.018
  668SOL    HW1 2903   4.543   6.633   6.981
  668SOL    HW2 2904   4.610   6.625   0.104
  669SOL     OW 2905   1.043   0.009   3.439
  669SOL    HW1 2906   0.976   0.068   3.484
  669SOL    HW2 2907   0.996   6.974   3.374
  670SOL     OW 2908   3.377   3.766   2.947
  670SOL    HW1 2909   3.301   3.716   2.904
  670SOL    HW2 2910   3.341   3.842   3.000
  671SOL     OW 2911   1.630   6.157   5.986
  671SOL    HW1 2912   1.728   6.136   5.982
  671SOL    HW2 2913   1.579   6.093   5.929
  672SOL     OW 2914   1.114   3.004   4.367
  672SOL    HW1 2915   1.112   3.098   4.401
  672SOL    HW2 2916   1.207   2.969   4.370
  673SOL     OW 2917   4.982   0.557   6.941
  673SOL    HW1 2918   5.036   0.495   6.885
  673SOL    HW2 2919   5.038   0.592   7.016
  674SOL     OW 2920   0.655   2.593   3.630
  674SOL    HW1 2921   0.582   2.657   3.652
  674SOL    HW2 2922   0.744   2.637   3.646
  675SOL     OW 2923   0.483   2.483   4.499
  675SOL    HW1 2924   0.534   2.533   4.569
  675SOL    HW2 2925   0.546   2.423   4.448
  676SOL     OW 2926   2.814   4.779   4.392
  676SOL    HW1 2927   2.860   4.791   4.304
  676SOL    HW2 2928   2.760   4.695   4.390
  677SOL     OW 2929   6.224   0.339   0.566
  677SOL    HW1 2930   6.215   0.274   0.490
  677SOL    HW2 2931   6.203   0.293   0.652
  678SOL     OW 2932   2.727   0.914   5.857
  678SOL    HW1 2933   2.773   0.916   5.768
  678SOL    HW2 2934   2.679   1.001   5.871
  679SOL     OW 2935   3.636   1.001   3.298
  679SOL    HW1 2936   3.625   0.992   3.397
  679SOL    HW2 2937   3.717   1.056   3.278
  680SOL     OW 2938   5.757   3.967   5.731
  680SOL    HW1 2939   5.669   3.965   5.683
  680SOL    HW2 2940   5.758   3.895   5.800
  681SOL     OW 2941   6.550   6.358   1.089
  681SOL    HW1 2942   6.458   6.371   1.125
  681SOL    HW2 2943   6.545   6.352   0.989
  682SOL     OW 2944   1.988   6.854   0.127
  682SOL    HW1 2945   1.965   6.829   0.033
  682SOL    HW2 2946   1.975   6.952   0.140
  683SOL     OW 2947   4.144   1.372   6.127
  683SOL    HW1 2948   4.123   1.403   6.034
  683SOL    HW2 2949   4.065   1.325   6.166
  684SOL     OW 2950   0.098   6.821   6.416
  684SOL    HW1 2951   0.152   6.738   6.403
  684SOL    HW2 2952   0.117   6.859   6.506
  685SOL     OW 2953   4.876   6.939   6.481
  685SOL    HW1 2954   4.938   6.888   6.540
  685SOL    HW2 2955   4.781   6.911   6.499
  686SOL     OW 2956   5.256   2.924   3.532
  686SOL    HW1 2957   5.199   2.971   3.598
  686SOL    HW2 2958   5.199   2.868   3.471
  687SOL     OW 2959   6.829   3.415   6.602
  687SOL    HW1 2960   6.786   3.403   6.691
  687SOL    HW2 2961   6.807   3.337   6.543
  688SOL     OW 2962   2.130   3.724   0.014
  688SOL    HW1 2963   2.135   3.772   0.102
  688SOL    HW2 2964   2.131   3.626   0.029
  689SOL     OW 2965   0.559   4.305   6.385
  689SOL    HW1 2966   0.615   4.271   6.310
  689SOL    HW2 2967   0.517   4.392   6.360
  690SOL     OW 2968   1.165   2.202   3.953
  690SOL    HW1 2969   1.194   2.184   4.047
  690SOL    HW2 2970   1.244   2.193   3.892
  691SOL     OW 2971   1.659   2.404   6.171
  691SOL    HW1 2972   1.650   2.503   6.175
  691SOL    HW2 2973   1.698   2.377   6.083
  692SOL     OW 2974   2.629   6.882   3.195
  692SOL    HW1 2975   2.641   6.862   3.098
  692SOL    HW2 2976   2.665   6.973   3.216
  693SOL     OW 2977   6.537   2.024   2.386
  693SOL    HW1 2978   6.520   1.936   2.341
  693SOL    HW2 2979   6.467   2.090   2.358
  694SOL     OW 2980   3.305   5.716   1.072
  694SOL    HW1 2981   3.339   5.793   1.126
  694SOL    HW2 2982   3.349   5.716   0.983
  695SOL     OW 2983   5.358   5.588   4.801
  695SOL    HW1 2984   5.305   5.547   4.876
  695SOL    HW2 2985   5.426   5.650   4.839
  696SOL     OW 2986   3.343   5.259   2.363
  696SOL    HW1 2987   3.253   5.302   2.365
  696SOL    HW2 2988   3.380   5.262   2.271
  697SOL     OW 2989   1.247   3.463   5.173
  697SOL    HW1 2990   1.329   3.409   5.196
  697SOL    HW2 2991   1.259   3.557   5.205
  698SOL     OW 2992   4.752   0.392   3.346
  698SOL    HW1 2993   4.738   0.380   3.248
  698SOL    HW2 2994   4.840   0.354   3.373
  699SOL     OW 2995   1.773   4.646   1.112
  699SOL    HW1 2996   1.828   4.622   1.032
  699SOL    HW2 2997   1.764   4.566   1.172
  700SOL     OW 2998   2.605   2.442   3.882
  700SOL    HW1 2999   2.538   2.506   3.844
  700SOL    HW2 3000   2.618   2.366   3.819
  701SOL     OW 3001   1.053   4.529   6.995
  701SOL    HW1 3002   1.026   4.485   0.055
  701SOL    HW2 3003   1.135   4.584   7.012
  702SOL     OW 3004   5.113   6.866   4.858
  702SOL    HW1 3005   5.208   6.838   4.870
  702SOL    HW2 3006   5.053   6.798   4.901
  703SOL     OW 3007   4.448   3.316   6.617
  703SOL    HW1 3008   4.530   3.260   6.625
  703SOL    HW2 3009   4.470   3.411   6.640
  704SOL     OW 3010   1.089   1.233   6.250
  704SOL    HW1 3011   1.072   1.168   6.176
  704SOL    HW2 3012   1.174   1.209   6.296
  705SOL     OW 3013   4.766   0.875   3.534
  705SOL    HW1 3014   4.713   0.815   3.594
  705SOL    HW2 3015   4.748   0.850   3.439
  706SOL     OW 3016   3.353   2.040   4.215
  706SOL    HW1 3017   3.407   2.074   4.292
  706SOL    HW2 3018   3.414   2.012   4.141
  707SOL     OW 3019   4.596   0.608   1.875
  707SOL    HW1 3020   4.583   0.705   1.851
  707SOL    HW2 3021   4.571   0.551   1.797
  708SOL     OW 3022   4.777   0.248   1.343
  708SOL    HW1 3023   4.751   0.345   1.335
  708SOL    HW2 3024   4.853   0.239   1.406
  709SOL     OW 3025   1.070   5.029   1.082
  709SOL    HW1 3026   1.166   5.025   1.056
  709SOL    HW2 3027   1.061   5.023   1.181
  710SOL     OW 3028   3.469   4.027   2.256
  710SOL    HW1 3029   3.539   4.054   2.322
  710SOL    HW2 3030   3.379   4.032   2.300
  711SOL     OW 3031   6.630   2.623   5.051
  711SOL    HW1 3032   6.716   2.576   5.066
  711SOL    HW2 3033   6.564   2.596   5.121
  712SOL     OW 3034   1.133   3.640   0.852
  712SOL    HW1 3035   1.182   3.711   0.904
  712SOL    HW2 3036   1.047   3.619   0.898
  713SOL     OW 3037   4.106   3.308   2.399
  713SOL    HW1 3038   4.126   3.385   2.337
  713SOL    HW2 3039   4.180   3.298   2.465
  714SOL     OW 3040   5.474   4.450   5.489
  714SOL    HW1 3041   5.398   4.396   5.524
  714SOL    HW2 3042   5.472   4.450   5.389
  715SOL     OW 3043   4.364   5.975   6.758
  715SOL    HW1 3044   4.265   5.978   6.751
  715SOL    HW2 3045   4.395   5.880   6.758
  716SOL     OW 3046   0.626   5.154   1.618
  716SOL    HW1 3047   0.557   5.099   1.570
  716SOL    HW2 3048   0.663   5.223   1.555
  717SOL     OW 3049   5.875   4.342   6.961
  717SOL    HW1 3050   5.792   4.384   6.996
  717SOL    HW2 3051   5.951   4.361   7.024
  718SOL     OW 3052   3.622   2.569   5.820
  718SOL    HW1 3053   3.632   2.647   5.881
  718SOL    HW2 3054   3.549   2.587   5.754
  719SOL     OW 3055   6.843   2.996   1.314
  719SOL    HW1 3056   6.927   3.014   1.366
  719SOL    HW2 3057   6.846   3.045   1.227
  720SOL     OW 3058   2.421   1.536   5.318
  720SOL    HW1 3059   2.516   1.521   5.346
  720SOL    HW2 3060   2.415   1.537   5.219
  721SOL     OW 3061   1.222   0.551   5.408
  721SOL    HW1 3062   1.207   0.488   5.332
  721SOL    HW2 3063   1.135   0.586   5.440
  722SOL     OW 3064   4.320   6.417   5.143
  722SOL    HW1 3065   4.405   6.464   5.166
  722SOL    HW2 3066   4.328   6.376   5.052
  723SOL     OW 3067   2.454   2.674   2.189
  723SOL    HW1 3068   2.505   2.749   2.147
  723SOL    HW2 3069   2.516   2.597   2.204
  724SOL     OW 3070   0.472   1.674   5.133
  724SOL    HW1 3071   0.489   1.685   5.035
  724SOL    HW2 3072   0.485   1.762   5.178
  725SOL     OW 3073   2.929   5.215   1.783
  725SOL    HW1 3074   2.994   5.173   1.847
  725SOL    HW2 3075   2.895   5.144   1.720
  726SOL     OW 3076   3.115   4.993   6.551
  726SOL    HW1 3077   3.021   4.961   6.550
  726SOL    HW2 3078   3.166   4.947   6.623
  727SOL     OW 3079   3.807   5.538   4.359
  727SOL    HW1 3080   3.845   5.587   4.280
  727SOL    HW2 3081   3.711   5.564   4.371
  728SOL     OW 3082   0.067   3.854   5.503
  728SOL    HW1 3083   0.120   3.901   5.574
  728SOL    HW2 3084   6.995   3.861   5.523
  729SOL     OW 3085   1.595   0.882   0.458
  729SOL    HW1 3086   1.691   0.863   0.437
  729SOL    HW2 3087   1.544   0.893   0.373
  730SOL     OW 3088   6.071   0.123   3.350
  730SOL    HW1 3089   6.074   0.207   3.404
  730SOL    HW2 3090   6.134   0.129   3.273
  731SOL     OW 3091   5.592   2.994   5.183
  731SOL    HW1 3092   5.546   2.991   5.272
  731SOL    HW2 3093   5.525   2.975   5.111
  732SOL     OW 3094   0.714   2.456   1.267
  732SOL    HW1 3095   0.767   2.518   1.326
  732SOL    HW2 3096   0.723   2.363   1.301
  733SOL     OW 3097   4.999   4.237   3.894
  733SOL    HW1 3098   4.923   4.301   3.893
  733SOL    HW2 3099   5.052   4.246   3.810
  734SOL     OW 3100   0.508   4.576   1.574
  734SOL    HW1 3101   0.411   4.561   1.596
  734SOL    HW2 3102   0.558   4.600   1.657
  735SOL     OW 3103   2.153   3.573   0.733
  735SOL    HW1 3104   2.229   3.508   0.728
  735SOL    HW2 3105   2.068   3.526   0.713
  736SOL     OW 3106   5.992   6.500   2.742
  736SOL    HW1 3107   5.908   6.539   2.702
  736SOL    HW2 3108   5.984   6.401   2.745
  737SOL     OW 3109   4.721   3.861   1.277
  737SOL    HW1 3110   4.736   3.906   1.188
  737SOL    HW2 3111   4.779   3.905   1.346
  738SOL     OW 3112   0.700   4.708   4.006
  738SOL    HW1 3113   0.685   4.741   4.099
  738SOL    HW2 3114   0.793   4.730   3.977
  739SOL     OW 3115   4.730   6.636   5.817
  739SOL    HW1 3116   4.665   6.706   5.848
  739SOL    HW2 3117   4.811   6.638   5.874
  740SOL     OW 3118   5.418   0.375   1.073
  740SOL    HW1 3119   5.375   0.458   1.040
  740SOL    HW2 3120   5.464   0.393   1.160
  741SOL     OW 3121   1.333   5.927   3.065
  741SOL    HW1 3122   1.264   5.991   3.099
  741SOL    HW2 3123   1.423   5.970   3.067
  742SOL     OW 3124   2.032   6.615   3.279
  742SOL    HW1 3125   1.935   6.613   3.256
  742SOL    HW2 3126   2.080   6.676   3.215
  743SOL     OW 3127   1.106   3.930   3.793
  743SOL    HW1 3128   1.151   3.848   3.827
  743SOL    HW2 3129   1.107   3.929   3.693
  744SOL     OW 3130   6.998   6.138   6.910
  744SOL    HW1 3131   0.033   6.064   6.941
  744SOL    HW2 3132   0.018   6.226   6.926
  745SOL     OW 3133   0.955   5.224   4.448
  745SOL    HW1 3134   1.014   5.143   4.453
  745SOL    HW2 3135   0.966   5.267   4.358
  746SOL     OW 3136   0.383   6.151   5.340
  746SOL    HW1 3137   0.396   6.141   5.242
  746SOL    HW2 3138   0.376   6.248   5.364
  747SOL     OW 3139   4.711   4.680   3.981
  747SOL    HW1 3140   4.667   4.762   4.017
  747SOL    HW2 3141   4.770   4.640   4.051
  748SOL     OW 3142   4.474   4.515   0.987
  748SOL    HW1 3143   4.458   4.598   0.933
  748SOL    HW2 3144   4.391   4.490   1.036
  749SOL     OW 3145   0.377   3.050   5.082
  749SOL    HW1 3146   0.431   3.086   5.158
  749SOL    HW2 3147   0.372   3.119   5.009
  750SOL     OW 3148   3.082   3.016   0.758
  750SOL    HW1 3149   3.001   3.074   0.768
  750SOL    HW2 3150   3.163   3.073   0.755
  751SOL     OW 3151   4.340   2.145   0.509
  751SOL    HW1 3152   4.339   2.182   0.602
  751SOL    HW2 3153   4.275   2.069   0.502
  752SOL     OW 3154   4.701   2.185   1.776
  752SOL    HW1 3155   4.777   2.246   1.753
  752SOL    HW2 3156   4.675   2.133   1.695
  753SOL     OW 3157   1.602   3.644   4.973
  753SOL    HW1 3158   1.659   3.699   5.033
  753SOL    HW2 3159   1.652   3.623   4.889
  754SOL     OW 3160   5.291   3.850   6.555
  754SOL    HW1 3161   5.342   3.872   6.471
  754SOL    HW2 3162   5.230   3.927   6.577
  755SOL     OW 3163   0.902   5.763   0.153
  755SOL    HW1 3164   0.883   5.689   0.218
  755SOL    HW2 3165   0.846   5.750   0.072
  756SOL     OW 3166   4.797   0.656   2.252
  756SOL    HW1 3167   4.801   0.754   2.269
  756SOL    HW2 3168   4.837   0.635   2.163
  757SOL     OW 3169   0.879   6.581   3.828
  757SOL    HW1 3170   0.907   6.607   3.920
  757SOL    HW2 3171   0.910   6.649   3.762
  758SOL     OW 3172   3.399   1.789   1.400
  758SOL    HW1 3173   3.366   1.715   1.457
  758SOL    HW2 3174   3.454   1.852   1.455
  759SOL     OW 3175   0.412   1.225   0.304
  759SOL    HW1 3176   0.353   1.305   0.315
  759SOL    HW2 3177   0.489   1.249   0.245
  760SOL     OW 3178   4.838   1.505   6.433
  760SOL    HW1 3179   4.896   1.426   6.414
  760SOL    HW2 3180   4.824   1.558   6.350
  761SOL     OW 3181   5.896   3.688   0.319
  761SOL    HW1 3182   5.903   3.787   0.330
  761SOL    HW2 3183   5.865   3.647   0.405
  762SOL     OW 3184   2.050   5.888   3.355
  762SOL    HW1 3185   2.066   5.902   3.257
  762SOL    HW2 3186   2.016   5.972   3.396
  763SOL     OW 3187   3.891   5.908   0.210
  763SOL    HW1 3188   3.876   5.809   0.216
  763SOL    HW2 3189   3.987   5.928   0.232
  764SOL     OW 3190   3.057   1.262   3.333
  764SOL    HW1 3191   2.989   1.309   3.277
  764SOL    HW2 3192   3.019   1.244   3.423
  765SOL     OW 3193   0.918   6.352   1.111
  765SOL    HW1 3194   0.888   6.283   1.177
  765SOL    HW2 3195   0.909   6.316   1.018
  766SOL     OW 3196   6.956   0.887   6.814
  766SOL    HW1 3197   6.895   0.946   6.867
  766SOL    HW2 3198   6.969   0.926   6.723
  767SOL     OW 3199   0.672   6.816   1.827
  767SOL    HW1 3200   0.652   6.874   1.748
  767SOL    HW2 3201   0.770   6.800   1.832
  768SOL     OW 3202   2.071   0.235   2.844
  768SOL    HW1 3203   2.015   0.312   2.813
  768SOL    HW2 3204   2.030   0.193   2.924
  769SOL     OW 3205   3.282   0.511   4.470
  769SOL    HW1 3206   3.276   0.581   4.541
  769SOL    HW2 3207   3.286   0.421   4.513
  770SOL     OW 3208   2.996   5.553   3.274
  770SOL    HW1 3209   2.972   5.603   3.191
  770SOL    HW2 3210   2.917   5.551   3.336
  771SOL     OW 3211   2.136   5.276   2.697
  771SOL    HW1 3212   2.129   5.373   2.674
  771SOL    HW2 3213   2.065   5.225   2.648
  772SOL     OW 3214   6.948   4.534   0.454
  772SOL    HW1 3215   0.012   4.517   0.412
  772SOL    HW2 3216   6.957   4.530   0.554
  773SOL     OW 3217   6.968   2.895   3.877
  773SOL    HW1 3218   0.000   2.976   3.890
  773SOL    HW2 3219   6.946   2.855   3.966
  774SOL     OW 3220   1.893   2.155   2.187
  774SOL    HW1 3221   1.949   2.169   2.105
  774SOL    HW2 3222   1.796   2.160   2.163
  775SOL     OW 3223   1.338   1.863   4.201
  775SOL    HW1 3224   1.263   1.922   4.230
  775SOL    HW2 3225   1.354   1.876   4.103
  776SOL     OW 3226   0.481   6.830   5.948
  776SOL    HW1 3227   0.556   6.848   6.011
  776SOL    HW2 3228   0.468   6.732   5.938
  777SOL     OW 3229   3.526   0.885   1.144
  777SOL    HW1 3230   3.461   0.809   1.141
  777SOL    HW2 3231   3.609   0.859   1.094
  778SOL     OW 3232   4.130   0.683   3.807
  778SOL    HW1 3233   4.116   0.644   3.716
  778SOL    HW2 3234   4.129   0.611   3.875
  779SOL     OW 3235   0.222   1.936   1.952
  779SOL    HW1 3236   0.303   1.894   1.911
  779SOL    HW2 3237   0.236   2.034   1.959
  780SOL     OW 3238   5.902   2.856   4.350
  780SOL    HW1 3239   5.819   2.846   4.405
  780SOL    HW2 3240   5.939   2.765   4.330
  781SOL     OW 3241   5.860   1.295   6.019
  781SOL    HW1 3242   5.800   1.256   6.089
  781SOL    HW2 3243   5.827   1.270   5.928
  782SOL     OW 3244   0.840   3.728   0.750
  782SOL    HW1 3245   0.773   3.668   0.705
  782SOL    HW2 3246   0.846   3.703   0.847
  783SOL     OW 3247   3.049   5.558   0.221
  783SOL    HW1 3248   2.989   5.487   0.184
  783SOL    HW2 3249   3.116   5.583   0.151
  784SOL     OW 3250   4.503   0.500   5.017
  784SOL    HW1 3251   4.484   0.512   4.920
  784SOL    HW2 3252   4.599   0.471   5.028
  785SOL     OW 3253   6.188   1.699   2.703
  785SOL    HW1 3254   6.272   1.648   2.686
  785SOL    HW2 3255   6.130   1.648   2.766
  786SOL     OW 3256   6.760   0.557   0.011
  786SOL    HW1 3257   6.848   0.518   0.037
  786SOL    HW2 3258   6.750   0.647   0.052
  787SOL     OW 3259   3.175   1.185   5.950
  787SOL    HW1 3260   3.234   1.138   6.017
  787SOL    HW2 3261   3.089   1.211   5.994
  788SOL     OW 3262   2.146   3.297   4.278
  788SOL    HW1 3263   2.075   3.289   4.348
  788SOL    HW2 3264   2.197   3.211   4.272
  789SOL     OW 3265   6.523   4.274   2.381
  789SOL    HW1 3266   6.589   4.348   2.366
  789SOL    HW2 3267   6.477   4.288   2.469
  790SOL     OW 3268   2.428   1.567   4.032
  790SOL    HW1 3269   2.483   1.485   4.013
  790SOL    HW2 3270   2.483   1.632   4.084
  791SOL     OW 3271   4.062   0.302   4.267
  791SOL    HW1 3272   4.047   0.232   4.337
  791SOL    HW2 3273   4.027   0.390   4.300
  792SOL     OW 3274   6.018   0.142   1.791
  792SOL    HW1 3275   6.051   0.071   1.852
  792SOL    HW2 3276   5.918   0.141   1.790
  793SOL     OW 3277   4.662   6.185   1.782
  793SOL    HW1 3278   4.713   6.099   1.778
  793SOL    HW2 3279   4.725   6.261   1.795
  794SOL     OW 3280   2.587   4.997   5.349
  794SOL    HW1 3281   2.597   4.950   5.437
  794SOL    HW2 3282   2.656   4.964   5.285
  795SOL     OW 3283   3.255   5.114   5.650
  795SOL    HW1 3284   3.263   5.200   5.600
  795SOL    HW2 3285   3.257   5.037   5.586
  796SOL     OW 3286   0.262   2.135   6.035
  796SOL    HW1 3287   0.358   2.125   6.008
  796SOL    HW2 3288   0.227   2.222   6.001
  797SOL     OW 3289   4.848   2.327   2.294
  797SOL    HW1 3290   4.923   2.340   2.229
  797SOL    HW2 3291   4.843   2.231   2.321
  798SOL     OW 3292   4.351   0.548   1.041
  798SOL    HW1 3293   4.408   0.625   1.011
  798SOL    HW2 3294   4.385   0.463   1.001
  799SOL     OW 3295   6.508   2.093   3.189
  799SOL    HW1 3296   6.605   2.097   3.166
  799SOL    HW2 3297   6.481   2.177   3.236
  800SOL     OW 3298   5.532   0.906   2.170
  800SOL    HW1 3299   5.529   0.806   2.173
  800SOL    HW2 3300   5.441   0.941   2.147
  801SOL     OW 3301   1.079   2.746   3.482
  801SOL    HW1 3302   1.118   2.669   3.430
  801SOL    HW2 3303   1.153   2.799   3.522
  802SOL     OW 3304   4.570   1.086   0.459
  802SOL    HW1 3305   4.501   1.114   0.525
  802SOL    HW2 3306   4.642   1.156   0.454
  803SOL     OW 3307   6.099   6.270   4.682
  803SOL    HW1 3308   6.196   6.261   4.662
  803SOL    HW2 3309   6.052   6.185   4.656
  804SOL     OW 3310   6.594   6.537   0.610
  804SOL    HW1 3311   6.504   6.567   0.579
  804SOL    HW2 3312   6.654   6.616   0.618
  805SOL     OW 3313   4.394   2.835   5.841
  805SOL    HW1 3314   4.371   2.932   5.851
  805SOL    HW2 3315   4.458   2.808   5.913
  806SOL     OW 3316   4.004   1.578   5.319
  806SOL    HW1 3317   3.998   1.480   5.341
  806SOL    HW2 3318   3.917   1.622   5.340
  807SOL     OW 3319   1.261   1.149   3.746
  807SOL    HW1 3320   1.177   1.203   3.742
  807SOL    HW2 3321   1.244   1.065   3.798
  808SOL     OW 3322   4.965   3.384   6.069
  808SOL    HW1 3323   5.018   3.349   6.146
  808SOL    HW2 3324   4.887   3.436   6.103
  809SOL     OW 3325   1.346   4.924   0.997
  809SOL    HW1 3326   1.392   4.919   0.908
  809SOL    HW2 3327   1.400   4.876   1.065
  810SOL     OW 3328   4.572   3.438   1.016
  810SOL    HW1 3329   4.492   3.459   0.960
  810SOL    HW2 3330   4.543   3.399   1.103
  811SOL     OW 3331   4.687   5.910   3.541
  811SOL    HW1 3332   4.771   5.964   3.530
  811SOL    HW2 3333   4.689   5.832   3.479
  812SOL     OW 3334   6.895   0.547   1.238
  812SOL    HW1 3335   6.856   0.598   1.314
  812SOL    HW2 3336   6.851   0.575   1.152
  813SOL     OW 3337   4.480   6.376   2.895
  813SOL    HW1 3338   4.469   6.401   2.992
  813SOL    HW2 3339   4.391   6.346   2.859
  814SOL     OW 3340   5.458   6.388   2.594
  814SOL    HW1 3341   5.417   6.359   2.680
  814SOL    HW2 3342   5.463   6.488   2.591
  815SOL     OW 3343   6.194   2.556   1.794
  815SOL    HW1 3344   6.104   2.597   1.779
  815SOL    HW2 3345   6.255   2.582   1.719
  816SOL     OW 3346   6.780   6.381   0.477
  816SOL    HW1 3347   6.691   6.419   0.502
  816SOL    HW2 3348   6.847   6.455   0.469
  817SOL     OW 3349   1.692   4.312   2.493
  817SOL    HW1 3350   1.733   4.306   2.402
  817SOL    HW2 3351   1.686   4.408   2.520
  818SOL     OW 3352   6.272   2.890   0.237
  818SOL    HW1 3353   6.258   2.974   0.290
  818SOL    HW2 3354   6.220   2.895   0.152
  819SOL     OW 3355   6.175   2.702   4.535
  819SOL    HW1 3356   6.209   2.763   4.463
  819SOL    HW2 3357   6.082   2.730   4.561
  820SOL     OW 3358   1.265   3.033   4.933
  820SOL    HW1 3359   1.300   3.126   4.919
  820SOL    HW2 3360   1.319   2.968   4.880
  821SOL     OW 3361   2.128   4.977   0.513
  821SOL    HW1 3362   2.074   5.007   0.591
  821SOL    HW2 3363   2.222   5.012   0.522
  822SOL     OW 3364   0.862   4.636   4.592
  822SOL    HW1 3365   0.937   4.634   4.659
  822SOL    HW2 3366   0.779   4.600   4.634
  823SOL     OW 3367   4.826   4.417   6.206
  823SOL    HW1 3368   4.781   4.466   6.281
  823SOL    HW2 3369   4.756   4.373   6.149
  824SOL     OW 3370   4.675   1.264   4.692
  824SOL    HW1 3371   4.747   1.323   4.655
  824SOL    HW2 3372   4.702   1.230   4.782
  825SOL     OW 3373   2.023   3.297   2.358
  825SOL    HW1 3374   2.056   3.220   2.303
  825SOL    HW2 3375   2.027   3.381   2.304
  826SOL     OW 3376   5.830   3.882   0.895
  826SOL    HW1 3377   5.762   3.893   0.822
  826SOL    HW2 3378   5.830   3.787   0.926
  827SOL     OW 3379   3.620   5.589   5.912
  827SOL    HW1 3380   3.651   5.669   5.860
  827SOL    HW2 3381   3.532   5.609   5.954
  828SOL     OW 3382   6.147   0.692   5.067
  828SOL    HW1 3383   6.165   0.596   5.087
  828SOL    HW2 3384   6.106   0.700   4.976
  829SOL     OW 3385   3.062   3.128   4.015
  829SOL    HW1 3386   3.130   3.055   4.013
  829SOL    HW2 3387   3.099   3.207   4.064
  830SOL     OW 3388   5.159   4.865   5.457
  830SOL    HW1 3389   5.137   4.824   5.368
  830SOL    HW2 3390   5.216   4.802   5.509
  831SOL     OW 3391   7.022   6.563   4.711
  831SOL    HW1 3392   7.012   6.499   4.635
  831SOL    HW2 3393   0.090   6.557   4.748
  832SOL     OW 3394   2.489   1.322   0.088
  832SOL    HW1 3395   2.414   1.381   0.056
  832SOL    HW2 3396   2.513   1.348   0.181
  833SOL     OW 3397   6.346   6.446   6.270
  833SOL    HW1 3398   6.267   6.385   6.281
  833SOL    HW2 3399   6.410   6.431   6.346
  834SOL     OW 3400   3.630   3.675   3.308
  834SOL    HW1 3401   3.578   3.757   3.333
  834SOL    HW2 3402   3.603   3.646   3.216
  835SOL     OW 3403   4.110   6.816   3.527
  835SOL    HW1 3404   4.128   6.731   3.477
  835SOL    HW2 3405   4.011   6.823   3.545
  836SOL     OW 3406   3.610   6.521   6.966
  836SOL    HW1 3407   3.610   6.585   0.017
  836SOL    HW2 3408   3.623   6.428   7.001
  837SOL     OW 3409   5.360   0.434   0.370
  837SOL    HW1 3410   5.412   0.420   0.286
  837SOL    HW2 3411   5.323   0.527   0.372
  838SOL     OW 3412   0.747   6.846   5.413
  838SOL    HW1 3413   0.741   6.785   5.492
  838SOL    HW2 3414   0.666   6.835   5.355
  839SOL     OW 3415   2.743   1.667   3.200
  839SOL    HW1 3416   2.715   1.736   3.134
  839SOL    HW2 3417   2.701   1.687   3.289
  840SOL     OW 3418   0.523   1.162   6.646
  840SOL    HW1 3419   0.615   1.173   6.684
  840SOL    HW2 3420   0.456   1.165   6.720
  841SOL     OW 3421   6.131   4.069   6.856
  841SOL    HW1 3422   6.044   4.027   6.831
  841SOL    HW2 3423   6.206   4.021   6.811
  842SOL     OW 3424   3.992   5.304   3.278
  842SOL    HW1 3425   3.926   5.229   3.284
  842SOL    HW2 3426   4.040   5.313   3.366
  843SOL     OW 3427   6.067   2.587   0.240
  843SOL    HW1 3428   6.017   2.667   0.206
  843SOL    HW2 3429   6.002   2.520   0.276
  844SOL     OW 3430   5.131   6.272   0.951
  844SOL    HW1 3431   5.201   6.283   1.021
  844SOL    HW2 3432   5.084   6.184   0.964
  845SOL     OW 3433   6.201   3.110   5.337
  845SOL    HW1 3434   6.113   3.078   5.372
  845SOL    HW2 3435   6.227   3.056   5.256
  846SOL     OW 3436   6.090   1.722   0.390
  846SOL    HW1 3437   6.019   1.791   0.374
  846SOL    HW2 3438   6.122   1.729   0.484
  847SOL     OW 3439   6.157   3.381   1.324
  847SOL    HW1 3440   6.196   3.385   1.232
  847SOL    HW2 3441   6.195   3.302   1.373
  848SOL     OW 3442   6.357   0.568   6.173
  848SOL    HW1 3443   6.340   0.483   6.224
  848SOL    HW2 3444   6.386   0.545   6.080
  849SOL     OW 3445   0.127   6.026   5.288
  849SOL    HW1 3446   0.127   6.025   5.188
  849SOL    HW2 3447   0.207   6.077   5.320
  850SOL     OW 3448   4.416   0.685   3.648
  850SOL    HW1 3449   4.502   0.645   3.615
  850SOL    HW2 3450   4.427   0.784   3.659
  851SOL     OW 3451   0.230   1.353   6.851
  851SOL    HW1 3452   0.200   1.397   6.935
  851SOL    HW2 3453   0.280   1.419   6.795
  852SOL     OW 3454   2.297   2.271   6.898
  852SOL    HW1 3455   2.312   2.224   6.811
  852SOL    HW2 3456   2.377   2.259   6.956
  853SOL     OW 3457   0.973   3.018   3.006
  853SOL    HW1 3458   1.034   2.957   3.058
  853SOL    HW2 3459   0.879   3.007   3.039
  854SOL     OW 3460   5.769   6.505   3.115
  854SOL    HW1 3461   5.688   6.532   3.167
  854SOL    HW2 3462   5.741   6.476   3.023
  855SOL     OW 3463   5.427   0.397   1.677
  855SOL    HW1 3464   5.507   0.423   1.732
  855SOL    HW2 3465   5.457   0.338   1.602
  856SOL     OW 3466   1.468   0.644   5.364
  856SOL    HW1 3467   1.377   0.617   5.395
  856SOL    HW2 3468   1.538   0.593   5.414
  857SOL     OW 3469   5.709   4.246   1.096
  857SOL    HW1 3470   5.665   4.157   1.082
  857SOL    HW2 3471   5.793   4.233   1.149
  858SOL     OW 3472   2.672   4.808   1.661
  858SOL    HW1 3473   2.716   4.739   1.604
  858SOL    HW2 3474   2.621   4.763   1.735
  859SOL     OW 3475   5.678   4.926   6.885
  859SOL    HW1 3476   5.687   4.890   6.978
  859SOL    HW2 3477   5.757   4.899   6.831
  860SOL     OW 3478   3.526   4.572   0.091
  860SOL    HW1 3479   3.535   4.475   0.115
  860SOL    HW2 3480   3.603   4.600   0.033
  861SOL     OW 3481   3.080   6.696   4.826
  861SOL    HW1 3482   3.027   6.728   4.905
  861SOL    HW2 3483   3.130   6.613   4.850
  862SOL     OW 3484   6.255   4.050   4.758
  862SOL    HW1 3485   6.160   4.079   4.762
  862SOL    HW2 3486   6.304   4.106   4.691
  863SOL     OW 3487   0.447   0.534   0.830
  863SOL    HW1 3488   0.464   0.461   0.763
  863SOL    HW2 3489   0.363   0.514   0.879
  864SOL     OW 3490   4.935   4.081   3.525
  864SOL    HW1 3491   4.860   4.111   3.584
  864SOL    HW2 3492   5.016   4.138   3.543
  865SOL     OW 3493   0.989   6.855   4.421
  865SOL    HW1 3494   1.035   6.873   4.334
  865SOL    HW2 3495   1.052   6.871   4.496
  866SOL     OW 3496   2.471   1.556   2.070
  866SOL    HW1 3497   2.537   1.575   1.998
  866SOL    HW2 3498   2.424   1.470   2.051
  867SOL     OW 3499   3.180   3.021   0.405
  867SOL    HW1 3500   3.088   3.021   0.444
  867SOL    HW2 3501   3.183   2.958   0.327
  868SOL     OW 3502   5.896   0.281   2.612
  868SOL    HW1 3503   5.866   0.187   2.600
  868SOL    HW2 3504   5.993   0.282   2.635
  869SOL     OW 3505   6.523   6.042   2.392
  869SOL    HW1 3506   6.554   6.075   2.481
  869SOL    HW2 3507   6.600   6.005   2.341
  870SOL     OW 3508   0.468   2.919   1.676
  870SOL    HW1 3509   0.413   2.845   1.637
  870SOL    HW2 3510   0.412   2.972   1.739
  871SOL     OW 3511   7.020   2.715   2.035
  871SOL    HW1 3512   6.988   2.621   2.042
  871SOL    HW2 3513   6.946   2.774   2.002
  872SOL     OW 3514   6.436   2.802   4.676
  872SOL    HW1 3515   6.359   2.754   4.634
  872SOL    HW2 3516   6.522   2.760   4.646
  873SOL     OW 3517   3.843   6.936   2.854
  873SOL    HW1 3518   3.876   6.982   2.772
  873SOL    HW2 3519   3.812   6.844   2.831
  874SOL     OW 3520   2.073   4.515   5.467
  874SOL    HW1 3521   1.985   4.469   5.458
  874SOL    HW2 3522   2.140   4.473   5.406
  875SOL     OW 3523   5.209   4.300   0.562
  875SOL    HW1 3524   5.137   4.365   0.535
  875SOL    HW2 3525   5.194   4.273   0.657
  876SOL     OW 3526   6.449   3.646   2.593
  876SOL    HW1 3527   6.389   3.658   2.514
  876SOL    HW2 3528   6.418   3.567   2.646
  877SOL     OW 3529   5.211   5.351   0.085
  877SOL    HW1 3530   5.135   5.347   0.150
  877SOL    HW2 3531   5.176   5.336   7.017
  878SOL     OW 3532   3.178   5.240   0.239
  878SOL    HW1 3533   3.080   5.250   0.258
  878SOL    HW2 3534   3.197   5.147   0.207
  879SOL     OW 3535   4.726   2.004   2.869
  879SOL    HW1 3536   4.795   2.003   2.941
  879SOL    HW2 3537   4.637   2.024   2.909
  880SOL     OW 3538   3.806   4.723   0.243
  880SOL    HW1 3539   3.825   4.627   0.223
  880SOL    HW2 3540   3.724   4.730   0.300
  881SOL     OW 3541   4.385   4.691   4.498
  881SOL    HW1 3542   4.404   4.655   4.590
  881SOL    HW2 3543   4.415   4.625   4.429
  882SOL     OW 3544   1.240   0.801   4.552
  882SOL    HW1 3545   1.235   0.867   4.477
  882SOL    HW2 3546   1.155   0.749   4.557
  883SOL     OW 3547   3.435   5.072   6.047
  883SOL    HW1 3548   3.414   4.975   6.054
  883SOL    HW2 3549   3.349   5.124   6.038
  884SOL     OW 3550   6.384   3.746   1.860
  884SOL    HW1 3551   6.334   3.667   1.893
  884SOL    HW2 3552   6.390   3.814   1.934
  885SOL     OW 3553   5.674   6.543   0.560
  885SOL    HW1 3554   5.660   6.569   0.465
  885SOL    HW2 3555   5.620   6.602   0.620
  886SOL     OW 3556   3.819   0.909   6.874
  886SOL    HW1 3557   3.876   0.988   6.852
  886SOL    HW2 3558   3.756   0.891   6.798
  887SOL     OW 3559   4.156   0.518   6.618
  887SOL    HW1 3560   4.251   0.547   6.629
  887SOL    HW2 3561   4.149   0.449   6.547
  888SOL     OW 3562   6.976   6.665   3.724
  888SOL    HW1 3563   0.005   6.685   3.643
  888SOL    HW2 3564   6.879   6.681   3.704
  889SOL     OW 3565   0.115   6.388   5.349
  889SOL    HW1 3566   0.022   6.424   5.359
  889SOL    HW2 3567   0.113   6.307   5.290
  890SOL     OW 3568   2.672   4.660   2.204
  890SOL    HW1 3569   2.593   4.715   2.176
  890SOL    HW2 3570   2.724   4.634   2.123
  891SOL     OW 3571   5.580   2.812   1.268
  891SOL    HW1 3572   5.642   2.832   1.344
  891SOL    HW2 3573   5.599   2.720   1.234
  892SOL     OW 3574   2.561   3.435   1.013
  892SOL    HW1 3575   2.653   3.419   0.978
  892SOL    HW2 3576   2.511   3.494   0.950
  893SOL     OW 3577   1.224   0.803   0.139
  893SOL    HW1 3578   1.276   0.748   0.205
  893SOL    HW2 3579   1.218   0.897   0.171
  894SOL     OW 3580   1.134   5.678   4.520
  894SOL    HW1 3581   1.111   5.705   4.613
  894SOL    HW2 3582   1.050   5.651   4.471
  895SOL     OW 3583   2.008   0.182   4.606
  895SOL    HW1 3584   2.098   0.156   4.571
  895SOL    HW2 3585   2.007   0.280   4.627
  896SOL     OW 3586   6.005   6.355   3.555
  896SOL    HW1 3587   5.915   6.385   3.587
  896SOL    HW2 3588   6.048   6.299   3.626
  897SOL     OW 3589   5.209   2.694   6.582
  897SOL    HW1 3590   5.157   2.633   6.641
  897SOL    HW2 3591   5.265   2.756   6.637
  898SOL     OW 3592   5.070   6.335   3.792
  898SOL    HW1 3593   5.047   6.239   3.808
  898SOL    HW2 3594   5.002   6.394   3.835
  899SOL     OW 3595   0.411   5.015   6.592
  899SOL    HW1 3596   0.331   5.055   6.548
  899SOL    HW2 3597   0.491   5.027   6.532
  900SOL     OW 3598   0.439   6.670   3.333
  900SOL    HW1 3599   0.345   6.697   3.357
  900SOL    HW2 3600   0.491   6.652   3.416
  901SOL     OW 3601   6.522   1.022   4.095
  901SOL    HW1 3602   6.460   1.087   4.051
  901SOL    HW2 3603   6.591   0.992   4.030
  902SOL     OW 3604   6.931   0.369   6.265
  902SOL    HW1 3605   6.859   0.399   6.203
  902SOL    HW2 3606   7.017   0.413   6.239
  903SOL     OW 3607   0.002   4.394   1.011
  903SOL    HW1 3608   7.016   4.408   1.110
  903SOL    HW2 3609   6.966   4.455   0.962
  904SOL     OW 3610   1.900   1.494   3.312
  904SOL    HW1 3611   1.976   1.461   3.255
  904SOL    HW2 3612   1.813   1.465   3.271
  905SOL     OW 3613   5.354   2.297   5.988
  905SOL    HW1 3614   5.398   2.308   6.077
  905SOL    HW2 3615   5.266   2.345   5.989
  906SOL     OW 3616   7.005   4.540   6.101
  906SOL    HW1 3617   7.023   4.441   6.097
  906SOL    HW2 3618   6.993   4.575   6.008
  907SOL     OW 3619   6.057   2.441   2.756
  907SOL    HW1 3620   6.128   2.505   2.785
  907SOL    HW2 3621   5.970   2.464   2.800
  908SOL     OW 3622   1.855   0.231   4.000
  908SOL    HW1 3623   1.884   0.139   4.027
  908SOL    HW2 3624   1.755   0.234   3.998
  909SOL     OW 3625   3.105   0.760   1.030
  909SOL    HW1 3626   3.114   0.707   0.946
  909SOL    HW2 3627   3.015   0.743   1.071
  910SOL     OW 3628   1.587   1.117   0.614
  910SOL    HW1 3629   1.646   1.189   0.577
  910SOL    HW2 3630   1.603   1.032   0.563
  911SOL     OW 3631   0.691   4.295   1.585
  911SOL    HW1 3632   0.609   4.349   1.606
  911SOL    HW2 3633   0.753   4.298   1.663
  912SOL     OW 3634   0.020   1.133   6.075
  912SOL    HW1 3635   6.954   1.164   6.102
  912SOL    HW2 3636   0.054   1.068   6.142
  913SOL     OW 3637   2.561   0.774   2.847
  913SOL    HW1 3638   2.481   0.720   2.819
  913SOL    HW2 3639   2.531   0.854   2.900
  914SOL     OW 3640   2.671   5.963   3.744
  914SOL    HW1 3641   2.729   5.942   3.665
  914SOL    HW2 3642   2.659   6.062   3.751
  915SOL     OW 3643   0.504   2.880   0.010
  915SOL    HW1 3644   0.538   2.799   0.056
  915SOL    HW2 3645   0.528   2.961   0.063
  916SOL     OW 3646   2.717   2.405   3.108
  916SOL    HW1 3647   2.721   2.410   3.008
  916SOL    HW2 3648   2.661   2.480   3.143
  917SOL     OW 3649   3.873   1.254   1.448
  917SOL    HW1 3650   3.841   1.159   1.453
  917SOL    HW2 3651   3.826   1.309   1.516
  918SOL     OW 3652   2.615   5.952   6.470
  918SOL    HW1 3653   2.556   6.029   6.493
  918SOL    HW2 3654   2.564   5.885   6.415
  919SOL     OW 3655   1.056   5.547   1.619
  919SOL    HW1 3656   1.027   5.453   1.601
  919SOL    HW2 3657   1.122   5.548   1.694
  920SOL     OW 3658   2.442   0.218   2.900
  920SOL    HW1 3659   2.497   0.248   2.822
  920SOL    HW2 3660   2.350   0.257   2.893
  921SOL     OW 3661   5.652   5.092   4.668
  921SOL    HW1 3662   5.702   5.082   4.754
  921SOL    HW2 3663   5.649   5.003   4.622
  922SOL     OW 3664   2.745   3.546   6.873
  922SOL    HW1 3665   2.654   3.584   6.855
  922SOL    HW2 3666   2.791   3.601   6.943
  923SOL     OW 3667   3.167   6.394   6.642
  923SOL    HW1 3668   3.159   6.454   6.721
  923SOL    HW2 3669   3.257   6.404   6.600
  924SOL     OW 3670   6.018   3.573   2.747
  924SOL    HW1 3671   5.929   3.598   2.785
  924SOL    HW2 3672   6.009   3.491   2.690
  925SOL     OW 3673   0.022   1.956   5.354
  925SOL    HW1 3674   0.049   1.987   5.445
  925SOL    HW2 3675   7.023   2.035   5.298
  926SOL     OW 3676   5.105   6.088   0.459
  926SOL    HW1 3677   5.148   6.158   0.515
  926SOL    HW2 3678   5.126   6.104   0.363
  927SOL     OW 3679   4.477   4.508   4.335
  927SOL    HW1 3680   4.544   4.445   4.374
  927SOL    HW2 3681   4.467   4.491   4.238
  928SOL     OW 3682   1.791   0.319   0.961
  928SOL    HW1 3683   1.799   0.359   0.870
  928SOL    HW2 3684   1.790   0.219   0.954
  929SOL     OW 3685   0.150   2.950   2.761
  929SOL    HW1 3686   0.113   2.857   2.751
  929SOL    HW2 3687   0.079   3.016   2.737
  930SOL     OW 3688   5.449   4.888   4.127
  930SOL    HW1 3689   5.483   4.812   4.072
  930SOL    HW2 3690   5.502   4.894   4.211
  931SOL     OW 3691   1.601   2.221   3.061
  931SOL    HW1 3692   1.689   2.196   3.102
  931SOL    HW2 3693   1.601   2.193   2.965
  932SOL     OW 3694   4.355   5.807   0.900
  932SOL    HW1 3695   4.452   5.783   0.897
  932SOL    HW2 3696   4.345   5.906   0.899
  933SOL     OW 3697   1.473   4.955   2.594
  933SOL    HW1 3698   1.388   4.923   2.552
  933SOL    HW2 3699   1.452   5.030   2.657
  934SOL     OW 3700   3.528   1.373   5.339
  934SOL    HW1 3701   3.501   1.457   5.293
  934SOL    HW2 3702   3.456   1.305   5.329
  935SOL     OW 3703   4.046   3.375   6.028
  935SOL    HW1 3704   4.101   3.451   5.992
  935SOL    HW2 3705   3.955   3.377   5.986
  936SOL     OW 3706   0.748   0.350   1.094
  936SOL    HW1 3707   0.693   0.268   1.077
  936SOL    HW2 3708   0.813   0.363   1.019
  937SOL     OW 3709   4.295   1.656   4.307
  937SOL    HW1 3710   4.334   1.747   4.321
  937SOL    HW2 3711   4.195   1.663   4.310
  938SOL     OW 3712   0.367   3.274   6.050
  938SOL    HW1 3713   0.329   3.293   5.960
  938SOL    HW2 3714   0.430   3.197   6.044
  939SOL     OW 3715   4.960   1.181   6.009
  939SOL    HW1 3716   4.953   1.083   5.990
  939SOL    HW2 3717   4.939   1.232   5.926
  940SOL     OW 3718   6.849   0.681   3.180
  940SOL    HW1 3719   6.831   0.629   3.264
  940SOL    HW2 3720   6.793   0.645   3.106
  941SOL     OW 3721   5.853   1.700   3.616
  941SOL    HW1 3722   5.839   1.607   3.583
  941SOL    HW2 3723   5.916   1.748   3.555
  942SOL     OW 3724   5.190   6.768   5.482
  942SOL    HW1 3725   5.153   6.730   5.397
  942SOL    HW2 3726   5.135   6.735   5.559
  943SOL     OW 3727   6.134   2.747   2.267
  943SOL    HW1 3728   6.091   2.812   2.205
  943SOL    HW2 3729   6.118   2.654   2.234
  944SOL     OW 3730   5.948   3.309   4.734
  944SOL    HW1 3731   5.891   3.383   4.770
  944SOL    HW2 3732   6.030   3.347   4.691
  945SOL     OW 3733   5.263   4.554   3.996
  945SOL    HW1 3734   5.223   4.645   3.995
  945SOL    HW2 3735   5.276   4.522   3.902
  946SOL     OW 3736   5.964   3.090   5.979
  946SOL    HW1 3737   6.029   3.083   6.054
  946SOL    HW2 3738   5.872   3.069   6.012
  947SOL     OW 3739   3.608   2.305   6.458
  947SOL    HW1 3740   3.673   2.377   6.437
  947SOL    HW2 3741   3.558   2.330   6.541
  948SOL     OW 3742   3.874   1.860   0.745
  948SOL    HW1 3743   3.895   1.851   0.843
  948SOL    HW2 3744   3.921   1.788   0.694
  949SOL     OW 3745   6.203   5.261   6.792
  949SOL    HW1 3746   6.193   5.342   6.734
  949SOL    HW2 3747   6.120   5.206   6.787
  950SOL     OW 3748   3.955   5.545   0.910
  950SOL    HW1 3749   3.958   5.480   0.834
  950SOL    HW2 3750   4.041   5.596   0.914
  951SOL     OW 3751   0.609   0.386   1.618
  951SOL    HW1 3752   0.597   0.460   1.684
  951SOL    HW2 3753   0.683   0.408   1.555
  952SOL     OW 3754   5.282   0.767   3.012
  952SOL    HW1 3755   5.369   0.802   3.046
  952SOL    HW2 3756   5.299   0.684   2.958
  953SOL     OW 3757   4.339   5.848   6.184
  953SOL    HW1 3758   4.305   5.933   6.143
  953SOL    HW2 3759   4.323   5.850   6.283
  954SOL     OW 3760   5.810   6.977   1.516
  954SOL    HW1 3761   5.893   0.004   1.498
  954SOL    HW2 3762   5.778   6.935   1.431
  955SOL     OW 3763   0.713   5.687   3.309
  955SOL    HW1 3764   0.809   5.672   3.334
  955SOL    HW2 3765   0.693   5.640   3.223
  956SOL     OW 3766   1.511   1.767   1.127
  956SOL    HW1 3767   1.564   1.683   1.138
  956SOL    HW2 3768   1.433   1.750   1.067
  957SOL     OW 3769   1.716   4.766   5.063
  957SOL    HW1 3770   1.699   4.668   5.060
  957SOL    HW2 3771   1.735   4.794   5.157
  958SOL     OW 3772   5.736   1.961   1.674
  958SOL    HW1 3773   5.754   2.059   1.677
  958SOL    HW2 3774   5.752   1.926   1.582
  959SOL     OW 3775   3.051   4.936   2.905
  959SOL    HW1 3776   2.958   4.907   2.924
  959SOL    HW2 3777   3.075   4.915   2.810
  960SOL     OW 3778   2.354   5.912   4.534
  960SOL    HW1 3779   2.444   5.930   4.494
  960SOL    HW2 3780   2.363   5.902   4.633
  961SOL     OW 3781   3.900   6.725   1.852
  961SOL    HW1 3782   3.817   6.727   1.908
  961SOL    HW2 3783   3.977   6.693   1.908
  962SOL     OW 3784   1.755   0.783   3.579
  962SOL    HW1 3785   1.839   0.766   3.528
  962SOL    HW2 3786   1.774   0.842   3.657
  963SOL     OW 3787   6.370   0.524   1.422
  963SOL    HW1 3788   6.297   0.488   1.365
  963SOL    HW2 3789   6.458   0.488   1.390
  964SOL     OW 3790   5.451   3.761   1.712
  964SOL    HW1 3791   5.407   3.796   1.629
  964SOL    HW2 3792   5.463   3.836   1.777
  965SOL     OW 3793   0.340   1.728   0.313
  965SOL    HW1 3794   0.262   1.758   0.258
  965SOL    HW2 3795   0.339   1.775   0.402
  966SOL     OW 3796   6.271   1.285   2.772
  966SOL    HW1 3797   6.230   1.210   2.720
  966SOL    HW2 3798   6.364   1.301   2.739
  967SOL     OW 3799   0.907   5.261   0.295
  967SOL    HW1 3800   0.981   5.314   0.336
  967SOL    HW2 3801   0.911   5.166   0.328
  968SOL     OW 3802   4.620   2.568   1.896
  968SOL    HW1 3803   4.686   2.628   1.941
  968SOL    HW2 3804   4.564   2.523   1.965
  969SOL     OW 3805   4.244   6.602   5.962
  969SOL    HW1 3806   4.259   6.511   6.000
  969SOL    HW2 3807   4.158   6.603   5.911
  970SOL     OW 3808   4.424   1.922   5.303
  970SOL    HW1 3809   4.439   1.828   5.335
  970SOL    HW2 3810   4.435   1.985   5.380
  971SOL     OW 3811   6.750   1.538   1.987
  971SOL    HW1 3812   6.694   1.606   1.942
  971SOL    HW2 3813   6.704   1.506   2.070
  972SOL     OW 3814   6.660   5.147   1.068
  972SOL    HW1 3815   6.688   5.198   1.149
  972SOL    HW2 3816   6.586   5.084   1.092
  973SOL     OW 3817   6.432   4.665   6.593
  973SOL    HW1 3818   6.395   4.581   6.551
  973SOL    HW2 3819   6.456   4.647   6.688
  974SOL     OW 3820   2.943   0.077   3.117
  974SOL    HW1 3821   2.979   0.169   3.100
  974SOL    HW2 3822   2.867   0.059   3.055
  975SOL     OW 3823   2.944   5.818   5.736
  975SOL    HW1 3824   2.877   5.756   5.777
  975SOL    HW2 3825   2.907   5.911   5.736
  976SOL     OW 3826   6.768   2.868   3.028
  976SOL    HW1 3827   6.777   2.942   3.094
  976SOL    HW2 3828   6.676   2.830   3.034
  977SOL     OW 3829   1.593   1.321   4.025
  977SOL    HW1 3830   1.577   1.291   3.931
  977SOL    HW2 3831   1.683   1.289   4.055
  978SOL     OW 3832   5.680   4.229   4.491
  978SOL    HW1 3833   5.605   4.182   4.443
  978SOL    HW2 3834   5.767   4.195   4.458
  979SOL     OW 3835   6.276   0.474   3.156
  979SOL    HW1 3836   6.195   0.432   3.114
  979SOL    HW2 3837   6.249   0.558   3.204
  980SOL     OW 3838   5.274   2.250   3.912
  980SOL    HW1 3839   5.277   2.160   3.869
  980SOL    HW2 3840   5.356   2.263   3.967
  981SOL     OW 3841   1.041   1.718   4.279
  981SOL    HW1 3842   0.965   1.767   4.238
  981SOL    HW2 3843   1.111   1.700   4.209
  982SOL     OW 3844   0.838   2.297   1.008
  982SOL    HW1 3845   0.803   2.372   1.065
  982SOL    HW2 3846   0.853   2.217   1.066
  983SOL     OW 3847   6.056   2.068   3.210
  983SOL    HW1 3848   6.085   2.091   3.303
  983SOL    HW2 3849   6.074   2.145   3.149
  984SOL     OW 3850   4.591   1.098   5.151
  984SOL    HW1 3851   4.622   1.019   5.203
  984SOL    HW2 3852   4.506   1.075   5.103
  985SOL     OW 3853   3.300   5.360   0.727
  985SOL    HW1 3854   3.341   5.391   0.813
  985SOL    HW2 3855   3.368   5.368   0.654
  986SOL     OW 3856   5.083   5.451   6.232
  986SOL    HW1 3857   5.104   5.541   6.271
  986SOL    HW2 3858   4.984   5.441   6.224
  987SOL     OW 3859   2.795   6.589   1.473
  987SOL    HW1 3860   2.800   6.542   1.560
  987SOL    HW2 3861   2.701   6.589   1.439
  988SOL     OW 3862   4.117   2.748   0.875
  988SOL    HW1 3863   4.043   2.682   0.862
  988SOL    HW2 3864   4.095   2.833   0.828
  989SOL     OW 3865   1.117   0.421   6.065
  989SOL    HW1 3866   1.037   0.384   6.113
  989SOL    HW2 3867   1.087   0.489   5.999
  990SOL     OW 3868   5.091   0.353   3.942
  990SOL    HW1 3869   5.129   0.318   3.857
  990SOL    HW2 3870   5.008   0.406   3.922
  991SOL     OW 3871   1.496   2.260   4.595
  991SOL    HW1 3872   1.405   2.233   4.564
  991SOL    HW2 3873   1.515   2.220   4.685
  992SOL     OW 3874   0.413   3.528   6.194
  992SOL    HW1 3875   0.405   3.440   6.147
  992SOL    HW2 3876   0.470   3.517   6.276
  993SOL     OW 3877   3.082   4.947   2.579
  993SOL    HW1 3878   3.021   4.871   2.603
  993SOL    HW2 3879   3.083   4.957   2.480
  994SOL     OW 3880   3.947   3.913   2.545
  994SOL    HW1 3881   3.863   3.966   2.554
  994SOL    HW2 3882   3.954   3.847   2.620
  995SOL     OW 3883   1.852   3.174   6.064
  995SOL    HW1 3884   1.828   3.224   6.148
  995SOL    HW2 3885   1.808   3.085   6.064
  996SOL     OW 3886   1.697   3.187   2.768
  996SOL    HW1 3887   1.692   3.285   2.789
  996SOL    HW2 3888   1.705   3.174   2.670
  997SOL     OW 3889   0.396   1.009   1.131
  997SOL    HW1 3890   0.484   1.045   1.162
  997SOL    HW2 3891   0.409   0.917   1.093
  998SOL     OW 3892   3.882   6.429   2.266
  998SOL    HW1 3893   3.792   6.467   2.245
  998SOL    HW2 3894   3.939   6.428   2.183
  999SOL     OW 3895   6.116   5.462   1.032
  999SOL    HW1 3896   6.196   5.502   0.988
  999SOL    HW2 3897   6.033   5.490   0.983
 1000SOL     OW 3898   2.278   2.170   3.274
 1000SOL    HW1 3899   2.282   2.080   3.317
 1000SOL    HW2 3900   2.354   2.226   3.306
 1001SOL     OW 3901   4.553   6.903   7.015
 1001SOL    HW1 3902   4.572   6.873   0.084
 1001SOL    HW2 3903   4.515   6.995   7.016
 1002SOL     OW 3904   5.689   1.752   6.512
 1002SOL    HW1 3905   5.663   1.848   6.509
 1002SOL    HW2 3906   5.743   1.728   6.431
 1003SOL     OW 3907   2.768   6.043   2.589
 1003SOL    HW1 3908   2.809   6.045   2.680
 1003SOL    HW2 3909   2.683   5.990   2.592
 1004SOL     OW 3910   6.919   0.248   6.718
 1004SOL    HW1 3911   6.946   0.240   6.622
 1004SOL    HW2 3912   6.859   0.327   6.729
 1005SOL     OW 3913   0.251   0.104   2.296
 1005SOL    HW1 3914   0.173   0.041   2.303
 1005SOL    HW2 3915   0.335   0.056   2.321
 1006SOL     OW 3916   2.280   5.036   1.732
 1006SOL    HW1 3917   2.288   4.938   1.746
 1006SOL    HW2 3918   2.218   5.054   1.656
 1007SOL     OW 3919   6.762   1.119   3.584
 1007SOL    HW1 3920   6.827   1.193   3.602
 1007SOL    HW2 3921   6.702   1.145   3.507
 1008SOL     OW 3922   0.997   2.403   3.938
 1008SOL    HW1 3923   1.046   2.317   3.920
 1008SOL    HW2 3924   1.011   2.466   3.861
 1009SOL     OW 3925   7.005   5.777   4.476
 1009SOL    HW1 3926   7.022   5.823   4.389
 1009SOL    HW2 3927   0.006   5.681   4.469
 1010SOL     OW 3928   4.460   2.152   0.250
 1010SOL    HW1 3929   4.389   2.197   0.303
 1010SOL    HW2 3930   4.418   2.090   0.184
 1011SOL     OW 3931   2.730   5.700   4.050
 1011SOL    HW1 3932   2.828   5.681   4.058
 1011SOL    HW2 3933   2.685   5.683   4.137
 1012SOL     OW 3934   6.623   5.058   0.576
 1012SOL    HW1 3935   6.625   5.138   0.636
 1012SOL    HW2 3936   6.544   5.065   0.515
 1013SOL     OW 3937   1.161   1.171   7.007
 1013SOL    HW1 3938   1.183   1.139   0.074
 1013SOL    HW2 3939   1.068   1.143   6.983
 1014SOL     OW 3940   4.625   5.758   6.209
 1014SOL    HW1 3941   4.594   5.843   6.168
 1014SOL    HW2 3942   4.586   5.680   6.160
 1015SOL     OW 3943   4.002   6.759   4.799
 1015SOL    HW1 3944   4.025   6.845   4.845
 1015SOL    HW2 3945   4.073   6.738   4.732
 1016SOL     OW 3946   3.317   2.375   1.343
 1016SOL    HW1 3947   3.304   2.470   1.318
 1016SOL    HW2 3948   3.407   2.363   1.386
 1017SOL     OW 3949   5.115   2.815   0.790
 1017SOL    HW1 3950   5.183   2.746   0.815
 1017SOL    HW2 3951   5.049   2.825   0.865
 1018SOL     OW 3952   1.649   3.140   3.610
 1018SOL    HW1 3953   1.744   3.160   3.632
 1018SOL    HW2 3954   1.621   3.056   3.658
 1019SOL     OW 3955   0.181   1.412   0.109
 1019SOL    HW1 3956   0.171   1.411   0.208
 1019SOL    HW2 3957   0.232   1.493   0.081
 1020SOL     OW 3958   2.141   0.519   0.880
 1020SOL    HW1 3959   2.063   0.579   0.859
 1020SOL    HW2 3960   2.210   0.571   0.930
 1021SOL     OW 3961   6.334   0.835   1.796
 1021SOL    HW1 3962   6.265   0.780   1.748
 1021SOL    HW2 3963   6.352   0.918   1.743
 1022SOL     OW 3964   4.413   3.946   6.217
 1022SOL    HW1 3965   4.396   3.970   6.312
 1022SOL    HW2 3966   4.331   3.905   6.177
 1023SOL     OW 3967   5.689   0.393   2.341
 1023SOL    HW1 3968   5.649   0.338   2.267
 1023SOL    HW2 3969   5.727   0.477   2.303
 1024SOL     OW 3970   6.536   1.910   4.030
 1024SOL    HW1 3971   6.624   1.922   4.078
 1024SOL    HW2 3972   6.537   1.822   3.982
 1025SOL     OW 3973   3.283   4.383   0.623
 1025SOL    HW1 3974   3.356   4.350   0.562
 1025SOL    HW2 3975   3.206   4.415   0.568
 1026SOL     OW 3976   1.904   1.523   0.590
 1026SOL    HW1 3977   1.944   1.565   0.671
 1026SOL    HW2 3978   1.811   1.492   0.610
 1027SOL     OW 3979   3.168   5.232   1.536
 1027SOL    HW1 3980   3.165   5.317   1.482
 1027SOL    HW2 3981   3.083   5.183   1.524
 1028SOL     OW 3982   2.288   6.176   6.845
 1028SOL    HW1 3983   2.278   6.079   6.821
 1028SOL    HW2 3984   2.219   6.201   6.913
 1029SOL     OW 3985   1.722   0.104   0.045
 1029SOL    HW1 3986   1.655   0.177   0.037
 1029SOL    HW2 3987   1.676   0.015   0.041
 1030SOL     OW 3988   3.747   3.025   5.165
 1030SOL    HW1 3989   3.824   2.978   5.208
 1030SOL    HW2 3990   3.743   3.002   5.068
 1031SOL     OW 3991   3.299   4.984   1.472
 1031SOL    HW1 3992   3.382   5.008   1.422
 1031SOL    HW2 3993   3.251   5.068   1.498
 1032SOL     OW 3994   2.086   1.432   5.539
 1032SOL    HW1 3995   2.147   1.378   5.597
 1032SOL    HW2 3996   2.091   1.397   5.445
 1033SOL     OW 3997   1.753   5.528   1.656
 1033SOL    HW1 3998   1.818   5.472   1.604
 1033SOL    HW2 3999   1.671   5.543   1.600
 1034SOL     OW 4000   2.223   6.077   4.080
 1034SOL    HW1 4001   2.219   6.057   3.982
 1034SOL    HW2 4002   2.298   6.025   4.122
 1035SOL     OW 4003   2.815   1.833   4.494
 1035SOL    HW1 4004   2.905   1.842   4.452
 1035SOL    HW2 4005   2.747   1.811   4.424
 1036SOL     OW 4006   3.784   1.379   1.216
 1036SOL    HW1 4007   3.835   1.312   1.270
 1036SOL    HW2 4008   3.798   1.470   1.255
 1037SOL     OW 4009   0.662   0.693   0.797
 1037SOL    HW1 4010   0.726   0.647   0.736
 1037SOL    HW2 4011   0.593   0.628   0.829
 1038SOL     OW 4012   0.651   1.231   5.663
 1038SOL    HW1 4013   0.665   1.146   5.612
 1038SOL    HW2 4014   0.610   1.300   5.603
 1039SOL     OW 4015   3.819   1.634   4.589
 1039SOL    HW1 4016   3.908   1.594   4.566
 1039SOL    HW2 4017   3.772   1.662   4.506
 1040SOL     OW 4018   5.723   3.562   3.200
 1040SOL    HW1 4019   5.750   3.542   3.106
 1040SOL    HW2 4020   5.696   3.658   3.207
 1041SOL     OW 4021   6.672   0.295   3.881
 1041SOL    HW1 4022   6.756   0.257   3.919
 1041SOL    HW2 4023   6.694   0.365   3.813
 1042SOL     OW 4024   4.509   5.204   1.220
 1042SOL    HW1 4025   4.518   5.280   1.157
 1042SOL    HW2 4026   4.493   5.239   1.313
 1043SOL     OW 4027   3.975   1.485   6.516
 1043SOL    HW1 4028   3.938   1.452   6.429
 1043SOL    HW2 4029   3.961   1.583   6.523
 1044SOL     OW 4030   3.845   1.981   1.391
 1044SOL    HW1 4031   3.834   1.947   1.485
 1044SOL    HW2 4032   3.773   1.944   1.333
 1045SOL     OW 4033   3.138   1.168   2.109
 1045SOL    HW1 4034   3.102   1.251   2.152
 1045SOL    HW2 4035   3.075   1.138   2.037
 1046SOL     OW 4036   2.771   6.953   7.015
 1046SOL    HW1 4037   2.799   6.986   6.924
 1046SOL    HW2 4038   2.842   6.974   0.057
 1047SOL     OW 4039   1.308   4.967   2.980
 1047SOL    HW1 4040   1.319   5.024   2.899
 1047SOL    HW2 4041   1.273   5.022   3.056
 1048SOL     OW 4042   5.459   5.290   5.175
 1048SOL    HW1 4043   5.381   5.346   5.147
 1048SOL    HW2 4044   5.453   5.271   5.273
 1049SOL     OW 4045   6.836   3.730   5.167
 1049SOL    HW1 4046   6.904   3.704   5.236
 1049SOL    HW2 4047   6.830   3.830   5.162
 1050SOL     OW 4048   3.834   0.180   6.655
 1050SOL    HW1 4049   3.791   0.177   6.564
 1050SOL    HW2 4050   3.905   0.250   6.655
 1051SOL     OW 4051   3.984   4.878   0.118
 1051SOL    HW1 4052   4.047   4.907   0.190
 1051SOL    HW2 4053   3.918   4.813   0.156
 1052SOL     OW 4054   3.974   0.367   4.683
 1052SOL    HW1 4055   3.886   0.322   4.696
 1052SOL    HW2 4056   4.045   0.317   4.734
 1053SOL     OW 4057   4.974   5.793   3.612
 1053SOL    HW1 4058   4.935   5.885   3.604
 1053SOL    HW2 4059   4.966   5.761   3.707
 1054SOL     OW 4060   2.902   4.927   5.464
 1054SOL    HW1 4061   2.936   4.950   5.555
 1054SOL    HW2 4062   2.817   4.875   5.473
 1055SOL     OW 4063   5.369   5.331   4.685
 1055SOL    HW1 4064   5.279   5.299   4.656
 1055SOL    HW2 4065   5.367   5.430   4.697
 1056SOL     OW 4066   1.719   6.152   5.164
 1056SOL    HW1 4067   1.646   6.084   5.168
 1056SOL    HW2 4068   1.754   6.159   5.071
 1057SOL     OW 4069   2.996   3.147   3.290
 1057SOL    HW1 4070   2.983   3.246   3.295
 1057SOL    HW2 4071   2.910   3.101   3.312
 1058SOL     OW 4072   3.936   1.621   2.666
 1058SOL    HW1 4073   4.018   1.604   2.612
 1058SOL    HW2 4074   3.888   1.701   2.629
 1059SOL     OW 4075   4.260   1.194   1.953
 1059SOL    HW1 4076   4.265   1.261   1.879
 1059SOL    HW2 4077   4.273   1.102   1.916
 1060SOL     OW 4078   0.667   3.864   5.673
 1060SOL    HW1 4079   0.595   3.871   5.604
 1060SOL    HW2 4080   0.636   3.805   5.748
 1061SOL     OW 4081   3.261   4.695   1.395
 1061SOL    HW1 4082   3.261   4.674   1.493
 1061SOL    HW2 4083   3.295   4.788   1.380
 1062SOL     OW 4084   6.867   5.444   5.160
 1062SOL    HW1 4085   6.887   5.405   5.070
 1062SOL    HW2 4086   6.922   5.527   5.174
 1063SOL     OW 4087   1.266   3.644   1.455
 1063SOL    HW1 4088   1.347   3.685   1.411
 1063SOL    HW2 4089   1.289   3.620   1.549
 1064SOL     OW 4090   1.422   3.135   2.284
 1064SOL    HW1 4091   1.462   3.123   2.194
 1064SOL    HW2 4092   1.494   3.146   2.352
 1065SOL     OW 4093   5.642   0.132   3.912
 1065SOL    HW1 4094   5.611   0.206   3.972
 1065SOL    HW2 4095   5.714   0.080   3.958
 1066SOL     OW 4096   5.147   0.568   4.368
 1066SOL    HW1 4097   5.113   0.495   4.309
 1066SOL    HW2 4098   5.167   0.532   4.459
 1067SOL     OW 4099   1.803   2.414   1.631
 1067SOL    HW1 4100   1.726   2.474   1.609
 1067SOL    HW2 4101   1.815   2.347   1.557
 1068SOL     OW 4102   0.572   3.717   2.073
 1068SOL    HW1 4103   0.546   3.703   1.978
 1068SOL    HW2 4104   0.490   3.714   2.131
 1069SOL     OW 4105   4.103   4.486   0.796
 1069SOL    HW1 4106   4.153   4.461   0.714
 1069SOL    HW2 4107   4.071   4.403   0.843
 1070SOL     OW 4108   2.199   0.593   0.327
 1070SOL    HW1 4109   2.161   0.506   0.359
 1070SOL    HW2 4110   2.201   0.593   0.227
 1071SOL     OW 4111   4.407   6.771   2.563
 1071SOL    HW1 4112   4.411   6.794   2.660
 1071SOL    HW2 4113   4.314   6.787   2.529
 1072SOL     OW 4114   3.012   6.479   2.294
 1072SOL    HW1 4115   3.049   6.409   2.356
 1072SOL    HW2 4116   2.916   6.459   2.275
 1073SOL     OW 4117   3.127   4.857   2.278
 1073SOL    HW1 4118   3.225   4.877   2.270
 1073SOL    HW2 4119   3.095   4.816   2.192
 1074SOL     OW 4120   1.429   5.189   2.082
 1074SOL    HW1 4121   1.487   5.196   2.163
 1074SOL    HW2 4122   1.397   5.095   2.073
 1075SOL     OW 4123   5.608   4.577   3.113
 1075SOL    HW1 4124   5.628   4.574   3.211
 1075SOL    HW2 4125   5.580   4.669   3.087
 1076SOL     OW 4126   0.648   4.523   4.821
 1076SOL    HW1 4127   0.676   4.453   4.755
 1076SOL    HW2 4128   0.559   4.499   4.860
 1077SOL     OW 4129   5.649   0.320   0.946
 1077SOL    HW1 4130   5.560   0.348   0.982
 1077SOL    HW2 4131   5.637   0.253   0.873
 1078SOL     OW 4132   1.288   1.426   1.313
 1078SOL    HW1 4133   1.342   1.438   1.229
 1078SOL    HW2 4134   1.332   1.357   1.371
 1079SOL     OW 4135   2.443   6.013   3.488
 1079SOL    HW1 4136   2.532   5.969   3.475
 1079SOL    HW2 4137   2.456   6.104   3.526
 1080SOL     OW 4138   2.554   5.667   3.561
 1080SOL    HW1 4139   2.596   5.756   3.545
 1080SOL    HW2 4140   2.576   5.636   3.654
 1081SOL     OW 4141   1.379   1.058   6.177
 1081SOL    HW1 4142   1.313   1.096   6.112
 1081SOL    HW2 4143   1.421   1.133   6.228
 1082SOL     OW 4144   1.239   0.157   5.437
 1082SOL    HW1 4145   1.141   0.177   5.434
 1082SOL    HW2 4146   1.252   0.058   5.447
 1083SOL     OW 4147   3.378   3.242   1.948
 1083SOL    HW1 4148   3.377   3.326   2.003
 1083SOL    HW2 4149   3.322   3.172   1.992
 1084SOL     OW 4150   5.903   5.158   0.970
 1084SOL    HW1 4151   5.880   5.064   0.946
 1084SOL    HW2 4152   5.990   5.159   1.019
 1085SOL     OW 4153   1.751   4.954   3.790
 1085SOL    HW1 4154   1.748   5.004   3.876
 1085SOL    HW2 4155   1.778   4.859   3.807
 1086SOL     OW 4156   5.606   6.040   3.616
 1086SOL    HW1 4157   5.660   6.110   3.569
 1086SOL    HW2 4158   5.514   6.036   3.575
 1087SOL     OW 4159   4.915   2.885   5.528
 1087SOL    HW1 4160   4.984   2.814   5.542
 1087SOL    HW2 4161   4.950   2.953   5.464
 1088SOL     OW 4162   5.467   4.812   3.431
 1088SOL    HW1 4163   5.501   4.849   3.344
 1088SOL    HW2 4164   5.413   4.882   3.479
 1089SOL     OW 4165   0.372   0.463   5.007
 1089SOL    HW1 4166   0.412   0.371   5.007
 1089SOL    HW2 4167   0.284   0.461   4.960
 1090SOL     OW 4168   1.951   1.464   5.905
 1090SOL    HW1 4169   1.924   1.430   5.814
 1090SOL    HW2 4170   1.994   1.553   5.896
 1091SOL     OW 4171   1.681   1.891   4.379
 1091SOL    HW1 4172   1.655   1.801   4.346
 1091SOL    HW2 4173   1.780   1.895   4.394
 1092SOL     OW 4174   2.051   4.183   1.457
 1092SOL    HW1 4175   2.150   4.167   1.448
 1092SOL    HW2 4176   2.020   4.237   1.379
 1093SOL     OW 4177   1.240   2.744   2.395
 1093SOL    HW1 4178   1.255   2.827   2.449
 1093SOL    HW2 4179   1.253   2.765   2.298
 1094SOL     OW 4180   0.214   6.618   1.789
 1094SOL    HW1 4181   0.173   6.665   1.867
 1094SOL    HW2 4182   0.306   6.587   1.813
 1095SOL     OW 4183   6.125   3.080   6.587
 1095SOL    HW1 4184   6.090   3.172   6.570
 1095SOL    HW2 4185   6.050   3.015   6.587
 1096SOL     OW 4186   3.588   4.799   1.223
 1096SOL    HW1 4187   3.596   4.854   1.139
 1096SOL    HW2 4188   3.525   4.724   1.208
 1097SOL     OW 4189   1.757   5.051   4.888
 1097SOL    HW1 4190   1.830   5.027   4.825
 1097SOL    HW2 4191   1.728   4.970   4.938
 1098SOL     OW 4192   4.978   2.452   1.378
 1098SOL    HW1 4193   4.959   2.360   1.413
 1098SOL    HW2 4194   4.992   2.448   1.279
 1099SOL     OW 4195   4.024   2.029   4.179
 1099SOL    HW1 4196   3.977   2.099   4.231
 1099SOL    HW2 4197   4.090   2.071   4.116
 1100SOL     OW 4198   1.288   1.185   6.444
 1100SOL    HW1 4199   1.227   1.230   6.509
 1100SOL    HW2 4200   1.379   1.225   6.451
 1101SOL     OW 4201   5.294   3.290   1.109
 1101SOL    HW1 4202   5.219   3.253   1.054
 1101SOL    HW2 4203   5.353   3.215   1.139
 1102SOL     OW 4204   0.475   4.173   4.043
 1102SOL    HW1 4205   0.392   4.228   4.054
 1102SOL    HW2 4206   0.457   4.079   4.073
 1103SOL     OW 4207   1.596   1.795   1.736
 1103SOL    HW1 4208   1.539   1.825   1.660
 1103SOL    HW2 4209   1.596   1.865   1.808
 1104SOL     OW 4210   2.654   4.862   6.394
 1104SOL    HW1 4211   2.559   4.879   6.420
 1104SOL    HW2 4212   2.660   4.842   6.297
 1105SOL     OW 4213   4.863   4.376   6.706
 1105SOL    HW1 4214   4.861   4.358   6.608
 1105SOL    HW2 4215   4.880   4.291   6.756
 1106SOL     OW 4216   6.539   2.473   6.058
 1106SOL    HW1 4217   6.535   2.375   6.036
 1106SOL    HW2 4218   6.448   2.504   6.085
 1107SOL     OW 4219   0.816   0.557   0.504
 1107SOL    HW1 4220   0.816   0.485   0.435
 1107SOL    HW2 4221   0.789   0.644   0.462
 1108SOL     OW 4222   2.224   1.163   6.040
 1108SOL    HW1 4223   2.282   1.185   5.961
 1108SOL    HW2 4224   2.278   1.172   6.124
 1109SOL     OW 4225   3.693   5.912   4.362
 1109SOL    HW1 4226   3.774   5.856   4.383
 1109SOL    HW2 4227   3.688   5.927   4.263
 1110SOL     OW 4228   2.713   2.904   1.674
 1110SOL    HW1 4229   2.791   2.958   1.708
 1110SOL    HW2 4230   2.721   2.810   1.707
 1111SOL     OW 4231   5.528   0.686   0.058
 1111SOL    HW1 4232   5.565   0.669   6.992
 1111SOL    HW2 4233   5.542   0.782   0.082
 1112SOL     OW 4234   6.517   0.721   2.703
 1112SOL    HW1 4235   6.617   0.717   2.690
 1112SOL    HW2 4236   6.495   0.701   2.799
 1113SOL     OW 4237   6.729   3.552   2.576
 1113SOL    HW1 4238   6.706   3.520   2.668
 1113SOL    HW2 4239   6.647   3.587   2.531
 1114SOL     OW 4240   4.635   0.520   6.085
 1114SOL    HW1 4241   4.684   0.605   6.102
 1114SOL    HW2 4242   4.609   0.516   5.988
 1115SOL     OW 4243   3.590   3.296   0.630
 1115SOL    HW1 4244   3.504   3.338   0.659
 1115SOL    HW2 4245   3.574   3.240   0.548
 1116SOL     OW 4246   4.999   5.760   3.876
 1116SOL    HW1 4247   4.932   5.701   3.921
 1116SOL    HW2 4248   5.088   5.715   3.875
 1117SOL     OW 4249   2.476   2.431   1.485
 1117SOL    HW1 4250   2.434   2.373   1.555
 1117SOL    HW2 4251   2.557   2.385   1.448
 1118SOL     OW 4252   2.191   5.195   3.050
 1118SOL    HW1 4253   2.149   5.169   2.963
 1118SOL    HW2 4254   2.183   5.293   3.064
 1119SOL     OW 4255   4.196   3.990   1.752
 1119SOL    HW1 4256   4.251   4.070   1.775
 1119SOL    HW2 4257   4.145   3.960   1.833
 1120SOL     OW 4258   5.317   0.002   6.334
 1120SOL    HW1 4259   5.329   6.934   6.367
 1120SOL    HW2 4260   5.401   0.033   6.290
 1121SOL     OW 4261   5.064   2.806   2.033
 1121SOL    HW1 4262   5.014   2.883   2.072
 1121SOL    HW2 4263   5.000   2.743   1.989
 1122SOL     OW 4264   5.723   3.355   6.962
 1122SOL    HW1 4265   5.642   3.410   6.941
 1122SOL    HW2 4266   5.697   3.259   6.970
 1123SOL     OW 4267   4.706   1.410   2.284
 1123SOL    HW1 4268   4.780   1.409   2.217
 1123SOL    HW2 4269   4.745   1.410   2.376
 1124SOL     OW 4270   6.464   3.364   5.169
 1124SOL    HW1 4271   6.545   3.422   5.175
 1124SOL    HW2 4272   6.384   3.414   5.201
 1125SOL     OW 4273   2.899   2.922   5.340
 1125SOL    HW1 4274   2.950   2.922   5.426
 1125SOL    HW2 4275   2.807   2.887   5.356
 1126SOL     OW 4276   4.590   0.267   0.668
 1126SOL    HW1 4277   4.562   0.276   0.764
 1126SOL    HW2 4278   4.678   0.221   0.662
 1127SOL     OW 4279   2.910   4.598   0.664
 1127SOL    HW1 4280   2.846   4.658   0.616
 1127SOL    HW2 4281   2.870   4.570   0.751
 1128SOL     OW 4282   3.654   2.138   3.607
 1128SOL    HW1 4283   3.594   2.153   3.528
 1128SOL    HW2 4284   3.745   2.175   3.588
 1129SOL     OW 4285   4.312   0.743   6.973
 1129SOL    HW1 4286   4.273   0.654   6.950
 1129SOL    HW2 4287   4.342   0.790   6.890
 1130SOL     OW 4288   1.621   3.937   0.832
 1130SOL    HW1 4289   1.590   4.031   0.818
 1130SOL    HW2 4290   1.557   3.890   0.893
 1131SOL     OW 4291   0.420   6.208   5.936
 1131SOL    HW1 4292   0.413   6.155   5.852
 1131SOL    HW2 4293   0.328   6.232   5.968
 1132SOL     OW 4294   4.776   7.017   5.965
 1132SOL    HW1 4295   4.779   0.067   6.031
 1132SOL    HW2 4296   4.836   0.013   5.888
 1133SOL     OW 4297   0.996   2.605   0.969
 1133SOL    HW1 4298   1.033   2.514   0.949
 1133SOL    HW2 4299   0.918   2.624   0.910
 1134SOL     OW 4300   5.878   2.586   6.953
 1134SOL    HW1 4301   5.889   2.488   6.937
 1134SOL    HW2 4302   5.796   2.602   7.006
 1135SOL     OW 4303   2.967   2.206   3.532
 1135SOL    HW1 4304   2.906   2.242   3.603
 1135SOL    HW2 4305   2.917   2.196   3.446
 1136SOL     OW 4306   2.745   5.554   3.402
 1136SOL    HW1 4307   2.680   5.582   3.473
 1136SOL    HW2 4308   2.777   5.461   3.421
 1137SOL     OW 4309   1.501   2.087   6.488
 1137SOL    HW1 4310   1.582   2.137   6.458
 1137SOL    HW2 4311   1.508   1.991   6.460
 1138SOL     OW 4312   2.630   3.349   6.407
 1138SOL    HW1 4313   2.639   3.421   6.338
 1138SOL    HW2 4314   2.720   3.319   6.436
 1139SOL     OW 4315   1.248   6.575   2.819
 1139SOL    HW1 4316   1.167   6.522   2.795
 1139SOL    HW2 4317   1.236   6.670   2.790
 1140SOL     OW 4318   3.467   1.518   3.294
 1140SOL    HW1 4319   3.408   1.599   3.292
 1140SOL    HW2 4320   3.420   1.444   3.341
 1141SOL     OW 4321   5.825   5.599   5.119
 1141SOL    HW1 4322   5.861   5.690   5.138
 1141SOL    HW2 4323   5.727   5.598   5.139
 1142SOL     OW 4324   5.285   0.730   4.212
 1142SOL    HW1 4325   5.221   0.666   4.255
 1142SOL    HW2 4326   5.279   0.819   4.259
 1143SOL     OW 4327   4.053   2.240   2.779
 1143SOL    HW1 4328   3.984   2.268   2.713
 1143SOL    HW2 4329   4.014   2.242   2.871
 1144SOL     OW 4330   0.778   3.961   3.873
 1144SOL    HW1 4331   0.779   3.951   3.972
 1144SOL    HW2 4332   0.808   4.053   3.848
 1145SOL     OW 4333   6.787   5.448   4.270
 1145SOL    HW1 4334   6.749   5.459   4.362
 1145SOL    HW2 4335   6.854   5.373   4.270
 1146SOL     OW 4336   6.209   2.360   0.864
 1146SOL    HW1 4337   6.272   2.399   0.931
 1146SOL    HW2 4338   6.258   2.297   0.804
 1147SOL     OW 4339   0.214   3.966   2.416
 1147SOL    HW1 4340   0.132   4.005   2.374
 1147SOL    HW2 4341   0.208   3.974   2.516
 1148SOL     OW 4342   3.688   6.235   6.341
 1148SOL    HW1 4343   3.639   6.279   6.417
 1148SOL    HW2 4344   3.785   6.229   6.363
 1149SOL     OW 4345   6.549   3.467   2.864
 1149SOL    HW1 4346   6.491   3.440   2.942
 1149SOL    HW2 4347   6.629   3.408   2.860
 1150SOL     OW 4348   2.124   5.129   0.947
 1150SOL    HW1 4349   2.188   5.206   0.953
 1150SOL    HW2 4350   2.169   5.045   0.976
 1151SOL     OW 4351   5.792   5.332   6.309
 1151SOL    HW1 4352   5.841   5.394   6.371
 1151SOL    HW2 4353   5.735   5.269   6.363
 1152SOL     OW 4354   1.123   0.093   5.051
 1152SOL    HW1 4355   1.027   0.084   5.079
 1152SOL    HW2 4356   1.166   0.165   5.106
 1153SOL     OW 4357   2.141   5.809   2.625
 1153SOL    HW1 4358   2.228   5.812   2.576
 1153SOL    HW2 4359   2.105   5.715   2.623
 1154SOL     OW 4360   0.643   3.980   2.163
 1154SOL    HW1 4361   0.596   3.968   2.251
 1154SOL    HW2 4362   0.625   3.901   2.104
 1155SOL     OW 4363   3.223   5.968   0.885
 1155SOL    HW1 4364   3.194   5.939   0.976
 1155SOL    HW2 4365   3.256   6.062   0.888
 1156SOL     OW 4366   2.499   0.671   4.139
 1156SOL    HW1 4367   2.496   0.672   4.039
 1156SOL    HW2 4368   2.412   0.636   4.174
 1157SOL     OW 4369   0.272   2.099   4.510
 1157SOL    HW1 4370   0.228   2.010   4.522
 1157SOL    HW2 4371   0.224   2.168   4.564
 1158SOL     OW 4372   5.600   4.864   5.986
 1158SOL    HW1 4373   5.535   4.796   5.953
 1158SOL    HW2 4374   5.603   4.941   5.922
 1159SOL     OW 4375   3.227   5.577   2.622
 1159SOL    HW1 4376   3.294   5.513   2.585
 1159SOL    HW2 4377   3.196   5.545   2.711
 1160SOL     OW 4378   3.986   3.482   2.730
 1160SOL    HW1 4379   3.945   3.572   2.749
 1160SOL    HW2 4380   3.982   3.426   2.813
 1161SOL     OW 4381   5.536   0.380   3.703
 1161SOL    HW1 4382   5.584   0.404   3.618
 1161SOL    HW2 4383   5.522   0.281   3.706
 1162SOL     OW 4384   3.086   3.255   1.830
 1162SOL    HW1 4385   3.184   3.272   1.839
 1162SOL    HW2 4386   3.043   3.333   1.785
 1163SOL     OW 4387   5.043   2.004   2.005
 1163SOL    HW1 4388   4.955   1.956   1.998
 1163SOL    HW2 4389   5.104   1.972   1.933
 1164SOL     OW 4390   5.303   3.108   2.639
 1164SOL    HW1 4391   5.339   3.029   2.688
 1164SOL    HW2 4392   5.252   3.166   2.703
 1165SOL     OW 4393   0.752   3.543   3.362
 1165SOL    HW1 4394   0.669   3.528   3.416
 1165SOL    HW2 4395   0.775   3.459   3.313
 1166SOL     OW 4396   4.058   2.380   6.299
 1166SOL    HW1 4397   4.094   2.431   6.221
 1166SOL    HW2 4398   4.049   2.284   6.275
 1167SOL     OW 4399   4.142   0.719   5.025
 1167SOL    HW1 4400   4.074   0.786   4.997
 1167SOL    HW2 4401   4.137   0.639   4.965
 1168SOL     OW 4402   0.084   6.624   3.438
 1168SOL    HW1 4403   0.127   6.712   3.459
 1168SOL    HW2 4404   0.110   6.596   3.345
 1169SOL     OW 4405   0.768   3.431   1.469
 1169SOL    HW1 4406   0.735   3.436   1.563
 1169SOL    HW2 4407   0.851   3.485   1.460
 1170SOL     OW 4408   3.719   1.231   2.857
 1170SOL    HW1 4409   3.644   1.167   2.842
 1170SOL    HW2 4410   3.735   1.284   2.774
 1171SOL     OW 4411   3.150   5.979   1.159
 1171SOL    HW1 4412   3.072   5.928   1.123
 1171SOL    HW2 4413   3.118   6.049   1.223
 1172SOL     OW 4414   3.556   3.521   3.980
 1172SOL    HW1 4415   3.541   3.615   4.012
 1172SOL    HW2 4416   3.655   3.503   3.975
 1173SOL     OW 4417   3.092   0.788   5.740
 1173SOL    HW1 4418   3.044   0.780   5.827
 1173SOL    HW2 4419   3.190   0.779   5.754
 1174SOL     OW 4420   2.630   5.911   0.627
 1174SOL    HW1 4421   2.614   5.981   0.697
 1174SOL    HW2 4422   2.596   5.823   0.660
 1175SOL     OW 4423   5.868   4.830   6.717
 1175SOL    HW1 4424   5.934   4.756   6.728
 1175SOL    HW2 4425   5.797   4.803   6.651
 1176SOL     OW 4426   5.737   4.694   0.816
 1176SOL    HW1 4427   5.774   4.640   0.740
 1176SOL    HW2 4428   5.681   4.636   0.874
 1177SOL     OW 4429   6.649   3.021   5.684
 1177SOL    HW1 4430   6.686   2.929   5.697
 1177SOL    HW2 4431   6.557   3.026   5.723
 1178SOL     OW 4432   5.278   3.387   2.307
 1178SOL    HW1 4433   5.329   3.389   2.221
 1178SOL    HW2 4434   5.233   3.298   2.317
 1179SOL     OW 4435   2.211   3.855   0.724
 1179SOL    HW1 4436   2.206   3.875   0.821
 1179SOL    HW2 4437   2.160   3.771   0.704
 1180SOL     OW 4438   2.363   1.403   3.797
 1180SOL    HW1 4439   2.310   1.389   3.713
 1180SOL    HW2 4440   2.310   1.372   3.876
 1181SOL     OW 4441   1.227   4.682   3.788
 1181SOL    HW1 4442   1.288   4.650   3.860
 1181SOL    HW2 4443   1.275   4.749   3.730
 1182SOL     OW 4444   1.950   4.295   3.704
 1182SOL    HW1 4445   1.982   4.373   3.759
 1182SOL    HW2 4446   1.998   4.293   3.617
 1183SOL     OW 4447   4.003   6.063   1.692
 1183SOL    HW1 4448   3.905   6.067   1.672
 1183SOL    HW2 4449   4.040   5.976   1.660
 1184SOL     OW 4450   3.124   2.870   5.168
 1184SOL    HW1 4451   3.033   2.867   5.210
 1184SOL    HW2 4452   3.116   2.903   5.074
 1185SOL     OW 4453   2.331   6.932   0.102
 1185SOL    HW1 4454   2.274   6.859   0.140
 1185SOL    HW2 4455   2.292   6.961   0.014
 1186SOL     OW 4456   6.150   0.996   4.590
 1186SOL    HW1 4457   6.201   1.069   4.636
 1186SOL    HW2 4458   6.210   0.917   4.577
 1187SOL     OW 4459   5.956   6.492   4.900
 1187SOL    HW1 4460   6.000   6.480   4.811
 1187SOL    HW2 4461   5.891   6.568   4.894
 1188SOL     OW 4462   2.016   6.738   5.867
 1188SOL    HW1 4463   2.097   6.794   5.884
 1188SOL    HW2 4464   1.973   6.714   5.954
 1189SOL     OW 4465   5.922   1.166   1.460
 1189SOL    HW1 4466   5.888   1.222   1.535
 1189SOL    HW2 4467   6.021   1.182   1.449
 1190SOL     OW 4468   4.119   5.224   2.932
 1190SOL    HW1 4469   4.108   5.183   3.023
 1190SOL    HW2 4470   4.210   5.264   2.925
 1191SOL     OW 4471   3.193   5.634   5.779
 1191SOL    HW1 4472   3.162   5.686   5.700
 1191SOL    HW2 4473   3.125   5.640   5.852
 1192SOL     OW 4474   6.202   4.954   2.928
 1192SOL    HW1 4475   6.203   5.046   2.968
 1192SOL    HW2 4476   6.131   4.949   2.858
 1193SOL     OW 4477   5.326   0.259   4.309
 1193SOL    HW1 4478   5.405   0.321   4.302
 1193SOL    HW2 4479   5.249   0.298   4.259
 1194SOL     OW 4480   6.379   0.579   1.097
 1194SOL    HW1 4481   6.474   0.555   1.080
 1194SOL    HW2 4482   6.332   0.596   1.010
 1195SOL     OW 4483   5.760   0.758   6.155
 1195SOL    HW1 4484   5.779   0.809   6.072
 1195SOL    HW2 4485   5.825   0.682   6.163
 1196SOL     OW 4486   0.164   5.129   2.423
 1196SOL    HW1 4487   0.242   5.151   2.364
 1196SOL    HW2 4488   0.154   5.029   2.430
 1197SOL     OW 4489   4.177   6.027   5.577
 1197SOL    HW1 4490   4.235   6.070   5.645
 1197SOL    HW2 4491   4.193   6.069   5.488
 1198SOL     OW 4492   3.487   2.147   3.150
 1198SOL    HW1 4493   3.455   2.156   3.244
 1198SOL    HW2 4494   3.432   2.205   3.090
 1199SOL     OW 4495   3.124   3.650   2.052
 1199SOL    HW1 4496   3.122   3.634   1.954
 1199SOL    HW2 4497   3.139   3.747   2.070
 1200SOL     OW 4498   4.302   4.014   5.903
 1200SOL    HW1 4499   4.383   3.987   5.851
 1200SOL    HW2 4500   4.229   3.948   5.888
 1201SOL     OW 4501   1.168   1.793   4.759
 1201SOL    HW1 4502   1.186   1.759   4.667
 1201SOL    HW2 4503   1.194   1.723   4.826
 1202SOL     OW 4504   5.401   0.383   5.078
 1202SOL    HW1 4505   5.474   0.327   5.039
 1202SOL    HW2 4506   5.399   0.369   5.177
 1203SOL     OW 4507   5.298   0.595   0.935
 1203SOL    HW1 4508   5.274   0.666   1.000
 1203SOL    HW2 4509   5.326   0.637   0.848
 1204SOL     OW 4510   3.511   1.662   0.304
 1204SOL    HW1 4511   3.551   1.654   0.213
 1204SOL    HW2 4512   3.548   1.742   0.350
 1205SOL     OW 4513   6.159   2.298   6.171
 1205SOL    HW1 4514   6.073   2.325   6.126
 1205SOL    HW2 4515   6.169   2.349   6.256
 1206SOL     OW 4516   1.574   1.724   4.957
 1206SOL    HW1 4517   1.539   1.739   4.865
 1206SOL    HW2 4518   1.569   1.626   4.979
 1207SOL     OW 4519   5.828   0.262   0.561
 1207SOL    HW1 4520   5.876   0.346   0.585
 1207SOL    HW2 4521   5.783   0.274   0.472
 1208SOL     OW 4522   3.554   3.809   2.686
 1208SOL    HW1 4523   3.537   3.748   2.609
 1208SOL    HW2 4524   3.488   3.790   2.759
 1209SOL     OW 4525   6.152   6.079   5.443
 1209SOL    HW1 4526   6.054   6.086   5.423
 1209SOL    HW2 4527   6.192   6.005   5.389
 1210SOL     OW 4528   3.915   0.096   2.639
 1210SOL    HW1 4529   3.956   0.186   2.631
 1210SOL    HW2 4530   3.823   0.097   2.600
 1211SOL     OW 4531   1.509   3.547   4.005
 1211SOL    HW1 4532   1.597   3.591   4.019
 1211SOL    HW2 4533   1.510   3.497   3.918
 1212SOL     OW 4534   1.335   4.270   4.828
 1212SOL    HW1 4535   1.283   4.232   4.752
 1212SOL    HW2 4536   1.272   4.307   4.897
 1213SOL     OW 4537   6.990   2.771   5.019
 1213SOL    HW1 4538   6.969   2.791   4.923
 1213SOL    HW2 4539   0.016   2.847   5.059
 1214SOL     OW 4540   1.676   3.817   4.599
 1214SOL    HW1 4541   1.748   3.852   4.540
 1214SOL    HW2 4542   1.635   3.892   4.651
 1215SOL     OW 4543   2.307   4.752   3.080
 1215SOL    HW1 4544   2.397   4.791   3.063
 1215SOL    HW2 4545   2.280   4.693   3.004
 1216SOL     OW 4546   1.231   6.549   1.454
 1216SOL    HW1 4547   1.291   6.623   1.425
 1216SOL    HW2 4548   1.201   6.497   1.375
 1217SOL     OW 4549   1.150   6.538   0.439
 1217SOL    HW1 4550   1.187   6.615   0.491
 1217SOL    HW2 4551   1.204   6.525   0.356
 1218SOL     OW 4552   0.711   3.736   4.709
 1218SOL    HW1 4553   0.755   3.812   4.662
 1218SOL    HW2 4554   0.758   3.718   4.796
 1219SOL     OW 4555   4.236   5.749   0.609
 1219SOL    HW1 4556   4.185   5.781   0.689
 1219SOL    HW2 4557   4.285   5.666   0.632
 1220SOL     OW 4558   5.461   2.806   2.777
 1220SOL    HW1 4559   5.512   2.889   2.754
 1220SOL    HW2 4560   5.484   2.734   2.712
 1221SOL     OW 4561   5.634   3.615   0.825
 1221SOL    HW1 4562   5.561   3.671   0.784
 1221SOL    HW2 4563   5.662   3.655   0.912
 1222SOL     OW 4564   6.980   6.593   0.578
 1222SOL    HW1 4565   6.930   6.679   0.586
 1222SOL    HW2 4566   7.013   6.565   0.668
 1223SOL     OW 4567   6.099   0.112   6.651
 1223SOL    HW1 4568   6.195   0.088   6.638
 1223SOL    HW2 4569   6.041   0.045   6.606
 1224SOL     OW 4570   4.493   6.149   0.583
 1224SOL    HW1 4571   4.427   6.192   0.522
 1224SOL    HW2 4572   4.551   6.219   0.624
 1225SOL     OW 4573   4.456   1.907   0.823
 1225SOL    HW1 4574   4.526   1.866   0.765
 1225SOL    HW2 4575   4.366   1.879   0.791
 1226SOL     OW 4576   6.040   6.175   1.274
 1226SOL    HW1 4577   6.032   6.082   1.310
 1226SOL    HW2 4578   6.081   6.234   1.344
 1227SOL     OW 4579   5.705   4.095   5.441
 1227SOL    HW1 4580   5.637   4.128   5.507
 1227SOL    HW2 4581   5.673   4.115   5.348
 1228SOL     OW 4582   3.739   3.113   2.126
 1228SOL    HW1 4583   3.831   3.105   2.089
 1228SOL    HW2 4584   3.672   3.108   2.051
 1229SOL     OW 4585   1.517   5.824   2.403
 1229SOL    HW1 4586   1.463   5.754   2.449
 1229SOL    HW2 4587   1.610   5.791   2.389
 1230SOL     OW 4588   4.657   5.062   2.151
 1230SOL    HW1 4589   4.593   5.137   2.169
 1230SOL    HW2 4590   4.745   5.100   2.122
 1231SOL     OW 4591   1.964   2.279   6.237
 1231SOL    HW1 4592   1.967   2.179   6.233
 1231SOL    HW2 4593   1.874   2.311   6.206
 1232SOL     OW 4594   3.305   0.414   5.391
 1232SOL    HW1 4595   3.250   0.438   5.471
 1232SOL    HW2 4596   3.324   0.497   5.338
 1233SOL     OW 4597   0.334   4.891   3.874
 1233SOL    HW1 4598   0.241   4.853   3.880
 1233SOL    HW2 4599   0.396   4.819   3.842
 1234SOL     OW 4600   0.109   3.389   6.493
 1234SOL    HW1 4601   0.029   3.397   6.552
 1234SOL    HW2 4602   0.174   3.324   6.533
 1235SOL     OW 4603   5.654   4.487   0.031
 1235SOL    HW1 4604   5.577   4.547   0.012
 1235SOL    HW2 4605   5.635   4.433   0.113
 1236SOL     OW 4606   2.623   0.923   0.673
 1236SOL    HW1 4607   2.648   0.881   0.586
 1236SOL    HW2 4608   2.524   0.928   0.680
 1237SOL     OW 4609   1.334   0.503   4.558
 1237SOL    HW1 4610   1.433   0.488   4.555
 1237SOL    HW2 4611   1.311   0.582   4.502
 1238SOL     OW 4612   0.379   6.979   3.745
 1238SOL    HW1 4613   0.462   0.005   3.769
 1238SOL    HW2 4614   0.405   6.890   3.707
 1239SOL     OW 4615   6.089   5.682   4.165
 1239SOL    HW1 4616   6.132   5.688   4.255
 1239SOL    HW2 4617   6.011   5.621   4.169
 1240SOL     OW 4618   5.911   5.171   2.784
 1240SOL    HW1 4619   5.934   5.240   2.716
 1240SOL    HW2 4620   5.832   5.202   2.838
 1241SOL     OW 4621   5.910   4.999   4.178
 1241SOL    HW1 4622   5.959   5.018   4.093
 1241SOL    HW2 4623   5.938   5.065   4.248
 1242SOL     OW 4624   1.263   3.668   0.264
 1242SOL    HW1 4625   1.210   3.598   0.312
 1242SOL    HW2 4626   1.248   3.660   0.166
 1243SOL     OW 4627   1.195   4.180   5.252
 1243SOL    HW1 4628   1.122   4.115   5.272
 1243SOL    HW2 4629   1.274   4.159   5.310
 1244SOL     OW 4630   5.921   7.012   4.924
 1244SOL    HW1 4631   5.901   0.084   4.932
 1244SOL    HW2 4632   5.965   6.994   4.836
 1245SOL     OW 4633   5.192   6.118   1.558
 1245SOL    HW1 4634   5.141   6.054   1.615
 1245SOL    HW2 4635   5.157   6.115   1.464
 1246SOL     OW 4636   4.527   1.532   0.766
 1246SOL    HW1 4637   4.571   1.603   0.711
 1246SOL    HW2 4638   4.528   1.445   0.716
 1247SOL     OW 4639   6.746   6.430   3.588
 1247SOL    HW1 4640   6.702   6.514   3.620
 1247SOL    HW2 4641   6.800   6.450   3.507
 1248SOL     OW 4642   6.890   0.145   5.104
 1248SOL    HW1 4643   6.941   0.114   5.024
 1248SOL    HW2 4644   6.949   0.144   5.185
 1249SOL     OW 4645   0.599   4.486   1.340
 1249SOL    HW1 4646   0.688   4.442   1.338
 1249SOL    HW2 4647   0.567   4.494   1.434
 1250SOL     OW 4648   5.673   3.242   5.329
 1250SOL    HW1 4649   5.653   3.325   5.381
 1250SOL    HW2 4650   5.607   3.171   5.354
 1251SOL     OW 4651   2.993   0.508   2.297
 1251SOL    HW1 4652   2.945   0.420   2.300
 1251SOL    HW2 4653   3.052   0.511   2.216
 1252SOL     OW 4654   2.388   5.651   6.992
 1252SOL    HW1 4655   2.311   5.630   6.932
 1252SOL    HW2 4656   2.424   5.742   6.971
 1253SOL     OW 4657   3.475   0.765   0.773
 1253SOL    HW1 4658   3.416   0.685   0.787
 1253SOL    HW2 4659   3.552   0.740   0.714
 1254SOL     OW 4660   6.362   1.442   2.364
 1254SOL    HW1 4661   6.295   1.517   2.370
 1254SOL    HW2 4662   6.394   1.419   2.455
 1255SOL     OW 4663   5.329   2.099   5.137
 1255SOL    HW1 4664   5.239   2.068   5.107
 1255SOL    HW2 4665   5.393   2.094   5.061
 1256SOL     OW 4666   0.346   5.910   3.734
 1256SOL    HW1 4667   0.409   5.834   3.720
 1256SOL    HW2 4668   0.373   5.962   3.815
 1257SOL     OW 4669   0.268   4.558   3.619
 1257SOL    HW1 4670   0.352   4.522   3.579
 1257SOL    HW2 4671   0.277   4.562   3.718
 1258SOL     OW 4672   3.157   6.629   4.328
 1258SOL    HW1 4673   3.186   6.706   4.384
 1258SOL    HW2 4674   3.235   6.569   4.311
 1259SOL     OW 4675   4.777   0.469   5.057
 1259SOL    HW1 4676   4.833   0.538   5.012
 1259SOL    HW2 4677   4.759   0.496   5.151
 1260SOL     OW 4678   2.188   0.397   2.283
 1260SOL    HW1 4679   2.121   0.464   2.315
 1260SOL    HW2 4680   2.160   0.363   2.193
 1261SOL     OW 4681   7.006   4.483   6.547
 1261SOL    HW1 4682   6.961   4.509   6.462
 1261SOL    HW2 4683   0.038   4.403   6.532
 1262SOL     OW 4684   4.769   5.020   0.893
 1262SOL    HW1 4685   4.765   5.028   0.993
 1262SOL    HW2 4686   4.676   5.009   0.857
 1263SOL     OW 4687   0.223   2.281   1.085
 1263SOL    HW1 4688   0.298   2.280   1.018
 1263SOL    HW2 4689   0.166   2.200   1.073
 1264SOL     OW 4690   0.649   3.715   3.163
 1264SOL    HW1 4691   0.688   3.644   3.222
 1264SOL    HW2 4692   0.619   3.792   3.219
 1265SOL     OW 4693   0.086   4.083   4.749
 1265SOL    HW1 4694   7.015   4.083   4.723
 1265SOL    HW2 4695   0.096   4.039   4.838
 1266SOL     OW 4696   3.286   1.791   5.461
 1266SOL    HW1 4697   3.367   1.846   5.439
 1266SOL    HW2 4698   3.267   1.728   5.386
 1267SOL     OW 4699   0.338   5.179   2.969
 1267SOL    HW1 4700   0.401   5.257   2.966
 1267SOL    HW2 4701   0.367   5.111   2.902
 1268SOL     OW 4702   5.560   2.754   6.464
 1268SOL    HW1 4703   5.543   2.852   6.463
 1268SOL    HW2 4704   5.512   2.711   6.388
 1269SOL     OW 4705   6.882   6.047   4.600
 1269SOL    HW1 4706   6.925   5.958   4.582
 1269SOL    HW2 4707   6.801   6.057   4.542
 1270SOL     OW 4708   2.035   3.865   4.720
 1270SOL    HW1 4709   2.001   3.882   4.627
 1270SOL    HW2 4710   1.977   3.911   4.786
 1271SOL     OW 4711   3.071   1.833   2.687
 1271SOL    HW1 4712   3.100   1.740   2.665
 1271SOL    HW2 4713   3.132   1.872   2.756
 1272SOL     OW 4714   6.716   5.451   1.053
 1272SOL    HW1 4715   6.692   5.539   1.095
 1272SOL    HW2 4716   6.746   5.467   0.959
 1273SOL     OW 4717   2.550   4.552   6.939
 1273SOL    HW1 4718   2.644   4.580   6.918
 1273SOL    HW2 4719   2.539   4.455   6.919
 1274SOL     OW 4720   0.049   2.655   1.599
 1274SOL    HW1 4721   6.996   2.683   1.543
 1274SOL    HW2 4722   0.070   2.559   1.580
 1275SOL     OW 4723   4.687   0.907   4.294
 1275SOL    HW1 4724   4.785   0.911   4.313
 1275SOL    HW2 4725   4.637   0.948   4.370
 1276SOL     OW 4726   6.909   0.576   1.834
 1276SOL    HW1 4727   6.920   0.642   1.908
 1276SOL    HW2 4728   6.975   0.501   1.846
 1277SOL     OW 4729   0.252   1.050   4.766
 1277SOL    HW1 4730   0.268   1.135   4.816
 1277SOL    HW2 4731   0.340   1.010   4.741
 1278SOL     OW 4732   2.019   2.147   5.404
 1278SOL    HW1 4733   2.069   2.231   5.385
 1278SOL    HW2 4734   2.071   2.068   5.369
 1279SOL     OW 4735   2.853   6.539   0.891
 1279SOL    HW1 4736   2.857   6.637   0.870
 1279SOL    HW2 4737   2.946   6.504   0.901
 1280SOL     OW 4738   2.182   6.789   2.796
 1280SOL    HW1 4739   2.158   6.834   2.883
 1280SOL    HW2 4740   2.098   6.763   2.749
 1281SOL     OW 4741   1.943   6.214   3.197
 1281SOL    HW1 4742   1.855   6.247   3.162
 1281SOL    HW2 4743   1.959   6.121   3.165
 1282SOL     OW 4744   0.604   1.368   0.974
 1282SOL    HW1 4745   0.563   1.395   0.887
 1282SOL    HW2 4746   0.704   1.378   0.968
 1283SOL     OW 4747   5.683   4.476   5.669
 1283SOL    HW1 4748   5.608   4.472   5.603
 1283SOL    HW2 4749   5.692   4.387   5.714
 1284SOL     OW 4750   2.767   2.638   1.754
 1284SOL    HW1 4751   2.672   2.609   1.770
 1284SOL    HW2 4752   2.829   2.572   1.797
 1285SOL     OW 4753   4.822   2.822   6.124
 1285SOL    HW1 4754   4.815   2.922   6.122
 1285SOL    HW2 4755   4.835   2.791   6.218
 1286SOL     OW 4756   5.431   4.108   2.155
 1286SOL    HW1 4757   5.508   4.067   2.204
 1286SOL    HW2 4758   5.382   4.170   2.216
 1287SOL     OW 4759   5.822   5.423   6.644
 1287SOL    HW1 4760   5.790   5.329   6.629
 1287SOL    HW2 4761   5.865   5.429   6.734
 1288SOL     OW 4762   0.608   2.644   0.126
 1288SOL    HW1 4763   0.675   2.639   0.051
 1288SOL    HW2 4764   0.656   2.641   0.214
 1289SOL     OW 4765   0.060   6.398   2.355
 1289SOL    HW1 4766   0.032   6.427   2.264
 1289SOL    HW2 4767   0.136   6.455   2.387
 1290SOL     OW 4768   0.214   0.196   6.917
 1290SOL    HW1 4769   0.115   0.189   6.905
 1290SOL    HW2 4770   0.255   0.237   6.835
 1291SOL     OW 4771   1.606   5.095   6.124
 1291SOL    HW1 4772   1.555   5.083   6.209
 1291SOL    HW2 4773   1.685   5.034   6.123
 1292SOL     OW 4774   6.864   4.540   1.432
 1292SOL    HW1 4775   6.836   4.444   1.430
 1292SOL    HW2 4776   6.818   4.587   1.508
 1293SOL     OW 4777   2.240   1.741   6.901
 1293SOL    HW1 4778   2.307   1.812   6.884
 1293SOL    HW2 4779   2.230   1.685   6.818
 1294SOL     OW 4780   0.492   3.417   2.269
 1294SOL    HW1 4781   0.503   3.333   2.322
 1294SOL    HW2 4782   0.454   3.394   2.179
 1295SOL     OW 4783   5.720   3.279   2.413
 1295SOL    HW1 4784   5.768   3.201   2.454
 1295SOL    HW2 4785   5.626   3.281   2.446
 1296SOL     OW 4786   3.720   1.888   6.201
 1296SOL    HW1 4787   3.721   1.920   6.106
 1296SOL    HW2 4788   3.777   1.948   6.257
 1297SOL     OW 4789   6.191   1.686   5.531
 1297SOL    HW1 4790   6.151   1.778   5.526
 1297SOL    HW2 4791   6.270   1.681   5.470
 1298SOL     OW 4792   5.435   3.308   3.159
 1298SOL    HW1 4793   5.361   3.369   3.189
 1298SOL    HW2 4794   5.448   3.236   3.227
 1299SOL     OW 4795   1.868   4.206   3.328
 1299SOL    HW1 4796   1.816   4.160   3.400
 1299SOL    HW2 4797   1.843   4.166   3.239
 1300SOL     OW 4798   3.216   3.298   1.325
 1300SOL    HW1 4799   3.223   3.282   1.424
 1300SOL    HW2 4800   3.119   3.303   1.299
 1301SOL     OW 4801   0.908   6.770   3.641
 1301SOL    HW1 4802   0.918   6.773   3.542
 1301SOL    HW2 4803   0.955   6.849   3.681
 1302SOL     OW 4804   1.996   6.378   5.329
 1302SOL    HW1 4805   2.079   6.413   5.372
 1302SOL    HW2 4806   1.964   6.297   5.378
 1303SOL     OW 4807   3.940   1.546   1.029
 1303SOL    HW1 4808   4.040   1.541   1.031
 1303SOL    HW2 4809   3.902   1.462   1.068
 1304SOL     OW 4810   1.365   0.525   6.108
 1304SOL    HW1 4811   1.278   0.476   6.097
 1304SOL    HW2 4812   1.441   0.460   6.100
 1305SOL     OW 4813   4.941   6.641   4.463
 1305SOL    HW1 4814   4.913   6.657   4.558
 1305SOL    HW2 4815   5.030   6.684   4.447
 1306SOL     OW 4816   1.209   4.101   4.628
 1306SOL    HW1 4817   1.278   4.079   4.559
 1306SOL    HW2 4818   1.134   4.036   4.622
 1307SOL     OW 4819   1.378   3.265   4.833
 1307SOL    HW1 4820   1.407   3.240   4.740
 1307SOL    HW2 4821   1.293   3.317   4.829
 1308SOL     OW 4822   4.613   5.856   4.109
 1308SOL    HW1 4823   4.614   5.926   4.037
 1308SOL    HW2 4824   4.670   5.779   4.080
 1309SOL     OW 4825   5.524   3.042   5.437
 1309SOL    HW1 4826   5.429   3.016   5.452
 1309SOL    HW2 4827   5.583   2.991   5.499
 1310SOL     OW 4828   6.026   3.898   4.334
 1310SOL    HW1 4829   6.008   3.802   4.353
 1310SOL    HW2 4830   5.941   3.944   4.308
 1311SOL     OW 4831   6.119   0.024   4.196
 1311SOL    HW1 4832   6.149   0.010   4.102
 1311SOL    HW2 4833   6.119   0.121   4.218
 1312SOL     OW 4834   0.667   0.915   6.888
 1312SOL    HW1 4835   0.639   0.831   6.935
 1312SOL    HW2 4836   0.613   0.992   6.922
 1313SOL     OW 4837   3.471   5.769   4.896
 1313SOL    HW1 4838   3.479   5.680   4.939
 1313SOL    HW2 4839   3.490   5.841   4.963
 1314SOL     OW 4840   1.263   1.539   5.711
 1314SOL    HW1 4841   1.288   1.508   5.619
 1314SOL    HW2 4842   1.314   1.487   5.779
 1315SOL     OW 4843   1.582   0.943   1.060
 1315SOL    HW1 4844   1.635   0.882   1.119
 1315SOL    HW2 4845   1.610   0.929   0.965
 1316SOL     OW 4846   2.039   0.165   3.820
 1316SOL    HW1 4847   1.974   0.202   3.886
 1316SOL    HW2 4848   2.066   0.237   3.756
 1317SOL     OW 4849   0.600   4.448   4.421
 1317SOL    HW1 4850   0.640   4.431   4.511
 1317SOL    HW2 4851   0.662   4.503   4.366
 1318SOL     OW 4852   0.139   1.069   0.406
 1318SOL    HW1 4853   0.231   1.106   0.391
 1318SOL    HW2 4854   0.134   1.030   0.498
 1319SOL     OW 4855   6.514   0.780   0.832
 1319SOL    HW1 4856   6.422   0.791   0.868
 1319SOL    HW2 4857   6.514   0.800   0.734
 1320SOL     OW 4858   5.651   4.528   6.775
 1320SOL    HW1 4859   5.595   4.459   6.730
 1320SOL    HW2 4860   5.627   4.535   6.871
 1321SOL     OW 4861   4.451   3.117   6.974
 1321SOL    HW1 4862   4.357   3.129   7.006
 1321SOL    HW2 4863   4.453   3.047   6.903
 1322SOL     OW 4864   5.984   0.563   3.318
 1322SOL    HW1 4865   5.980   0.473   3.275
 1322SOL    HW2 4866   5.993   0.551   3.417
 1323SOL     OW 4867   5.602   1.702   5.572
 1323SOL    HW1 4868   5.658   1.773   5.614
 1323SOL    HW2 4869   5.659   1.646   5.512
 1324SOL     OW 4870   1.560   2.555   1.591
 1324SOL    HW1 4871   1.519   2.525   1.677
 1324SOL    HW2 4872   1.491   2.554   1.519
 1325SOL     OW 4873   1.760   6.672   3.221
 1325SOL    HW1 4874   1.691   6.694   3.152
 1325SOL    HW2 4875   1.739   6.583   3.261
 1326SOL     OW 4876   5.163   2.203   4.356
 1326SOL    HW1 4877   5.070   2.191   4.392
 1326SOL    HW2 4878   5.163   2.275   4.286
 1327SOL     OW 4879   2.671   5.349   2.691
 1327SOL    HW1 4880   2.599   5.402   2.645
 1327SOL    HW2 4881   2.754   5.405   2.698
 1328SOL     OW 4882   1.535   2.671   6.264
 1328SOL    HW1 4883   1.594   2.686   6.344
 1328SOL    HW2 4884   1.565   2.729   6.189
 1329SOL     OW 4885   0.475   1.501   0.424
 1329SOL    HW1 4886   0.405   1.565   0.391
 1329SOL    HW2 4887   0.562   1.548   0.434
 1330SOL     OW 4888   6.607   0.461   1.063
 1330SOL    HW1 4889   6.635   0.416   1.148
 1330SOL    HW2 4890   6.618   0.398   0.986
 1331SOL     OW 4891   5.823   0.819   2.550
 1331SOL    HW1 4892   5.804   0.806   2.647
 1331SOL    HW2 4893   5.877   0.902   2.537
 1332SOL     OW 4894   4.014   1.579   1.604
 1332SOL    HW1 4895   4.009   1.538   1.696
 1332SOL    HW2 4896   4.104   1.621   1.592
 1333SOL     OW 4897   3.524   4.201   5.347
 1333SOL    HW1 4898   3.609   4.180   5.394
 1333SOL    HW2 4899   3.524   4.297   5.318
 1334SOL     OW 4900   1.468   3.843   5.266
 1334SOL    HW1 4901   1.384   3.813   5.311
 1334SOL    HW2 4902   1.498   3.774   5.200
 1335SOL     OW 4903   2.210   6.125   2.544
 1335SOL    HW1 4904   2.203   6.225   2.544
 1335SOL    HW2 4905   2.122   6.086   2.573
 1336SOL     OW 4906   1.126   1.767   6.739
 1336SOL    HW1 4907   1.048   1.826   6.763
 1336SOL    HW2 4908   1.201   1.783   6.803
 1337SOL     OW 4909   2.016   2.713   6.333
 1337SOL    HW1 4910   2.066   2.798   6.347
 1337SOL    HW2 4911   2.078   2.636   6.350
 1338SOL     OW 4912   4.290   4.353   6.525
 1338SOL    HW1 4913   4.343   4.409   6.462
 1338SOL    HW2 4914   4.284   4.260   6.490
 1339SOL     OW 4915   6.921   4.893   6.253
 1339SOL    HW1 4916   6.823   4.900   6.275
 1339SOL    HW2 4917   6.972   4.872   6.336
 1340SOL     OW 4918   1.356   2.073   0.506
 1340SOL    HW1 4919   1.422   2.134   0.464
 1340SOL    HW2 4920   1.269   2.080   0.457
 1341SOL     OW 4921   3.854   1.066   4.479
 1341SOL    HW1 4922   3.761   1.052   4.446
 1341SOL    HW2 4923   3.852   1.097   4.574
 1342SOL     OW 4924   1.126   6.244   6.250
 1342SOL    HW1 4925   1.149   6.164   6.194
 1342SOL    HW2 4926   1.137   6.221   6.347
 1343SOL     OW 4927   3.504   6.348   2.567
 1343SOL    HW1 4928   3.530   6.301   2.651
 1343SOL    HW2 4929   3.583   6.398   2.531
 1344SOL     OW 4930   6.389   1.929   3.005
 1344SOL    HW1 4931   6.339   1.992   2.945
 1344SOL    HW2 4932   6.446   1.983   3.068
 1345SOL     OW 4933   0.747   0.896   2.912
 1345SOL    HW1 4934   0.821   0.875   2.848
 1345SOL    HW2 4935   0.749   0.993   2.933
 1346SOL     OW 4936   0.691   6.683   3.502
 1346SOL    HW1 4937   0.755   6.719   3.570
 1346SOL    HW2 4938   0.728   6.697   3.410
 1347SOL     OW 4939   6.516   6.554   3.205
 1347SOL    HW1 4940   6.520   6.584   3.110
 1347SOL    HW2 4941   6.601   6.578   3.251
 1348SOL     OW 4942   5.824   4.778   4.028
 1348SOL    HW1 4943   5.883   4.855   4.056
 1348SOL    HW2 4944   5.866   4.731   3.950
 1349SOL     OW 4945   4.417   2.625   0.273
 1349SOL    HW1 4946   4.419   2.556   0.200
 1349SOL    HW2 4947   4.493   2.689   0.260
 1350SOL     OW 4948   2.997   5.492   6.746
 1350SOL    HW1 4949   3.050   5.486   6.662
 1350SOL    HW2 4950   2.910   5.444   6.735
 1351SOL     OW 4951   0.618   0.366   3.637
 1351SOL    HW1 4952   0.661   0.444   3.682
 1351SOL    HW2 4953   0.540   0.398   3.582
 1352SOL     OW 4954   6.720   0.350   3.420
 1352SOL    HW1 4955   6.641   0.395   3.379
 1352SOL    HW2 4956   6.733   0.384   3.513
 1353SOL     OW 4957   0.079   4.034   5.076
 1353SOL    HW1 4958   7.010   4.024   5.110
 1353SOL    HW2 4959   0.143   4.019   5.150
 1354SOL     OW 4960   0.151   0.655   1.105
 1354SOL    HW1 4961   0.210   0.659   1.186
 1354SOL    HW2 4962   0.057   0.636   1.132
 1355SOL     OW 4963   5.347   4.019   0.259
 1355SOL    HW1 4964   5.311   3.926   0.273
 1355SOL    HW2 4965   5.275   4.085   0.279
 1356SOL     OW 4966   3.319   4.027   2.598
 1356SOL    HW1 4967   3.308   4.069   2.689
 1356SOL    HW2 4968   3.416   4.022   2.576
 1357SOL     OW 4969   2.744   2.867   6.662
 1357SOL    HW1 4970   2.816   2.805   6.631
 1357SOL    HW2 4971   2.780   2.960   6.668
 1358SOL     OW 4972   2.358   2.809   6.482
 1358SOL    HW1 4973   2.410   2.841   6.561
 1358SOL    HW2 4974   2.342   2.711   6.491
 1359SOL     OW 4975   6.072   3.540   1.667
 1359SOL    HW1 4976   6.019   3.492   1.597
 1359SOL    HW2 4977   6.140   3.598   1.624
 1360SOL     OW 4978   3.846   3.921   2.943
 1360SOL    HW1 4979   3.753   3.959   2.947
 1360SOL    HW2 4980   3.907   3.988   2.902
 1361SOL     OW 4981   0.791   6.692   6.348
 1361SOL    HW1 4982   0.865   6.697   6.281
 1361SOL    HW2 4983   0.827   6.656   6.434
 1362SOL     OW 4984   2.982   3.415   5.757
 1362SOL    HW1 4985   2.884   3.426   5.774
 1362SOL    HW2 4986   2.999   3.414   5.659
 1363SOL     OW 4987   6.732   5.869   3.153
 1363SOL    HW1 4988   6.680   5.953   3.142
 1363SOL    HW2 4989   6.760   5.859   3.248
 1364SOL     OW 4990   0.181   3.383   0.753
 1364SOL    HW1 4991   0.188   3.287   0.780
 1364SOL    HW2 4992   0.154   3.389   0.657
 1365SOL     OW 4993   1.156   3.173   5.960
 1365SOL    HW1 4994   1.220   3.163   6.035
 1365SOL    HW2 4995   1.205   3.207   5.879
 1366SOL     OW 4996   6.788   2.903   0.912
 1366SOL    HW1 4997   6.701   2.952   0.908
 1366SOL    HW2 4998   6.850   2.950   0.975
 1367SOL     OW 4999   1.228   4.193   3.456
 1367SOL    HW1 5000   1.278   4.262   3.508
 1367SOL    HW2 5001   1.207   4.228   3.365
 1368SOL     OW 5002   6.820   6.587   4.119
 1368SOL    HW1 5003   6.868   6.672   4.094
 1368SOL    HW2 5004   6.883   6.510   4.108
 1369SOL     OW 5005   1.481   5.862   1.980
 1369SOL    HW1 5006   1.574   5.836   2.004
 1369SOL    HW2 5007   1.457   5.821   1.892
 1370SOL     OW 5008   0.097   2.429   4.054
 1370SOL    HW1 5009   0.053   2.469   3.974
 1370SOL    HW2 5010   0.153   2.351   4.026
 1371SOL     OW 5011   6.119   1.450   4.630
 1371SOL    HW1 5012   6.126   1.413   4.722
 1371SOL    HW2 5013   6.185   1.405   4.571
 1372SOL     OW 5014   6.633   3.018   0.526
 1372SOL    HW1 5015   6.711   2.958   0.541
 1372SOL    HW2 5016   6.559   2.993   0.588
 1373SOL     OW 5017   4.553   2.427   1.310
 1373SOL    HW1 5018   4.624   2.440   1.379
 1373SOL    HW2 5019   4.493   2.352   1.339
 1374SOL     OW 5020   5.356   3.647   0.935
 1374SOL    HW1 5021   5.379   3.743   0.918
 1374SOL    HW2 5022   5.381   3.623   1.028
 1375SOL     OW 5023   6.883   6.166   5.566
 1375SOL    HW1 5024   6.824   6.144   5.644
 1375SOL    HW2 5025   6.934   6.084   5.539
 1376SOL     OW 5026   2.889   4.876   6.552
 1376SOL    HW1 5027   2.798   4.876   6.511
 1376SOL    HW2 5028   2.887   4.827   6.639
 1377SOL     OW 5029   0.960   2.641   3.731
 1377SOL    HW1 5030   1.008   2.641   3.643
 1377SOL    HW2 5031   0.993   2.717   3.787
 1378SOL     OW 5032   4.151   2.203   4.684
 1378SOL    HW1 5033   4.229   2.252   4.724
 1378SOL    HW2 5034   4.083   2.185   4.755
 1379SOL     OW 5035   4.891   5.119   2.036
 1379SOL    HW1 5036   4.913   5.196   2.097
 1379SOL    HW2 5037   4.860   5.155   1.948
 1380SOL     OW 5038   6.171   6.353   1.461
 1380SOL    HW1 5039   6.217   6.437   1.491
 1380SOL    HW2 5040   6.121   6.314   1.537
 1381SOL     OW 5041   5.925   2.360   5.806
 1381SOL    HW1 5042   5.910   2.454   5.775
 1381SOL    HW2 5043   5.878   2.296   5.744
 1382SOL     OW 5044   4.492   2.779   1.473
 1382SOL    HW1 5045   4.508   2.769   1.571
 1382SOL    HW2 5046   4.573   2.749   1.423
 1383SOL     OW 5047   1.490   6.522   1.865
 1383SOL    HW1 5048   1.460   6.618   1.857
 1383SOL    HW2 5049   1.517   6.489   1.775
 1384SOL     OW 5050   4.806   0.656   0.270
 1384SOL    HW1 5051   4.784   0.623   0.179
 1384SOL    HW2 5052   4.734   0.716   0.304
 1385SOL     OW 5053   2.002   4.399   3.158
 1385SOL    HW1 5054   1.972   4.351   3.241
 1385SOL    HW2 5055   1.983   4.343   3.078
 1386SOL     OW 5056   3.161   6.263   3.729
 1386SOL    HW1 5057   3.086   6.269   3.795
 1386SOL    HW2 5058   3.126   6.279   3.637
 1387SOL     OW 5059   3.892   5.497   1.432
 1387SOL    HW1 5060   3.849   5.583   1.457
 1387SOL    HW2 5061   3.886   5.482   1.334
 1388SOL     OW 5062   5.758   0.155   1.715
 1388SOL    HW1 5063   5.749   0.253   1.699
 1388SOL    HW2 5064   5.748   0.106   1.628
 1389SOL     OW 5065   6.095   0.773   3.176
 1389SOL    HW1 5066   6.075   0.702   3.244
 1389SOL    HW2 5067   6.103   0.862   3.222
 1390SOL     OW 5068   1.179   3.381   6.503
 1390SOL    HW1 5069   1.184   3.363   6.405
 1390SOL    HW2 5070   1.257   3.437   6.531
 1391SOL     OW 5071   6.690   0.942   3.880
 1391SOL    HW1 5072   6.779   0.897   3.890
 1391SOL    HW2 5073   6.657   0.931   3.787
 1392SOL     OW 5074   5.475   5.401   5.844
 1392SOL    HW1 5075   5.510   5.393   5.938
 1392SOL    HW2 5076   5.379   5.373   5.842
 1393SOL     OW 5077   6.425   5.540   5.340
 1393SOL    HW1 5078   6.494   5.503   5.277
 1393SOL    HW2 5079   6.449   5.515   5.433
 1394SOL     OW 5080   3.050   5.749   5.272
 1394SOL    HW1 5081   3.043   5.702   5.360
 1394SOL    HW2 5082   2.977   5.718   5.211
 1395SOL     OW 5083   2.676   4.841   6.115
 1395SOL    HW1 5084   2.581   4.859   6.139
 1395SOL    HW2 5085   2.680   4.788   6.031
 1396SOL     OW 5086   1.521   0.886   3.862
 1396SOL    HW1 5087   1.521   0.786   3.869
 1396SOL    HW2 5088   1.606   0.917   3.820
 1397SOL     OW 5089   0.220   0.582   4.347
 1397SOL    HW1 5090   0.165   0.665   4.349
 1397SOL    HW2 5091   0.288   0.584   4.421
 1398SOL     OW 5092   1.744   0.911   5.822
 1398SOL    HW1 5093   1.697   0.900   5.910
 1398SOL    HW2 5094   1.715   0.997   5.780
 1399SOL     OW 5095   3.706   6.606   1.104
 1399SOL    HW1 5096   3.748   6.635   1.190
 1399SOL    HW2 5097   3.607   6.620   1.108
 1400SOL     OW 5098   0.215   2.065   2.749
 1400SOL    HW1 5099   0.176   1.980   2.784
 1400SOL    HW2 5100   0.248   2.051   2.656
 1401SOL     OW 5101   0.099   1.464   5.310
 1401SOL    HW1 5102   0.053   1.449   5.398
 1401SOL    HW2 5103   0.087   1.559   5.282
 1402SOL     OW 5104   0.110   4.022   6.934
 1402SOL    HW1 5105   0.170   4.080   6.989
 1402SOL    HW2 5106   0.068   4.076   6.862
 1403SOL     OW 5107   2.820   1.835   1.639
 1403SOL    HW1 5108   2.765   1.908   1.681
 1403SOL    HW2 5109   2.917   1.862   1.641
 1404SOL     OW 5110   5.460   0.262   0.586
 1404SOL    HW1 5111   5.436   0.334   0.521
 1404SOL    HW2 5112   5.551   0.280   0.624
 1405SOL     OW 5113   2.208   4.087   1.177
 1405SOL    HW1 5114   2.112   4.105   1.156
 1405SOL    HW2 5115   2.249   4.031   1.105
 1406SOL     OW 5116   1.481   5.258   1.809
 1406SOL    HW1 5117   1.480   5.243   1.908
 1406SOL    HW2 5118   1.503   5.172   1.763
 1407SOL     OW 5119   0.668   1.932   1.773
 1407SOL    HW1 5120   0.670   1.852   1.833
 1407SOL    HW2 5121   0.721   2.006   1.815
 1408SOL     OW 5122   5.176   0.841   6.056
 1408SOL    HW1 5123   5.194   0.805   5.964
 1408SOL    HW2 5124   5.117   0.921   6.049
 1409SOL     OW 5125   0.507   0.002   5.747
 1409SOL    HW1 5126   0.444   7.006   5.672
 1409SOL    HW2 5127   0.492   6.962   5.822
 1410SOL     OW 5128   2.245   3.490   6.561
 1410SOL    HW1 5129   2.250   3.585   6.528
 1410SOL    HW2 5130   2.336   3.461   6.591
 1411SOL     OW 5131   2.967   6.096   3.251
 1411SOL    HW1 5132   2.877   6.077   3.211
 1411SOL    HW2 5133   3.018   6.011   3.261
 1412SOL     OW 5134   0.266   2.315   0.008
 1412SOL    HW1 5135   0.336   2.368   0.055
 1412SOL    HW2 5136   0.240   2.362   6.948
 1413SOL     OW 5137   1.691   1.001   5.101
 1413SOL    HW1 5138   1.777   1.047   5.077
 1413SOL    HW2 5139   1.640   0.981   5.017
 1414SOL     OW 5140   2.217   1.061   1.775
 1414SOL    HW1 5141   2.154   1.043   1.700
 1414SOL    HW2 5142   2.236   0.977   1.825
 1415SOL     OW 5143   2.693   0.488   4.239
 1415SOL    HW1 5144   2.778   0.510   4.191
 1415SOL    HW2 5145   2.622   0.554   4.213
 1416SOL     OW 5146   4.540   4.455   4.075
 1416SOL    HW1 5147   4.549   4.369   4.025
 1416SOL    HW2 5148   4.623   4.509   4.064
 1417SOL     OW 5149   1.984   2.179   0.470
 1417SOL    HW1 5150   2.018   2.090   0.501
 1417SOL    HW2 5151   2.041   2.252   0.508
 1418SOL     OW 5152   2.915   3.470   3.608
 1418SOL    HW1 5153   2.824   3.469   3.648
 1418SOL    HW2 5154   2.982   3.439   3.676
 1419SOL     OW 5155   3.254   6.485   4.897
 1419SOL    HW1 5156   3.250   6.388   4.924
 1419SOL    HW2 5157   3.280   6.540   4.977
 1420SOL     OW 5158   1.862   6.133   1.845
 1420SOL    HW1 5159   1.763   6.124   1.854
 1420SOL    HW2 5160   1.894   6.078   1.767
 1421SOL     OW 5161   2.186   3.169   3.102
 1421SOL    HW1 5162   2.090   3.151   3.120
 1421SOL    HW2 5163   2.207   3.146   3.007
 1422SOL     OW 5164   2.162   4.373   1.784
 1422SOL    HW1 5165   2.239   4.309   1.780
 1422SOL    HW2 5166   2.076   4.322   1.784
 1423SOL     OW 5167   4.999   6.234   2.199
 1423SOL    HW1 5168   4.922   6.209   2.141
 1423SOL    HW2 5169   5.011   6.165   2.271
 1424SOL     OW 5170   6.402   4.202   4.577
 1424SOL    HW1 5171   6.470   4.274   4.593
 1424SOL    HW2 5172   6.408   4.172   4.482
 1425SOL     OW 5173   1.657   6.224   4.401
 1425SOL    HW1 5174   1.576   6.269   4.365
 1425SOL    HW2 5175   1.731   6.228   4.334
 1426SOL     OW 5176   1.285   2.588   5.592
 1426SOL    HW1 5177   1.314   2.657   5.526
 1426SOL    HW2 5178   1.321   2.611   5.682
 1427SOL     OW 5179   0.186   6.854   3.163
 1427SOL    HW1 5180   0.131   6.908   3.099
 1427SOL    HW2 5181   0.191   6.759   3.130
 1428SOL     OW 5182   5.801   2.604   0.815
 1428SOL    HW1 5183   5.826   2.553   0.733
 1428SOL    HW2 5184   5.721   2.662   0.795
 1429SOL     OW 5185   6.006   2.049   0.018
 1429SOL    HW1 5186   6.055   2.122   6.996
 1429SOL    HW2 5187   6.014   1.964   6.991
 1430SOL     OW 5188   2.016   4.559   3.955
 1430SOL    HW1 5189   1.939   4.618   3.930
 1430SOL    HW2 5190   2.015   4.544   4.053
 1431SOL     OW 5191   2.201   1.802   0.790
 1431SOL    HW1 5192   2.269   1.734   0.762
 1431SOL    HW2 5193   2.117   1.754   0.818
 1432SOL     OW 5194   2.944   1.426   2.917
 1432SOL    HW1 5195   2.934   1.514   2.870
 1432SOL    HW2 5196   2.855   1.381   2.924
 1433SOL     OW 5197   4.714   1.501   3.796
 1433SOL    HW1 5198   4.673   1.410   3.789
 1433SOL    HW2 5199   4.788   1.499   3.863
 1434SOL     OW 5200   6.766   1.004   5.682
 1434SOL    HW1 5201   6.841   1.060   5.716
 1434SOL    HW2 5202   6.802   0.923   5.634
 1435SOL     OW 5203   5.579   0.947   2.446
 1435SOL    HW1 5204   5.662   0.908   2.485
 1435SOL    HW2 5205   5.591   0.956   2.347
 1436SOL     OW 5206   5.252   4.028   0.614
 1436SOL    HW1 5207   5.160   4.055   0.588
 1436SOL    HW2 5208   5.308   4.110   0.630
 1437SOL     OW 5209   2.511   2.562   3.511
 1437SOL    HW1 5210   2.512   2.597   3.605
 1437SOL    HW2 5211   2.434   2.602   3.462
 1438SOL     OW 5212   3.179   6.475   1.578
 1438SOL    HW1 5213   3.112   6.417   1.624
 1438SOL    HW2 5214   3.181   6.565   1.624
 1439SOL     OW 5215   0.001   5.680   1.529
 1439SOL    HW1 5216   0.084   5.736   1.537
 1439SOL    HW2 5217   6.986   5.666   1.619
 1440SOL     OW 5218   2.901   3.761   1.400
 1440SOL    HW1 5219   2.902   3.803   1.490
 1440SOL    HW2 5220   2.877   3.830   1.331
 1441SOL     OW 5221   6.004   0.424   2.370
 1441SOL    HW1 5222   5.913   0.383   2.379
 1441SOL    HW2 5223   6.064   0.360   2.323
 1442SOL     OW 5224   6.302   5.690   0.243
 1442SOL    HW1 5225   6.340   5.732   0.326
 1442SOL    HW2 5226   6.375   5.679   0.176
 1443SOL     OW 5227   0.747   2.413   2.573
 1443SOL    HW1 5228   0.790   2.362   2.499
 1443SOL    HW2 5229   0.744   2.510   2.551
 1444SOL     OW 5230   5.046   0.210   0.842
 1444SOL    HW1 5231   5.140   0.192   0.813
 1444SOL    HW2 5232   5.039   0.304   0.876
 1445SOL     OW 5233   0.857   3.166   2.448
 1445SOL    HW1 5234   0.875   3.105   2.525
 1445SOL    HW2 5235   0.922   3.147   2.374
 1446SOL     OW 5236   6.756   1.050   6.919
 1446SOL    HW1 5237   6.780   1.147   6.922
 1446SOL    HW2 5238   6.668   1.039   6.872
 1447SOL     OW 5239   6.170   5.230   3.894
 1447SOL    HW1 5240   6.259   5.195   3.866
 1447SOL    HW2 5241   6.163   5.327   3.870
 1448SOL     OW 5242   6.710   2.649   4.630
 1448SOL    HW1 5243   6.738   2.591   4.706
 1448SOL    HW2 5244   6.777   2.640   4.556
 1449SOL     OW 5245   0.910   4.280   4.965
 1449SOL    HW1 5246   0.823   4.232   4.951
 1449SOL    HW2 5247   0.985   4.224   4.930
 1450SOL     OW 5248   1.234   2.423   6.336
 1450SOL    HW1 5249   1.214   2.376   6.422
 1450SOL    HW2 5250   1.304   2.372   6.286
 1451SOL     OW 5251   1.210   5.926   2.597
 1451SOL    HW1 5252   1.127   5.973   2.565
 1451SOL    HW2 5253   1.290   5.963   2.548
 1452SOL     OW 5254   4.381   2.632   5.337
 1452SOL    HW1 5255   4.321   2.604   5.262
 1452SOL    HW2 5256   4.328   2.640   5.421
 1453SOL     OW 5257   0.516   4.388   5.459
 1453SOL    HW1 5258   0.456   4.382   5.379
 1453SOL    HW2 5259   0.610   4.407   5.429
 1454SOL     OW 5260   2.006   2.053   2.881
 1454SOL    HW1 5261   2.029   2.001   2.963
 1454SOL    HW2 5262   1.946   1.999   2.823
 1455SOL     OW 5263   1.348   6.053   2.383
 1455SOL    HW1 5264   1.360   6.115   2.305
 1455SOL    HW2 5265   1.409   5.974   2.372
 1456SOL     OW 5266   6.444   6.263   5.909
 1456SOL    HW1 5267   6.431   6.244   5.811
 1456SOL    HW2 5268   6.399   6.191   5.963
 1457SOL     OW 5269   1.250   4.399   0.273
 1457SOL    HW1 5270   1.201   4.405   0.360
 1457SOL    HW2 5271   1.310   4.477   0.263
 1458SOL     OW 5272   5.383   5.181   5.430
 1458SOL    HW1 5273   5.294   5.167   5.473
 1458SOL    HW2 5274   5.437   5.097   5.439
 1459SOL     OW 5275   4.308   6.831   6.075
 1459SOL    HW1 5276   4.324   6.824   6.173
 1459SOL    HW2 5277   4.275   6.743   6.040
 1460SOL     OW 5278   1.677   0.037   4.921
 1460SOL    HW1 5279   1.742   0.048   4.845
 1460SOL    HW2 5280   1.618   0.118   4.926
 1461SOL     OW 5281   0.248   4.048   3.104
 1461SOL    HW1 5282   0.343   4.080   3.105
 1461SOL    HW2 5283   0.222   4.021   3.197
 1462SOL     OW 5284   1.051   0.465   6.900
 1462SOL    HW1 5285   1.021   0.433   6.810
 1462SOL    HW2 5286   0.999   0.418   6.971
 1463SOL     OW 5287   0.796   4.572   5.650
 1463SOL    HW1 5288   0.845   4.571   5.737
 1463SOL    HW2 5289   0.703   4.539   5.664
 1464SOL     OW 5290   6.541   4.701   3.048
 1464SOL    HW1 5291   6.525   4.774   2.982
 1464SOL    HW2 5292   6.501   4.724   3.136
 1465SOL     OW 5293   2.099   2.113   4.180
 1465SOL    HW1 5294   2.042   2.039   4.145
 1465SOL    HW2 5295   2.040   2.189   4.208
 1466SOL     OW 5296   4.098   1.924   2.145
 1466SOL    HW1 5297   4.194   1.899   2.133
 1466SOL    HW2 5298   4.082   2.015   2.107
 1467SOL     OW 5299   2.141   1.271   4.249
 1467SOL    HW1 5300   2.161   1.366   4.228
 1467SOL    HW2 5301   2.209   1.212   4.205
 1468SOL     OW 5302   1.882   5.235   1.811
 1468SOL    HW1 5303   1.978   5.236   1.837
 1468SOL    HW2 5304   1.835   5.312   1.854
 1469SOL     OW 5305   6.876   6.197   2.756
 1469SOL    HW1 5306   6.814   6.246   2.817
 1469SOL    HW2 5307   6.955   6.255   2.735
 1470SOL     OW 5308   0.068   2.346   1.611
 1470SOL    HW1 5309   7.000   2.310   1.597
 1470SOL    HW2 5310   0.079   2.372   1.707
 1471SOL     OW 5311   0.948   0.312   0.144
 1471SOL    HW1 5312   0.925   0.274   0.233
 1471SOL    HW2 5313   0.912   0.252   0.072
 1472SOL     OW 5314   3.313   5.806   0.424
 1472SOL    HW1 5315   3.240   5.738   0.413
 1472SOL    HW2 5316   3.281   5.879   0.485
 1473SOL     OW 5317   2.904   5.485   4.684
 1473SOL    HW1 5318   2.957   5.565   4.712
 1473SOL    HW2 5319   2.959   5.403   4.698
 1474SOL     OW 5320   3.823   4.125   1.384
 1474SOL    HW1 5321   3.818   4.028   1.405
 1474SOL    HW2 5322   3.795   4.178   1.464
 1475SOL     OW 5323   4.839   1.461   6.856
 1475SOL    HW1 5324   4.910   1.511   6.806
 1475SOL    HW2 5325   4.860   1.364   6.854
 1476SOL     OW 5326   2.531   1.268   1.525
 1476SOL    HW1 5327   2.555   1.351   1.576
 1476SOL    HW2 5328   2.436   1.243   1.545
 1477SOL     OW 5329   4.134   0.102   0.200
 1477SOL    HW1 5330   4.101   0.053   0.119
 1477SOL    HW2 5331   4.157   0.196   0.174
 1478SOL     OW 5332   5.550   6.483   5.367
 1478SOL    HW1 5333   5.645   6.464   5.394
 1478SOL    HW2 5334   5.521   6.570   5.407
 1479SOL     OW 5335   3.430   3.435   1.741
 1479SOL    HW1 5336   3.406   3.526   1.775
 1479SOL    HW2 5337   3.432   3.371   1.818
 1480SOL     OW 5338   2.430   6.940   6.529
 1480SOL    HW1 5339   2.436   6.855   6.477
 1480SOL    HW2 5340   2.519   6.959   6.572
 1481SOL     OW 5341   6.081   2.919   5.823
 1481SOL    HW1 5342   6.038   2.982   5.888
 1481SOL    HW2 5343   6.017   2.901   5.748
 1482SOL     OW 5344   4.273   0.527   0.326
 1482SOL    HW1 5345   4.203   0.480   0.273
 1482SOL    HW2 5346   4.293   0.475   0.409
 1483SOL     OW 5347   5.675   2.777   5.468
 1483SOL    HW1 5348   5.650   2.688   5.505
 1483SOL    HW2 5349   5.676   2.774   5.369
 1484SOL     OW 5350   4.867   5.520   3.627
 1484SOL    HW1 5351   4.890   5.600   3.571
 1484SOL    HW2 5352   4.770   5.522   3.651
 1485SOL     OW 5353   5.043   0.701   3.711
 1485SOL    HW1 5354   4.994   0.631   3.762
 1485SOL    HW2 5355   5.083   0.660   3.629
 1486SOL     OW 5356   5.244   6.958   3.561
 1486SOL    HW1 5357   5.262   6.860   3.570
 1486SOL    HW2 5358   5.162   6.982   3.614
 1487SOL     OW 5359   0.262   0.827   6.657
 1487SOL    HW1 5360   0.210   0.911   6.640
 1487SOL    HW2 5361   0.358   0.842   6.634
 1488SOL     OW 5362   5.676   0.451   2.952
 1488SOL    HW1 5363   5.604   0.382   2.961
 1488SOL    HW2 5364   5.647   0.521   2.888
 1489SOL     OW 5365   4.243   4.327   5.882
 1489SOL    HW1 5366   4.282   4.301   5.971
 1489SOL    HW2 5367   4.197   4.248   5.841
 1490SOL     OW 5368   0.318   3.125   1.053
 1490SOL    HW1 5369   0.418   3.135   1.050
 1490SOL    HW2 5370   0.292   3.074   1.134
 1491SOL     OW 5371   6.669   3.880   2.811
 1491SOL    HW1 5372   6.759   3.906   2.779
 1491SOL    HW2 5373   6.636   3.801   2.758
 1492SOL     OW 5374   6.562   0.244   1.999
 1492SOL    HW1 5375   6.604   0.299   1.926
 1492SOL    HW2 5376   6.596   0.151   1.994
 1493SOL     OW 5377   3.668   0.846   6.643
 1493SOL    HW1 5378   3.687   0.930   6.592
 1493SOL    HW2 5379   3.702   0.768   6.591
 1494SOL     OW 5380   5.613   2.897   6.786
 1494SOL    HW1 5381   5.672   2.831   6.741
 1494SOL    HW2 5382   5.659   2.934   6.867
 1495SOL     OW 5383   6.687   4.210   3.918
 1495SOL    HW1 5384   6.656   4.298   3.953
 1495SOL    HW2 5385   6.770   4.182   3.966
 1496SOL     OW 5386   0.176   0.245   0.201
 1496SOL    HW1 5387   0.154   0.181   0.275
 1496SOL    HW2 5388   0.174   0.197   0.113
 1497SOL     OW 5389   4.890   3.168   2.416
 1497SOL    HW1 5390   4.885   3.094   2.484
 1497SOL    HW2 5391   4.944   3.243   2.453
 1498SOL     OW 5392   2.861   4.516   0.922
 1498SOL    HW1 5393   2.870   4.418   0.907
 1498SOL    HW2 5394   2.910   4.542   1.005
 1499SOL     OW 5395   0.837   3.888   6.231
 1499SOL    HW1 5396   0.920   3.833   6.233
 1499SOL    HW2 5397   0.845   3.958   6.159
 1500SOL     OW 5398   1.087   5.882   6.283
 1500SOL    HW1 5399   1.137   5.798   6.302
 1500SOL    HW2 5400   1.115   5.919   6.195
 1501SOL     OW 5401   6.010   1.831   6.441
 1501SOL    HW1 5402   6.078   1.864   6.376
 1501SOL    HW2 5403   6.042   1.846   6.534
 1502SOL     OW 5404   5.600   1.698   6.198
 1502SOL    HW1 5405   5.517   1.675   6.249
 1502SOL    HW2 5406   5.680   1.665   6.248
 1503SOL     OW 5407   0.697   3.095   3.000
 1503SOL    HW1 5408   0.685   3.042   2.916
 1503SOL    HW2 5409   0.694   3.193   2.979
 1504SOL     OW 5410   0.867   0.171   3.575
 1504SOL    HW1 5411   0.917   0.212   3.652
 1504SOL    HW2 5412   0.799   0.236   3.541
 1505SOL     OW 5413   5.068   6.990   5.567
 1505SOL    HW1 5414   4.972   6.977   5.543
 1505SOL    HW2 5415   5.120   6.910   5.537
 1506SOL     OW 5416   1.287   0.569   0.314
 1506SOL    HW1 5417   1.294   0.539   0.409
 1506SOL    HW2 5418   1.191   0.569   0.287
 1507SOL     OW 5419   6.969   1.625   4.342
 1507SOL    HW1 5420   6.878   1.620   4.302
 1507SOL    HW2 5421   6.977   1.708   4.396
 1508SOL     OW 5422   0.266   1.801   1.117
 1508SOL    HW1 5423   0.178   1.755   1.104
 1508SOL    HW2 5424   0.262   1.857   1.200
 1509SOL     OW 5425   4.613   1.425   4.386
 1509SOL    HW1 5426   4.614   1.485   4.306
 1509SOL    HW2 5427   4.688   1.450   4.448
 1510SOL     OW 5428   4.798   0.038   4.649
 1510SOL    HW1 5429   4.808   0.117   4.709
 1510SOL    HW2 5430   4.888   0.006   4.620
 1511SOL     OW 5431   3.605   3.769   4.115
 1511SOL    HW1 5432   3.604   3.788   4.213
 1511SOL    HW2 5433   3.698   3.779   4.080
 1512SOL     OW 5434   5.881   5.486   1.385
 1512SOL    HW1 5435   5.800   5.431   1.367
 1512SOL    HW2 5436   5.855   5.569   1.434
 1513SOL     OW 5437   3.264   0.246   4.522
 1513SOL    HW1 5438   3.312   0.206   4.443
 1513SOL    HW2 5439   3.183   0.192   4.543
 1514SOL     OW 5440   3.677   2.298   5.843
 1514SOL    HW1 5441   3.673   2.396   5.859
 1514SOL    HW2 5442   3.596   2.268   5.792
 1515SOL     OW 5443   6.654   1.410   2.199
 1515SOL    HW1 5444   6.614   1.330   2.154
 1515SOL    HW2 5445   6.591   1.442   2.270
 1516SOL     OW 5446   5.963   5.217   5.201
 1516SOL    HW1 5447   6.055   5.227   5.162
 1516SOL    HW2 5448   5.954   5.125   5.241
 1517SOL     OW 5449   4.364   6.846   2.835
 1517SOL    HW1 5450   4.311   6.790   2.899
 1517SOL    HW2 5451   4.318   6.934   2.823
 1518SOL     OW 5452   6.339   3.499   0.331
 1518SOL    HW1 5453   6.270   3.496   0.403
 1518SOL    HW2 5454   6.414   3.436   0.353
 1519SOL     OW 5455   6.387   4.143   1.049
 1519SOL    HW1 5456   6.314   4.081   1.074
 1519SOL    HW2 5457   6.449   4.156   1.127
 1520SOL     OW 5458   0.853   4.924   1.502
 1520SOL    HW1 5459   0.763   4.883   1.483
 1520SOL    HW2 5460   0.845   4.986   1.580
 1521SOL     OW 5461   1.979   4.569   0.191
 1521SOL    HW1 5462   1.934   4.486   0.222
 1521SOL    HW2 5463   1.963   4.643   0.257
 1522SOL     OW 5464   5.728   5.275   4.102
 1522SOL    HW1 5465   5.764   5.199   4.049
 1522SOL    HW2 5466   5.635   5.254   4.133
 1523SOL     OW 5467   3.627   6.550   6.704
 1523SOL    HW1 5468   3.622   6.535   6.803
 1523SOL    HW2 5469   3.553   6.499   6.659
 1524SOL     OW 5470   2.805   2.001   2.318
 1524SOL    HW1 5471   2.848   1.945   2.247
 1524SOL    HW2 5472   2.804   1.951   2.405
 1525SOL     OW 5473   5.781   2.907   1.082
 1525SOL    HW1 5474   5.793   3.006   1.085
 1525SOL    HW2 5475   5.700   2.881   1.134
 1526SOL     OW 5476   0.379   0.711   6.360
 1526SOL    HW1 5477   0.372   0.775   6.284
 1526SOL    HW2 5478   0.428   0.754   6.436
 1527SOL     OW 5479   3.766   0.789   4.556
 1527SOL    HW1 5480   3.690   0.817   4.615
 1527SOL    HW2 5481   3.812   0.871   4.522
 1528SOL     OW 5482   3.911   5.113   1.522
 1528SOL    HW1 5483   3.867   5.194   1.483
 1528SOL    HW2 5484   3.979   5.078   1.459
 1529SOL     OW 5485   4.915   1.186   6.854
 1529SOL    HW1 5486   4.830   1.134   6.870
 1529SOL    HW2 5487   4.953   1.161   6.765
 1530SOL     OW 5488   2.954   0.992   1.430
 1530SOL    HW1 5489   2.998   1.034   1.350
 1530SOL    HW2 5490   3.024   0.958   1.492
 1531SOL     OW 5491   4.983   0.641   4.683
 1531SOL    HW1 5492   5.005   0.544   4.666
 1531SOL    HW2 5493   4.966   0.654   4.780
 1532SOL     OW 5494   3.445   4.506   5.699
 1532SOL    HW1 5495   3.438   4.595   5.654
 1532SOL    HW2 5496   3.370   4.447   5.669
 1533SOL     OW 5497   5.422   5.864   0.101
 1533SOL    HW1 5498   5.413   5.794   0.171
 1533SOL    HW2 5499   5.470   5.827   0.022
 1534SOL     OW 5500   3.647   5.255   6.804
 1534SOL    HW1 5501   3.686   5.297   6.887
 1534SOL    HW2 5502   3.674   5.309   6.724
 1535SOL     OW 5503   5.571   6.122   4.790
 1535SOL    HW1 5504   5.491   6.131   4.730
 1535SOL    HW2 5505   5.607   6.213   4.811
 1536SOL     OW 5506   3.908   4.903   6.746
 1536SOL    HW1 5507   3.866   4.960   6.676
 1536SOL    HW2 5508   3.988   4.857   6.708
 1537SOL     OW 5509   4.459   5.304   3.475
 1537SOL    HW1 5510   4.543   5.251   3.469
 1537SOL    HW2 5511   4.455   5.350   3.563
 1538SOL     OW 5512   2.879   0.801   6.920
 1538SOL    HW1 5513   2.826   0.860   6.859
 1538SOL    HW2 5514   2.967   0.844   6.941
 1539SOL     OW 5515   4.916   3.008   2.172
 1539SOL    HW1 5516   4.844   3.031   2.107
 1539SOL    HW2 5517   4.901   3.059   2.257
 1540SOL     OW 5518   0.422   6.430   5.434
 1540SOL    HW1 5519   0.325   6.453   5.424
 1540SOL    HW2 5520   0.463   6.489   5.504
 1541SOL     OW 5521   2.943   3.446   4.262
 1541SOL    HW1 5522   2.903   3.441   4.170
 1541SOL    HW2 5523   3.041   3.428   4.257
 1542SOL     OW 5524   6.280   6.895   1.781
 1542SOL    HW1 5525   6.241   6.939   1.862
 1542SOL    HW2 5526   6.290   6.962   1.707
 1543SOL     OW 5527   3.635   5.365   5.737
 1543SOL    HW1 5528   3.658   5.427   5.812
 1543SOL    HW2 5529   3.675   5.399   5.652
 1544SOL     OW 5530   3.173   3.720   3.308
 1544SOL    HW1 5531   3.087   3.671   3.320
 1544SOL    HW2 5532   3.250   3.657   3.324
 1545SOL     OW 5533   5.697   0.780   2.838
 1545SOL    HW1 5534   5.772   0.717   2.853
 1545SOL    HW2 5535   5.723   0.872   2.869
 1546SOL     OW 5536   5.483   6.204   6.102
 1546SOL    HW1 5537   5.506   6.194   6.199
 1546SOL    HW2 5538   5.503   6.119   6.054
 1547SOL     OW 5539   1.531   3.645   1.268
 1547SOL    HW1 5540   1.581   3.571   1.224
 1547SOL    HW2 5541   1.577   3.671   1.353
 1548SOL     OW 5542   5.015   3.637   0.341
 1548SOL    HW1 5543   4.996   3.650   0.439
 1548SOL    HW2 5544   5.054   3.545   0.327
 1549SOL     OW 5545   4.386   1.228   3.219
 1549SOL    HW1 5546   4.469   1.263   3.261
 1549SOL    HW2 5547   4.314   1.297   3.226
 1550SOL     OW 5548   3.460   3.427   1.300
 1550SOL    HW1 5549   3.371   3.390   1.275
 1550SOL    HW2 5550   3.451   3.480   1.385
 1551SOL     OW 5551   1.320   5.018   6.556
 1551SOL    HW1 5552   1.250   4.959   6.597
 1551SOL    HW2 5553   1.297   5.114   6.576
 1552SOL     OW 5554   1.550   5.616   0.702
 1552SOL    HW1 5555   1.524   5.706   0.734
 1552SOL    HW2 5556   1.586   5.623   0.609
 1553SOL     OW 5557   6.741   1.608   6.183
 1553SOL    HW1 5558   6.648   1.618   6.218
 1553SOL    HW2 5559   6.806   1.609   6.259
 1554SOL     OW 5560   3.000   1.699   3.364
 1554SOL    HW1 5561   2.954   1.663   3.283
 1554SOL    HW2 5562   3.033   1.792   3.344
 1555SOL     OW 5563   5.958   3.339   6.782
 1555SOL    HW1 5564   5.924   3.385   6.700
 1555SOL    HW2 5565   5.888   3.341   6.853
 1556SOL     OW 5566   1.835   1.526   6.360
 1556SOL    HW1 5567   1.802   1.550   6.269
 1556SOL    HW2 5568   1.920   1.473   6.352
 1557SOL     OW 5569   2.091   4.286   6.016
 1557SOL    HW1 5570   2.005   4.321   6.055
 1557SOL    HW2 5571   2.146   4.246   6.089
 1558SOL     OW 5572   6.418   0.775   4.168
 1558SOL    HW1 5573   6.475   0.747   4.245
 1558SOL    HW2 5574   6.426   0.874   4.155
 1559SOL     OW 5575   1.777   3.345   6.277
 1559SOL    HW1 5576   1.817   3.303   6.358
 1559SOL    HW2 5577   1.765   3.443   6.291
 1560SOL     OW 5578   0.189   0.520   6.300
 1560SOL    HW1 5579   0.182   0.508   6.201
 1560SOL    HW2 5580   0.257   0.590   6.320
 1561SOL     OW 5581   4.731   6.681   3.723
 1561SOL    HW1 5582   4.701   6.630   3.803
 1561SOL    HW2 5583   4.688   6.771   3.722
 1562SOL     OW 5584   4.807   5.945   2.667
 1562SOL    HW1 5585   4.902   5.956   2.693
 1562SOL    HW2 5586   4.748   5.969   2.744
 1563SOL     OW 5587   2.506   0.543   5.534
 1563SOL    HW1 5588   2.564   0.624   5.527
 1563SOL    HW2 5589   2.417   0.569   5.572
 1564SOL     OW 5590   1.134   0.536   3.358
 1564SOL    HW1 5591   1.093   0.446   3.376
 1564SOL    HW2 5592   1.121   0.594   3.438
 1565SOL     OW 5593   4.526   4.401   2.726
 1565SOL    HW1 5594   4.482   4.415   2.637
 1565SOL    HW2 5595   4.463   4.427   2.799
 1566SOL     OW 5596   5.582   3.798   3.153
 1566SOL    HW1 5597   5.606   3.874   3.093
 1566SOL    HW2 5598   5.509   3.745   3.110
 1567SOL     OW 5599   5.991   6.185   0.122
 1567SOL    HW1 5600   6.044   6.263   0.158
 1567SOL    HW2 5601   5.906   6.177   0.173
 1568SOL     OW 5602   1.140   0.066   0.369
 1568SOL    HW1 5603   1.210   0.032   0.433
 1568SOL    HW2 5604   1.092   0.143   0.411
 1569SOL     OW 5605   4.531   6.359   3.193
 1569SOL    HW1 5606   4.516   6.267   3.156
 1569SOL    HW2 5607   4.544   6.353   3.292
 1570SOL     OW 5608   2.490   0.585   0.776
 1570SOL    HW1 5609   2.590   0.582   0.777
 1570SOL    HW2 5610   2.458   0.591   0.682
 1571SOL     OW 5611   5.730   3.185   1.065
 1571SOL    HW1 5612   5.810   3.243   1.076
 1571SOL    HW2 5613   5.685   3.205   0.978
 1572SOL     OW 5614   0.639   0.382   2.404
 1572SOL    HW1 5615   0.643   0.368   2.503
 1572SOL    HW2 5616   0.670   0.299   2.358
 1573SOL     OW 5617   5.102   1.325   1.922
 1573SOL    HW1 5618   5.079   1.235   1.885
 1573SOL    HW2 5619   5.151   1.378   1.853
 1574SOL     OW 5620   0.507   1.841   1.527
 1574SOL    HW1 5621   0.564   1.906   1.577
 1574SOL    HW2 5622   0.544   1.827   1.436
 1575SOL     OW 5623   2.263   1.666   0.301
 1575SOL    HW1 5624   2.311   1.751   0.282
 1575SOL    HW2 5625   2.312   1.615   0.373
 1576SOL     OW 5626   6.162   6.492   4.168
 1576SOL    HW1 5627   6.218   6.551   4.110
 1576SOL    HW2 5628   6.106   6.432   4.110
 1577SOL     OW 5629   2.562   1.616   4.804
 1577SOL    HW1 5630   2.624   1.548   4.844
 1577SOL    HW2 5631   2.471   1.577   4.794
 1578SOL     OW 5632   6.328   3.403   5.630
 1578SOL    HW1 5633   6.285   3.482   5.674
 1578SOL    HW2 5634   6.333   3.327   5.695
 1579SOL     OW 5635   0.160   1.552   3.378
 1579SOL    HW1 5636   0.091   1.483   3.401
 1579SOL    HW2 5637   0.231   1.553   3.449
 1580SOL     OW 5638   2.764   3.910   5.271
 1580SOL    HW1 5639   2.798   3.965   5.347
 1580SOL    HW2 5640   2.665   3.903   5.276
 1581SOL     OW 5641   6.864   4.444   4.345
 1581SOL    HW1 5642   6.912   4.497   4.275
 1581SOL    HW2 5643   6.909   4.355   4.357
 1582SOL     OW 5644   1.255   5.571   4.804
 1582SOL    HW1 5645   1.253   5.668   4.779
 1582SOL    HW2 5646   1.221   5.517   4.728
 1583SOL     OW 5647   1.889   2.304   3.921
 1583SOL    HW1 5648   1.911   2.364   3.998
 1583SOL    HW2 5649   1.926   2.213   3.939
 1584SOL     OW 5650   2.098   6.794   4.831
 1584SOL    HW1 5651   2.028   6.765   4.896
 1584SOL    HW2 5652   2.151   6.714   4.803
 1585SOL     OW 5653   5.725   1.292   3.535
 1585SOL    HW1 5654   5.668   1.304   3.616
 1585SOL    HW2 5655   5.703   1.363   3.468
 1586SOL     OW 5656   3.982   3.929   2.200
 1586SOL    HW1 5657   3.940   3.945   2.289
 1586SOL    HW2 5658   4.081   3.941   2.207
 1587SOL     OW 5659   2.937   5.366   6.363
 1587SOL    HW1 5660   2.955   5.397   6.270
 1587SOL    HW2 5661   3.021   5.374   6.417
 1588SOL     OW 5662   4.991   1.470   3.473
 1588SOL    HW1 5663   5.049   1.536   3.520
 1588SOL    HW2 5664   5.012   1.378   3.505
 1589SOL     OW 5665   5.623   4.058   3.573
 1589SOL    HW1 5666   5.620   3.975   3.517
 1589SOL    HW2 5667   5.713   4.066   3.615
 1590SOL     OW 5668   1.684   6.613   7.019
 1590SOL    HW1 5669   1.764   6.557   7.000
 1590SOL    HW2 5670   1.666   6.615   0.092
 1591SOL     OW 5671   0.734   4.748   2.702
 1591SOL    HW1 5672   0.692   4.681   2.763
 1591SOL    HW2 5673   0.817   4.785   2.745
 1592SOL     OW 5674   2.612   3.933   1.386
 1592SOL    HW1 5675   2.692   3.993   1.391
 1592SOL    HW2 5676   2.567   3.931   1.475
 1593SOL     OW 5677   1.419   6.361   4.323
 1593SOL    HW1 5678   1.368   6.378   4.239
 1593SOL    HW2 5679   1.360   6.376   4.402
 1594SOL     OW 5680   0.415   5.136   3.455
 1594SOL    HW1 5681   0.456   5.122   3.545
 1594SOL    HW2 5682   0.335   5.077   3.445
 1595SOL     OW 5683   0.046   4.796   6.471
 1595SOL    HW1 5684   0.110   4.745   6.414
 1595SOL    HW2 5685   7.013   4.732   6.522
 1596SOL     OW 5686   1.590   4.261   5.191
 1596SOL    HW1 5687   1.689   4.256   5.208
 1596SOL    HW2 5688   1.573   4.319   5.111
 1597SOL     OW 5689   2.844   5.733   0.734
 1597SOL    HW1 5690   2.860   5.775   0.823
 1597SOL    HW2 5691   2.751   5.696   0.731
 1598SOL     OW 5692   0.437   3.883   0.430
 1598SOL    HW1 5693   0.513   3.941   0.400
 1598SOL    HW2 5694   0.371   3.875   0.355
 1599SOL     OW 5695   4.554   3.368   5.988
 1599SOL    HW1 5696   4.576   3.270   5.990
 1599SOL    HW2 5697   4.517   3.391   5.898
 1600SOL     OW 5698   5.158   1.711   4.473
 1600SOL    HW1 5699   5.112   1.753   4.394
 1600SOL    HW2 5700   5.160   1.776   4.549
 1601SOL     OW 5701   1.628   4.755   4.653
 1601SOL    HW1 5702   1.676   4.674   4.618
 1601SOL    HW2 5703   1.691   4.832   4.655
 1602SOL     OW 5704   1.628   5.535   3.774
 1602SOL    HW1 5705   1.583   5.603   3.716
 1602SOL    HW2 5706   1.725   5.557   3.781
 1603SOL     OW 5707   1.119   6.557   1.848
 1603SOL    HW1 5708   1.179   6.494   1.798
 1603SOL    HW2 5709   1.037   6.576   1.793
 1604SOL     OW 5710   5.925   5.415   6.895
 1604SOL    HW1 5711   5.955   5.324   6.922
 1604SOL    HW2 5712   5.989   5.483   6.931
 1605SOL     OW 5713   6.305   0.329   2.108
 1605SOL    HW1 5714   6.235   0.348   2.040
 1605SOL    HW2 5715   6.391   0.307   2.061
 1606SOL     OW 5716   4.231   0.620   5.266
 1606SOL    HW1 5717   4.310   0.673   5.297
 1606SOL    HW2 5718   4.194   0.662   5.183
 1607SOL     OW 5719   5.149   2.656   1.180
 1607SOL    HW1 5720   5.064   2.679   1.227
 1607SOL    HW2 5721   5.221   2.721   1.207
 1608SOL     OW 5722   1.498   0.451   6.365
 1608SOL    HW1 5723   1.451   0.520   6.309
 1608SOL    HW2 5724   1.568   0.406   6.311
 1609SOL     OW 5725   5.905   2.053   6.144
 1609SOL    HW1 5726   5.996   2.027   6.177
 1609SOL    HW2 5727   5.849   2.085   6.220
 1610SOL     OW 5728   5.566   3.984   5.029
 1610SOL    HW1 5729   5.551   3.976   4.931
 1610SOL    HW2 5730   5.568   3.892   5.070
 1611SOL     OW 5731   4.019   3.136   2.209
 1611SOL    HW1 5732   4.095   3.126   2.144
 1611SOL    HW2 5733   4.044   3.202   2.279
 1612SOL     OW 5734   2.714   1.457   5.353
 1612SOL    HW1 5735   2.777   1.507   5.412
 1612SOL    HW2 5736   2.722   1.359   5.371
 1613SOL     OW 5737   2.345   5.789   0.852
 1613SOL    HW1 5738   2.358   5.881   0.889
 1613SOL    HW2 5739   2.291   5.735   0.916
 1614SOL     OW 5740   6.899   3.644   0.551
 1614SOL    HW1 5741   6.889   3.744   0.548
 1614SOL    HW2 5742   6.872   3.606   0.463
 1615SOL     OW 5743   6.973   4.898   1.517
 1615SOL    HW1 5744   6.873   4.896   1.524
 1615SOL    HW2 5745   7.010   4.961   1.585
 1616SOL     OW 5746   4.309   2.011   6.332
 1616SOL    HW1 5747   4.303   2.038   6.429
 1616SOL    HW2 5748   4.403   1.989   6.309
 1617SOL     OW 5749   5.793   0.458   2.031
 1617SOL    HW1 5750   5.857   0.391   2.071
 1617SOL    HW2 5751   5.845   0.533   1.990
 1618SOL     OW 5752   0.085   3.888   1.572
 1618SOL    HW1 5753   0.100   3.984   1.595
 1618SOL    HW2 5754   0.127   3.868   1.484
 1619SOL     OW 5755   1.343   3.129   3.827
 1619SOL    HW1 5756   1.349   3.054   3.761
 1619SOL    HW2 5757   1.433   3.141   3.870
 1620SOL     OW 5758   2.063   5.681   0.689
 1620SOL    HW1 5759   2.161   5.699   0.684
 1620SOL    HW2 5760   2.029   5.652   0.600
 1621SOL     OW 5761   0.159   0.643   6.900
 1621SOL    HW1 5762   0.156   0.725   6.958
 1621SOL    HW2 5763   0.176   0.670   6.805
 1622SOL     OW 5764   1.639   2.091   5.046
 1622SOL    HW1 5765   1.567   2.030   5.079
 1622SOL    HW2 5766   1.700   2.114   5.122
 1623SOL     OW 5767   2.808   2.807   6.293
 1623SOL    HW1 5768   2.841   2.744   6.364
 1623SOL    HW2 5769   2.880   2.873   6.271
 1624SOL     OW 5770   2.180   0.858   6.560
 1624SOL    HW1 5771   2.206   0.913   6.639
 1624SOL    HW2 5772   2.098   0.805   6.583
 1625SOL     OW 5773   1.180   5.409   2.359
 1625SOL    HW1 5774   1.263   5.368   2.395
 1625SOL    HW2 5775   1.197   5.447   2.268
 1626SOL     OW 5776   2.379   1.947   6.800
 1626SOL    HW1 5777   2.438   1.915   6.874
 1626SOL    HW2 5778   2.412   1.911   6.713
 1627SOL     OW 5779   6.342   1.639   4.466
 1627SOL    HW1 5780   6.391   1.649   4.552
 1627SOL    HW2 5781   6.406   1.651   4.390
 1628SOL     OW 5782   3.668   5.125   0.267
 1628SOL    HW1 5783   3.615   5.051   0.225
 1628SOL    HW2 5784   3.745   5.148   0.208
 1629SOL     OW 5785   2.797   2.303   4.684
 1629SOL    HW1 5786   2.814   2.322   4.780
 1629SOL    HW2 5787   2.861   2.233   4.651
 1630SOL     OW 5788   0.516   5.777   5.440
 1630SOL    HW1 5789   0.551   5.706   5.500
 1630SOL    HW2 5790   0.456   5.838   5.492
 1631SOL     OW 5791   6.913   0.849   5.926
 1631SOL    HW1 5792   6.849   0.872   5.999
 1631SOL    HW2 5793   6.966   0.931   5.901
 1632SOL     OW 5794   6.906   1.352   6.899
 1632SOL    HW1 5795   6.965   1.418   6.852
 1632SOL    HW2 5796   6.814   1.356   6.860
 1633SOL     OW 5797   5.817   3.076   2.557
 1633SOL    HW1 5798   5.876   3.021   2.616
 1633SOL    HW2 5799   5.795   3.026   2.474
 1634SOL     OW 5800   4.212   5.991   5.978
 1634SOL    HW1 5801   4.236   5.918   5.914
 1634SOL    HW2 5802   4.130   6.039   5.947
 1635SOL     OW 5803   6.538   5.943   4.765
 1635SOL    HW1 5804   6.531   5.958   4.667
 1635SOL    HW2 5805   6.599   6.011   4.805
 1636SOL     OW 5806   2.456   4.932   1.507
 1636SOL    HW1 5807   2.530   4.889   1.558
 1636SOL    HW2 5808   2.393   4.975   1.572
 1637SOL     OW 5809   6.669   2.249   2.651
 1637SOL    HW1 5810   6.697   2.155   2.673
 1637SOL    HW2 5811   6.579   2.248   2.608
 1638SOL     OW 5812   6.952   3.536   3.951
 1638SOL    HW1 5813   6.951   3.438   3.935
 1638SOL    HW2 5814   6.873   3.578   3.907
 1639SOL     OW 5815   5.692   6.087   3.150
 1639SOL    HW1 5816   5.619   6.026   3.181
 1639SOL    HW2 5817   5.707   6.158   3.219
 1640SOL     OW 5818   5.884   2.379   0.322
 1640SOL    HW1 5819   5.795   2.345   0.291
 1640SOL    HW2 5820   5.952   2.306   0.313
 1641SOL     OW 5821   5.463   3.208   3.482
 1641SOL    HW1 5822   5.372   3.196   3.522
 1641SOL    HW2 5823   5.518   3.126   3.500
 1642SOL     OW 5824   6.979   3.579   0.033
 1642SOL    HW1 5825   0.017   3.638   7.008
 1642SOL    HW2 5826   6.885   3.611   0.018
 1643SOL     OW 5827   3.667   6.518   4.963
 1643SOL    HW1 5828   3.693   6.548   4.871
 1643SOL    HW2 5829   3.634   6.423   4.959
 1644SOL     OW 5830   2.599   2.663   1.424
 1644SOL    HW1 5831   2.550   2.578   1.443
 1644SOL    HW2 5832   2.554   2.738   1.472
 1645SOL     OW 5833   2.981   6.162   5.812
 1645SOL    HW1 5834   2.938   6.241   5.768
 1645SOL    HW2 5835   2.918   6.124   5.880
 1646SOL     OW 5836   2.839   4.900   1.251
 1646SOL    HW1 5837   2.875   4.824   1.305
 1646SOL    HW2 5838   2.798   4.864   1.167
 1647SOL     OW 5839   5.867   2.684   3.347
 1647SOL    HW1 5840   5.865   2.655   3.442
 1647SOL    HW2 5841   5.955   2.658   3.306
 1648SOL     OW 5842   5.157   6.422   2.068
 1648SOL    HW1 5843   5.117   6.352   2.128
 1648SOL    HW2 5844   5.257   6.417   2.073
 1649SOL     OW 5845   3.308   0.147   2.966
 1649SOL    HW1 5846   3.383   0.125   3.028
 1649SOL    HW2 5847   3.232   0.186   3.018
 1650SOL     OW 5848   3.005   7.013   4.369
 1650SOL    HW1 5849   2.914   7.017   4.411
 1650SOL    HW2 5850   3.007   0.045   4.287
 1651SOL     OW 5851   0.532   0.194   0.386
 1651SOL    HW1 5852   0.508   0.235   0.298
 1651SOL    HW2 5853   0.486   0.106   0.395
 1652SOL     OW 5854   2.390   1.995   0.826
 1652SOL    HW1 5855   2.312   1.932   0.827
 1652SOL    HW2 5856   2.447   1.979   0.906
 1653SOL     OW 5857   0.411   5.064   1.471
 1653SOL    HW1 5858   0.330   5.009   1.451
 1653SOL    HW2 5859   0.473   5.062   1.392
 1654SOL     OW 5860   7.007   2.864   2.426
 1654SOL    HW1 5861   7.017   2.939   2.361
 1654SOL    HW2 5862   0.023   2.781   2.389
 1655SOL     OW 5863   5.349   4.316   6.172
 1655SOL    HW1 5864   5.330   4.411   6.147
 1655SOL    HW2 5865   5.432   4.285   6.126
 1656SOL     OW 5866   1.725   4.078   3.515
 1656SOL    HW1 5867   1.767   3.997   3.556
 1656SOL    HW2 5868   1.630   4.056   3.489
 1657SOL     OW 5869   1.189   0.913   5.578
 1657SOL    HW1 5870   1.189   0.821   5.541
 1657SOL    HW2 5871   1.238   0.914   5.665
 1658SOL     OW 5872   6.555   6.542   2.710
 1658SOL    HW1 5873   6.531   6.514   2.617
 1658SOL    HW2 5874   6.495   6.496   2.776
 1659SOL     OW 5875   3.782   2.073   6.489
 1659SOL    HW1 5876   3.707   2.135   6.465
 1659SOL    HW2 5877   3.748   2.002   6.551
 1660SOL     OW 5878   0.901   5.359   4.179
 1660SOL    HW1 5879   0.953   5.368   4.095
 1660SOL    HW2 5880   0.803   5.352   4.158
 1661SOL     OW 5881   3.164   1.902   2.432
 1661SOL    HW1 5882   3.119   1.871   2.515
 1661SOL    HW2 5883   3.143   1.999   2.417
 1662SOL     OW 5884   6.427   1.641   3.129
 1662SOL    HW1 5885   6.457   1.546   3.137
 1662SOL    HW2 5886   6.453   1.678   3.040
 1663SOL     OW 5887   3.127   0.325   3.050
 1663SOL    HW1 5888   3.050   0.388   3.055
 1663SOL    HW2 5889   3.210   0.376   3.029
 1664SOL     OW 5890   1.510   6.940   4.025
 1664SOL    HW1 5891   1.489   0.007   3.994
 1664SOL    HW2 5892   1.522   6.941   4.125
 1665SOL     OW 5893   0.021   1.559   2.754
 1665SOL    HW1 5894   6.981   1.530   2.824
 1665SOL    HW2 5895   0.105   1.504   2.761
 1666SOL     OW 5896   6.215   3.276   6.859
 1666SOL    HW1 5897   6.118   3.282   6.836
 1666SOL    HW2 5898   6.249   3.184   6.837
 1667SOL     OW 5899   5.678   6.953   0.479
 1667SOL    HW1 5900   5.583   6.923   0.472
 1667SOL    HW2 5901   5.739   6.877   0.458
 1668SOL     OW 5902   5.094   0.395   4.663
 1668SOL    HW1 5903   5.191   0.411   4.645
 1668SOL    HW2 5904   5.077   0.402   4.761
 1669SOL     OW 5905   6.092   6.420   0.240
 1669SOL    HW1 5906   6.155   6.486   0.200
 1669SOL    HW2 5907   6.023   6.467   0.294
 1670SOL     OW 5908   6.294   5.669   6.070
 1670SOL    HW1 5909   6.379   5.711   6.037
 1670SOL    HW2 5910   6.246   5.626   5.994
 1671SOL     OW 5911   4.468   2.766   1.125
 1671SOL    HW1 5912   4.447   2.857   1.161
 1671SOL    HW2 5913   4.399   2.701   1.155
 1672SOL     OW 5914   2.098   4.158   2.536
 1672SOL    HW1 5915   2.160   4.191   2.607
 1672SOL    HW2 5916   2.151   4.123   2.459
 1673SOL     OW 5917   6.977   2.781   4.728
 1673SOL    HW1 5918   6.893   2.826   4.758
 1673SOL    HW2 5919   6.990   2.797   4.630
 1674SOL     OW 5920   1.672   4.183   1.032
 1674SOL    HW1 5921   1.768   4.190   1.006
 1674SOL    HW2 5922   1.665   4.159   1.129
 1675SOL     OW 5923   4.717   0.581   6.609
 1675SOL    HW1 5924   4.669   0.542   6.531
 1675SOL    HW2 5925   4.768   0.510   6.657
 1676SOL     OW 5926   2.309   1.025   2.606
 1676SOL    HW1 5927   2.396   1.038   2.558
 1676SOL    HW2 5928   2.304   0.932   2.642
 1677SOL     OW 5929   5.204   1.901   5.365
 1677SOL    HW1 5930   5.106   1.919   5.353
 1677SOL    HW2 5931   5.253   1.927   5.281
 1678SOL     OW 5932   5.494   5.154   3.743
 1678SOL    HW1 5933   5.526   5.096   3.817
 1678SOL    HW2 5934   5.522   5.249   3.761
 1679SOL     OW 5935   1.649   3.695   5.571
 1679SOL    HW1 5936   1.735   3.678   5.523
 1679SOL    HW2 5937   1.625   3.792   5.563
 1680SOL     OW 5938   0.748   1.709   4.220
 1680SOL    HW1 5939   0.788   1.621   4.195
 1680SOL    HW2 5940   0.714   1.705   4.313
 1681SOL     OW 5941   6.097   5.380   1.284
 1681SOL    HW1 5942   6.008   5.413   1.315
 1681SOL    HW2 5943   6.106   5.399   1.186
 1682SOL     OW 5944   0.412   3.103   4.748
 1682SOL    HW1 5945   0.330   3.047   4.762
 1682SOL    HW2 5946   0.421   3.123   4.650
 1683SOL     OW 5947   3.835   4.848   0.871
 1683SOL    HW1 5948   3.862   4.821   0.778
 1683SOL    HW2 5949   3.851   4.771   0.934
 1684SOL     OW 5950   0.615   6.461   4.737
 1684SOL    HW1 5951   0.691   6.409   4.698
 1684SOL    HW2 5952   0.644   6.499   4.825
 1685SOL     OW 5953   1.921   1.073   6.459
 1685SOL    HW1 5954   1.903   0.975   6.460
 1685SOL    HW2 5955   1.855   1.119   6.518
 1686SOL     OW 5956   1.746   5.687   5.654
 1686SOL    HW1 5957   1.840   5.671   5.685
 1686SOL    HW2 5958   1.683   5.657   5.726
 1687SOL     OW 5959   1.851   3.429   1.942
 1687SOL    HW1 5960   1.829   3.526   1.927
 1687SOL    HW2 5961   1.949   3.414   1.928
 1688SOL     OW 5962   1.677   1.831   2.905
 1688SOL    HW1 5963   1.762   1.779   2.892
 1688SOL    HW2 5964   1.667   1.856   3.001
 1689SOL     OW 5965   3.289   1.585   2.014
 1689SOL    HW1 5966   3.328   1.500   1.979
 1689SOL    HW2 5967   3.354   1.659   2.001
 1690SOL     OW 5968   1.706   1.910   3.178
 1690SOL    HW1 5969   1.733   2.004   3.199
 1690SOL    HW2 5970   1.755   1.846   3.238
 1691SOL     OW 5971   5.270   4.046   3.159
 1691SOL    HW1 5972   5.227   4.108   3.225
 1691SOL    HW2 5973   5.295   3.961   3.205
 1692SOL     OW 5974   6.830   6.941   1.037
 1692SOL    HW1 5975   6.876   7.008   0.979
 1692SOL    HW2 5976   6.878   6.934   1.124
 1693SOL     OW 5977   2.049   2.307   3.692
 1693SOL    HW1 5978   1.968   2.331   3.745
 1693SOL    HW2 5979   2.042   2.212   3.661
 1694SOL     OW 5980   4.257   6.538   4.818
 1694SOL    HW1 5981   4.175   6.488   4.792
 1694SOL    HW2 5982   4.328   6.524   4.750
 1695SOL     OW 5983   2.577   1.963   5.139
 1695SOL    HW1 5984   2.488   1.917   5.131
 1695SOL    HW2 5985   2.594   2.018   5.057
 1696SOL     OW 5986   4.665   5.500   0.334
 1696SOL    HW1 5987   4.677   5.514   0.236
 1696SOL    HW2 5988   4.743   5.540   0.383
 1697SOL     OW 5989   0.701   6.849   1.012
 1697SOL    HW1 5990   0.752   6.771   1.049
 1697SOL    HW2 5991   0.691   6.838   0.913
 1698SOL     OW 5992   4.808   1.798   1.574
 1698SOL    HW1 5993   4.716   1.814   1.539
 1698SOL    HW2 5994   4.829   1.700   1.570
 1699SOL     OW 5995   2.666   2.284   1.333
 1699SOL    HW1 5996   2.626   2.310   1.245
 1699SOL    HW2 5997   2.759   2.323   1.341
 1700SOL     OW 5998   6.640   2.447   3.525
 1700SOL    HW1 5999   6.679   2.357   3.507
 1700SOL    HW2 6000   6.713   2.515   3.529
 1701SOL     OW 6001   5.852   2.649   4.795
 1701SOL    HW1 6002   5.757   2.624   4.814
 1701SOL    HW2 6003   5.911   2.611   4.866
 1702SOL     OW 6004   6.561   3.890   1.176
 1702SOL    HW1 6005   6.560   3.907   1.077
 1702SOL    HW2 6006   6.471   3.912   1.214
 1703SOL     OW 6007   3.146   4.077   1.856
 1703SOL    HW1 6008   3.224   4.110   1.803
 1703SOL    HW2 6009   3.061   4.109   1.813
 1704SOL     OW 6010   0.489   1.056   0.645
 1704SOL    HW1 6011   0.536   1.046   0.732
 1704SOL    HW2 6012   0.471   0.965   0.606
 1705SOL     OW 6013   3.547   2.024   1.496
 1705SOL    HW1 6014   3.553   2.061   1.404
 1705SOL    HW2 6015   3.508   2.093   1.557
 1706SOL     OW 6016   4.408   0.461   1.429
 1706SOL    HW1 6017   4.389   0.458   1.527
 1706SOL    HW2 6018   4.354   0.534   1.387
 1707SOL     OW 6019   4.310   1.398   1.788
 1707SOL    HW1 6020   4.394   1.410   1.841
 1707SOL    HW2 6021   4.262   1.485   1.780
 1708SOL     OW 6022   6.607   6.159   2.629
 1708SOL    HW1 6023   6.655   6.208   2.701
 1708SOL    HW2 6024   6.517   6.129   2.663
 1709SOL     OW 6025   2.500   6.775   2.181
 1709SOL    HW1 6026   2.599   6.788   2.168
 1709SOL    HW2 6027   2.472   6.690   2.137
 1710SOL     OW 6028   0.097   3.664   3.568
 1710SOL    HW1 6029   0.162   3.648   3.643
 1710SOL    HW2 6030   0.146   3.665   3.481
 1711SOL     OW 6031   1.445   4.454   5.052
 1711SOL    HW1 6032   1.349   4.426   5.053
 1711SOL    HW2 6033   1.451   4.551   5.028
 1712SOL     OW 6034   0.831   4.047   6.486
 1712SOL    HW1 6035   0.878   4.120   6.436
 1712SOL    HW2 6036   0.790   3.984   6.420
 1713SOL     OW 6037   2.064   2.313   1.466
 1713SOL    HW1 6038   1.969   2.283   1.456
 1713SOL    HW2 6039   2.124   2.251   1.416
 1714SOL     OW 6040   3.897   1.750   6.510
 1714SOL    HW1 6041   3.819   1.804   6.541
 1714SOL    HW2 6042   3.944   1.799   6.436
 1715SOL     OW 6043   6.678   2.939   3.533
 1715SOL    HW1 6044   6.692   2.962   3.436
 1715SOL    HW2 6045   6.767   2.937   3.579
 1716SOL     OW 6046   5.516   6.852   1.267
 1716SOL    HW1 6047   5.545   6.779   1.206
 1716SOL    HW2 6048   5.554   6.836   1.358
 1717SOL     OW 6049   2.279   5.926   6.777
 1717SOL    HW1 6050   2.284   5.930   6.677
 1717SOL    HW2 6051   2.368   5.898   6.814
 1718SOL     OW 6052   2.052   2.782   0.298
 1718SOL    HW1 6053   2.056   2.848   0.373
 1718SOL    HW2 6054   1.977   2.806   0.236
 1719SOL     OW 6055   2.166   3.362   1.283
 1719SOL    HW1 6056   2.200   3.440   1.336
 1719SOL    HW2 6057   2.227   3.345   1.206
 1720SOL     OW 6058   6.578   2.175   1.120
 1720SOL    HW1 6059   6.563   2.231   1.038
 1720SOL    HW2 6060   6.646   2.105   1.101
 1721SOL     OW 6061   1.366   6.250   2.658
 1721SOL    HW1 6062   1.308   6.244   2.576
 1721SOL    HW2 6063   1.404   6.342   2.664
 1722SOL     OW 6064   5.685   0.163   2.767
 1722SOL    HW1 6065   5.663   0.126   2.856
 1722SOL    HW2 6066   5.738   0.247   2.778
 1723SOL     OW 6067   6.479   2.364   3.253
 1723SOL    HW1 6068   6.571   2.402   3.258
 1723SOL    HW2 6069   6.418   2.414   3.315
 1724SOL     OW 6070   5.948   1.048   0.469
 1724SOL    HW1 6071   5.978   0.964   0.512
 1724SOL    HW2 6072   5.915   1.028   0.376
 1725SOL     OW 6073   3.620   4.313   0.233
 1725SOL    HW1 6074   3.711   4.353   0.244
 1725SOL    HW2 6075   3.626   4.213   0.241
 1726SOL     OW 6076   6.719   4.474   4.719
 1726SOL    HW1 6077   6.625   4.503   4.701
 1726SOL    HW2 6078   6.720   4.378   4.747
 1727SOL     OW 6079   3.845   3.613   4.668
 1727SOL    HW1 6080   3.924   3.624   4.728
 1727SOL    HW2 6081   3.762   3.635   4.719
 1728SOL     OW 6082   5.180   4.372   4.287
 1728SOL    HW1 6083   5.251   4.371   4.358
 1728SOL    HW2 6084   5.213   4.320   4.208
 1729SOL     OW 6085   2.089   4.029   3.098
 1729SOL    HW1 6086   2.097   3.929   3.095
 1729SOL    HW2 6087   1.992   4.055   3.092
 1730SOL     OW 6088   6.436   1.395   5.010
 1730SOL    HW1 6089   6.430   1.324   5.080
 1730SOL    HW2 6090   6.471   1.356   4.925
 1731SOL     OW 6091   1.590   4.421   2.093
 1731SOL    HW1 6092   1.679   4.395   2.130
 1731SOL    HW2 6093   1.580   4.385   2.001
 1732SOL     OW 6094   2.337   4.246   6.860
 1732SOL    HW1 6095   2.246   4.209   6.881
 1732SOL    HW2 6096   2.406   4.193   6.909
 1733SOL     OW 6097   1.797   3.614   2.295
 1733SOL    HW1 6098   1.893   3.584   2.289
 1733SOL    HW2 6099   1.752   3.597   2.207
 1734SOL     OW 6100   4.572   3.078   1.591
 1734SOL    HW1 6101   4.570   3.073   1.691
 1734SOL    HW2 6102   4.553   2.987   1.553
 1735SOL     OW 6103   5.892   5.991   1.432
 1735SOL    HW1 6104   5.866   5.900   1.462
 1735SOL    HW2 6105   5.819   6.056   1.454
 1736SOL     OW 6106   5.023   2.372   0.094
 1736SOL    HW1 6107   5.082   2.319   0.033
 1736SOL    HW2 6108   4.989   2.452   0.045
 1737SOL     OW 6109   2.402   0.197   3.705
 1737SOL    HW1 6110   2.374   0.285   3.666
 1737SOL    HW2 6111   2.427   0.210   3.801
 1738SOL     OW 6112   1.966   2.778   3.417
 1738SOL    HW1 6113   2.030   2.845   3.455
 1738SOL    HW2 6114   2.018   2.707   3.369
 1739SOL     OW 6115   4.550   2.068   4.820
 1739SOL    HW1 6116   4.646   2.044   4.807
 1739SOL    HW2 6117   4.512   2.017   4.897
 1740SOL     OW 6118   6.672   1.422   6.494
 1740SOL    HW1 6119   6.727   1.339   6.489
 1740SOL    HW2 6120   6.621   1.433   6.409
 1741SOL     OW 6121   1.818   1.058   2.740
 1741SOL    HW1 6122   1.780   1.009   2.661
 1741SOL    HW2 6123   1.856   1.146   2.709
 1742SOL     OW 6124   4.346   6.349   6.123
 1742SOL    HW1 6125   4.441   6.379   6.129
 1742SOL    HW2 6126   4.341   6.266   6.067
 1743SOL     OW 6127   1.337   0.906   2.136
 1743SOL    HW1 6128   1.258   0.878   2.080
 1743SOL    HW2 6129   1.399   0.961   2.080
 1744SOL     OW 6130   2.095   0.307   2.034
 1744SOL    HW1 6131   2.087   0.388   1.977
 1744SOL    HW2 6132   2.011   0.254   2.029
 1745SOL     OW 6133   6.519   1.725   4.284
 1745SOL    HW1 6134   6.615   1.748   4.266
 1745SOL    HW2 6135   6.461   1.776   4.220
 1746SOL     OW 6136   2.592   5.905   5.961
 1746SOL    HW1 6137   2.598   5.933   5.865
 1746SOL    HW2 6138   2.503   5.930   5.997
 1747SOL     OW 6139   4.802   6.952   1.734
 1747SOL    HW1 6140   4.858   6.972   1.653
 1747SOL    HW2 6141   4.809   0.003   1.798
 1748SOL     OW 6142   6.548   1.479   3.803
 1748SOL    HW1 6143   6.500   1.455   3.718
 1748SOL    HW2 6144   6.647   1.474   3.788
 1749SOL     OW 6145   4.000   6.576   5.855
 1749SOL    HW1 6146   3.984   6.502   5.789
 1749SOL    HW2 6147   3.915   6.629   5.867
 1750SOL     OW 6148   5.145   0.989   3.041
 1750SOL    HW1 6149   5.184   0.908   2.997
 1750SOL    HW2 6150   5.211   1.065   3.035
 1751SOL     OW 6151   3.264   4.910   4.287
 1751SOL    HW1 6152   3.304   4.916   4.378
 1751SOL    HW2 6153   3.172   4.871   4.293
 1752SOL     OW 6154   6.498   2.743   1.152
 1752SOL    HW1 6155   6.451   2.820   1.110
 1752SOL    HW2 6156   6.540   2.687   1.081
 1753SOL     OW 6157   0.423   0.645   0.279
 1753SOL    HW1 6158   0.513   0.661   0.320
 1753SOL    HW2 6159   0.372   0.731   0.274
 1754SOL     OW 6160   3.562   3.614   0.833
 1754SOL    HW1 6161   3.611   3.615   0.746
 1754SOL    HW2 6162   3.594   3.537   0.888
 1755SOL     OW 6163   5.051   4.818   1.641
 1755SOL    HW1 6164   5.017   4.813   1.735
 1755SOL    HW2 6165   5.097   4.732   1.617
 1756SOL     OW 6166   5.783   4.703   5.055
 1756SOL    HW1 6167   5.729   4.754   5.122
 1756SOL    HW2 6168   5.862   4.662   5.100
 1757SOL     OW 6169   1.736   6.723   4.727
 1757SOL    HW1 6170   1.829   6.758   4.734
 1757SOL    HW2 6171   1.728   6.639   4.782
 1758SOL     OW 6172   2.710   0.948   3.526
 1758SOL    HW1 6173   2.729   0.914   3.434
 1758SOL    HW2 6174   2.764   1.030   3.543
 1759SOL     OW 6175   0.596   5.182   6.403
 1759SOL    HW1 6176   0.691   5.214   6.409
 1759SOL    HW2 6177   0.583   5.134   6.316
 1760SOL     OW 6178   6.486   2.002   1.295
 1760SOL    HW1 6179   6.519   2.079   1.241
 1760SOL    HW2 6180   6.404   2.029   1.346
 1761SOL     OW 6181   6.681   6.995   0.626
 1761SOL    HW1 6182   6.657   0.034   0.553
 1761SOL    HW2 6183   6.611   6.998   0.697
 1762SOL     OW 6184   6.170   2.071   5.418
 1762SOL    HW1 6185   6.088   2.016   5.429
 1762SOL    HW2 6186   6.148   2.168   5.433
 1763SOL     OW 6187   1.887   3.961   4.470
 1763SOL    HW1 6188   1.888   4.056   4.439
 1763SOL    HW2 6189   1.933   3.904   4.402
 1764SOL     OW 6190   1.854   4.101   2.657
 1764SOL    HW1 6191   1.790   4.171   2.624
 1764SOL    HW2 6192   1.942   4.112   2.611
 1765SOL     OW 6193   3.105   1.531   6.718
 1765SOL    HW1 6194   3.052   1.565   6.796
 1765SOL    HW2 6195   3.189   1.488   6.751
 1766SOL     OW 6196   5.263   2.545   4.335
 1766SOL    HW1 6197   5.236   2.477   4.267
 1766SOL    HW2 6198   5.187   2.609   4.350
 1767SOL     OW 6199   5.424   3.846   2.823
 1767SOL    HW1 6200   5.346   3.894   2.865
 1767SOL    HW2 6201   5.451   3.769   2.881
 1768SOL     OW 6202   4.579   0.323   4.702
 1768SOL    HW1 6203   4.602   0.292   4.794
 1768SOL    HW2 6204   4.657   0.308   4.641
 1769SOL     OW 6205   4.335   2.199   4.258
 1769SOL    HW1 6206   4.361   2.291   4.289
 1769SOL    HW2 6207   4.334   2.136   4.335
 1770SOL     OW 6208   2.094   5.729   4.554
 1770SOL    HW1 6209   2.122   5.825   4.550
 1770SOL    HW2 6210   2.124   5.689   4.641
 1771SOL     OW 6211   3.073   5.963   6.822
 1771SOL    HW1 6212   3.102   5.867   6.824
 1771SOL    HW2 6213   2.979   5.968   6.788
 1772SOL     OW 6214   3.249   0.038   4.057
 1772SOL    HW1 6215   3.196   0.108   4.009
 1772SOL    HW2 6216   3.188   6.991   4.089
 1773SOL     OW 6217   2.476   5.240   5.360
 1773SOL    HW1 6218   2.518   5.150   5.369
 1773SOL    HW2 6219   2.401   5.248   5.425
 1774SOL     OW 6220   4.195   6.164   1.897
 1774SOL    HW1 6221   4.229   6.248   1.857
 1774SOL    HW2 6222   4.109   6.138   1.853
 1775SOL     OW 6223   1.430   4.008   3.467
 1775SOL    HW1 6224   1.435   3.951   3.385
 1775SOL    HW2 6225   1.348   4.065   3.463
 1776SOL     OW 6226   3.378   6.495   4.248
 1776SOL    HW1 6227   3.473   6.523   4.259
 1776SOL    HW2 6228   3.347   6.520   4.156
 1777SOL     OW 6229   3.790   5.409   6.549
 1777SOL    HW1 6230   3.835   5.495   6.524
 1777SOL    HW2 6231   3.747   5.369   6.468
 1778SOL     OW 6232   4.211   3.574   5.884
 1778SOL    HW1 6233   4.142   3.602   5.818
 1778SOL    HW2 6234   4.275   3.511   5.840
 1779SOL     OW 6235   4.505   0.846   4.697
 1779SOL    HW1 6236   4.498   0.840   4.597
 1779SOL    HW2 6237   4.467   0.763   4.738
 1780SOL     OW 6238   3.800   2.731   6.686
 1780SOL    HW1 6239   3.813   2.742   6.588
 1780SOL    HW2 6240   3.845   2.647   6.717
 1781SOL     OW 6241   4.301   6.019   2.917
 1781SOL    HW1 6242   4.276   6.055   2.827
 1781SOL    HW2 6243   4.324   5.922   2.909
 1782SOL     OW 6244   2.819   1.581   2.656
 1782SOL    HW1 6245   2.730   1.622   2.636
 1782SOL    HW2 6246   2.891   1.639   2.618
 1783SOL     OW 6247   1.785   5.828   6.009
 1783SOL    HW1 6248   1.806   5.888   5.932
 1783SOL    HW2 6249   1.866   5.774   6.032
 1784SOL     OW 6250   4.362   1.297   6.302
 1784SOL    HW1 6251   4.293   1.319   6.233
 1784SOL    HW2 6252   4.450   1.333   6.273
 1785SOL     OW 6253   6.054   3.869   2.942
 1785SOL    HW1 6254   6.063   3.905   3.035
 1785SOL    HW2 6255   6.144   3.844   2.907
 1786SOL     OW 6256   2.154   2.808   6.990
 1786SOL    HW1 6257   2.186   2.758   0.045
 1786SOL    HW2 6258   2.065   2.772   6.962
 1787SOL     OW 6259   2.775   1.213   5.416
 1787SOL    HW1 6260   2.857   1.158   5.401
 1787SOL    HW2 6261   2.694   1.162   5.389
 1788SOL     OW 6262   2.830   3.268   0.093
 1788SOL    HW1 6263   2.876   3.180   0.104
 1788SOL    HW2 6264   2.822   3.290   7.021
 1789SOL     OW 6265   6.011   1.844   2.896
 1789SOL    HW1 6266   6.047   1.833   2.989
 1789SOL    HW2 6267   6.078   1.892   2.840
 1790SOL     OW 6268   4.232   6.309   3.628
 1790SOL    HW1 6269   4.228   6.262   3.716
 1790SOL    HW2 6270   4.304   6.269   3.572
 1791SOL     OW 6271   6.108   0.355   3.491
 1791SOL    HW1 6272   6.037   0.374   3.559
 1791SOL    HW2 6273   6.179   0.425   3.497
 1792SOL     OW 6274   6.505   3.092   5.157
 1792SOL    HW1 6275   6.494   3.043   5.070
 1792SOL    HW2 6276   6.531   3.187   5.139
 1793SOL     OW 6277   6.193   6.913   3.469
 1793SOL    HW1 6278   6.163   7.004   3.442
 1793SOL    HW2 6279   6.138   6.881   3.546
 1794SOL     OW 6280   5.319   6.359   5.496
 1794SOL    HW1 6281   5.411   6.395   5.484
 1794SOL    HW2 6282   5.309   6.321   5.588
 1795SOL     OW 6283   1.338   2.072   0.994
 1795SOL    HW1 6284   1.354   2.034   1.085
 1795SOL    HW2 6285   1.265   2.141   0.998
 1796SOL     OW 6286   2.683   0.985   5.291
 1796SOL    HW1 6287   2.660   0.891   5.317
 1796SOL    HW2 6288   2.599   1.036   5.271
 1797SOL     OW 6289   1.519   6.809   0.757
 1797SOL    HW1 6290   1.447   6.875   0.739
 1797SOL    HW2 6291   1.607   6.856   0.765
 1798SOL     OW 6292   4.675   2.366   3.869
 1798SOL    HW1 6293   4.680   2.394   3.965
 1798SOL    HW2 6294   4.626   2.435   3.816
 1799SOL     OW 6295   6.856   2.697   5.265
 1799SOL    HW1 6296   6.862   2.717   5.167
 1799SOL    HW2 6297   6.940   2.652   5.295
 1800SOL     OW 6298   4.213   4.637   1.746
 1800SOL    HW1 6299   4.123   4.659   1.708
 1800SOL    HW2 6300   4.247   4.715   1.799
 1801SOL     OW 6301   6.953   6.988   1.639
 1801SOL    HW1 6302   0.025   6.975   1.660
 1801SOL    HW2 6303   6.921   6.913   1.581
 1802SOL     OW 6304   5.206   5.276   4.187
 1802SOL    HW1 6305   5.215   5.375   4.196
 1802SOL    HW2 6306   5.110   5.250   4.197
 1803SOL     OW 6307   0.470   5.731   6.798
 1803SOL    HW1 6308   0.518   5.646   6.773
 1803SOL    HW2 6309   0.402   5.752   6.729
 1804SOL     OW 6310   2.513   3.813   5.346
 1804SOL    HW1 6311   2.488   3.831   5.441
 1804SOL    HW2 6312   2.451   3.864   5.285
 1805SOL     OW 6313   5.765   4.233   5.803
 1805SOL    HW1 6314   5.786   4.141   5.772
 1805SOL    HW2 6315   5.850   4.280   5.830
 1806SOL     OW 6316   0.623   0.096   0.123
 1806SOL    HW1 6317   0.635   0.110   0.221
 1806SOL    HW2 6318   0.712   0.093   0.078
 1807SOL     OW 6319   5.113   2.868   5.084
 1807SOL    HW1 6320   5.102   2.914   4.996
 1807SOL    HW2 6321   5.023   2.858   5.128
 1808SOL     OW 6322   0.084   4.571   5.493
 1808SOL    HW1 6323   0.175   4.609   5.477
 1808SOL    HW2 6324   0.054   4.594   5.585
 1809SOL     OW 6325   2.046   2.488   5.055
 1809SOL    HW1 6326   2.122   2.516   4.997
 1809SOL    HW2 6327   1.975   2.446   5.000
 1810SOL     OW 6328   2.588   6.861   3.630
 1810SOL    HW1 6329   2.655   6.924   3.591
 1810SOL    HW2 6330   2.599   6.770   3.589
 1811SOL     OW 6331   5.883   5.648   3.570
 1811SOL    HW1 6332   5.799   5.672   3.619
 1811SOL    HW2 6333   5.961   5.689   3.617
 1812SOL     OW 6334   4.278   5.849   4.656
 1812SOL    HW1 6335   4.215   5.904   4.601
 1812SOL    HW2 6336   4.227   5.776   4.702
 1813SOL     OW 6337   5.934   4.284   0.811
 1813SOL    HW1 6338   5.917   4.366   0.867
 1813SOL    HW2 6339   5.972   4.212   0.868
 1814SOL     OW 6340   5.388   0.014   1.957
 1814SOL    HW1 6341   5.296   0.002   1.919
 1814SOL    HW2 6342   5.382   0.031   2.055
 1815SOL     OW 6343   0.506   2.214   2.553
 1815SOL    HW1 6344   0.534   2.122   2.580
 1815SOL    HW2 6345   0.586   2.272   2.541
 1816SOL     OW 6346   2.941   3.536   1.219
 1816SOL    HW1 6347   2.913   3.614   1.274
 1816SOL    HW2 6348   2.890   3.455   1.247
 1817SOL     OW 6349   2.488   6.781   2.476
 1817SOL    HW1 6350   2.494   6.810   2.380
 1817SOL    HW2 6351   2.579   6.781   2.517
 1818SOL     OW 6352   1.187   6.851   2.822
 1818SOL    HW1 6353   1.119   6.863   2.749
 1818SOL    HW2 6354   1.144   6.870   2.911
 1819SOL     OW 6355   1.205   3.794   1.765
 1819SOL    HW1 6356   1.109   3.816   1.783
 1819SOL    HW2 6357   1.258   3.807   1.849
 1820SOL     OW 6358   3.948   1.258   3.023
 1820SOL    HW1 6359   3.997   1.195   2.963
 1820SOL    HW2 6360   3.862   1.285   2.980
 1821SOL     OW 6361   0.860   1.353   2.139
 1821SOL    HW1 6362   0.766   1.343   2.170
 1821SOL    HW2 6363   0.911   1.269   2.157
 1822SOL     OW 6364   3.128   2.315   1.115
 1822SOL    HW1 6365   3.048   2.367   1.146
 1822SOL    HW2 6366   3.180   2.283   1.194
 1823SOL     OW 6367   3.506   5.869   3.315
 1823SOL    HW1 6368   3.520   5.789   3.257
 1823SOL    HW2 6369   3.473   5.945   3.259
 1824SOL     OW 6370   3.685   2.028   0.960
 1824SOL    HW1 6371   3.664   2.077   1.045
 1824SOL    HW2 6372   3.717   1.935   0.982
 1825SOL     OW 6373   1.502   0.158   2.149
 1825SOL    HW1 6374   1.596   0.124   2.142
 1825SOL    HW2 6375   1.469   0.188   2.060
 1826SOL     OW 6376   3.400   1.041   1.625
 1826SOL    HW1 6377   3.439   1.002   1.542
 1826SOL    HW2 6378   3.300   1.033   1.622
 1827SOL     OW 6379   0.363   5.271   2.319
 1827SOL    HW1 6380   0.343   5.323   2.235
 1827SOL    HW2 6381   0.460   5.281   2.342
 1828SOL     OW 6382   0.187   2.210   0.249
 1828SOL    HW1 6383   0.261   2.145   0.266
 1828SOL    HW2 6384   0.203   2.257   0.162
 1829SOL     OW 6385   4.847   0.195   3.092
 1829SOL    HW1 6386   4.849   0.145   3.178
 1829SOL    HW2 6387   4.773   0.161   3.035
 1830SOL     OW 6388   5.516   5.638   4.097
 1830SOL    HW1 6389   5.423   5.652   4.128
 1830SOL    HW2 6390   5.515   5.590   4.009
 1831SOL     OW 6391   6.060   6.812   2.956
 1831SOL    HW1 6392   6.124   6.747   2.916
 1831SOL    HW2 6393   6.074   6.817   3.055
 1832SOL     OW 6394   5.618   2.126   1.088
 1832SOL    HW1 6395   5.661   2.201   1.038
 1832SOL    HW2 6396   5.636   2.137   1.186
 1833SOL     OW 6397   5.704   0.973   5.039
 1833SOL    HW1 6398   5.643   1.049   5.060
 1833SOL    HW2 6399   5.799   1.002   5.049
 1834SOL     OW 6400   3.499   3.969   0.084
 1834SOL    HW1 6401   3.498   3.903   0.009
 1834SOL    HW2 6402   3.553   3.933   0.160
 1835SOL     OW 6403   1.357   4.516   1.902
 1835SOL    HW1 6404   1.425   4.446   1.882
 1835SOL    HW2 6405   1.372   4.595   1.843
 1836SOL     OW 6406   0.099   2.039   1.060
 1836SOL    HW1 6407   0.002   2.028   1.083
 1836SOL    HW2 6408   0.155   2.002   1.134
 1837SOL     OW 6409   0.468   2.103   3.668
 1837SOL    HW1 6410   0.480   2.192   3.625
 1837SOL    HW2 6411   0.431   2.114   3.760
 1838SOL     OW 6412   0.149   1.867   3.715
 1838SOL    HW1 6413   0.072   1.841   3.658
 1838SOL    HW2 6414   0.170   1.963   3.701
 1839SOL     OW 6415   4.658   2.761   5.047
 1839SOL    HW1 6416   4.708   2.681   5.081
 1839SOL    HW2 6417   4.689   2.781   4.954
 1840SOL     OW 6418   3.449   6.025   1.589
 1840SOL    HW1 6419   3.462   6.063   1.497
 1840SOL    HW2 6420   3.536   5.991   1.624
 1841SOL     OW 6421   1.985   3.506   4.534
 1841SOL    HW1 6422   1.923   3.527   4.610
 1841SOL    HW2 6423   2.074   3.479   4.569
 1842SOL     OW 6424   0.579   5.664   0.286
 1842SOL    HW1 6425   0.578   5.750   0.337
 1842SOL    HW2 6426   0.659   5.611   0.313
 1843SOL     OW 6427   1.611   2.484   4.248
 1843SOL    HW1 6428   1.704   2.522   4.239
 1843SOL    HW2 6429   1.576   2.504   4.339
 1844SOL     OW 6430   3.963   1.268   5.789
 1844SOL    HW1 6431   3.992   1.172   5.792
 1844SOL    HW2 6432   4.030   1.321   5.737
 1845SOL     OW 6433   2.129   0.576   6.360
 1845SOL    HW1 6434   2.206   0.640   6.354
 1845SOL    HW2 6435   2.104   0.546   6.268
 1846SOL     OW 6436   3.862   1.985   6.808
 1846SOL    HW1 6437   3.945   1.992   6.752
 1846SOL    HW2 6438   3.883   1.939   6.894
 1847SOL     OW 6439   1.425   0.919   6.688
 1847SOL    HW1 6440   1.408   0.827   6.723
 1847SOL    HW2 6441   1.522   0.928   6.666
 1848SOL     OW 6442   1.961   6.031   2.571
 1848SOL    HW1 6443   2.012   5.949   2.596
 1848SOL    HW2 6444   1.905   6.061   2.648
 1849SOL     OW 6445   4.130   1.748   0.328
 1849SOL    HW1 6446   4.031   1.747   0.316
 1849SOL    HW2 6447   4.174   1.721   0.242
 1850SOL     OW 6448   6.577   1.981   2.672
 1850SOL    HW1 6449   6.479   1.982   2.653
 1850SOL    HW2 6450   6.628   1.978   2.586
 1851SOL     OW 6451   0.184   1.374   0.834
 1851SOL    HW1 6452   0.219   1.340   0.746
 1851SOL    HW2 6453   0.242   1.340   0.908
 1852SOL     OW 6454   4.632   4.127   1.003
 1852SOL    HW1 6455   4.574   4.170   1.073
 1852SOL    HW2 6456   4.609   4.029   0.997
 1853SOL     OW 6457   0.895   3.317   2.002
 1853SOL    HW1 6458   0.948   3.399   1.981
 1853SOL    HW2 6459   0.802   3.329   1.967
 1854SOL     OW 6460   2.911   6.249   3.913
 1854SOL    HW1 6461   2.942   6.156   3.932
 1854SOL    HW2 6462   2.833   6.246   3.850
 1855SOL     OW 6463   4.592   4.470   6.705
 1855SOL    HW1 6464   4.547   4.547   6.750
 1855SOL    HW2 6465   4.691   4.476   6.720
 1856SOL     OW 6466   6.385   3.122   5.540
 1856SOL    HW1 6467   6.417   3.217   5.538
 1856SOL    HW2 6468   6.307   3.112   5.477
 1857SOL     OW 6469   3.663   1.077   5.564
 1857SOL    HW1 6470   3.608   0.996   5.586
 1857SOL    HW2 6471   3.705   1.112   5.648
 1858SOL     OW 6472   5.845   3.228   3.452
 1858SOL    HW1 6473   5.913   3.258   3.384
 1858SOL    HW2 6474   5.765   3.191   3.405
 1859SOL     OW 6475   4.011   1.279   3.953
 1859SOL    HW1 6476   3.999   1.254   4.049
 1859SOL    HW2 6477   4.000   1.198   3.896
 1860SOL     OW 6478   6.920   0.946   3.317
 1860SOL    HW1 6479   6.883   0.911   3.404
 1860SOL    HW2 6480   6.901   0.880   3.244
 1861SOL     OW 6481   4.864   6.356   1.772
 1861SOL    HW1 6482   4.863   6.286   1.700
 1861SOL    HW2 6483   4.952   6.403   1.772
 1862SOL     OW 6484   2.199   6.655   6.900
 1862SOL    HW1 6485   2.253   6.586   6.851
 1862SOL    HW2 6486   2.234   6.746   6.877
 1863SOL     OW 6487   2.396   2.456   0.464
 1863SOL    HW1 6488   2.432   2.456   0.557
 1863SOL    HW2 6489   2.466   2.421   0.401
 1864SOL     OW 6490   0.970   0.256   5.416
 1864SOL    HW1 6491   0.876   0.228   5.397
 1864SOL    HW2 6492   0.989   0.246   5.514
 1865SOL     OW 6493   3.589   0.817   5.602
 1865SOL    HW1 6494   3.555   0.822   5.508
 1865SOL    HW2 6495   3.670   0.758   5.605
 1866SOL     OW 6496   4.734   4.632   2.275
 1866SOL    HW1 6497   4.677   4.712   2.295
 1866SOL    HW2 6498   4.740   4.619   2.176
 1867SOL     OW 6499   0.784   4.245   0.644
 1867SOL    HW1 6500   0.826   4.154   0.635
 1867SOL    HW2 6501   0.795   4.278   0.738
 1868SOL     OW 6502   4.910   4.479   0.509
 1868SOL    HW1 6503   4.822   4.470   0.555
 1868SOL    HW2 6504   4.896   4.509   0.415
 1869SOL     OW 6505   6.638   2.367   4.547
 1869SOL    HW1 6506   6.583   2.447   4.571
 1869SOL    HW2 6507   6.588   2.310   4.482
 1870SOL     OW 6508   2.202   4.346   5.758
 1870SOL    HW1 6509   2.156   4.345   5.846
 1870SOL    HW2 6510   2.294   4.306   5.767
 1871SOL     OW 6511   1.250   6.580   0.183
 1871SOL    HW1 6512   1.292   6.671   0.185
 1871SOL    HW2 6513   1.161   6.585   0.139
 1872SOL     OW 6514   3.859   4.205   6.949
 1872SOL    HW1 6515   3.844   4.137   6.877
 1872SOL    HW2 6516   3.874   4.295   6.907
 1873SOL     OW 6517   4.409   1.437   5.173
 1873SOL    HW1 6518   4.405   1.357   5.112
 1873SOL    HW2 6519   4.346   1.507   5.140
 1874SOL     OW 6520   2.359   1.270   0.906
 1874SOL    HW1 6521   2.307   1.351   0.934
 1874SOL    HW2 6522   2.442   1.299   0.859
 1875SOL     OW 6523   0.907   0.965   6.467
 1875SOL    HW1 6524   0.970   0.937   6.539
 1875SOL    HW2 6525   0.916   0.904   6.388
 1876SOL     OW 6526   3.165   0.488   5.756
 1876SOL    HW1 6527   3.115   0.497   5.669
 1876SOL    HW2 6528   3.194   0.393   5.767
 1877SOL     OW 6529   0.943   0.335   3.292
 1877SOL    HW1 6530   0.886   0.261   3.330
 1877SOL    HW2 6531   0.996   0.299   3.216
 1878SOL     OW 6532   6.892   1.733   4.003
 1878SOL    HW1 6533   6.866   1.707   3.910
 1878SOL    HW2 6534   6.991   1.720   4.015
 1879SOL     OW 6535   1.009   3.890   4.063
 1879SOL    HW1 6536   1.025   3.898   3.965
 1879SOL    HW2 6537   0.977   3.798   4.085
 1880SOL     OW 6538   6.992   1.213   4.827
 1880SOL    HW1 6539   0.030   1.193   4.902
 1880SOL    HW2 6540   6.937   1.293   4.850
 1881SOL     OW 6541   5.694   2.190   2.412
 1881SOL    HW1 6542   5.620   2.230   2.465
 1881SOL    HW2 6543   5.727   2.256   2.344
 1882SOL     OW 6544   1.177   4.195   6.594
 1882SOL    HW1 6545   1.255   4.170   6.652
 1882SOL    HW2 6546   1.127   4.270   6.637
 1883SOL     OW 6547   6.219   2.610   2.905
 1883SOL    HW1 6548   6.239   2.702   2.872
 1883SOL    HW2 6549   6.302   2.555   2.903
 1884SOL     OW 6550   0.895   1.884   0.558
 1884SOL    HW1 6551   0.798   1.873   0.581
 1884SOL    HW2 6552   0.907   1.874   0.459
 1885SOL     OW 6553   1.985   1.779   6.063
 1885SOL    HW1 6554   2.064   1.736   6.107
 1885SOL    HW2 6555   1.901   1.739   6.099
 1886SOL     OW 6556   1.671   0.094   1.827
 1886SOL    HW1 6557   1.711   0.002   1.834
 1886SOL    HW2 6558   1.651   0.114   1.731
 1887SOL     OW 6559   0.659   5.522   6.013
 1887SOL    HW1 6560   0.746   5.487   5.977
 1887SOL    HW2 6561   0.670   5.548   6.109
 1888SOL     OW 6562   3.125   2.211   6.885
 1888SOL    HW1 6563   3.208   2.187   6.834
 1888SOL    HW2 6564   3.143   2.203   6.983
 1889SOL     OW 6565   0.101   3.764   4.279
 1889SOL    HW1 6566   0.111   3.779   4.378
 1889SOL    HW2 6567   0.189   3.776   4.234
 1890SOL     OW 6568   1.238   5.663   4.152
 1890SOL    HW1 6569   1.278   5.582   4.109
 1890SOL    HW2 6570   1.207   5.726   4.080
 1891SOL     OW 6571   4.554   2.791   1.743
 1891SOL    HW1 6572   4.560   2.711   1.803
 1891SOL    HW2 6573   4.563   2.874   1.798
 1892SOL     OW 6574   0.239   0.007   1.951
 1892SOL    HW1 6575   0.286   0.064   1.884
 1892SOL    HW2 6576   0.168   0.061   1.996
 1893SOL     OW 6577   3.507   2.868   1.978
 1893SOL    HW1 6578   3.543   2.881   2.070
 1893SOL    HW2 6579   3.566   2.805   1.927
 1894SOL     OW 6580   3.878   3.644   4.382
 1894SOL    HW1 6581   3.839   3.571   4.326
 1894SOL    HW2 6582   3.837   3.642   4.473
 1895SOL     OW 6583   4.107   6.933   0.815
 1895SOL    HW1 6584   4.072   0.001   0.824
 1895SOL    HW2 6585   4.149   6.904   0.901
 1896SOL     OW 6586   6.215   1.518   0.811
 1896SOL    HW1 6587   6.206   1.580   0.733
 1896SOL    HW2 6588   6.204   1.423   0.779
 1897SOL     OW 6589   2.048   5.001   1.996
 1897SOL    HW1 6590   2.128   4.954   2.032
 1897SOL    HW2 6591   1.981   4.934   1.963
 1898SOL     OW 6592   2.164   4.584   2.866
 1898SOL    HW1 6593   2.076   4.630   2.866
 1898SOL    HW2 6594   2.202   4.585   2.774
 1899SOL     OW 6595   0.291   1.636   7.015
 1899SOL    HW1 6596   0.244   1.711   0.036
 1899SOL    HW2 6597   0.387   1.660   7.001
 1900SOL     OW 6598   2.363   0.766   0.049
 1900SOL    HW1 6599   2.409   0.805   6.994
 1900SOL    HW2 6600   2.390   0.816   0.131
 1901SOL     OW 6601   2.337   2.227   0.720
 1901SOL    HW1 6602   2.339   2.140   0.770
 1901SOL    HW2 6603   2.254   2.277   0.743
 1902SOL     OW 6604   2.654   0.630   4.613
 1902SOL    HW1 6605   2.555   0.623   4.600
 1902SOL    HW2 6606   2.682   0.571   4.689
 1903SOL     OW 6607   0.926   3.430   2.543
 1903SOL    HW1 6608   0.884   3.476   2.464
 1903SOL    HW2 6609   0.898   3.334   2.543
 1904SOL     OW 6610   5.588   4.948   3.141
 1904SOL    HW1 6611   5.510   5.009   3.156
 1904SOL    HW2 6612   5.667   4.984   3.191
 1905SOL     OW 6613   0.534   0.572   3.440
 1905SOL    HW1 6614   0.608   0.596   3.502
 1905SOL    HW2 6615   0.477   0.653   3.423
 1906SOL     OW 6616   3.295   1.059   6.166
 1906SOL    HW1 6617   3.343   1.091   6.248
 1906SOL    HW2 6618   3.234   0.983   6.191
 1907SOL     OW 6619   4.751   2.694   1.149
 1907SOL    HW1 6620   4.653   2.693   1.128
 1907SOL    HW2 6621   4.766   2.741   1.237
 1908SOL     OW 6622   3.964   6.319   6.342
 1908SOL    HW1 6623   4.063   6.327   6.332
 1908SOL    HW2 6624   3.931   6.391   6.402
 1909SOL     OW 6625   0.565   3.276   3.482
 1909SOL    HW1 6626   0.582   3.225   3.398
 1909SOL    HW2 6627   0.645   3.271   3.541
 1910SOL     OW 6628   6.851   6.497   5.357
 1910SOL    HW1 6629   6.874   6.586   5.397
 1910SOL    HW2 6630   6.753   6.480   5.368
 1911SOL     OW 6631   0.084   3.713   5.046
 1911SOL    HW1 6632   0.123   3.711   4.954
 1911SOL    HW2 6633   7.011   3.733   5.041
 1912SOL     OW 6634   2.802   5.423   2.337
 1912SOL    HW1 6635   2.835   5.409   2.243
 1912SOL    HW2 6636   2.710   5.385   2.346
 1913SOL     OW 6637   2.494   0.348   4.842
 1913SOL    HW1 6638   2.436   0.380   4.917
 1913SOL    HW2 6639   2.505   0.249   4.848
 1914SOL     OW 6640   4.156   3.527   0.195
 1914SOL    HW1 6641   4.214   3.583   0.135
 1914SOL    HW2 6642   4.064   3.565   0.196
 1915SOL     OW 6643   5.089   2.954   5.781
 1915SOL    HW1 6644   5.091   3.023   5.854
 1915SOL    HW2 6645   5.019   2.979   5.714
 1916SOL     OW 6646   4.458   6.146   1.054
 1916SOL    HW1 6647   4.419   6.224   1.103
 1916SOL    HW2 6648   4.414   6.137   0.965
 1917SOL     OW 6649   3.026   3.294   0.469
 1917SOL    HW1 6650   2.962   3.219   0.449
 1917SOL    HW2 6651   3.027   3.311   0.567
 1918SOL     OW 6652   0.765   1.010   4.684
 1918SOL    HW1 6653   0.748   1.062   4.600
 1918SOL    HW2 6654   0.747   1.069   4.763
 1919SOL     OW 6655   1.685   1.582   1.194
 1919SOL    HW1 6656   1.642   1.496   1.222
 1919SOL    HW2 6657   1.749   1.611   1.265
 1920SOL     OW 6658   6.130   2.898   2.517
 1920SOL    HW1 6659   6.032   2.906   2.538
 1920SOL    HW2 6660   6.142   2.842   2.435
 1921SOL     OW 6661   1.275   3.343   6.985
 1921SOL    HW1 6662   1.241   3.434   7.010
 1921SOL    HW2 6663   1.346   3.353   6.915
 1922SOL     OW 6664   2.780   3.308   1.812
 1922SOL    HW1 6665   2.787   3.294   1.911
 1922SOL    HW2 6666   2.694   3.270   1.779
 1923SOL     OW 6667   4.560   1.366   0.270
 1923SOL    HW1 6668   4.641   1.313   0.244
 1923SOL    HW2 6669   4.534   1.427   0.195
 1924SOL     OW 6670   4.427   7.016   0.853
 1924SOL    HW1 6671   4.365   0.034   0.919
 1924SOL    HW2 6672   4.414   0.033   0.763
 1925SOL     OW 6673   1.051   4.712   1.558
 1925SOL    HW1 6674   0.970   4.767   1.534
 1925SOL    HW2 6675   1.062   4.710   1.657
 1926SOL     OW 6676   2.975   0.432   1.907
 1926SOL    HW1 6677   3.023   0.351   1.942
 1926SOL    HW2 6678   2.896   0.403   1.853
 1927SOL     OW 6679   2.421   3.633   0.908
 1927SOL    HW1 6680   2.333   3.673   0.882
 1927SOL    HW2 6681   2.494   3.681   0.860
 1928SOL     OW 6682   4.934   5.165   4.256
 1928SOL    HW1 6683   4.836   5.160   4.239
 1928SOL    HW2 6684   4.965   5.079   4.298
 1929SOL     OW 6685   2.749   0.643   2.042
 1929SOL    HW1 6686   2.756   0.703   2.121
 1929SOL    HW2 6687   2.715   0.553   2.070
 1930SOL     OW 6688   5.394   3.400   6.485
 1930SOL    HW1 6689   5.492   3.409   6.504
 1930SOL    HW2 6690   5.358   3.319   6.532
 1931SOL     OW 6691   0.899   2.082   6.767
 1931SOL    HW1 6692   0.917   2.177   6.791
 1931SOL    HW2 6693   0.841   2.078   6.685
 1932SOL     OW 6694   4.734   2.857   3.273
 1932SOL    HW1 6695   4.646   2.838   3.316
 1932SOL    HW2 6696   4.750   2.792   3.199
 1933SOL     OW 6697   0.603   1.834   0.372
 1933SOL    HW1 6698   0.579   1.759   0.310
 1933SOL    HW2 6699   0.669   1.895   0.327
 1934SOL     OW 6700   0.650   0.535   5.376
 1934SOL    HW1 6701   0.626   0.596   5.300
 1934SOL    HW2 6702   0.610   0.445   5.360
 1935SOL     OW 6703   4.645   4.738   3.717
 1935SOL    HW1 6704   4.549   4.713   3.713
 1935SOL    HW2 6705   4.681   4.720   3.809
 1936SOL     OW 6706   5.070   3.744   4.047
 1936SOL    HW1 6707   5.118   3.658   4.031
 1936SOL    HW2 6708   5.131   3.821   4.027
 1937SOL     OW 6709   4.534   6.266   6.776
 1937SOL    HW1 6710   4.483   6.261   6.689
 1937SOL    HW2 6711   4.595   6.345   6.773
 1938SOL     OW 6712   1.164   2.561   0.017
 1938SOL    HW1 6713   1.181   2.545   6.945
 1938SOL    HW2 6714   1.237   2.521   0.071
 1939SOL     OW 6715   0.318   5.625   4.511
 1939SOL    HW1 6716   0.235   5.594   4.465
 1939SOL    HW2 6717   0.324   5.724   4.507
 1940SOL     OW 6718   5.933   4.357   1.957
 1940SOL    HW1 6719   5.882   4.305   1.889
 1940SOL    HW2 6720   5.869   4.411   2.012
 1941SOL     OW 6721   0.117   2.612   3.619
 1941SOL    HW1 6722   0.182   2.599   3.695
 1941SOL    HW2 6723   0.133   2.543   3.550
 1942SOL     OW 6724   5.554   4.038   2.639
 1942SOL    HW1 6725   5.501   4.122   2.628
 1942SOL    HW2 6726   5.509   3.978   2.705
 1943SOL     OW 6727   1.536   1.516   2.165
 1943SOL    HW1 6728   1.462   1.567   2.209
 1943SOL    HW2 6729   1.539   1.423   2.202
 1944SOL     OW 6730   6.489   4.222   0.571
 1944SOL    HW1 6731   6.527   4.132   0.549
 1944SOL    HW2 6732   6.451   4.264   0.488
 1945SOL     OW 6733   4.006   6.619   0.686
 1945SOL    HW1 6734   4.058   6.596   0.768
 1945SOL    HW2 6735   4.001   6.719   0.676
 1946SOL     OW 6736   5.688   6.126   1.536
 1946SOL    HW1 6737   5.708   6.209   1.484
 1946SOL    HW2 6738   5.704   6.143   1.633
 1947SOL     OW 6739   6.686   5.475   3.970
 1947SOL    HW1 6740   6.702   5.458   4.067
 1947SOL    HW2 6741   6.665   5.572   3.956
 1948SOL     OW 6742   5.973   4.059   2.468
 1948SOL    HW1 6743   5.928   4.025   2.550
 1948SOL    HW2 6744   6.071   4.071   2.486
 1949SOL     OW 6745   4.013   4.307   0.430
 1949SOL    HW1 6746   4.050   4.225   0.385
 1949SOL    HW2 6747   4.088   4.371   0.448
 1950SOL     OW 6748   3.768   3.423   4.261
 1950SOL    HW1 6749   3.758   3.331   4.298
 1950SOL    HW2 6750   3.754   3.422   4.162
 1951SOL     OW 6751   6.559   4.106   5.405
 1951SOL    HW1 6752   6.545   4.020   5.356
 1951SOL    HW2 6753   6.628   4.093   5.476
 1952SOL     OW 6754   4.846   4.302   1.134
 1952SOL    HW1 6755   4.792   4.252   1.068
 1952SOL    HW2 6756   4.808   4.289   1.226
 1953SOL     OW 6757   6.847   1.613   6.434
 1953SOL    HW1 6758   6.905   1.660   6.501
 1953SOL    HW2 6759   6.783   1.554   6.482
 1954SOL     OW 6760   5.527   1.278   1.753
 1954SOL    HW1 6761   5.446   1.241   1.797
 1954SOL    HW2 6762   5.540   1.234   1.664
 1955SOL     OW 6763   0.521   1.490   1.480
 1955SOL    HW1 6764   0.528   1.566   1.546
 1955SOL    HW2 6765   0.426   1.462   1.472
 1956SOL     OW 6766   5.103   0.777   2.761
 1956SOL    HW1 6767   5.144   0.823   2.682
 1956SOL    HW2 6768   5.153   0.692   2.780
 1957SOL     OW 6769   4.892   3.273   4.047
 1957SOL    HW1 6770   4.984   3.238   4.035
 1957SOL    HW2 6771   4.893   3.349   4.113
 1958SOL     OW 6772   4.720   1.737   1.226
 1958SOL    HW1 6773   4.638   1.770   1.180
 1958SOL    HW2 6774   4.701   1.648   1.269
 1959SOL     OW 6775   6.451   6.955   3.915
 1959SOL    HW1 6776   6.473   0.001   3.848
 1959SOL    HW2 6777   6.352   6.946   3.922
 1960SOL     OW 6778   6.518   2.695   3.356
 1960SOL    HW1 6779   6.513   2.783   3.403
 1960SOL    HW2 6780   6.457   2.630   3.401
 1961SOL     OW 6781   6.402   4.481   4.749
 1961SOL    HW1 6782   6.342   4.433   4.685
 1961SOL    HW2 6783   6.396   4.438   4.839
 1962SOL     OW 6784   1.366   5.859   2.809
 1962SOL    HW1 6785   1.320   5.870   2.897
 1962SOL    HW2 6786   1.301   5.875   2.735
 1963SOL     OW 6787   0.761   1.302   1.860
 1963SOL    HW1 6788   0.787   1.209   1.836
 1963SOL    HW2 6789   0.818   1.335   1.935
 1964SOL     OW 6790   5.137   4.577   1.567
 1964SOL    HW1 6791   5.221   4.525   1.582
 1964SOL    HW2 6792   5.131   4.604   1.471
 1965SOL     OW 6793   0.720   3.698   3.833
 1965SOL    HW1 6794   0.715   3.798   3.827
 1965SOL    HW2 6795   0.788   3.664   3.767
 1966SOL     OW 6796   1.532   4.781   1.171
 1966SOL    HW1 6797   1.472   4.717   1.218
 1966SOL    HW2 6798   1.606   4.731   1.125
 1967SOL     OW 6799   6.541   2.349   3.878
 1967SOL    HW1 6800   6.593   2.432   3.855
 1967SOL    HW2 6801   6.461   2.343   3.819
 1968SOL     OW 6802   2.498   0.887   5.474
 1968SOL    HW1 6803   2.565   0.911   5.545
 1968SOL    HW2 6804   2.424   0.953   5.474
 1969SOL     OW 6805   3.354   0.958   2.091
 1969SOL    HW1 6806   3.342   0.877   2.148
 1969SOL    HW2 6807   3.268   1.008   2.084
 1970SOL     OW 6808   6.280   6.588   4.959
 1970SOL    HW1 6809   6.212   6.516   4.966
 1970SOL    HW2 6810   6.241   6.674   4.990
 1971SOL     OW 6811   1.036   6.877   5.912
 1971SOL    HW1 6812   1.119   6.931   5.903
 1971SOL    HW2 6813   0.958   6.929   5.876
 1972SOL     OW 6814   5.563   2.413   1.530
 1972SOL    HW1 6815   5.523   2.483   1.589
 1972SOL    HW2 6816   5.650   2.447   1.493
 1973SOL     OW 6817   2.569   3.436   1.462
 1973SOL    HW1 6818   2.641   3.476   1.519
 1973SOL    HW2 6819   2.533   3.505   1.400
 1974SOL     OW 6820   4.352   6.562   4.509
 1974SOL    HW1 6821   4.353   6.582   4.411
 1974SOL    HW2 6822   4.288   6.624   4.555
 1975SOL     OW 6823   2.129   2.926   3.569
 1975SOL    HW1 6824   2.152   3.016   3.606
 1975SOL    HW2 6825   2.105   2.864   3.644
 1976SOL     OW 6826   5.916   0.072   0.058
 1976SOL    HW1 6827   5.878   7.007   0.079
 1976SOL    HW2 6828   5.902   0.091   6.986
 1977SOL     OW 6829   2.811   3.135   6.685
 1977SOL    HW1 6830   2.835   3.213   6.744
 1977SOL    HW2 6831   2.849   3.150   6.594
 1978SOL     OW 6832   2.308   6.100   2.985
 1978SOL    HW1 6833   2.282   6.176   2.925
 1978SOL    HW2 6834   2.295   6.128   3.080
 1979SOL     OW 6835   5.985   5.174   0.001
 1979SOL    HW1 6836   5.994   5.107   6.952
 1979SOL    HW2 6837   6.035   5.143   0.081
 1980SOL     OW 6838   3.266   0.449   2.153
 1980SOL    HW1 6839   3.234   0.387   2.081
 1980SOL    HW2 6840   3.345   0.408   2.199
 1981SOL     OW 6841   5.083   2.873   2.755
 1981SOL    HW1 6842   5.022   2.892   2.679
 1981SOL    HW2 6843   5.089   2.774   2.769
 1982SOL     OW 6844   6.495   3.822   3.782
 1982SOL    HW1 6845   6.456   3.814   3.873
 1982SOL    HW2 6846   6.501   3.731   3.740
 1983SOL     OW 6847   0.603   0.074   1.068
 1983SOL    HW1 6848   0.542   0.079   1.147
 1983SOL    HW2 6849   0.630   7.004   1.054
 1984SOL     OW 6850   5.071   2.602   5.158
 1984SOL    HW1 6851   4.973   2.618   5.146
 1984SOL    HW2 6852   5.122   2.681   5.123
 1985SOL     OW 6853   6.397   4.958   1.848
 1985SOL    HW1 6854   6.336   5.035   1.829
 1985SOL    HW2 6855   6.379   4.923   1.940
 1986SOL     OW 6856   3.084   1.202   6.426
 1986SOL    HW1 6857   3.052   1.240   6.339
 1986SOL    HW2 6858   3.184   1.200   6.425
 1987SOL     OW 6859   1.825   1.205   4.112
 1987SOL    HW1 6860   1.893   1.203   4.185
 1987SOL    HW2 6861   1.800   1.111   4.087
 1988SOL     OW 6862   0.214   1.488   1.194
 1988SOL    HW1 6863   0.298   1.541   1.191
 1988SOL    HW2 6864   0.227   1.402   1.145
 1989SOL     OW 6865   3.040   5.704   4.785
 1989SOL    HW1 6866   3.066   5.800   4.777
 1989SOL    HW2 6867   3.108   5.655   4.839
 1990SOL     OW 6868   4.189   0.153   6.873
 1990SOL    HW1 6869   4.105   0.205   6.883
 1990SOL    HW2 6870   4.209   0.139   6.776
 1991SOL     OW 6871   2.942   5.827   0.202
 1991SOL    HW1 6872   2.882   5.848   0.280
 1991SOL    HW2 6873   2.941   5.729   0.184
 1992SOL     OW 6874   6.909   6.472   0.143
 1992SOL    HW1 6875   6.983   6.487   0.209
 1992SOL    HW2 6876   6.946   6.476   0.050
 1993SOL     OW 6877   2.289   2.779   4.582
 1993SOL    HW1 6878   2.266   2.832   4.663
 1993SOL    HW2 6879   2.216   2.714   4.562
 1994SOL     OW 6880   4.566   2.816   0.886
 1994SOL    HW1 6881   4.551   2.779   0.977
 1994SOL    HW2 6882   4.615   2.903   0.893
 1995SOL     OW 6883   5.457   2.479   4.569
 1995SOL    HW1 6884   5.379   2.488   4.508
 1995SOL    HW2 6885   5.542   2.477   4.515
 1996SOL     OW 6886   2.939   2.155   0.966
 1996SOL    HW1 6887   2.989   2.228   1.012
 1996SOL    HW2 6888   2.897   2.094   1.034
 1997SOL     OW 6889   3.172   1.261   3.996
 1997SOL    HW1 6890   3.236   1.312   4.053
 1997SOL    HW2 6891   3.149   1.316   3.915
 1998SOL     OW 6892   1.284   3.118   1.103
 1998SOL    HW1 6893   1.250   3.212   1.114
 1998SOL    HW2 6894   1.207   3.054   1.106
 1999SOL     OW 6895   0.395   0.680   4.830
 1999SOL    HW1 6896   0.387   0.601   4.891
 1999SOL    HW2 6897   0.338   0.754   4.865
 2000SOL     OW 6898   4.137   3.814   6.178
 2000SOL    HW1 6899   4.177   3.726   6.203
 2000SOL    HW2 6900   4.071   3.802   6.104
 2001SOL     OW 6901   1.815   1.982   6.621
 2001SOL    HW1 6902   1.765   1.917   6.564
 2001SOL    HW2 6903   1.759   2.009   6.699
 2002SOL     OW 6904   0.312   5.284   1.106
 2002SOL    HW1 6905   0.229   5.288   1.050
 2002SOL    HW2 6906   0.298   5.336   1.190
 2003SOL     OW 6907   6.397   5.319   2.084
 2003SOL    HW1 6908   6.405   5.413   2.116
 2003SOL    HW2 6909   6.334   5.315   2.006
 2004SOL     OW 6910   3.808   0.565   3.779
 2004SOL    HW1 6911   3.890   0.528   3.822
 2004SOL    HW2 6912   3.825   0.581   3.682
 2005SOL     OW 6913   0.004   6.176   0.239
 2005SOL    HW1 6914   0.049   6.100   0.194
 2005SOL    HW2 6915   6.964   6.219   0.176
 2006SOL     OW 6916   5.323   0.520   4.015
 2006SOL    HW1 6917   5.242   0.461   4.009
 2006SOL    HW2 6918   5.312   0.584   4.091
 2007SOL     OW 6919   4.692   4.571   1.127
 2007SOL    HW1 6920   4.618   4.554   1.063
 2007SOL    HW2 6921   4.757   4.494   1.125
 2008SOL     OW 6922   2.051   3.525   3.854
 2008SOL    HW1 6923   2.066   3.621   3.880
 2008SOL    HW2 6924   1.956   3.501   3.871
 2009SOL     OW 6925   6.011   6.272   1.813
 2009SOL    HW1 6926   6.041   6.219   1.734
 2009SOL    HW2 6927   5.991   6.210   1.889
 2010SOL     OW 6928   1.387   2.540   1.378
 2010SOL    HW1 6929   1.365   2.466   1.315
 2010SOL    HW2 6930   1.353   2.627   1.341
 2011SOL     OW 6931   0.194   6.929   5.702
 2011SOL    HW1 6932   0.190   6.910   5.800
 2011SOL    HW2 6933   0.216   0.000   5.687
 2012SOL     OW 6934   1.333   3.777   2.019
 2012SOL    HW1 6935   1.415   3.733   2.055
 2012SOL    HW2 6936   1.344   3.877   2.022
 2013SOL     OW 6937   0.054   2.814   3.198
 2013SOL    HW1 6938   6.998   2.830   3.142
 2013SOL    HW2 6939   0.135   2.812   3.139
 2014SOL     OW 6940   3.212   0.198   3.493
 2014SOL    HW1 6941   3.131   0.249   3.522
 2014SOL    HW2 6942   3.290   0.261   3.485
 2015SOL     OW 6943   3.769   0.999   1.409
 2015SOL    HW1 6944   3.673   0.971   1.399
 2015SOL    HW2 6945   3.807   0.957   1.491
 2016SOL     OW 6946   1.454   6.084   5.429
 2016SOL    HW1 6947   1.541   6.056   5.470
 2016SOL    HW2 6948   1.413   6.007   5.382
 2017SOL     OW 6949   4.488   0.081   3.254
 2017SOL    HW1 6950   4.431   0.031   3.318
 2017SOL    HW2 6951   4.431   0.116   3.179
 2018SOL     OW 6952   0.213   2.287   3.276
 2018SOL    HW1 6953   0.256   2.259   3.191
 2018SOL    HW2 6954   0.116   2.308   3.260
 2019SOL     OW 6955   6.018   5.061   6.771
 2019SOL    HW1 6956   6.100   5.003   6.765
 2019SOL    HW2 6957   5.939   5.010   6.737
 2020SOL     OW 6958   1.305   6.186   5.652
 2020SOL    HW1 6959   1.261   6.108   5.696
 2020SOL    HW2 6960   1.345   6.158   5.565
 2021SOL     OW 6961   6.363   6.315   3.168
 2021SOL    HW1 6962   6.413   6.397   3.195
 2021SOL    HW2 6963   6.280   6.306   3.223
 2022SOL     OW 6964   2.059   3.994   5.087
 2022SOL    HW1 6965   2.153   4.006   5.054
 2022SOL    HW2 6966   2.062   3.962   5.182
 2023SOL     OW 6967   6.934   0.162   6.964
 2023SOL    HW1 6968   6.898   0.208   6.882
 2023SOL    HW2 6969   6.879   0.190   0.018
 2024SOL     OW 6970   0.229   5.495   4.089
 2024SOL    HW1 6971   0.220   5.594   4.082
 2024SOL    HW2 6972   0.154   5.451   4.040
 2025SOL     OW 6973   2.598   0.914   4.244
 2025SOL    HW1 6974   2.564   0.821   4.233
 2025SOL    HW2 6975   2.567   0.951   4.332
 2026SOL     OW 6976   5.749   0.769   6.528
 2026SOL    HW1 6977   5.705   0.711   6.597
 2026SOL    HW2 6978   5.678   0.816   6.474
 2027SOL     OW 6979   0.789   5.973   1.486
 2027SOL    HW1 6980   0.820   5.891   1.534
 2027SOL    HW2 6981   0.702   5.956   1.441
 2028SOL     OW 6982   4.107   5.968   2.689
 2028SOL    HW1 6983   4.026   5.942   2.742
 2028SOL    HW2 6984   4.088   6.053   2.639
 2029SOL     OW 6985   0.033   1.997   6.782
 2029SOL    HW1 6986   0.100   1.924   6.769
 2029SOL    HW2 6987   0.080   2.084   6.797
 2030SOL     OW 6988   3.172   5.866   2.935
 2030SOL    HW1 6989   3.181   5.788   2.996
 2030SOL    HW2 6990   3.255   5.874   2.879
 2031SOL     OW 6991   6.741   5.798   2.772
 2031SOL    HW1 6992   6.765   5.701   2.763
 2031SOL    HW2 6993   6.810   5.844   2.828
 2032SOL     OW 6994   3.671   1.714   0.078
 2032SOL    HW1 6995   3.699   1.648   0.008
 2032SOL    HW2 6996   3.748   1.774   0.100
 2033SOL     OW 6997   1.094   0.970   0.866
 2033SOL    HW1 6998   0.996   0.987   0.875
 2033SOL    HW2 6999   1.110   0.902   0.795
 2034SOL     OW 7000   1.517   5.567   5.804
 2034SOL    HW1 7001   1.473   5.478   5.789
 2034SOL    HW2 7002   1.447   5.636   5.821
 2035SOL     OW 7003   6.545   6.825   1.783
 2035SOL    HW1 7004   6.445   6.829   1.789
 2035SOL    HW2 7005   6.573   6.832   1.687
 2036SOL     OW 7006   0.790   3.320   3.208
 2036SOL    HW1 7007   0.726   3.245   3.227
 2036SOL    HW2 7008   0.830   3.307   3.117
 2037SOL     OW 7009   0.136   3.120   6.286
 2037SOL    HW1 7010   0.041   3.100   6.262
 2037SOL    HW2 7011   0.161   3.210   6.249
 2038SOL     OW 7012   2.714   1.032   0.200
 2038SOL    HW1 7013   2.790   1.081   0.243
 2038SOL    HW2 7014   2.723   1.038   0.100
 2039SOL     OW 7015   0.015   5.821   2.401
 2039SOL    HW1 7016   6.952   5.773   2.393
 2039SOL    HW2 7017   0.010   5.887   2.475
 2040SOL     OW 7018   2.416   2.510   0.020
 2040SOL    HW1 7019   2.363   2.467   6.972
 2040SOL    HW2 7020   2.354   2.537   0.094
 2041SOL     OW 7021   1.796   0.059   5.890
 2041SOL    HW1 7022   1.720   0.091   5.947
 2041SOL    HW2 7023   1.764   7.009   5.832
 2042SOL     OW 7024   4.949   0.452   6.425
 2042SOL    HW1 7025   4.905   0.420   6.341
 2042SOL    HW2 7026   5.003   0.534   6.405
 2043SOL     OW 7027   0.081   2.515   1.345
 2043SOL    HW1 7028   0.035   2.602   1.361
 2043SOL    HW2 7029   0.180   2.529   1.343
 2044SOL     OW 7030   5.853   1.224   1.206
 2044SOL    HW1 7031   5.826   1.320   1.193
 2044SOL    HW2 7032   5.878   1.209   1.302
 2045SOL     OW 7033   1.963   5.578   5.841
 2045SOL    HW1 7034   2.003   5.650   5.898
 2045SOL    HW2 7035   1.869   5.560   5.870
 2046SOL     OW 7036   0.491   1.467   5.552
 2046SOL    HW1 7037   0.539   1.555   5.560
 2046SOL    HW2 7038   0.436   1.466   5.469
 2047SOL     OW 7039   6.350   2.585   0.329
 2047SOL    HW1 7040   6.409   2.604   0.251
 2047SOL    HW2 7041   6.256   2.609   0.307
 2048SOL     OW 7042   0.620   1.429   4.112
 2048SOL    HW1 7043   0.718   1.434   4.090
 2048SOL    HW2 7044   0.606   1.367   4.189
 2049SOL     OW 7045   4.341   1.382   4.397
 2049SOL    HW1 7046   4.317   1.471   4.361
 2049SOL    HW2 7047   4.440   1.369   4.390
 2050SOL     OW 7048   0.165   1.560   4.191
 2050SOL    HW1 7049   0.073   1.558   4.228
 2050SOL    HW2 7050   0.168   1.508   4.106
 2051SOL     OW 7051   3.103   0.091   0.927
 2051SOL    HW1 7052   3.097   7.021   0.896
 2051SOL    HW2 7053   3.182   0.135   0.884
 2052SOL     OW 7054   1.876   4.042   0.338
 2052SOL    HW1 7055   1.903   4.012   0.430
 2052SOL    HW2 7056   1.934   4.117   0.309
 2053SOL     OW 7057   1.261   5.206   4.235
 2053SOL    HW1 7058   1.292   5.111   4.248
 2053SOL    HW2 7059   1.290   5.261   4.313
 2054SOL     OW 7060   3.549   3.148   2.681
 2054SOL    HW1 7061   3.458   3.150   2.639
 2054SOL    HW2 7062   3.589   3.057   2.671
 2055SOL     OW 7063   1.175   2.513   4.736
 2055SOL    HW1 7064   1.171   2.492   4.834
 2055SOL    HW2 7065   1.094   2.566   4.711
 2056SOL     OW 7066   3.812   5.112   0.854
 2056SOL    HW1 7067   3.718   5.141   0.838
 2056SOL    HW2 7068   3.818   5.013   0.844
 2057SOL     OW 7069   5.822   2.462   4.504
 2057SOL    HW1 7070   5.763   2.385   4.532
 2057SOL    HW2 7071   5.875   2.494   4.582
 2058SOL     OW 7072   0.951   6.671   3.354
 2058SOL    HW1 7073   1.049   6.677   3.336
 2058SOL    HW2 7074   0.929   6.579   3.388
 2059SOL     OW 7075   2.597   0.288   5.575
 2059SOL    HW1 7076   2.576   0.233   5.494
 2059SOL    HW2 7077   2.559   0.380   5.564
 2060SOL     OW 7078   1.154   3.474   0.421
 2060SOL    HW1 7079   1.110   3.447   0.506
 2060SOL    HW2 7080   1.222   3.405   0.395
 2061SOL     OW 7081   2.014   2.241   2.412
 2061SOL    HW1 7082   1.965   2.216   2.329
 2061SOL    HW2 7083   2.071   2.164   2.441
 2062SOL     OW 7084   6.590   5.494   5.073
 2062SOL    HW1 7085   6.594   5.586   5.033
 2062SOL    HW2 7086   6.682   5.463   5.096
 2063SOL     OW 7087   1.656   6.864   5.127
 2063SOL    HW1 7088   1.689   6.957   5.114
 2063SOL    HW2 7089   1.678   6.833   5.220
 2064SOL     OW 7090   0.760   3.627   4.081
 2064SOL    HW1 7091   0.749   3.657   3.986
 2064SOL    HW2 7092   0.678   3.650   4.133
 2065SOL     OW 7093   4.676   2.783   5.690
 2065SOL    HW1 7094   4.747   2.829   5.637
 2065SOL    HW2 7095   4.596   2.842   5.699
 2066SOL     OW 7096   5.982   3.313   5.361
 2066SOL    HW1 7097   5.916   3.311   5.286
 2066SOL    HW2 7098   6.073   3.290   5.326
 2067SOL     OW 7099   6.285   4.755   1.350
 2067SOL    HW1 7100   6.321   4.816   1.421
 2067SOL    HW2 7101   6.208   4.703   1.387
 2068SOL     OW 7102   3.699   0.950   3.890
 2068SOL    HW1 7103   3.762   0.952   3.967
 2068SOL    HW2 7104   3.692   1.042   3.850
 2069SOL     OW 7105   6.749   1.580   4.173
 2069SOL    HW1 7106   6.698   1.514   4.118
 2069SOL    HW2 7107   6.810   1.632   4.114
 2070SOL     OW 7108   0.992   3.034   1.756
 2070SOL    HW1 7109   0.896   3.054   1.735
 2070SOL    HW2 7110   1.003   3.019   1.854
 2071SOL     OW 7111   6.167   1.405   5.911
 2071SOL    HW1 7112   6.171   1.348   5.994
 2071SOL    HW2 7113   6.201   1.496   5.932
 2072SOL     OW 7114   3.875   4.778   5.220
 2072SOL    HW1 7115   3.966   4.739   5.201
 2072SOL    HW2 7116   3.831   4.725   5.293
 2073SOL     OW 7117   3.956   6.230   6.783
 2073SOL    HW1 7118   3.936   6.180   6.868
 2073SOL    HW2 7119   3.896   6.196   6.710
 2074SOL     OW 7120   2.077   3.508   5.482
 2074SOL    HW1 7121   2.035   3.593   5.451
 2074SOL    HW2 7122   2.015   3.462   5.546
 2075SOL     OW 7123   6.850   2.059   1.979
 2075SOL    HW1 7124   6.892   1.971   1.956
 2075SOL    HW2 7125   6.913   2.113   2.034
 2076SOL     OW 7126   5.474   6.812   4.617
 2076SOL    HW1 7127   5.574   6.808   4.621
 2076SOL    HW2 7128   5.445   6.901   4.582
 2077SOL     OW 7129   0.362   3.271   1.545
 2077SOL    HW1 7130   0.421   3.229   1.476
 2077SOL    HW2 7131   0.367   3.217   1.629
 2078SOL     OW 7132   2.165   4.863   5.995
 2078SOL    HW1 7133   2.188   4.771   5.963
 2078SOL    HW2 7134   2.210   4.931   5.937
 2079SOL     OW 7135   5.291   1.618   2.028
 2079SOL    HW1 7136   5.333   1.534   2.063
 2079SOL    HW2 7137   5.244   1.598   1.943
 2080SOL     OW 7138   2.897   2.362   5.204
 2080SOL    HW1 7139   2.856   2.338   5.116
 2080SOL    HW2 7140   2.997   2.356   5.197
 2081SOL     OW 7141   0.458   6.933   3.176
 2081SOL    HW1 7142   0.364   6.914   3.202
 2081SOL    HW2 7143   0.492   6.861   3.116
 2082SOL     OW 7144   0.386   6.082   2.321
 2082SOL    HW1 7145   0.319   6.096   2.248
 2082SOL    HW2 7146   0.411   5.985   2.326
 2083SOL     OW 7147   0.289   6.272   3.960
 2083SOL    HW1 7148   0.324   6.327   4.037
 2083SOL    HW2 7149   0.245   6.333   3.894
 2084SOL     OW 7150   1.265   1.383   1.802
 2084SOL    HW1 7151   1.345   1.418   1.850
 2084SOL    HW2 7152   1.192   1.452   1.804
 2085SOL     OW 7153   5.238   5.982   6.943
 2085SOL    HW1 7154   5.298   5.953   7.018
 2085SOL    HW2 7155   5.289   6.044   6.883
 2086SOL     OW 7156   4.601   0.238   0.339
 2086SOL    HW1 7157   4.525   0.172   0.342
 2086SOL    HW2 7158   4.650   0.237   0.426
 2087SOL     OW 7159   4.348   2.032   0.023
 2087SOL    HW1 7160   4.274   2.096   0.038
 2087SOL    HW2 7161   4.313   1.950   7.002
 2088SOL     OW 7162   0.238   5.726   5.595
 2088SOL    HW1 7163   0.145   5.690   5.586
 2088SOL    HW2 7164   0.249   5.765   5.687
 2089SOL     OW 7165   3.415   3.285   5.870
 2089SOL    HW1 7166   3.323   3.248   5.883
 2089SOL    HW2 7167   3.410   3.385   5.865
 2090SOL     OW 7168   4.538   3.309   5.338
 2090SOL    HW1 7169   4.608   3.368   5.299
 2090SOL    HW2 7170   4.573   3.215   5.345
 2091SOL     OW 7171   6.292   5.937   1.494
 2091SOL    HW1 7172   6.349   5.857   1.511
 2091SOL    HW2 7173   6.224   5.917   1.424
 2092SOL     OW 7174   4.861   3.726   1.560
 2092SOL    HW1 7175   4.863   3.816   1.604
 2092SOL    HW2 7176   4.914   3.730   1.475
 2093SOL     OW 7177   3.948   2.072   2.561
 2093SOL    HW1 7178   3.914   2.040   2.649
 2093SOL    HW2 7179   3.871   2.092   2.501
 2094SOL     OW 7180   5.963   3.126   0.143
 2094SOL    HW1 7181   6.006   3.216   0.132
 2094SOL    HW2 7182   6.027   3.055   0.113
 2095SOL     OW 7183   6.086   6.265   4.035
 2095SOL    HW1 7184   6.124   6.197   3.972
 2095SOL    HW2 7185   5.994   6.238   4.063
 2096SOL     OW 7186   4.435   6.729   2.122
 2096SOL    HW1 7187   4.368   6.757   2.192
 2096SOL    HW2 7188   4.452   6.631   2.129
 2097SOL     OW 7189   1.961   4.565   6.909
 2097SOL    HW1 7190   1.979   4.578   7.007
 2097SOL    HW2 7191   2.009   4.636   6.857
 2098SOL     OW 7192   3.894   6.353   3.014
 2098SOL    HW1 7193   3.913   6.360   2.916
 2098SOL    HW2 7194   3.968   6.301   3.058
 2099SOL     OW 7195   4.950   1.249   0.107
 2099SOL    HW1 7196   4.939   1.165   0.160
 2099SOL    HW2 7197   4.928   1.230   0.011
 2100SOL     OW 7198   5.553   1.246   0.221
 2100SOL    HW1 7199   5.602   1.320   0.174
 2100SOL    HW2 7200   5.507   1.283   0.302
 2101SOL     OW 7201   0.039   6.507   1.603
 2101SOL    HW1 7202   6.984   6.502   1.662
 2101SOL    HW2 7203   0.116   6.543   1.655
 2102SOL     OW 7204   4.239   3.475   1.197
 2102SOL    HW1 7205   4.330   3.468   1.237
 2102SOL    HW2 7206   4.247   3.491   1.099
 2103SOL     OW 7207   3.103   6.000   0.065
 2103SOL    HW1 7208   3.054   5.929   0.115
 2103SOL    HW2 7209   3.115   5.972   6.995
 2104SOL     OW 7210   0.921   4.841   2.859
 2104SOL    HW1 7211   0.888   4.875   2.947
 2104SOL    HW2 7212   0.994   4.774   2.875
 2105SOL     OW 7213   4.942   4.444   7.013
 2105SOL    HW1 7214   4.958   4.513   6.943
 2105SOL    HW2 7215   4.987   4.359   6.987
 2106SOL     OW 7216   4.956   3.436   2.142
 2106SOL    HW1 7217   5.014   3.371   2.190
 2106SOL    HW2 7218   4.863   3.401   2.138
 2107SOL     OW 7219   5.415   3.796   5.427
 2107SOL    HW1 7220   5.450   3.889   5.440
 2107SOL    HW2 7221   5.489   3.730   5.440
 2108SOL     OW 7222   5.545   6.833   6.155
 2108SOL    HW1 7223   5.636   6.824   6.115
 2108SOL    HW2 7224   5.483   6.767   6.113
 2109SOL     OW 7225   3.219   5.627   3.064
 2109SOL    HW1 7226   3.176   5.563   3.000
 2109SOL    HW2 7227   3.316   5.603   3.075
 2110SOL     OW 7228   3.339   0.576   6.653
 2110SOL    HW1 7229   3.438   0.563   6.649
 2110SOL    HW2 7230   3.300   0.555   6.563
 2111SOL     OW 7231   1.112   3.173   5.176
 2111SOL    HW1 7232   1.166   3.177   5.260
 2111SOL    HW2 7233   1.165   3.210   5.100
 2112SOL     OW 7234   7.010   1.463   0.585
 2112SOL    HW1 7235   7.011   1.483   0.683
 2112SOL    HW2 7236   7.008   1.548   0.533
 2113SOL     OW 7237   1.778   0.020   4.404
 2113SOL    HW1 7238   1.825   0.082   4.341
 2113SOL    HW2 7239   1.843   6.979   4.441
 2114SOL     OW 7240   1.795   2.796   6.708
 2114SOL    HW1 7241   1.836   2.737   6.777
 2114SOL    HW2 7242   1.846   2.882   6.703
 2115SOL     OW 7243   0.536   5.389   3.239
 2115SOL    HW1 7244   0.602   5.443   3.186
 2115SOL    HW2 7245   0.578   5.302   3.265
 2116SOL     OW 7246   1.155   2.062   6.790
 2116SOL    HW1 7247   1.056   2.046   6.785
 2116SOL    HW2 7248   1.178   2.095   6.882
 2117SOL     OW 7249   5.611   1.711   2.552
 2117SOL    HW1 7250   5.548   1.662   2.492
 2117SOL    HW2 7251   5.644   1.793   2.506
 2118SOL     OW 7252   6.699   3.352   2.376
 2118SOL    HW1 7253   6.705   3.417   2.452
 2118SOL    HW2 7254   6.618   3.373   2.321
 2119SOL     OW 7255   2.259   0.308   6.743
 2119SOL    HW1 7256   2.346   0.264   6.766
 2119SOL    HW2 7257   2.264   0.345   6.650
 2120SOL     OW 7258   5.992   1.788   1.199
 2120SOL    HW1 7259   5.913   1.843   1.172
 2120SOL    HW2 7260   6.033   1.748   1.117
 2121SOL     OW 7261   1.959   1.216   5.997
 2121SOL    HW1 7262   1.963   1.297   5.940
 2121SOL    HW2 7263   2.051   1.184   6.017
 2122SOL     OW 7264   6.168   0.407   5.098
 2122SOL    HW1 7265   6.191   0.388   5.193
 2122SOL    HW2 7266   6.214   0.341   5.039
 2123SOL     OW 7267   1.175   6.215   2.866
 2123SOL    HW1 7268   1.117   6.289   2.834
 2123SOL    HW2 7269   1.261   6.216   2.815
 2124SOL     OW 7270   3.231   2.809   5.643
 2124SOL    HW1 7271   3.280   2.845   5.564
 2124SOL    HW2 7272   3.194   2.885   5.697
 2125SOL     OW 7273   1.532   5.756   3.607
 2125SOL    HW1 7274   1.514   5.723   3.514
 2125SOL    HW2 7275   1.610   5.818   3.606
 2126SOL     OW 7276   3.793   3.775   6.961
 2126SOL    HW1 7277   3.693   3.775   6.955
 2126SOL    HW2 7278   3.832   3.760   6.870
 2127SOL     OW 7279   0.446   2.818   5.946
 2127SOL    HW1 7280   0.490   2.888   5.890
 2127SOL    HW2 7281   0.351   2.808   5.918
 2128SOL     OW 7282   5.210   3.489   1.805
 2128SOL    HW1 7283   5.265   3.564   1.768
 2128SOL    HW2 7284   5.206   3.415   1.739
 2129SOL     OW 7285   5.133   4.233   3.645
 2129SOL    HW1 7286   5.165   4.140   3.662
 2129SOL    HW2 7287   5.208   4.298   3.661
 2130SOL     OW 7288   1.882   1.033   2.297
 2130SOL    HW1 7289   1.960   1.031   2.360
 2130SOL    HW2 7290   1.846   1.126   2.292
 2131SOL     OW 7291   5.591   1.643   5.894
 2131SOL    HW1 7292   5.589   1.631   5.993
 2131SOL    HW2 7293   5.529   1.718   5.868
 2132SOL     OW 7294   2.524   1.814   7.002
 2132SOL    HW1 7295   2.502   1.869   0.057
 2132SOL    HW2 7296   2.546   1.721   0.005
 2133SOL     OW 7297   2.319   1.696   1.701
 2133SOL    HW1 7298   2.400   1.692   1.760
 2133SOL    HW2 7299   2.253   1.626   1.729
 2134SOL     OW 7300   0.936   6.152   4.771
 2134SOL    HW1 7301   0.958   6.082   4.839
 2134SOL    HW2 7302   0.849   6.130   4.727
 2135SOL     OW 7303   0.680   0.993   3.372
 2135SOL    HW1 7304   0.686   1.008   3.471
 2135SOL    HW2 7305   0.768   0.961   3.338
 2136SOL     OW 7306   0.811   3.485   4.651
 2136SOL    HW1 7307   0.786   3.580   4.668
 2136SOL    HW2 7308   0.774   3.427   4.723
 2137SOL     OW 7309   1.270   6.909   5.480
 2137SOL    HW1 7310   1.295   6.813   5.495
 2137SOL    HW2 7311   1.171   6.919   5.486
 2138SOL     OW 7312   6.859   2.858   0.549
 2138SOL    HW1 7313   6.808   2.792   0.605
 2138SOL    HW2 7314   6.951   2.823   0.532
 2139SOL     OW 7315   3.233   0.668   4.717
 2139SOL    HW1 7316   3.169   0.744   4.709
 2139SOL    HW2 7317   3.325   0.703   4.738
 2140SOL     OW 7318   2.443   6.276   3.573
 2140SOL    HW1 7319   2.468   6.366   3.539
 2140SOL    HW2 7320   2.410   6.283   3.667
 2141SOL     OW 7321   5.991   2.820   0.931
 2141SOL    HW1 7322   5.927   2.880   0.978
 2141SOL    HW2 7323   5.941   2.745   0.887
 2142SOL     OW 7324   1.868   1.825   3.616
 2142SOL    HW1 7325   1.891   1.780   3.702
 2142SOL    HW2 7326   1.815   1.908   3.636
 2143SOL     OW 7327   3.463   0.144   1.563
 2143SOL    HW1 7328   3.519   0.226   1.575
 2143SOL    HW2 7329   3.388   0.163   1.501
 2144SOL     OW 7330   1.131   0.994   3.496
 2144SOL    HW1 7331   1.125   1.090   3.523
 2144SOL    HW2 7332   1.199   0.984   3.423
 2145SOL     OW 7333   3.509   5.472   3.728
 2145SOL    HW1 7334   3.476   5.388   3.684
 2145SOL    HW2 7335   3.566   5.449   3.807
 2146SOL     OW 7336   3.246   2.872   1.900
 2146SOL    HW1 7337   3.345   2.880   1.903
 2146SOL    HW2 7338   3.220   2.776   1.907
 2147SOL     OW 7339   0.418   1.673   6.305
 2147SOL    HW1 7340   0.393   1.645   6.212
 2147SOL    HW2 7341   0.504   1.630   6.331
 2148SOL     OW 7342   4.845   3.717   3.903
 2148SOL    HW1 7343   4.857   3.631   3.854
 2148SOL    HW2 7344   4.920   3.730   3.968
 2149SOL     OW 7345   3.822   1.119   2.352
 2149SOL    HW1 7346   3.814   1.177   2.433
 2149SOL    HW2 7347   3.779   1.164   2.274
 2150SOL     OW 7348   3.422   2.091   3.404
 2150SOL    HW1 7349   3.359   2.113   3.478
 2150SOL    HW2 7350   3.457   1.998   3.417
 2151SOL     OW 7351   3.899   2.560   5.702
 2151SOL    HW1 7352   3.815   2.532   5.748
 2151SOL    HW2 7353   3.876   2.595   5.611
 2152SOL     OW 7354   6.219   6.707   2.061
 2152SOL    HW1 7355   6.228   6.610   2.082
 2152SOL    HW2 7356   6.278   6.731   1.984
 2153SOL     OW 7357   4.767   1.878   3.660
 2153SOL    HW1 7358   4.681   1.882   3.711
 2153SOL    HW2 7359   4.772   1.791   3.610
 2154SOL     OW 7360   2.926   5.967   4.360
 2154SOL    HW1 7361   2.939   5.870   4.379
 2154SOL    HW2 7362   2.838   5.997   4.398
 2155SOL     OW 7363   1.489   4.279   0.404
 2155SOL    HW1 7364   1.397   4.306   0.373
 2155SOL    HW2 7365   1.510   4.188   0.369
 2156SOL     OW 7366   1.648   0.347   2.347
 2156SOL    HW1 7367   1.595   0.373   2.267
 2156SOL    HW2 7368   1.591   0.352   2.429
 2157SOL     OW 7369   6.916   1.229   5.155
 2157SOL    HW1 7370   7.013   1.205   5.144
 2157SOL    HW2 7371   6.909   1.318   5.201
 2158SOL     OW 7372   3.973   0.200   1.078
 2158SOL    HW1 7373   3.963   0.290   1.122
 2158SOL    HW2 7374   4.070   0.175   1.077
 2159SOL     OW 7375   1.425   6.968   4.727
 2159SOL    HW1 7376   1.486   6.978   4.805
 2159SOL    HW2 7377   1.400   0.033   4.692
 2160SOL     OW 7378   3.152   4.293   1.207
 2160SOL    HW1 7379   3.249   4.269   1.217
 2160SOL    HW2 7380   3.135   4.326   1.114
 2161SOL     OW 7381   4.927   3.461   3.731
 2161SOL    HW1 7382   4.881   3.391   3.785
 2161SOL    HW2 7383   4.869   3.488   3.654
 2162SOL     OW 7384   1.804   0.799   6.741
 2162SOL    HW1 7385   1.860   0.760   6.668
 2162SOL    HW2 7386   1.767   0.726   6.798
 2163SOL     OW 7387   1.693   0.627   0.244
 2163SOL    HW1 7388   1.633   0.547   0.244
 2163SOL    HW2 7389   1.781   0.603   0.204
 2164SOL     OW 7390   1.988   0.582   6.625
 2164SOL    HW1 7391   2.046   0.590   6.543
 2164SOL    HW2 7392   1.893   0.568   6.597
 2165SOL     OW 7393   1.298   0.262   2.353
 2165SOL    HW1 7394   1.352   0.333   2.397
 2165SOL    HW2 7395   1.352   0.218   2.281
 2166SOL     OW 7396   1.529   2.337   5.111
 2166SOL    HW1 7397   1.493   2.298   5.196
 2166SOL    HW2 7398   1.576   2.266   5.059
 2167SOL     OW 7399   3.576   0.630   2.052
 2167SOL    HW1 7400   3.497   0.615   2.111
 2167SOL    HW2 7401   3.617   0.719   2.074
 2168SOL     OW 7402   5.857   3.478   4.488
 2168SOL    HW1 7403   5.866   3.381   4.463
 2168SOL    HW2 7404   5.936   3.505   4.543
 2169SOL     OW 7405   5.042   2.464   6.272
 2169SOL    HW1 7406   5.013   2.374   6.305
 2169SOL    HW2 7407   4.966   2.528   6.280
 2170SOL     OW 7408   4.709   5.093   4.856
 2170SOL    HW1 7409   4.628   5.037   4.842
 2170SOL    HW2 7410   4.785   5.054   4.804
 2171SOL     OW 7411   6.852   3.559   0.293
 2171SOL    HW1 7412   6.916   3.548   0.217
 2171SOL    HW2 7413   6.777   3.493   0.283
 2172SOL     OW 7414   3.303   1.153   0.877
 2172SOL    HW1 7415   3.314   1.247   0.910
 2172SOL    HW2 7416   3.279   1.154   0.780
 2173SOL     OW 7417   4.664   1.478   5.261
 2173SOL    HW1 7418   4.572   1.454   5.231
 2173SOL    HW2 7419   4.722   1.396   5.260
 2174SOL     OW 7420   6.429   4.725   4.870
 2174SOL    HW1 7421   6.435   4.642   4.815
 2174SOL    HW2 7422   6.464   4.802   4.816
 2175SOL     OW 7423   2.818   0.168   3.972
 2175SOL    HW1 7424   2.855   0.179   4.064
 2175SOL    HW2 7425   2.787   0.257   3.939
 2176SOL     OW 7426   2.116   2.563   3.267
 2176SOL    HW1 7427   2.127   2.585   3.170
 2176SOL    HW2 7428   2.183   2.614   3.321
 2177SOL     OW 7429   0.321   2.041   0.743
 2177SOL    HW1 7430   0.294   2.123   0.693
 2177SOL    HW2 7431   0.239   1.992   0.773
 2178SOL     OW 7432   0.974   4.404   0.475
 2178SOL    HW1 7433   1.041   4.331   0.466
 2178SOL    HW2 7434   0.916   4.387   0.555
 2179SOL     OW 7435   1.718   5.212   4.450
 2179SOL    HW1 7436   1.791   5.149   4.422
 2179SOL    HW2 7437   1.753   5.306   4.448
 2180SOL     OW 7438   3.228   4.070   2.361
 2180SOL    HW1 7439   3.254   4.048   2.455
 2180SOL    HW2 7440   3.197   4.165   2.357
 2181SOL     OW 7441   5.415   6.139   5.407
 2181SOL    HW1 7442   5.388   6.235   5.408
 2181SOL    HW2 7443   5.345   6.085   5.455
 2182SOL     OW 7444   6.815   3.506   6.146
 2182SOL    HW1 7445   6.889   3.531   6.209
 2182SOL    HW2 7446   6.817   3.566   6.066
 2183SOL     OW 7447   3.115   2.770   0.608
 2183SOL    HW1 7448   3.214   2.755   0.612
 2183SOL    HW2 7449   3.095   2.862   0.642
 2184SOL     OW 7450   3.891   2.161   6.268
 2184SOL    HW1 7451   3.818   2.214   6.224
 2184SOL    HW2 7452   3.859   2.127   6.356
 2185SOL     OW 7453   1.645   0.493   1.120
 2185SOL    HW1 7454   1.700   0.434   1.061
 2185SOL    HW2 7455   1.585   0.550   1.063
 2186SOL     OW 7456   0.053   5.587   3.170
 2186SOL    HW1 7457   0.000   5.504   3.184
 2186SOL    HW2 7458   0.132   5.567   3.112
 2187SOL     OW 7459   6.504   1.554   0.508
 2187SOL    HW1 7460   6.557   1.470   0.519
 2187SOL    HW2 7461   6.409   1.530   0.486
 2188SOL     OW 7462   5.694   6.674   3.661
 2188SOL    HW1 7463   5.690   6.604   3.733
 2188SOL    HW2 7464   5.611   6.730   3.664
 2189SOL     OW 7465   2.211   6.921   5.841
 2189SOL    HW1 7466   2.252   6.961   5.759
 2189SOL    HW2 7467   2.197   6.992   5.910
 2190SOL     OW 7468   5.996   2.384   1.589
 2190SOL    HW1 7469   6.066   2.312   1.597
 2190SOL    HW2 7470   6.006   2.448   1.664
 2191SOL     OW 7471   3.406   2.988   6.505
 2191SOL    HW1 7472   3.311   2.989   6.474
 2191SOL    HW2 7473   3.452   3.072   6.476
 2192SOL     OW 7474   4.205   5.895   5.105
 2192SOL    HW1 7475   4.237   5.801   5.091
 2192SOL    HW2 7476   4.242   5.953   5.033
 2193SOL     OW 7477   0.827   5.173   5.591
 2193SOL    HW1 7478   0.818   5.143   5.496
 2193SOL    HW2 7479   0.749   5.231   5.615
 2194SOL     OW 7480   2.364   6.326   1.045
 2194SOL    HW1 7481   2.438   6.386   1.014
 2194SOL    HW2 7482   2.388   6.288   1.134
 2195SOL     OW 7483   1.284   5.442   2.998
 2195SOL    HW1 7484   1.235   5.395   2.925
 2195SOL    HW2 7485   1.379   5.411   3.000
 2196SOL     OW 7486   3.428   1.670   6.025
 2196SOL    HW1 7487   3.383   1.595   5.977
 2196SOL    HW2 7488   3.449   1.743   5.960
 2197SOL     OW 7489   4.791   4.916   1.688
 2197SOL    HW1 7490   4.879   4.875   1.663
 2197SOL    HW2 7491   4.723   4.896   1.617
 2198SOL     OW 7492   6.444   4.376   0.341
 2198SOL    HW1 7493   6.439   4.368   0.242
 2198SOL    HW2 7494   6.525   4.428   0.367
 2199SOL     OW 7495   4.601   6.835   1.434
 2199SOL    HW1 7496   4.581   6.932   1.446
 2199SOL    HW2 7497   4.521   6.789   1.396
 2200SOL     OW 7498   3.587   0.841   4.211
 2200SOL    HW1 7499   3.562   0.745   4.221
 2200SOL    HW2 7500   3.645   0.852   4.130
 2201SOL     OW 7501   6.049   3.216   2.119
 2201SOL    HW1 7502   6.042   3.116   2.117
 2201SOL    HW2 7503   6.062   3.250   2.025
 2202SOL     OW 7504   4.400   5.827   3.547
 2202SOL    HW1 7505   4.346   5.745   3.528
 2202SOL    HW2 7506   4.497   5.802   3.554
 2203SOL     OW 7507   3.725   2.021   3.267
 2203SOL    HW1 7508   3.629   2.047   3.256
 2203SOL    HW2 7509   3.735   1.923   3.252
 2204SOL     OW 7510   3.177   2.202   0.396
 2204SOL    HW1 7511   3.227   2.283   0.428
 2204SOL    HW2 7512   3.209   2.122   0.447
 2205SOL     OW 7513   3.095   7.016   0.606
 2205SOL    HW1 7514   3.162   7.023   0.533
 2205SOL    HW2 7515   3.104   6.928   0.653
 2206SOL     OW 7516   3.064   2.985   6.823
 2206SOL    HW1 7517   3.042   2.892   6.793
 2206SOL    HW2 7518   3.010   3.008   6.904
 2207SOL     OW 7519   1.151   4.519   6.408
 2207SOL    HW1 7520   1.196   4.438   6.444
 2207SOL    HW2 7521   1.052   4.512   6.421
 2208SOL     OW 7522   0.514   3.698   1.805
 2208SOL    HW1 7523   0.552   3.746   1.725
 2208SOL    HW2 7524   0.415   3.712   1.807
 2209SOL     OW 7525   0.936   5.395   6.115
 2209SOL    HW1 7526   0.862   5.389   6.182
 2209SOL    HW2 7527   0.983   5.307   6.109
 2210SOL     OW 7528   1.185   5.886   4.010
 2210SOL    HW1 7529   1.134   5.971   4.020
 2210SOL    HW2 7530   1.259   5.899   3.944
 2211SOL     OW 7531   5.846   1.067   5.598
 2211SOL    HW1 7532   5.762   1.033   5.557
 2211SOL    HW2 7533   5.902   1.109   5.527
 2212SOL     OW 7534   1.493   0.486   6.643
 2212SOL    HW1 7535   1.470   0.484   6.546
 2212SOL    HW2 7536   1.412   0.509   6.696
 2213SOL     OW 7537   3.865   2.180   3.435
 2213SOL    HW1 7538   3.813   2.120   3.374
 2213SOL    HW2 7539   3.935   2.228   3.382
 2214SOL     OW 7540   5.319   0.093   4.529
 2214SOL    HW1 7541   5.392   0.123   4.590
 2214SOL    HW2 7542   5.305   0.163   4.458
 2215SOL     OW 7543   6.814   2.422   5.050
 2215SOL    HW1 7544   6.861   2.471   4.977
 2215SOL    HW2 7545   6.832   2.324   5.040
 2216SOL     OW 7546   1.292   6.558   1.036
 2216SOL    HW1 7547   1.374   6.589   1.085
 2216SOL    HW2 7548   1.232   6.635   1.018
 2217SOL     OW 7549   4.343   6.770   1.358
 2217SOL    HW1 7550   4.297   6.829   1.424
 2217SOL    HW2 7551   4.318   6.798   1.265
 2218SOL     OW 7552   0.743   5.670   6.951
 2218SOL    HW1 7553   0.661   5.665   6.895
 2218SOL    HW2 7554   0.812   5.608   6.915
 2219SOL     OW 7555   2.122   3.756   3.062
 2219SOL    HW1 7556   2.171   3.670   3.073
 2219SOL    HW2 7557   2.047   3.744   2.996
 2220SOL     OW 7558   0.398   1.548   6.062
 2220SOL    HW1 7559   0.306   1.522   6.088
 2220SOL    HW2 7560   0.437   1.479   6.001
 2221SOL     OW 7561   6.417   2.298   1.442
 2221SOL    HW1 7562   6.322   2.283   1.415
 2221SOL    HW2 7563   6.468   2.337   1.366
 2222SOL     OW 7564   4.584   6.920   2.003
 2222SOL    HW1 7565   4.519   6.850   2.032
 2222SOL    HW2 7566   4.651   6.880   1.942
 2223SOL     OW 7567   5.775   5.064   3.559
 2223SOL    HW1 7568   5.715   5.035   3.634
 2223SOL    HW2 7569   5.864   5.090   3.596
 2224SOL     OW 7570   2.064   4.629   1.706
 2224SOL    HW1 7571   2.044   4.671   1.795
 2224SOL    HW2 7572   2.089   4.533   1.720
 2225SOL     OW 7573   6.310   4.906   2.099
 2225SOL    HW1 7574   6.247   4.828   2.099
 2225SOL    HW2 7575   6.364   4.905   2.183
 2226SOL     OW 7576   3.646   3.854   0.747
 2226SOL    HW1 7577   3.742   3.870   0.770
 2226SOL    HW2 7578   3.605   3.794   0.816
 2227SOL     OW 7579   6.733   3.871   5.401
 2227SOL    HW1 7580   6.714   3.820   5.485
 2227SOL    HW2 7581   6.657   3.861   5.338
 2228SOL     OW 7582   2.940   4.642   6.199
 2228SOL    HW1 7583   3.010   4.695   6.245
 2228SOL    HW2 7584   2.865   4.702   6.172
 2229SOL     OW 7585   4.210   0.763   3.449
 2229SOL    HW1 7586   4.248   0.838   3.395
 2229SOL    HW2 7587   4.265   0.751   3.532
 2230SOL     OW 7588   1.122   6.447   6.043
 2230SOL    HW1 7589   1.135   6.367   6.101
 2230SOL    HW2 7590   1.066   6.422   5.963
 2231SOL     OW 7591   2.316   0.128   1.959
 2231SOL    HW1 7592   2.254   0.204   1.979
 2231SOL    HW2 7593   2.282   0.045   2.003
 2232SOL     OW 7594   6.410   2.738   2.160
 2232SOL    HW1 7595   6.331   2.743   2.221
 2232SOL    HW2 7596   6.482   2.683   2.203
 2233SOL     OW 7597   3.690   6.982   0.087
 2233SOL    HW1 7598   3.734   6.994   7.023
 2233SOL    HW2 7599   3.743   0.005   0.157
 2234SOL     OW 7600   3.761   1.545   0.688
 2234SOL    HW1 7601   3.687   1.480   0.672
 2234SOL    HW2 7602   3.758   1.577   0.783
 2235SOL     OW 7603   1.174   6.756   0.611
 2235SOL    HW1 7604   1.158   6.690   0.685
 2235SOL    HW2 7605   1.103   6.826   0.613
 2236SOL     OW 7606   0.519   4.173   1.185
 2236SOL    HW1 7607   0.513   4.245   1.116
 2236SOL    HW2 7608   0.490   4.086   1.144
 2237SOL     OW 7609   5.980   2.879   4.660
 2237SOL    HW1 7610   5.996   2.951   4.727
 2237SOL    HW2 7611   5.909   2.817   4.694
 2238SOL     OW 7612   0.608   5.824   2.091
 2238SOL    HW1 7613   0.575   5.751   2.030
 2238SOL    HW2 7614   0.556   5.822   2.176
 2239SOL     OW 7615   4.400   5.075   3.050
 2239SOL    HW1 7616   4.417   5.172   3.071
 2239SOL    HW2 7617   4.328   5.040   3.110
 2240SOL     OW 7618   5.549   4.832   2.532
 2240SOL    HW1 7619   5.631   4.842   2.588
 2240SOL    HW2 7620   5.471   4.873   2.580
 2241SOL     OW 7621   0.162   6.777   2.043
 2241SOL    HW1 7622   0.198   6.862   2.005
 2241SOL    HW2 7623   0.067   6.791   2.071
 2242SOL     OW 7624   4.921   1.984   3.091
 2242SOL    HW1 7625   4.954   2.076   3.070
 2242SOL    HW2 7626   4.986   1.916   3.059
 2243SOL     OW 7627   2.769   5.832   4.719
 2243SOL    HW1 7628   2.861   5.794   4.731
 2243SOL    HW2 7629   2.753   5.903   4.788
 2244SOL     OW 7630   2.880   0.665   4.417
 2244SOL    HW1 7631   2.797   0.653   4.471
 2244SOL    HW2 7632   2.889   0.762   4.392
 2245SOL     OW 7633   1.142   0.947   2.322
 2245SOL    HW1 7634   1.079   0.871   2.334
 2245SOL    HW2 7635   1.214   0.922   2.257
 2246SOL     OW 7636   0.729   4.259   6.183
 2246SOL    HW1 7637   0.709   4.331   6.117
 2246SOL    HW2 7638   0.823   4.267   6.215
 2247SOL     OW 7639   2.548   2.879   6.306
 2247SOL    HW1 7640   2.483   2.833   6.366
 2247SOL    HW2 7641   2.638   2.837   6.316
 2248SOL     OW 7642   4.630   3.681   5.924
 2248SOL    HW1 7643   4.692   3.606   5.944
 2248SOL    HW2 7644   4.649   3.718   5.832
 2249SOL     OW 7645   5.239   5.808   3.473
 2249SOL    HW1 7646   5.151   5.796   3.519
 2249SOL    HW2 7647   5.234   5.771   3.380
 2250SOL     OW 7648   0.102   4.343   0.692
 2250SOL    HW1 7649   0.022   4.290   0.721
 2250SOL    HW2 7650   0.109   4.425   0.749
 2251SOL     OW 7651   5.552   0.984   0.167
 2251SOL    HW1 7652   5.458   0.954   0.182
 2251SOL    HW2 7653   5.563   1.078   0.199
 2252SOL     OW 7654   4.821   2.574   5.630
 2252SOL    HW1 7655   4.879   2.529   5.698
 2252SOL    HW2 7656   4.769   2.647   5.674
 2253SOL     OW 7657   2.551   3.112   0.187
 2253SOL    HW1 7658   2.564   3.203   0.226
 2253SOL    HW2 7659   2.552   3.118   0.087
 2254SOL     OW 7660   2.928   3.961   6.196
 2254SOL    HW1 7661   2.905   4.044   6.246
 2254SOL    HW2 7662   2.918   3.881   6.256
 2255SOL     OW 7663   6.039   2.810   1.505
 2255SOL    HW1 7664   6.083   2.895   1.534
 2255SOL    HW2 7665   6.104   2.755   1.453
 2256SOL     OW 7666   4.332   4.776   1.974
 2256SOL    HW1 7667   4.381   4.689   1.986
 2256SOL    HW2 7668   4.391   4.841   1.925
 2257SOL     OW 7669   1.793   4.104   3.850
 2257SOL    HW1 7670   1.850   4.170   3.802
 2257SOL    HW2 7671   1.710   4.150   3.883
 2258SOL     OW 7672   1.882   5.593   4.417
 2258SOL    HW1 7673   1.783   5.581   4.431
 2258SOL    HW2 7674   1.917   5.661   4.481
 2259SOL     OW 7675   5.031   3.898   6.683
 2259SOL    HW1 7676   5.035   3.858   6.775
 2259SOL    HW2 7677   5.055   3.828   6.616
 2260SOL     OW 7678   5.498   4.888   1.350
 2260SOL    HW1 7679   5.594   4.909   1.334
 2260SOL    HW2 7680   5.450   4.882   1.263
 2261SOL     OW 7681   5.217   0.032   0.230
 2261SOL    HW1 7682   5.311   7.024   0.222
 2261SOL    HW2 7683   5.171   7.010   0.306
 2262SOL     OW 7684   4.768   2.247   3.612
 2262SOL    HW1 7685   4.775   2.272   3.708
 2262SOL    HW2 7686   4.846   2.191   3.586
 2263SOL     OW 7687   1.067   5.241   5.717
 2263SOL    HW1 7688   0.987   5.196   5.678
 2263SOL    HW2 7689   1.099   5.313   5.655
 2264SOL     OW 7690   3.226   3.475   4.488
 2264SOL    HW1 7691   3.169   3.553   4.515
 2264SOL    HW2 7692   3.291   3.504   4.418
 2265SOL     OW 7693   6.925   6.965   1.934
 2265SOL    HW1 7694   6.828   6.979   1.953
 2265SOL    HW2 7695   6.940   6.957   1.836
 2266SOL     OW 7696   5.955   0.525   0.576
 2266SOL    HW1 7697   5.890   0.600   0.584
 2266SOL    HW2 7698   6.033   0.541   0.637
 2267SOL     OW 7699   6.411   2.782   5.780
 2267SOL    HW1 7700   6.336   2.716   5.782
 2267SOL    HW2 7701   6.454   2.787   5.870
 2268SOL     OW 7702   6.812   6.007   6.794
 2268SOL    HW1 7703   6.830   5.956   6.710
 2268SOL    HW2 7704   6.893   6.062   6.817
 2269SOL     OW 7705   6.379   5.304   5.871
 2269SOL    HW1 7706   6.395   5.244   5.793
 2269SOL    HW2 7707   6.466   5.341   5.903
 2270SOL     OW 7708   4.105   3.505   2.191
 2270SOL    HW1 7709   4.191   3.521   2.143
 2270SOL    HW2 7710   4.037   3.469   2.128
 2271SOL     OW 7711   6.411   4.797   2.397
 2271SOL    HW1 7712   6.386   4.892   2.417
 2271SOL    HW2 7713   6.344   4.736   2.438
 2272SOL     OW 7714   5.729   2.178   5.722
 2272SOL    HW1 7715   5.634   2.187   5.753
 2272SOL    HW2 7716   5.730   2.127   5.636
 2273SOL     OW 7717   0.617   1.249   3.194
 2273SOL    HW1 7718   0.669   1.334   3.202
 2273SOL    HW2 7719   0.606   1.208   3.284
 2274SOL     OW 7720   1.125   3.302   4.127
 2274SOL    HW1 7721   1.045   3.290   4.186
 2274SOL    HW2 7722   1.197   3.239   4.155
 2275SOL     OW 7723   5.256   6.683   3.899
 2275SOL    HW1 7724   5.206   6.694   3.985
 2275SOL    HW2 7725   5.192   6.688   3.823
 2276SOL     OW 7726   3.983   4.497   1.520
 2276SOL    HW1 7727   4.050   4.425   1.538
 2276SOL    HW2 7728   4.026   4.571   1.469
 2277SOL     OW 7729   3.574   3.209   0.053
 2277SOL    HW1 7730   3.503   3.279   0.057
 2277SOL    HW2 7731   3.664   3.252   0.067
 2278SOL     OW 7732   5.121   5.733   1.465
 2278SOL    HW1 7733   5.197   5.672   1.442
 2278SOL    HW2 7734   5.088   5.779   1.383
 2279SOL     OW 7735   5.640   3.268   4.811
 2279SOL    HW1 7736   5.562   3.244   4.753
 2279SOL    HW2 7737   5.709   3.315   4.756
 2280SOL     OW 7738   6.122   6.253   6.155
 2280SOL    HW1 7739   6.112   6.265   6.254
 2280SOL    HW2 7740   6.042   6.291   6.108
 2281SOL     OW 7741   3.921   2.230   1.311
 2281SOL    HW1 7742   3.986   2.212   1.237
 2281SOL    HW2 7743   3.904   2.145   1.361
 2282SOL     OW 7744   4.814   5.821   3.085
 2282SOL    HW1 7745   4.892   5.783   3.036
 2282SOL    HW2 7746   4.774   5.751   3.144
 2283SOL     OW 7747   7.002   3.210   3.426
 2283SOL    HW1 7748   0.071   3.243   3.426
 2283SOL    HW2 7749   6.998   3.123   3.475
 2284SOL     OW 7750   2.084   2.552   1.669
 2284SOL    HW1 7751   2.051   2.489   1.599
 2284SOL    HW2 7752   2.173   2.589   1.643
 2285SOL     OW 7753   1.949   4.148   1.001
 2285SOL    HW1 7754   1.943   4.165   0.903
 2285SOL    HW2 7755   1.973   4.053   1.017
 2286SOL     OW 7756   6.449   6.357   4.854
 2286SOL    HW1 7757   6.439   6.328   4.759
 2286SOL    HW2 7758   6.391   6.437   4.872
 2287SOL     OW 7759   2.198   2.457   1.904
 2287SOL    HW1 7760   2.181   2.496   1.995
 2287SOL    HW2 7761   2.160   2.516   1.834
 2288SOL     OW 7762   0.190   6.467   3.190
 2288SOL    HW1 7763   0.269   6.419   3.228
 2288SOL    HW2 7764   0.150   6.412   3.118
 2289SOL     OW 7765   5.620   1.924   2.406
 2289SOL    HW1 7766   5.532   1.927   2.359
 2289SOL    HW2 7767   5.665   2.013   2.397
 2290SOL     OW 7768   3.041   3.220   2.687
 2290SOL    HW1 7769   3.110   3.291   2.707
 2290SOL    HW2 7770   3.026   3.215   2.589
 2291SOL     OW 7771   1.713   2.851   0.588
 2291SOL    HW1 7772   1.809   2.829   0.601
 2291SOL    HW2 7773   1.681   2.811   0.502
 2292SOL     OW 7774   4.553   2.111   3.558
 2292SOL    HW1 7775   4.475   2.146   3.610
 2292SOL    HW2 7776   4.632   2.170   3.572
 2293SOL     OW 7777   6.175   1.480   6.973
 2293SOL    HW1 7778   6.249   1.428   7.016
 2293SOL    HW2 7779   6.112   1.511   0.019
 2294SOL     OW 7780   1.141   2.190   5.978
 2294SOL    HW1 7781   1.228   2.219   5.939
 2294SOL    HW2 7782   1.100   2.266   6.029
 2295SOL     OW 7783   5.916   6.714   1.798
 2295SOL    HW1 7784   5.926   6.775   1.719
 2295SOL    HW2 7785   5.994   6.651   1.800
 2296SOL     OW 7786   2.649   5.564   3.809
 2296SOL    HW1 7787   2.715   5.492   3.787
 2296SOL    HW2 7788   2.691   5.627   3.875
 2297SOL     OW 7789   4.183   4.719   5.197
 2297SOL    HW1 7790   4.224   4.631   5.172
 2297SOL    HW2 7791   4.171   4.723   5.296
 2298SOL     OW 7792   3.601   3.266   5.112
 2298SOL    HW1 7793   3.508   3.243   5.085
 2298SOL    HW2 7794   3.647   3.185   5.149
 2299SOL     OW 7795   5.409   2.872   4.948
 2299SOL    HW1 7796   5.461   2.891   4.865
 2299SOL    HW2 7797   5.323   2.924   4.946
 2300SOL     OW 7798   3.789   6.458   2.522
 2300SOL    HW1 7799   3.823   6.468   2.428
 2300SOL    HW2 7800   3.785   6.548   2.565
 2301SOL     OW 7801   3.589   3.758   4.740
 2301SOL    HW1 7802   3.655   3.833   4.733
 2301SOL    HW2 7803   3.514   3.785   4.801
 2302SOL     OW 7804   5.057   2.176   0.561
 2302SOL    HW1 7805   5.058   2.140   0.655
 2302SOL    HW2 7806   4.962   2.187   0.531
 2303SOL     OW 7807   3.282   2.262   0.879
 2303SOL    HW1 7808   3.244   2.281   0.969
 2303SOL    HW2 7809   3.330   2.174   0.880
 2304SOL     OW 7810   5.998   5.772   2.009
 2304SOL    HW1 7811   5.902   5.756   2.033
 2304SOL    HW2 7812   6.006   5.790   1.911
 2305SOL     OW 7813   1.818   1.118   5.330
 2305SOL    HW1 7814   1.741   1.068   5.289
 2305SOL    HW2 7815   1.894   1.056   5.345
 2306SOL     OW 7816   2.212   5.066   3.573
 2306SOL    HW1 7817   2.194   5.107   3.484
 2306SOL    HW2 7818   2.200   5.135   3.645
 2307SOL     OW 7819   0.744   2.214   5.273
 2307SOL    HW1 7820   0.790   2.255   5.352
 2307SOL    HW2 7821   0.772   2.118   5.264
 2308SOL     OW 7822   2.604   4.511   1.473
 2308SOL    HW1 7823   2.621   4.481   1.566
 2308SOL    HW2 7824   2.510   4.546   1.466
 2309SOL     OW 7825   1.763   6.553   4.500
 2309SOL    HW1 7826   1.699   6.477   4.512
 2309SOL    HW2 7827   1.745   6.624   4.568
 2310SOL     OW 7828   4.791   6.623   1.537
 2310SOL    HW1 7829   4.890   6.617   1.523
 2310SOL    HW2 7830   4.752   6.688   1.471
 2311SOL     OW 7831   2.432   6.124   1.256
 2311SOL    HW1 7832   2.496   6.051   1.229
 2311SOL    HW2 7833   2.340   6.087   1.264
 2312SOL     OW 7834   3.410   4.976   2.589
 2312SOL    HW1 7835   3.334   5.018   2.639
 2312SOL    HW2 7836   3.386   4.969   2.492
 2313SOL     OW 7837   5.120   5.080   2.372
 2313SOL    HW1 7838   5.103   5.120   2.462
 2313SOL    HW2 7839   5.141   4.983   2.382
 2314SOL     OW 7840   2.920   5.954   3.934
 2314SOL    HW1 7841   2.994   5.898   3.971
 2314SOL    HW2 7842   2.872   5.904   3.863
 2315SOL     OW 7843   3.899   3.397   6.971
 2315SOL    HW1 7844   3.965   3.450   6.919
 2315SOL    HW2 7845   3.806   3.428   6.948
 2316SOL     OW 7846   5.567   2.995   3.059
 2316SOL    HW1 7847   5.618   3.080   3.070
 2316SOL    HW2 7848   5.575   2.963   2.964
 2317SOL     OW 7849   1.457   4.609   3.250
 2317SOL    HW1 7850   1.492   4.687   3.198
 2317SOL    HW2 7851   1.531   4.544   3.266
 2318SOL     OW 7852   0.153   0.680   3.451
 2318SOL    HW1 7853   0.200   0.718   3.530
 2318SOL    HW2 7854   0.177   0.584   3.441
 2319SOL     OW 7855   1.483   3.985   3.958
 2319SOL    HW1 7856   1.489   4.085   3.958
 2319SOL    HW2 7857   1.410   3.956   4.019
 2320SOL     OW 7858   6.865   2.875   4.306
 2320SOL    HW1 7859   6.771   2.875   4.274
 2320SOL    HW2 7860   6.887   2.964   4.346
 2321SOL     OW 7861   3.029   6.759   5.098
 2321SOL    HW1 7862   2.954   6.758   5.164
 2321SOL    HW2 7863   3.090   6.835   5.117
 2322SOL     OW 7864   1.902   0.296   4.960
 2322SOL    HW1 7865   1.888   0.302   5.059
 2322SOL    HW2 7866   1.907   0.388   4.922
 2323SOL     OW 7867   4.265   5.818   1.898
 2323SOL    HW1 7868   4.265   5.917   1.890
 2323SOL    HW2 7869   4.340   5.789   1.959
 2324SOL     OW 7870   0.236   5.314   3.375
 2324SOL    HW1 7871   0.319   5.262   3.398
 2324SOL    HW2 7872   0.186   5.267   3.302
 2325SOL     OW 7873   0.301   3.403   1.156
 2325SOL    HW1 7874   0.366   3.479   1.165
 2325SOL    HW2 7875   0.345   3.318   1.187
 2326SOL     OW 7876   1.154   5.278   6.652
 2326SOL    HW1 7877   1.123   5.216   6.724
 2326SOL    HW2 7878   1.115   5.369   6.668
 2327SOL     OW 7879   4.720   2.777   4.436
 2327SOL    HW1 7880   4.780   2.856   4.448
 2327SOL    HW2 7881   4.679   2.753   4.524
 2328SOL     OW 7882   4.494   0.432   3.365
 2328SOL    HW1 7883   4.462   0.356   3.421
 2328SOL    HW2 7884   4.594   0.430   3.361
 2329SOL     OW 7885   1.063   6.145   3.651
 2329SOL    HW1 7886   0.998   6.089   3.704
 2329SOL    HW2 7887   1.013   6.217   3.603
 2330SOL     OW 7888   0.543   4.190   2.631
 2330SOL    HW1 7889   0.456   4.201   2.679
 2330SOL    HW2 7890   0.597   4.274   2.640
 2331SOL     OW 7891   0.867   4.756   5.202
 2331SOL    HW1 7892   0.909   4.665   5.196
 2331SOL    HW2 7893   0.774   4.752   5.165
 2332SOL     OW 7894   5.897   2.445   6.077
 2332SOL    HW1 7895   5.903   2.402   5.987
 2332SOL    HW2 7896   5.899   2.544   6.067
 2333SOL     OW 7897   1.281   6.004   3.595
 2333SOL    HW1 7898   1.201   6.063   3.599
 2333SOL    HW2 7899   1.264   5.920   3.648
 2334SOL     OW 7900   3.120   6.917   6.785
 2334SOL    HW1 7901   3.101   7.015   6.774
 2334SOL    HW2 7902   3.170   6.903   6.871
 2335SOL     OW 7903   5.592   6.883   4.177
 2335SOL    HW1 7904   5.503   6.919   4.149
 2335SOL    HW2 7905   5.663   6.916   4.115
 2336SOL     OW 7906   4.934   1.615   5.847
 2336SOL    HW1 7907   4.992   1.537   5.823
 2336SOL    HW2 7908   4.976   1.665   5.923
 2337SOL     OW 7909   5.166   6.975   3.197
 2337SOL    HW1 7910   5.135   6.892   3.242
 2337SOL    HW2 7911   5.113   6.991   3.114
 2338SOL     OW 7912   0.840   6.883   6.800
 2338SOL    HW1 7913   0.894   6.887   6.717
 2338SOL    HW2 7914   0.745   6.909   6.780
 2339SOL     OW 7915   3.634   4.038   0.348
 2339SOL    HW1 7916   3.692   3.957   0.337
 2339SOL    HW2 7917   3.646   4.075   0.440
 2340SOL     OW 7918   3.339   5.552   4.695
 2340SOL    HW1 7919   3.368   5.620   4.763
 2340SOL    HW2 7920   3.302   5.472   4.742
 2341SOL     OW 7921   5.128   5.118   0.918
 2341SOL    HW1 7922   5.203   5.075   0.869
 2341SOL    HW2 7923   5.041   5.087   0.880
 2342SOL     OW 7924   6.308   0.492   5.346
 2342SOL    HW1 7925   6.354   0.410   5.314
 2342SOL    HW2 7926   6.358   0.573   5.315
 2343SOL     OW 7927   1.547   6.447   1.158
 2343SOL    HW1 7928   1.555   6.347   1.148
 2343SOL    HW2 7929   1.583   6.491   1.076
 2344SOL     OW 7930   1.797   2.351   2.586
 2344SOL    HW1 7931   1.846   2.291   2.522
 2344SOL    HW2 7932   1.860   2.421   2.619
 2345SOL     OW 7933   2.143   1.076   4.466
 2345SOL    HW1 7934   2.166   1.116   4.554
 2345SOL    HW2 7935   2.131   1.149   4.398
 2346SOL     OW 7936   5.207   3.970   5.731
 2346SOL    HW1 7937   5.227   4.045   5.794
 2346SOL    HW2 7938   5.129   3.917   5.764
 2347SOL     OW 7939   1.267   3.038   1.882
 2347SOL    HW1 7940   1.229   2.966   1.940
 2347SOL    HW2 7941   1.194   3.099   1.852
 2348SOL     OW 7942   2.740   6.929   2.206
 2348SOL    HW1 7943   2.815   6.880   2.252
 2348SOL    HW2 7944   2.778   7.002   2.149
 2349SOL     OW 7945   5.877   6.350   5.650
 2349SOL    HW1 7946   5.964   6.398   5.661
 2349SOL    HW2 7947   5.893   6.252   5.645
 2350SOL     OW 7948   2.587   0.009   5.923
 2350SOL    HW1 7949   2.564   7.006   6.016
 2350SOL    HW2 7950   2.678   0.049   5.922
 2351SOL     OW 7951   2.428   5.498   4.102
 2351SOL    HW1 7952   2.380   5.465   4.183
 2351SOL    HW2 7953   2.494   5.568   4.129
 2352SOL     OW 7954   0.667   3.375   2.915
 2352SOL    HW1 7955   0.740   3.442   2.904
 2352SOL    HW2 7956   0.606   3.403   2.989
 2353SOL     OW 7957   3.198   4.831   5.766
 2353SOL    HW1 7958   3.146   4.916   5.759
 2353SOL    HW2 7959   3.254   4.834   5.849
 2354SOL     OW 7960   3.648   2.044   0.677
 2354SOL    HW1 7961   3.570   2.106   0.666
 2354SOL    HW2 7962   3.661   2.026   0.775
 2355SOL     OW 7963   0.329   6.339   0.968
 2355SOL    HW1 7964   0.415   6.293   0.946
 2355SOL    HW2 7965   0.301   6.315   1.062
 2356SOL     OW 7966   2.706   5.035   3.637
 2356SOL    HW1 7967   2.798   5.036   3.676
 2356SOL    HW2 7968   2.708   4.990   3.548
 2357SOL     OW 7969   6.560   4.278   1.797
 2357SOL    HW1 7970   6.486   4.211   1.798
 2357SOL    HW2 7971   6.646   4.231   1.777
 2358SOL     OW 7972   3.799   1.959   5.946
 2358SOL    HW1 7973   3.785   1.872   5.899
 2358SOL    HW2 7974   3.897   1.977   5.955
 2359SOL     OW 7975   1.455   1.742   5.576
 2359SOL    HW1 7976   1.504   1.655   5.568
 2359SOL    HW2 7977   1.401   1.741   5.659
 2360SOL     OW 7978   3.922   4.607   0.950
 2360SOL    HW1 7979   3.839   4.570   0.910
 2360SOL    HW2 7980   4.001   4.583   0.892
 2361SOL     OW 7981   3.497   6.224   1.830
 2361SOL    HW1 7982   3.409   6.220   1.876
 2361SOL    HW2 7983   3.524   6.132   1.800
 2362SOL     OW 7984   3.887   5.673   4.104
 2362SOL    HW1 7985   3.849   5.717   4.023
 2362SOL    HW2 7986   3.941   5.594   4.077
 2363SOL     OW 7987   3.351   3.438   0.718
 2363SOL    HW1 7988   3.415   3.511   0.743
 2363SOL    HW2 7989   3.261   3.478   0.700
 2364SOL     OW 7990   4.383   1.924   2.185
 2364SOL    HW1 7991   4.423   1.925   2.276
 2364SOL    HW2 7992   4.443   1.873   2.123
 2365SOL     OW 7993   5.466   3.532   4.302
 2365SOL    HW1 7994   5.464   3.464   4.228
 2365SOL    HW2 7995   5.440   3.622   4.265
 2366SOL     OW 7996   2.565   4.625   4.920
 2366SOL    HW1 7997   2.658   4.645   4.949
 2366SOL    HW2 7998   2.506   4.615   5.001
 2367SOL     OW 7999   0.531   4.411   5.716
 2367SOL    HW1 8000   0.538   4.394   5.618
 2367SOL    HW2 8001   0.441   4.452   5.736
 2368SOL     OW 8002   5.667   6.415   4.259
 2368SOL    HW1 8003   5.680   6.487   4.327
 2368SOL    HW2 8004   5.570   6.408   4.235
 2369SOL     OW 8005   2.940   1.495   3.559
 2369SOL    HW1 8006   2.840   1.489   3.554
 2369SOL    HW2 8007   2.973   1.547   3.481
 2370SOL     OW 8008   5.270   2.254   1.913
 2370SOL    HW1 8009   5.323   2.331   1.950
 2370SOL    HW2 8010   5.181   2.287   1.883
 2371SOL     OW 8011   1.076   6.978   3.070
 2371SOL    HW1 8012   0.983   6.962   3.035
 2371SOL    HW2 8013   1.077   0.039   3.123
 2372SOL     OW 8014   6.467   1.283   5.879
 2372SOL    HW1 8015   6.372   1.314   5.870
 2372SOL    HW2 8016   6.528   1.361   5.876
 2373SOL     OW 8017   5.933   6.682   5.790
 2373SOL    HW1 8018   6.004   6.748   5.764
 2373SOL    HW2 8019   5.944   6.599   5.735
 2374SOL     OW 8020   6.102   5.805   2.447
 2374SOL    HW1 8021   6.160   5.795   2.367
 2374SOL    HW2 8022   6.007   5.814   2.419
 2375SOL     OW 8023   1.388   1.065   4.018
 2375SOL    HW1 8024   1.439   0.992   3.972
 2375SOL    HW2 8025   1.453   1.128   4.061
 2376SOL     OW 8026   6.157   1.517   3.058
 2376SOL    HW1 8027   6.243   1.566   3.042
 2376SOL    HW2 8028   6.114   1.495   2.971
 2377SOL     OW 8029   3.986   4.898   5.911
 2377SOL    HW1 8030   3.978   4.889   6.011
 2377SOL    HW2 8031   3.929   4.974   5.880
 2378SOL     OW 8032   0.081   1.144   0.013
 2378SOL    HW1 8033   0.121   1.232   0.037
 2378SOL    HW2 8034   0.033   1.150   6.951
 2379SOL     OW 8035   6.679   5.333   1.304
 2379SOL    HW1 8036   6.672   5.372   1.212
 2379SOL    HW2 8037   6.712   5.403   1.367
 2380SOL     OW 8038   5.007   4.750   4.931
 2380SOL    HW1 8039   5.034   4.795   4.846
 2380SOL    HW2 8040   4.983   4.819   4.999
 2381SOL     OW 8041   3.192   5.323   4.756
 2381SOL    HW1 8042   3.200   5.275   4.669
 2381SOL    HW2 8043   3.193   5.256   4.831
 2382SOL     OW 8044   1.236   6.186   1.366
 2382SOL    HW1 8045   1.233   6.273   1.318
 2382SOL    HW2 8046   1.215   6.201   1.463
 2383SOL     OW 8047   5.222   5.847   5.041
 2383SOL    HW1 8048   5.213   5.941   5.075
 2383SOL    HW2 8049   5.318   5.820   5.040
 2384SOL     OW 8050   0.923   1.840   1.822
 2384SOL    HW1 8051   0.856   1.776   1.860
 2384SOL    HW2 8052   0.900   1.933   1.850
 2385SOL     OW 8053   0.861   1.675   0.901
 2385SOL    HW1 8054   0.773   1.682   0.855
 2385SOL    HW2 8055   0.878   1.580   0.927
 2386SOL     OW 8056   4.593   6.226   3.990
 2386SOL    HW1 8057   4.658   6.281   4.041
 2386SOL    HW2 8058   4.501   6.238   4.027
 2387SOL     OW 8059   1.645   1.633   3.575
 2387SOL    HW1 8060   1.645   1.533   3.575
 2387SOL    HW2 8061   1.728   1.666   3.620
 2388SOL     OW 8062   6.378   2.010   5.581
 2388SOL    HW1 8063   6.432   2.094   5.567
 2388SOL    HW2 8064   6.283   2.027   5.553
 2389SOL     OW 8065   5.718   4.544   4.103
 2389SOL    HW1 8066   5.760   4.628   4.069
 2389SOL    HW2 8067   5.629   4.566   4.142
 2390SOL     OW 8068   4.591   4.427   5.857
 2390SOL    HW1 8069   4.537   4.495   5.906
 2390SOL    HW2 8070   4.603   4.345   5.914
 2391SOL     OW 8071   3.576   3.736   6.474
 2391SOL    HW1 8072   3.530   3.682   6.404
 2391SOL    HW2 8073   3.675   3.735   6.460
 2392SOL     OW 8074   3.254   5.747   4.490
 2392SOL    HW1 8075   3.159   5.732   4.461
 2392SOL    HW2 8076   3.290   5.662   4.528
 2393SOL     OW 8077   3.006   5.251   1.154
 2393SOL    HW1 8078   3.061   5.251   1.071
 2393SOL    HW2 8079   2.982   5.157   1.179
 2394SOL     OW 8080   0.668   2.750   3.321
 2394SOL    HW1 8081   0.743   2.702   3.275
 2394SOL    HW2 8082   0.585   2.695   3.316
 2395SOL     OW 8083   0.514   2.433   5.554
 2395SOL    HW1 8084   0.558   2.521   5.538
 2395SOL    HW2 8085   0.452   2.412   5.478
 2396SOL     OW 8086   6.445   1.211   5.228
 2396SOL    HW1 8087   6.474   1.191   5.321
 2396SOL    HW2 8088   6.523   1.203   5.166
 2397SOL     OW 8089   0.531   5.031   5.207
 2397SOL    HW1 8090   0.566   5.014   5.114
 2397SOL    HW2 8091   0.462   4.963   5.230
 2398SOL     OW 8092   3.001   5.588   3.999
 2398SOL    HW1 8093   2.996   5.533   3.916
 2398SOL    HW2 8094   3.071   5.658   3.988
 2399SOL     OW 8095   2.826   2.312   3.764
 2399SOL    HW1 8096   2.812   2.357   3.852
 2399SOL    HW2 8097   2.795   2.217   3.771
 2400SOL     OW 8098   1.316   3.751   0.542
 2400SOL    HW1 8099   1.360   3.696   0.614
 2400SOL    HW2 8100   1.265   3.691   0.480
 2401SOL     OW 8101   3.609   7.005   5.970
 2401SOL    HW1 8102   3.548   6.976   6.044
 2401SOL    HW2 8103   3.591   0.076   5.948
 2402SOL     OW 8104   1.056   2.564   2.072
 2402SOL    HW1 8105   1.067   2.476   2.025
 2402SOL    HW2 8106   0.959   2.583   2.084
 2403SOL     OW 8107   3.676   4.132   3.222
 2403SOL    HW1 8108   3.617   4.143   3.302
 2403SOL    HW2 8109   3.769   4.112   3.251
 2404SOL     OW 8110   6.757   1.637   0.749
 2404SOL    HW1 8111   6.838   1.612   0.803
 2404SOL    HW2 8112   6.736   1.564   0.685
 2405SOL     OW 8113   2.724   3.708   0.768
 2405SOL    HW1 8114   2.734   3.740   0.674
 2405SOL    HW2 8115   2.792   3.637   0.787
 2406SOL     OW 8116   2.247   6.823   5.099
 2406SOL    HW1 8117   2.182   6.797   5.028
 2406SOL    HW2 8118   2.322   6.757   5.102
 2407SOL     OW 8119   3.585   1.260   4.011
 2407SOL    HW1 8120   3.566   1.198   3.936
 2407SOL    HW2 8121   3.603   1.352   3.974
 2408SOL     OW 8122   2.548   6.276   4.611
 2408SOL    HW1 8123   2.593   6.347   4.666
 2408SOL    HW2 8124   2.502   6.211   4.671
 2409SOL     OW 8125   2.478   2.552   0.962
 2409SOL    HW1 8126   2.414   2.595   1.026
 2409SOL    HW2 8127   2.572   2.579   0.986
 2410SOL     OW 8128   6.346   3.931   5.694
 2410SOL    HW1 8129   6.335   4.018   5.645
 2410SOL    HW2 8130   6.370   3.949   5.789
 2411SOL     OW 8131   2.632   3.380   0.241
 2411SOL    HW1 8132   2.704   3.329   0.193
 2411SOL    HW2 8133   2.669   3.416   0.327
 2412SOL     OW 8134   2.896   2.108   6.524
 2412SOL    HW1 8135   2.977   2.139   6.474
 2412SOL    HW2 8136   2.898   2.145   6.618
 2413SOL     OW 8137   0.350   2.685   6.465
 2413SOL    HW1 8138   0.252   2.667   6.456
 2413SOL    HW2 8139   0.397   2.654   6.382
 2414SOL     OW 8140   6.372   2.511   4.599
 2414SOL    HW1 8141   6.372   2.481   4.695
 2414SOL    HW2 8142   6.292   2.567   4.581
 2415SOL     OW 8143   2.806   6.136   0.974
 2415SOL    HW1 8144   2.896   6.162   0.940
 2415SOL    HW2 8145   2.782   6.193   1.053
 2416SOL     OW 8146   6.585   3.136   2.916
 2416SOL    HW1 8147   6.592   3.168   3.011
 2416SOL    HW2 8148   6.511   3.185   2.870
 2417SOL     OW 8149   3.966   3.452   0.856
 2417SOL    HW1 8150   3.984   3.529   0.794
 2417SOL    HW2 8151   3.868   3.431   0.856
 2418SOL     OW 8152   4.832   4.156   5.667
 2418SOL    HW1 8153   4.747   4.199   5.636
 2418SOL    HW2 8154   4.835   4.155   5.767
 2419SOL     OW 8155   2.065   6.301   4.135
 2419SOL    HW1 8156   1.974   6.263   4.117
 2419SOL    HW2 8157   2.135   6.236   4.105
 2420SOL     OW 8158   2.899   4.751   2.618
 2420SOL    HW1 8159   2.839   4.674   2.640
 2420SOL    HW2 8160   2.903   4.762   2.519
 2421SOL     OW 8161   3.245   6.888   4.451
 2421SOL    HW1 8162   3.319   6.907   4.387
 2421SOL    HW2 8163   3.160   6.927   4.417
 2422SOL     OW 8164   4.061   6.512   1.562
 2422SOL    HW1 8165   4.028   6.556   1.645
 2422SOL    HW2 8166   4.142   6.456   1.583
 2423SOL     OW 8167   1.828   4.869   2.328
 2423SOL    HW1 8168   1.848   4.787   2.383
 2423SOL    HW2 8169   1.815   4.842   2.233
 2424SOL     OW 8170   5.265   0.637   6.335
 2424SOL    HW1 8171   5.358   0.658   6.302
 2424SOL    HW2 8172   5.234   0.711   6.395
 2425SOL     OW 8173   4.466   5.283   5.553
 2425SOL    HW1 8174   4.470   5.216   5.479
 2425SOL    HW2 8175   4.386   5.264   5.610
 2426SOL     OW 8176   1.237   4.705   5.618
 2426SOL    HW1 8177   1.197   4.614   5.624
 2426SOL    HW2 8178   1.274   4.720   5.527
 2427SOL     OW 8179   5.033   0.580   6.195
 2427SOL    HW1 8180   5.061   0.504   6.137
 2427SOL    HW2 8181   5.109   0.609   6.253
 2428SOL     OW 8182   0.435   0.882   3.433
 2428SOL    HW1 8183   0.362   0.928   3.383
 2428SOL    HW2 8184   0.524   0.919   3.404
 2429SOL     OW 8185   5.502   5.791   2.269
 2429SOL    HW1 8186   5.539   5.702   2.242
 2429SOL    HW2 8187   5.409   5.801   2.234
 2430SOL     OW 8188   6.521   3.154   0.321
 2430SOL    HW1 8189   6.539   3.101   0.239
 2430SOL    HW2 8190   6.550   3.103   0.402
 2431SOL     OW 8191   6.750   2.021   0.966
 2431SOL    HW1 8192   6.706   1.931   0.965
 2431SOL    HW2 8193   6.787   2.041   0.875
 2432SOL     OW 8194   3.954   5.248   2.106
 2432SOL    HW1 8195   3.855   5.254   2.115
 2432SOL    HW2 8196   3.997   5.304   2.177
 2433SOL     OW 8197   6.835   4.207   0.219
 2433SOL    HW1 8198   6.865   4.190   0.313
 2433SOL    HW2 8199   6.870   4.295   0.187
 2434SOL     OW 8200   4.071   1.860   2.886
 2434SOL    HW1 8201   4.049   1.822   2.976
 2434SOL    HW2 8202   3.995   1.917   2.855
 2435SOL     OW 8203   5.608   0.074   6.815
 2435SOL    HW1 8204   5.578   0.110   6.903
 2435SOL    HW2 8205   5.703   0.102   6.797
 2436SOL     OW 8206   1.719   1.584   0.902
 2436SOL    HW1 8207   1.740   1.559   0.996
 2436SOL    HW2 8208   1.634   1.540   0.874
 2437SOL     OW 8209   6.647   5.851   1.945
 2437SOL    HW1 8210   6.728   5.879   1.893
 2437SOL    HW2 8211   6.593   5.788   1.890
 2438SOL     OW 8212   3.189   1.571   4.624
 2438SOL    HW1 8213   3.189   1.671   4.620
 2438SOL    HW2 8214   3.096   1.539   4.640
 2439SOL     OW 8215   0.183   5.510   0.240
 2439SOL    HW1 8216   0.245   5.477   0.311
 2439SOL    HW2 8217   0.096   5.461   0.246
 2440SOL     OW 8218   4.162   1.057   4.613
 2440SOL    HW1 8219   4.120   1.147   4.601
 2440SOL    HW2 8220   4.165   1.010   4.524
 2441SOL     OW 8221   6.203   0.422   6.699
 2441SOL    HW1 8222   6.168   0.345   6.647
 2441SOL    HW2 8223   6.303   0.425   6.693
 2442SOL     OW 8224   4.921   3.701   2.278
 2442SOL    HW1 8225   5.007   3.746   2.253
 2442SOL    HW2 8226   4.918   3.609   2.239
 2443SOL     OW 8227   2.063   1.471   0.317
 2443SOL    HW1 8228   2.070   1.414   0.399
 2443SOL    HW2 8229   2.143   1.529   0.309
 2444SOL     OW 8230   3.478   5.719   0.626
 2444SOL    HW1 8231   3.461   5.768   0.540
 2444SOL    HW2 8232   3.392   5.705   0.674
 2445SOL     OW 8233   0.611   1.970   0.940
 2445SOL    HW1 8234   0.609   1.890   0.999
 2445SOL    HW2 8235   0.548   1.956   0.863
 2446SOL     OW 8236   1.285   3.517   1.712
 2446SOL    HW1 8237   1.368   3.493   1.764
 2446SOL    HW2 8238   1.246   3.601   1.750
 2447SOL     OW 8239   2.350   0.687   0.988
 2447SOL    HW1 8240   2.424   0.706   1.052
 2447SOL    HW2 8241   2.388   0.656   0.901
 2448SOL     OW 8242   6.229   2.114   3.776
 2448SOL    HW1 8243   6.297   2.041   3.773
 2448SOL    HW2 8244   6.137   2.074   3.777
 2449SOL     OW 8245   1.418   4.032   2.020
 2449SOL    HW1 8246   1.516   4.016   2.031
 2449SOL    HW2 8247   1.392   4.116   2.067
 2450SOL     OW 8248   2.207   5.345   6.725
 2450SOL    HW1 8249   2.130   5.395   6.765
 2450SOL    HW2 8250   2.258   5.405   6.664
 2451SOL     OW 8251   1.099   0.110   4.680
 2451SOL    HW1 8252   1.112   0.011   4.680
 2451SOL    HW2 8253   1.022   0.133   4.738
 2452SOL     OW 8254   2.737   2.419   3.520
 2452SOL    HW1 8255   2.755   2.411   3.618
 2452SOL    HW2 8256   2.661   2.483   3.505
 2453SOL     OW 8257   0.123   1.822   0.136
 2453SOL    HW1 8258   0.065   1.893   0.176
 2453SOL    HW2 8259   0.070   1.738   0.124
 2454SOL     OW 8260   3.872   5.496   1.163
 2454SOL    HW1 8261   3.845   5.402   1.141
 2454SOL    HW2 8262   3.932   5.531   1.091
 2455SOL     OW 8263   3.418   1.155   0.193
 2455SOL    HW1 8264   3.331   1.170   0.146
 2455SOL    HW2 8265   3.415   1.070   0.244
 2456SOL     OW 8266   1.299   4.268   7.021
 2456SOL    HW1 8267   1.314   4.339   6.953
 2456SOL    HW2 8268   1.289   4.310   0.086
 2457SOL     OW 8269   5.513   1.290   5.414
 2457SOL    HW1 8270   5.562   1.218   5.365
 2457SOL    HW2 8271   5.459   1.249   5.487
 2458SOL     OW 8272   0.900   0.057   2.831
 2458SOL    HW1 8273   0.860   0.082   2.743
 2458SOL    HW2 8274   0.846   0.098   2.905
 2459SOL     OW 8275   2.532   6.117   0.414
 2459SOL    HW1 8276   2.624   6.136   0.382
 2459SOL    HW2 8277   2.518   6.162   0.503
 2460SOL     OW 8278   1.281   1.179   6.756
 2460SOL    HW1 8279   1.341   1.105   6.725
 2460SOL    HW2 8280   1.246   1.158   6.847
 2461SOL     OW 8281   4.369   7.011   4.528
 2461SOL    HW1 8282   4.468   7.018   4.544
 2461SOL    HW2 8283   4.330   0.077   4.519
 2462SOL     OW 8284   0.630   5.467   0.789
 2462SOL    HW1 8285   0.549   5.526   0.785
 2462SOL    HW2 8286   0.606   5.376   0.756
 2463SOL     OW 8287   6.420   1.288   6.999
 2463SOL    HW1 8288   6.437   1.214   0.039
 2463SOL    HW2 8289   6.455   1.262   6.909
 2464SOL     OW 8290   0.051   2.475   2.394
 2464SOL    HW1 8291   0.128   2.463   2.456
 2464SOL    HW2 8292   0.073   2.544   2.325
 2465SOL     OW 8293   0.098   5.400   5.973
 2465SOL    HW1 8294   0.118   5.321   6.031
 2465SOL    HW2 8295   0.165   5.405   5.899
 2466SOL     OW 8296   1.875   1.854   1.948
 2466SOL    HW1 8297   1.857   1.936   1.894
 2466SOL    HW2 8298   1.878   1.775   1.888
 2467SOL     OW 8299   4.585   1.564   6.036
 2467SOL    HW1 8300   4.594   1.476   6.082
 2467SOL    HW2 8301   4.496   1.604   6.057
 2468SOL     OW 8302   3.843   0.404   6.307
 2468SOL    HW1 8303   3.759   0.361   6.341
 2468SOL    HW2 8304   3.837   0.414   6.208
 2469SOL     OW 8305   4.365   2.630   5.653
 2469SOL    HW1 8306   4.391   2.700   5.719
 2469SOL    HW2 8307   4.418   2.547   5.670
 2470SOL     OW 8308   3.991   4.937   6.198
 2470SOL    HW1 8309   4.060   4.894   6.257
 2470SOL    HW2 8310   3.936   5.000   6.252
 2471SOL     OW 8311   3.528   6.780   0.888
 2471SOL    HW1 8312   3.493   6.687   0.871
 2471SOL    HW2 8313   3.625   6.775   0.912
 2472SOL     OW 8314   4.616   2.667   3.889
 2472SOL    HW1 8315   4.550   2.705   3.954
 2472SOL    HW2 8316   4.708   2.673   3.928
 2473SOL     OW 8317   1.173   4.359   5.049
 2473SOL    HW1 8318   1.074   4.368   5.035
 2473SOL    HW2 8319   1.189   4.292   5.122
 2474SOL     OW 8320   1.007   5.475   0.554
 2474SOL    HW1 8321   0.949   5.504   0.630
 2474SOL    HW2 8322   1.102   5.474   0.584
 2475SOL     OW 8323   4.754   0.540   0.644
 2475SOL    HW1 8324   4.722   0.632   0.624
 2475SOL    HW2 8325   4.679   0.475   0.635
 2476SOL     OW 8326   5.497   0.626   2.644
 2476SOL    HW1 8327   5.473   0.702   2.583
 2476SOL    HW2 8328   5.594   0.633   2.668
 2477SOL     OW 8329   4.047   0.516   3.566
 2477SOL    HW1 8330   4.097   0.523   3.480
 2477SOL    HW2 8331   3.991   0.433   3.565
 2478SOL     OW 8332   4.243   1.137   2.907
 2478SOL    HW1 8333   4.316   1.117   2.972
 2478SOL    HW2 8334   4.248   1.232   2.879
 2479SOL     OW 8335   0.794   2.647   1.474
 2479SOL    HW1 8336   0.833   2.565   1.515
 2479SOL    HW2 8337   0.867   2.701   1.432
 2480SOL     OW 8338   3.840   2.711   1.263
 2480SOL    HW1 8339   3.924   2.730   1.211
 2480SOL    HW2 8340   3.796   2.630   1.225
 2481SOL     OW 8341   2.797   0.318   1.743
 2481SOL    HW1 8342   2.852   0.308   1.660
 2481SOL    HW2 8343   2.722   0.252   1.741
 2482SOL     OW 8344   4.983   3.794   6.928
 2482SOL    HW1 8345   5.032   3.711   6.901
 2482SOL    HW2 8346   4.909   3.769   6.991
 2483SOL     OW 8347   1.444   1.843   0.249
 2483SOL    HW1 8348   1.541   1.830   0.230
 2483SOL    HW2 8349   1.431   1.858   0.347
 2484SOL     OW 8350   3.506   0.867   1.420
 2484SOL    HW1 8351   3.503   0.887   1.322
 2484SOL    HW2 8352   3.433   0.803   1.444
 2485SOL     OW 8353   5.354   2.629   7.001
 2485SOL    HW1 8354   5.370   2.578   0.061
 2485SOL    HW2 8355   5.345   2.564   6.926
 2486SOL     OW 8356   0.404   5.516   5.530
 2486SOL    HW1 8357   0.384   5.600   5.580
 2486SOL    HW2 8358   0.327   5.494   5.471
 2487SOL     OW 8359   3.938   6.264   0.551
 2487SOL    HW1 8360   3.864   6.313   0.597
 2487SOL    HW2 8361   3.984   6.326   0.488
 2488SOL     OW 8362   0.698   3.498   1.737
 2488SOL    HW1 8363   0.620   3.560   1.731
 2488SOL    HW2 8364   0.777   3.547   1.775
 2489SOL     OW 8365   1.007   6.447   3.567
 2489SOL    HW1 8366   1.106   6.431   3.567
 2489SOL    HW2 8367   0.977   6.474   3.658
 2490SOL     OW 8368   0.748   5.778   1.165
 2490SOL    HW1 8369   0.742   5.770   1.065
 2490SOL    HW2 8370   0.681   5.845   1.197
 2491SOL     OW 8371   4.012   3.921   1.226
 2491SOL    HW1 8372   3.918   3.957   1.224
 2491SOL    HW2 8373   4.013   3.834   1.275
 2492SOL     OW 8374   4.788   3.570   1.276
 2492SOL    HW1 8375   4.695   3.538   1.257
 2492SOL    HW2 8376   4.789   3.669   1.284
 2493SOL     OW 8377   6.634   0.289   0.856
 2493SOL    HW1 8378   6.581   0.209   0.828
 2493SOL    HW2 8379   6.630   0.359   0.785
 2494SOL     OW 8380   6.333   3.901   2.088
 2494SOL    HW1 8381   6.265   3.829   2.098
 2494SOL    HW2 8382   6.364   3.932   2.178
 2495SOL     OW 8383   5.341   6.072   3.532
 2495SOL    HW1 8384   5.318   5.976   3.518
 2495SOL    HW2 8385   5.261   6.129   3.512
 2496SOL     OW 8386   0.479   3.671   6.873
 2496SOL    HW1 8387   0.548   3.665   6.944
 2496SOL    HW2 8388   0.410   3.739   6.898
 2497SOL     OW 8389   0.496   0.289   0.639
 2497SOL    HW1 8390   0.463   0.212   0.692
 2497SOL    HW2 8391   0.514   0.260   0.545
 2498SOL     OW 8392   3.024   2.081   5.823
 2498SOL    HW1 8393   3.100   2.133   5.783
 2498SOL    HW2 8394   3.042   2.064   5.919
 2499SOL     OW 8395   5.645   2.752   2.123
 2499SOL    HW1 8396   5.611   2.842   2.148
 2499SOL    HW2 8397   5.710   2.761   2.047
 2500SOL     OW 8398   3.991   3.480   6.554
 2500SOL    HW1 8399   4.073   3.466   6.610
 2500SOL    HW2 8400   3.963   3.393   6.514
 2501SOL     OW 8401   5.204   5.686   6.969
 2501SOL    HW1 8402   5.224   5.778   6.938
 2501SOL    HW2 8403   5.289   5.639   6.992
 2502SOL     OW 8404   2.182   0.022   4.769
 2502SOL    HW1 8405   2.165   6.949   4.778
 2502SOL    HW2 8406   2.104   0.065   4.725
 2503SOL     OW 8407   3.436   6.662   5.049
 2503SOL    HW1 8408   3.519   6.616   5.019
 2503SOL    HW2 8409   3.430   6.658   5.148
 2504SOL     OW 8410   3.828   5.312   2.970
 2504SOL    HW1 8411   3.922   5.306   2.936
 2504SOL    HW2 8412   3.806   5.229   3.020
 2505SOL     OW 8413   0.665   5.776   2.922
 2505SOL    HW1 8414   0.568   5.789   2.944
 2505SOL    HW2 8415   0.691   5.840   2.850
 2506SOL     OW 8416   6.377   3.272   6.159
 2506SOL    HW1 8417   6.470   3.282   6.194
 2506SOL    HW2 8418   6.350   3.357   6.112
 2507SOL     OW 8419   0.446   3.416   0.022
 2507SOL    HW1 8420   0.449   3.463   6.959
 2507SOL    HW2 8421   0.536   3.421   0.066
 2508SOL     OW 8422   2.361   1.900   4.282
 2508SOL    HW1 8423   2.359   1.955   4.199
 2508SOL    HW2 8424   2.305   1.943   4.352
 2509SOL     OW 8425   6.887   4.537   0.782
 2509SOL    HW1 8426   6.843   4.447   0.778
 2509SOL    HW2 8427   6.821   4.605   0.812
 2510SOL     OW 8428   3.603   4.826   0.681
 2510SOL    HW1 8429   3.590   4.905   0.741
 2510SOL    HW2 8430   3.515   4.781   0.666
 2511SOL     OW 8431   2.451   1.303   4.680
 2511SOL    HW1 8432   2.407   1.392   4.694
 2511SOL    HW2 8433   2.478   1.295   4.584
 2512SOL     OW 8434   4.221   4.155   5.344
 2512SOL    HW1 8435   4.135   4.207   5.343
 2512SOL    HW2 8436   4.272   4.176   5.428
 2513SOL     OW 8437   2.111   5.499   4.916
 2513SOL    HW1 8438   2.128   5.418   4.972
 2513SOL    HW2 8439   2.138   5.581   4.966
 2514SOL     OW 8440   0.639   3.908   4.295
 2514SOL    HW1 8441   0.590   3.995   4.296
 2514SOL    HW2 8442   0.738   3.925   4.293
 2515SOL     OW 8443   2.141   6.473   0.804
 2515SOL    HW1 8444   2.128   6.520   0.717
 2515SOL    HW2 8445   2.084   6.391   0.807
 2516SOL     OW 8446   5.370   1.167   2.272
 2516SOL    HW1 8447   5.355   1.136   2.366
 2516SOL    HW2 8448   5.300   1.233   2.247
 2517SOL     OW 8449   1.660   0.793   6.366
 2517SOL    HW1 8450   1.568   0.821   6.395
 2517SOL    HW2 8451   1.659   0.774   6.268
 2518SOL     OW 8452   1.249   5.443   0.889
 2518SOL    HW1 8453   1.313   5.466   0.962
 2518SOL    HW2 8454   1.165   5.405   0.928
 2519SOL     OW 8455   3.636   0.918   2.030
 2519SOL    HW1 8456   3.547   0.959   2.046
 2519SOL    HW2 8457   3.643   0.890   1.934
 2520SOL     OW 8458   3.287   1.965   0.055
 2520SOL    HW1 8459   3.243   1.908   0.124
 2520SOL    HW2 8460   3.264   2.061   0.072
 2521SOL     OW 8461   3.168   1.398   5.371
 2521SOL    HW1 8462   3.231   1.321   5.359
 2521SOL    HW2 8463   3.152   1.414   5.468
 2522SOL     OW 8464   1.575   1.504   5.452
 2522SOL    HW1 8465   1.625   1.537   5.372
 2522SOL    HW2 8466   1.630   1.518   5.534
 2523SOL     OW 8467   1.278   3.388   1.205
 2523SOL    HW1 8468   1.326   3.473   1.222
 2523SOL    HW2 8469   1.180   3.402   1.218
 2524SOL     OW 8470   6.793   6.792   4.462
 2524SOL    HW1 8471   6.697   6.791   4.489
 2524SOL    HW2 8472   6.827   6.699   4.456
 2525SOL     OW 8473   1.425   2.899   4.759
 2525SOL    HW1 8474   1.384   2.836   4.692
 2525SOL    HW2 8475   1.524   2.887   4.759
 2526SOL     OW 8476   1.748   4.463   6.767
 2526SOL    HW1 8477   1.681   4.452   6.840
 2526SOL    HW2 8478   1.838   4.482   6.807
 2527SOL     OW 8479   5.620   6.364   5.732
 2527SOL    HW1 8480   5.620   6.451   5.782
 2527SOL    HW2 8481   5.712   6.343   5.700
 2528SOL     OW 8482   6.021   4.500   5.820
 2528SOL    HW1 8483   6.013   4.569   5.891
 2528SOL    HW2 8484   6.013   4.543   5.730
 2529SOL     OW 8485   6.978   6.651   6.908
 2529SOL    HW1 8486   0.018   6.684   6.840
 2529SOL    HW2 8487   6.974   6.715   6.985
 2530SOL     OW 8488   2.503   6.350   4.995
 2530SOL    HW1 8489   2.493   6.309   4.905
 2530SOL    HW2 8490   2.448   6.299   5.062
 2531SOL     OW 8491   6.294   6.292   5.421
 2531SOL    HW1 8492   6.234   6.212   5.421
 2531SOL    HW2 8493   6.360   6.285   5.345
 2532SOL     OW 8494   6.885   6.161   0.934
 2532SOL    HW1 8495   6.816   6.128   0.998
 2532SOL    HW2 8496   6.973   6.119   0.956
 2533SOL     OW 8497   4.651   0.536   3.597
 2533SOL    HW1 8498   4.683   0.479   3.522
 2533SOL    HW2 8499   4.693   0.504   3.683
 2534SOL     OW 8500   3.233   1.645   1.598
 2534SOL    HW1 8501   3.232   1.550   1.568
 2534SOL    HW2 8502   3.316   1.663   1.651
 2535SOL     OW 8503   3.572   2.815   6.293
 2535SOL    HW1 8504   3.484   2.770   6.306
 2535SOL    HW2 8505   3.563   2.912   6.314
 2536SOL     OW 8506   1.221   0.633   6.499
 2536SOL    HW1 8507   1.129   0.672   6.500
 2536SOL    HW2 8508   1.279   0.687   6.438
 2537SOL     OW 8509   3.274   6.792   6.320
 2537SOL    HW1 8510   3.210   6.867   6.335
 2537SOL    HW2 8511   3.268   6.727   6.395
 2538SOL     OW 8512   0.293   3.803   3.735
 2538SOL    HW1 8513   0.342   3.716   3.735
 2538SOL    HW2 8514   0.359   3.878   3.741
 2539SOL     OW 8515   5.251   1.293   3.891
 2539SOL    HW1 8516   5.277   1.346   3.811
 2539SOL    HW2 8517   5.270   1.196   3.875
 2540SOL     OW 8518   4.249   1.675   2.784
 2540SOL    HW1 8519   4.177   1.742   2.805
 2540SOL    HW2 8520   4.308   1.664   2.864
 2541SOL     OW 8521   3.420   0.226   5.215
 2541SOL    HW1 8522   3.429   0.298   5.284
 2541SOL    HW2 8523   3.334   0.176   5.230
 2542SOL     OW 8524   3.730   3.784   6.170
 2542SOL    HW1 8525   3.780   3.743   6.247
 2542SOL    HW2 8526   3.700   3.876   6.195
 2543SOL     OW 8527   0.464   0.699   3.854
 2543SOL    HW1 8528   0.450   0.622   3.918
 2543SOL    HW2 8529   0.501   0.777   3.904
 2544SOL     OW 8530   0.031   5.853   0.153
 2544SOL    HW1 8531   0.111   5.827   0.208
 2544SOL    HW2 8532   0.025   5.792   0.074
 2545SOL     OW 8533   1.840   6.556   1.695
 2545SOL    HW1 8534   1.742   6.551   1.675
 2545SOL    HW2 8535   1.874   6.466   1.718
 2546SOL     OW 8536   0.352   1.721   1.733
 2546SOL    HW1 8537   0.406   1.773   1.667
 2546SOL    HW2 8538   0.255   1.728   1.711
 2547SOL     OW 8539   0.395   4.458   6.829
 2547SOL    HW1 8540   0.487   4.471   6.868
 2547SOL    HW2 8541   0.385   4.363   6.800
 2548SOL     OW 8542   1.018   6.683   5.156
 2548SOL    HW1 8543   1.005   6.782   5.150
 2548SOL    HW2 8544   1.110   6.663   5.189
 2549SOL     OW 8545   0.872   0.115   1.335
 2549SOL    HW1 8546   0.801   0.047   1.348
 2549SOL    HW2 8547   0.874   0.177   1.414
 2550SOL     OW 8548   5.920   6.816   0.453
 2550SOL    HW1 8549   5.979   6.865   0.389
 2550SOL    HW2 8550   5.959   6.822   0.545
 2551SOL     OW 8551   3.521   4.411   0.471
 2551SOL    HW1 8552   3.532   4.504   0.507
 2551SOL    HW2 8553   3.529   4.413   0.372
 2552SOL     OW 8554   1.788   6.194   4.150
 2552SOL    HW1 8555   1.699   6.226   4.117
 2552SOL    HW2 8556   1.802   6.099   4.121
 2553SOL     OW 8557   3.877   3.622   5.845
 2553SOL    HW1 8558   3.953   3.627   5.780
 2553SOL    HW2 8559   3.869   3.710   5.893
 2554SOL     OW 8560   2.718   0.223   0.323
 2554SOL    HW1 8561   2.736   0.139   0.375
 2554SOL    HW2 8562   2.622   0.224   0.295
 2555SOL     OW 8563   6.037   1.709   4.705
 2555SOL    HW1 8564   6.076   1.627   4.663
 2555SOL    HW2 8565   6.106   1.781   4.706
 2556SOL     OW 8566   4.589   6.473   0.465
 2556SOL    HW1 8567   4.658   6.408   0.497
 2556SOL    HW2 8568   4.595   6.557   0.518
 2557SOL     OW 8569   1.848   3.697   0.843
 2557SOL    HW1 8570   1.863   3.644   0.759
 2557SOL    HW2 8571   1.770   3.757   0.830
 2558SOL     OW 8572   4.623   1.131   4.457
 2558SOL    HW1 8573   4.623   1.187   4.539
 2558SOL    HW2 8574   4.629   1.190   4.376
 2559SOL     OW 8575   1.331   4.068   5.613
 2559SOL    HW1 8576   1.341   4.156   5.660
 2559SOL    HW2 8577   1.368   4.075   5.521
 2560SOL     OW 8578   5.866   2.612   5.712
 2560SOL    HW1 8579   5.880   2.711   5.717
 2560SOL    HW2 8580   5.790   2.592   5.650
 2561SOL     OW 8581   2.765   4.781   4.754
 2561SOL    HW1 8582   2.841   4.819   4.702
 2561SOL    HW2 8583   2.799   4.743   4.840
 2562SOL     OW 8584   2.376   5.274   1.311
 2562SOL    HW1 8585   2.470   5.242   1.316
 2562SOL    HW2 8586   2.349   5.314   1.399
 2563SOL     OW 8587   3.573   1.312   0.703
 2563SOL    HW1 8588   3.586   1.233   0.763
 2563SOL    HW2 8589   3.475   1.329   0.692
 2564SOL     OW 8590   1.684   5.773   6.989
 2564SOL    HW1 8591   1.771   5.767   6.940
 2564SOL    HW2 8592   1.649   5.681   7.005
 2565SOL     OW 8593   1.550   0.296   6.997
 2565SOL    HW1 8594   1.453   0.318   6.991
 2565SOL    HW2 8595   1.598   0.334   6.918
 2566SOL     OW 8596   2.540   0.081   1.303
 2566SOL    HW1 8597   2.528   0.166   1.252
 2566SOL    HW2 8598   2.461   0.022   1.287
 2567SOL     OW 8599   0.978   0.309   0.888
 2567SOL    HW1 8600   1.063   0.337   0.845
 2567SOL    HW2 8601   0.906   0.302   0.818
 2568SOL     OW 8602   4.589   2.009   6.294
 2568SOL    HW1 8603   4.554   1.921   6.262
 2568SOL    HW2 8604   4.663   2.040   6.235
 2569SOL     OW 8605   2.630   0.288   2.736
 2569SOL    HW1 8606   2.705   0.345   2.701
 2569SOL    HW2 8607   2.591   0.236   2.660
 2570SOL     OW 8608   5.241   0.704   5.822
 2570SOL    HW1 8609   5.337   0.678   5.816
 2570SOL    HW2 8610   5.189   0.631   5.866
 2571SOL     OW 8611   2.074   4.850   4.244
 2571SOL    HW1 8612   2.134   4.897   4.180
 2571SOL    HW2 8613   2.129   4.807   4.316
 2572SOL     OW 8614   2.610   5.718   1.871
 2572SOL    HW1 8615   2.571   5.765   1.950
 2572SOL    HW2 8616   2.560   5.743   1.788
 2573SOL     OW 8617   0.525   1.767   1.118
 2573SOL    HW1 8618   0.517   1.672   1.147
 2573SOL    HW2 8619   0.435   1.811   1.123
 2574SOL     OW 8620   5.240   4.014   1.118
 2574SOL    HW1 8621   5.287   4.080   1.178
 2574SOL    HW2 8622   5.304   3.981   1.048
 2575SOL     OW 8623   5.708   5.872   6.625
 2575SOL    HW1 8624   5.753   5.870   6.714
 2575SOL    HW2 8625   5.743   5.797   6.568
 2576SOL     OW 8626   4.720   6.270   4.255
 2576SOL    HW1 8627   4.659   6.349   4.255
 2576SOL    HW2 8628   4.671   6.190   4.289
 2577SOL     OW 8629   3.279   5.282   2.075
 2577SOL    HW1 8630   3.251   5.376   2.056
 2577SOL    HW2 8631   3.199   5.226   2.094
 2578SOL     OW 8632   3.866   1.482   3.809
 2578SOL    HW1 8633   3.778   1.480   3.857
 2578SOL    HW2 8634   3.919   1.400   3.832
 2579SOL     OW 8635   1.017   6.606   4.076
 2579SOL    HW1 8636   1.038   6.511   4.099
 2579SOL    HW2 8637   1.095   6.664   4.102
 2580SOL     OW 8638   2.786   4.786   7.016
 2580SOL    HW1 8639   2.692   4.805   0.018
 2580SOL    HW2 8640   2.849   4.836   0.050
 2581SOL     OW 8641   2.209   5.661   1.066
 2581SOL    HW1 8642   2.168   5.752   1.077
 2581SOL    HW2 8643   2.136   5.592   1.063
 2582SOL     OW 8644   0.198   4.297   1.772
 2582SOL    HW1 8645   0.116   4.333   1.817
 2582SOL    HW2 8646   0.248   4.239   1.835
 2583SOL     OW 8647   0.514   0.906   6.537
 2583SOL    HW1 8648   0.505   0.991   6.589
 2583SOL    HW2 8649   0.559   0.925   6.450
 2584SOL     OW 8650   3.981   5.297   5.845
 2584SOL    HW1 8651   4.028   5.317   5.760
 2584SOL    HW2 8652   4.040   5.240   5.903
 2585SOL     OW 8653   3.131   3.547   0.411
 2585SOL    HW1 8654   3.117   3.449   0.396
 2585SOL    HW2 8655   3.102   3.570   0.504
 2586SOL     OW 8656   2.805   1.233   5.693
 2586SOL    HW1 8657   2.792   1.233   5.594
 2586SOL    HW2 8658   2.900   1.209   5.714
 2587SOL     OW 8659   6.793   1.178   3.237
 2587SOL    HW1 8660   6.832   1.093   3.273
 2587SOL    HW2 8661   6.864   1.227   3.186
 2588SOL     OW 8662   4.027   2.302   5.637
 2588SOL    HW1 8663   3.957   2.230   5.635
 2588SOL    HW2 8664   3.982   2.391   5.646
 2589SOL     OW 8665   1.364   6.823   6.240
 2589SOL    HW1 8666   1.372   6.791   6.146
 2589SOL    HW2 8667   1.452   6.861   6.270
 2590SOL     OW 8668   2.640   4.981   0.328
 2590SOL    HW1 8669   2.551   4.937   0.339
 2590SOL    HW2 8670   2.629   5.065   0.276
 2591SOL     OW 8671   6.883   5.353   3.460
 2591SOL    HW1 8672   6.971   5.376   3.501
 2591SOL    HW2 8673   6.894   5.343   3.361
 2592SOL     OW 8674   2.775   4.482   6.717
 2592SOL    HW1 8675   2.734   4.467   6.628
 2592SOL    HW2 8676   2.793   4.394   6.761
 2593SOL     OW 8677   3.191   5.727   0.738
 2593SOL    HW1 8678   3.168   5.745   0.642
 2593SOL    HW2 8679   3.196   5.814   0.788
 2594SOL     OW 8680   2.483   4.248   5.741
 2594SOL    HW1 8681   2.471   4.310   5.664
 2594SOL    HW2 8682   2.531   4.165   5.711
 2595SOL     OW 8683   0.009   1.351   3.975
 2595SOL    HW1 8684   6.942   1.319   3.997
 2595SOL    HW2 8685   0.060   1.278   3.930
 2596SOL     OW 8686   2.297   2.679   1.117
 2596SOL    HW1 8687   2.294   2.705   1.214
 2596SOL    HW2 8688   2.212   2.632   1.092
 2597SOL     OW 8689   0.554   5.487   6.768
 2597SOL    HW1 8690   0.601   5.425   6.832
 2597SOL    HW2 8691   0.493   5.434   6.710
 2598SOL     OW 8692   6.569   1.337   1.790
 2598SOL    HW1 8693   6.525   1.426   1.798
 2598SOL    HW2 8694   6.669   1.348   1.795
 2599SOL     OW 8695   1.527   5.898   0.722
 2599SOL    HW1 8696   1.601   5.906   0.655
 2599SOL    HW2 8697   1.454   5.963   0.700
 2600SOL     OW 8698   5.976   3.000   4.155
 2600SOL    HW1 8699   5.927   3.087   4.161
 2600SOL    HW2 8700   5.960   2.947   4.239
 2601SOL     OW 8701   1.388   1.858   1.514
 2601SOL    HW1 8702   1.398   1.909   1.428
 2601SOL    HW2 8703   1.324   1.782   1.501
 2602SOL     OW 8704   1.730   4.489   5.014
 2602SOL    HW1 8705   1.822   4.451   5.025
 2602SOL    HW2 8706   1.670   4.420   4.973
 2603SOL     OW 8707   2.696   0.852   2.602
 2603SOL    HW1 8708   2.668   0.818   2.691
 2603SOL    HW2 8709   2.617   0.893   2.555
 2604SOL     OW 8710   5.384   1.821   2.710
 2604SOL    HW1 8711   5.303   1.765   2.695
 2604SOL    HW2 8712   5.464   1.774   2.673
 2605SOL     OW 8713   1.602   3.403   2.490
 2605SOL    HW1 8714   1.643   3.325   2.441
 2605SOL    HW2 8715   1.503   3.390   2.495
 2606SOL     OW 8716   5.753   5.137   1.614
 2606SOL    HW1 8717   5.729   5.195   1.691
 2606SOL    HW2 8718   5.783   5.048   1.647
 2607SOL     OW 8719   1.278   1.747   0.943
 2607SOL    HW1 8720   1.317   1.793   0.862
 2607SOL    HW2 8721   1.202   1.802   0.979
 2608SOL     OW 8722   2.814   5.678   6.773
 2608SOL    HW1 8723   2.752   5.674   6.694
 2608SOL    HW2 8724   2.892   5.618   6.757
 2609SOL     OW 8725   6.796   1.372   1.600
 2609SOL    HW1 8726   6.782   1.292   1.541
 2609SOL    HW2 8727   6.891   1.374   1.631
 2610SOL     OW 8728   0.914   4.372   4.106
 2610SOL    HW1 8729   0.910   4.444   4.175
 2610SOL    HW2 8730   0.995   4.315   4.121
 2611SOL     OW 8731   4.405   6.394   0.024
 2611SOL    HW1 8732   4.381   6.403   0.121
 2611SOL    HW2 8733   4.490   6.444   0.006
 2612SOL     OW 8734   5.740   6.872   4.400
 2612SOL    HW1 8735   5.671   6.880   4.328
 2612SOL    HW2 8736   5.831   6.880   4.359
 2613SOL     OW 8737   1.972   4.860   6.524
 2613SOL    HW1 8738   2.004   4.878   6.617
 2613SOL    HW2 8739   2.025   4.914   6.459
 2614SOL     OW 8740   5.897   0.998   6.300
 2614SOL    HW1 8741   5.867   0.908   6.270
 2614SOL    HW2 8742   5.821   1.063   6.292
 2615SOL     OW 8743   0.603   2.527   1.623
 2615SOL    HW1 8744   0.658   2.580   1.559
 2615SOL    HW2 8745   0.627   2.430   1.616
 2616SOL     OW 8746   0.839   1.681   5.321
 2616SOL    HW1 8747   0.824   1.593   5.275
 2616SOL    HW2 8748   0.881   1.665   5.410
 2617SOL     OW 8749   4.958   0.788   0.847
 2617SOL    HW1 8750   5.055   0.775   0.828
 2617SOL    HW2 8751   4.908   0.797   0.760
 2618SOL     OW 8752   1.298   5.650   5.065
 2618SOL    HW1 8753   1.313   5.604   4.977
 2618SOL    HW2 8754   1.200   5.652   5.084
 2619SOL     OW 8755   4.016   1.964   1.838
 2619SOL    HW1 8756   3.961   1.908   1.900
 2619SOL    HW2 8757   3.999   2.060   1.855
 2620SOL     OW 8758   6.085   6.516   1.724
 2620SOL    HW1 8759   6.039   6.428   1.738
 2620SOL    HW2 8760   6.181   6.508   1.750
 2621SOL     OW 8761   0.534   4.819   2.993
 2621SOL    HW1 8762   0.565   4.727   2.969
 2621SOL    HW2 8763   0.614   4.878   3.007
 2622SOL     OW 8764   3.091   2.953   5.835
 2622SOL    HW1 8765   3.100   3.051   5.853
 2622SOL    HW2 8766   2.998   2.933   5.804
 2623SOL     OW 8767   0.591   0.156   3.797
 2623SOL    HW1 8768   0.581   0.240   3.743
 2623SOL    HW2 8769   0.600   0.179   3.894
 2624SOL     OW 8770   6.885   1.886   4.457
 2624SOL    HW1 8771   6.860   1.959   4.394
 2624SOL    HW2 8772   6.867   1.916   4.551
 2625SOL     OW 8773   2.290   5.033   5.805
 2625SOL    HW1 8774   2.319   4.944   5.768
 2625SOL    HW2 8775   2.354   5.103   5.775
 2626SOL     OW 8776   6.276   0.151   5.633
 2626SOL    HW1 8777   6.233   0.121   5.719
 2626SOL    HW2 8778   6.212   0.207   5.582
 2627SOL     OW 8779   1.195   0.379   6.454
 2627SOL    HW1 8780   1.275   0.347   6.402
 2627SOL    HW2 8781   1.203   0.477   6.470
 2628SOL     OW 8782   1.828   3.431   3.964
 2628SOL    HW1 8783   1.833   3.349   4.020
 2628SOL    HW2 8784   1.750   3.424   3.901
 2629SOL     OW 8785   3.360   3.521   3.513
 2629SOL    HW1 8786   3.403   3.452   3.571
 2629SOL    HW2 8787   3.309   3.475   3.440
 2630SOL     OW 8788   3.371   0.839   3.605
 2630SOL    HW1 8789   3.465   0.831   3.574
 2630SOL    HW2 8790   3.349   0.935   3.621
 2631SOL     OW 8791   5.885   0.516   6.449
 2631SOL    HW1 8792   5.926   0.558   6.530
 2631SOL    HW2 8793   5.801   0.566   6.425
 2632SOL     OW 8794   5.414   4.487   1.587
 2632SOL    HW1 8795   5.455   4.558   1.644
 2632SOL    HW2 8796   5.462   4.483   1.499
 2633SOL     OW 8797   6.703   2.554   5.539
 2633SOL    HW1 8798   6.704   2.511   5.449
 2633SOL    HW2 8799   6.646   2.499   5.601
 2634SOL     OW 8800   0.527   6.199   4.382
 2634SOL    HW1 8801   0.532   6.295   4.354
 2634SOL    HW2 8802   0.469   6.149   4.318
 2635SOL     OW 8803   5.716   5.412   3.779
 2635SOL    HW1 8804   5.737   5.314   3.781
 2635SOL    HW2 8805   5.794   5.464   3.812
 2636SOL     OW 8806   3.543   1.181   6.602
 2636SOL    HW1 8807   3.630   1.141   6.577
 2636SOL    HW2 8808   3.549   1.281   6.594
 2637SOL     OW 8809   6.965   1.782   3.568
 2637SOL    HW1 8810   6.906   1.838   3.510
 2637SOL    HW2 8811   7.008   1.710   3.513
 2638SOL     OW 8812   0.700   0.337   4.869
 2638SOL    HW1 8813   0.799   0.327   4.863
 2638SOL    HW2 8814   0.656   0.276   4.802
 2639SOL     OW 8815   5.042   5.239   4.926
 2639SOL    HW1 8816   4.992   5.322   4.949
 2639SOL    HW2 8817   5.066   5.239   4.829
 2640SOL     OW 8818   0.378   6.972   5.456
 2640SOL    HW1 8819   0.353   0.036   5.493
 2640SOL    HW2 8820   0.305   6.906   5.477
 2641SOL     OW 8821   5.368   2.836   0.315
 2641SOL    HW1 8822   5.294   2.772   0.334
 2641SOL    HW2 8823   5.407   2.869   0.401
 2642SOL     OW 8824   6.960   0.658   3.669
 2642SOL    HW1 8825   0.001   0.650   3.594
 2642SOL    HW2 8826   6.909   0.744   3.660
 2643SOL     OW 8827   0.781   3.235   3.644
 2643SOL    HW1 8828   0.847   3.286   3.699
 2643SOL    HW2 8829   0.766   3.145   3.684
 2644SOL     OW 8830   4.737   5.651   5.002
 2644SOL    HW1 8831   4.644   5.650   4.966
 2644SOL    HW2 8832   4.735   5.684   5.097
 2645SOL     OW 8833   5.173   5.115   3.795
 2645SOL    HW1 8834   5.259   5.164   3.806
 2645SOL    HW2 8835   5.096   5.178   3.810
 2646SOL     OW 8836   0.612   3.983   6.722
 2646SOL    HW1 8837   0.641   3.947   6.810
 2646SOL    HW2 8838   0.691   3.985   6.660
 2647SOL     OW 8839   4.820   0.096   1.951
 2647SOL    HW1 8840   4.807   0.084   2.050
 2647SOL    HW2 8841   4.835   0.193   1.932
 2648SOL     OW 8842   1.037   0.322   3.753
 2648SOL    HW1 8843   1.121   0.317   3.806
 2648SOL    HW2 8844   0.959   0.332   3.815
 2649SOL     OW 8845   5.296   2.903   1.923
 2649SOL    HW1 8846   5.210   2.864   1.957
 2649SOL    HW2 8847   5.373   2.847   1.953
 2650SOL     OW 8848   2.959   5.677   4.455
 2650SOL    HW1 8849   3.002   5.611   4.394
 2650SOL    HW2 8850   2.951   5.638   4.546
 2651SOL     OW 8851   3.542   1.730   6.385
 2651SOL    HW1 8852   3.600   1.786   6.327
 2651SOL    HW2 8853   3.579   1.637   6.390
 2652SOL     OW 8854   4.483   3.531   5.639
 2652SOL    HW1 8855   4.483   3.503   5.543
 2652SOL    HW2 8856   4.406   3.488   5.687
 2653SOL     OW 8857   3.408   5.859   5.760
 2653SOL    HW1 8858   3.488   5.870   5.701
 2653SOL    HW2 8859   3.326   5.885   5.710
 2654SOL     OW 8860   5.014   6.681   0.693
 2654SOL    HW1 8861   5.010   6.602   0.754
 2654SOL    HW2 8862   5.047   6.652   0.603
 2655SOL     OW 8863   4.585   6.374   3.489
 2655SOL    HW1 8864   4.669   6.429   3.493
 2655SOL    HW2 8865   4.545   6.368   3.581
 2656SOL     OW 8866   3.604   5.717   3.836
 2656SOL    HW1 8867   3.574   5.630   3.797
 2656SOL    HW2 8868   3.557   5.792   3.790
 2657SOL     OW 8869   1.745   3.614   0.469
 2657SOL    HW1 8870   1.682   3.554   0.420
 2657SOL    HW2 8871   1.695   3.694   0.503
 2658SOL     OW 8872   4.385   4.056   6.468
 2658SOL    HW1 8873   4.303   4.031   6.519
 2658SOL    HW2 8874   4.462   4.067   6.531
 2659SOL     OW 8875   5.455   2.642   5.096
 2659SOL    HW1 8876   5.425   2.653   5.190
 2659SOL    HW2 8877   5.439   2.727   5.045
 2660SOL     OW 8878   0.851   1.111   0.864
 2660SOL    HW1 8879   0.855   1.146   0.770
 2660SOL    HW2 8880   0.771   1.052   0.874
 2661SOL     OW 8881   1.248   0.966   1.756
 2661SOL    HW1 8882   1.210   1.058   1.760
 2661SOL    HW2 8883   1.261   0.940   1.660
 2662SOL     OW 8884   2.948   0.760   3.706
 2662SOL    HW1 8885   3.014   0.750   3.632
 2662SOL    HW2 8886   2.996   0.781   3.791
 2663SOL     OW 8887   3.123   6.955   5.944
 2663SOL    HW1 8888   3.150   6.876   5.890
 2663SOL    HW2 8889   3.051   6.930   6.008
 2664SOL     OW 8890   3.738   2.534   5.350
 2664SOL    HW1 8891   3.837   2.547   5.352
 2664SOL    HW2 8892   3.693   2.616   5.386
 2665SOL     OW 8893   2.363   3.569   5.278
 2665SOL    HW1 8894   2.381   3.479   5.317
 2665SOL    HW2 8895   2.444   3.627   5.288
 2666SOL     OW 8896   1.807   3.060   2.285
 2666SOL    HW1 8897   1.906   3.052   2.274
 2666SOL    HW2 8898   1.774   3.140   2.236
 2667SOL     OW 8899   6.364   4.522   3.746
 2667SOL    HW1 8900   6.315   4.554   3.827
 2667SOL    HW2 8901   6.315   4.443   3.707
 2668SOL     OW 8902   5.425   2.220   4.683
 2668SOL    HW1 8903   5.414   2.149   4.613
 2668SOL    HW2 8904   5.438   2.309   4.638
 2669SOL     OW 8905   2.636   6.256   6.872
 2669SOL    HW1 8906   2.627   6.169   6.823
 2669SOL    HW2 8907   2.700   6.315   6.823
 2670SOL     OW 8908   6.497   1.805   5.149
 2670SOL    HW1 8909   6.516   1.740   5.224
 2670SOL    HW2 8910   6.432   1.873   5.181
 2671SOL     OW 8911   4.105   5.718   6.572
 2671SOL    HW1 8912   4.146   5.633   6.604
 2671SOL    HW2 8913   4.026   5.699   6.514
 2672SOL     OW 8914   3.374   1.273   2.020
 2672SOL    HW1 8915   3.321   1.207   2.075
 2672SOL    HW2 8916   3.465   1.283   2.060
 2673SOL     OW 8917   5.416   6.926   3.056
 2673SOL    HW1 8918   5.394   6.976   2.972
 2673SOL    HW2 8919   5.341   6.936   3.121
 2674SOL     OW 8920   1.253   5.393   3.656
 2674SOL    HW1 8921   1.320   5.411   3.727
 2674SOL    HW2 8922   1.275   5.306   3.611
 2675SOL     OW 8923   0.172   6.499   3.847
 2675SOL    HW1 8924   0.240   6.504   3.774
 2675SOL    HW2 8925   0.098   6.564   3.828
 2676SOL     OW 8926   3.159   3.937   2.080
 2676SOL    HW1 8927   3.128   3.986   2.161
 2676SOL    HW2 8928   3.157   3.998   2.001
 2677SOL     OW 8929   2.442   4.513   0.865
 2677SOL    HW1 8930   2.426   4.606   0.833
 2677SOL    HW2 8931   2.401   4.501   0.956
 2678SOL     OW 8932   6.979   2.199   2.178
 2678SOL    HW1 8933   6.937   2.176   2.266
 2678SOL    HW2 8934   0.053   2.195   2.186
 2679SOL     OW 8935   1.589   5.526   2.154
 2679SOL    HW1 8936   1.495   5.550   2.133
 2679SOL    HW2 8937   1.592   5.474   2.239
 2680SOL     OW 8938   1.439   2.386   6.656
 2680SOL    HW1 8939   1.526   2.433   6.670
 2680SOL    HW2 8940   1.446   2.292   6.690
 2681SOL     OW 8941   1.310   2.708   5.339
 2681SOL    HW1 8942   1.386   2.654   5.304
 2681SOL    HW2 8943   1.225   2.678   5.295
 2682SOL     OW 8944   4.788   4.068   2.127
 2682SOL    HW1 8945   4.737   4.119   2.058
 2682SOL    HW2 8946   4.851   4.005   2.082
 2683SOL     OW 8947   2.642   4.599   2.732
 2683SOL    HW1 8948   2.581   4.522   2.711
 2683SOL    HW2 8949   2.604   4.652   2.808
 2684SOL     OW 8950   5.424   6.406   2.115
 2684SOL    HW1 8951   5.447   6.320   2.160
 2684SOL    HW2 8952   5.503   6.437   2.062
 2685SOL     OW 8953   6.790   4.945   4.999
 2685SOL    HW1 8954   6.868   4.883   5.011
 2685SOL    HW2 8955   6.744   4.924   4.913
 2686SOL     OW 8956   1.645   1.279   4.859
 2686SOL    HW1 8957   1.732   1.232   4.839
 2686SOL    HW2 8958   1.591   1.284   4.775
 2687SOL     OW 8959   3.888   1.092   1.991
 2687SOL    HW1 8960   3.970   1.036   1.977
 2687SOL    HW2 8961   3.828   1.084   1.912
 2688SOL     OW 8962   3.280   2.000   0.576
 2688SOL    HW1 8963   3.332   1.953   0.648
 2688SOL    HW2 8964   3.219   1.934   0.531
 2689SOL     OW 8965   0.748   3.989   2.661
 2689SOL    HW1 8966   0.690   4.056   2.614
 2689SOL    HW2 8967   0.756   3.906   2.605
 2690SOL     OW 8968   3.159   2.245   6.422
 2690SOL    HW1 8969   3.208   2.231   6.336
 2690SOL    HW2 8970   3.205   2.315   6.475
 2691SOL     OW 8971   0.386   4.431   3.869
 2691SOL    HW1 8972   0.483   4.418   3.889
 2691SOL    HW2 8973   0.353   4.355   3.813
 2692SOL     OW 8974   2.869   5.813   3.166
 2692SOL    HW1 8975   2.785   5.764   3.187
 2692SOL    HW2 8976   2.848   5.894   3.111
 2693SOL     OW 8977   1.577   5.190   3.593
 2693SOL    HW1 8978   1.588   5.216   3.689
 2693SOL    HW2 8979   1.617   5.100   3.578
 2694SOL     OW 8980   4.234   6.283   3.265
 2694SOL    HW1 8981   4.160   6.341   3.301
 2694SOL    HW2 8982   4.268   6.223   3.338
 2695SOL     OW 8983   6.448   6.797   2.537
 2695SOL    HW1 8984   6.495   6.716   2.575
 2695SOL    HW2 8985   6.413   6.775   2.446
 2696SOL     OW 8986   4.652   3.565   6.478
 2696SOL    HW1 8987   4.604   3.517   6.404
 2696SOL    HW2 8988   4.605   3.548   6.564
 2697SOL     OW 8989   4.462   1.452   1.029
 2697SOL    HW1 8990   4.481   1.468   0.932
 2697SOL    HW2 8991   4.392   1.517   1.060
 2698SOL     OW 8992   1.026   4.922   6.253
 2698SOL    HW1 8993   1.107   4.864   6.253
 2698SOL    HW2 8994   0.946   4.867   6.281
 2699SOL     OW 8995   2.753   5.860   2.230
 2699SOL    HW1 8996   2.792   5.931   2.172
 2699SOL    HW2 8997   2.812   5.779   2.228
 2700SOL     OW 8998   2.568   1.879   1.006
 2700SOL    HW1 8999   2.616   1.801   0.968
 2700SOL    HW2 9000   2.621   1.916   1.083
 2701SOL     OW 9001   5.069   2.640   4.665
 2701SOL    HW1 9002   5.159   2.680   4.645
 2701SOL    HW2 9003   5.081   2.545   4.693
 2702SOL     OW 9004   2.196   1.524   4.161
 2702SOL    HW1 9005   2.264   1.543   4.090
 2702SOL    HW2 9006   2.156   1.610   4.193
 2703SOL     OW 9007   1.585   5.506   1.436
 2703SOL    HW1 9008   1.494   5.510   1.395
 2703SOL    HW2 9009   1.627   5.417   1.417
 2704SOL     OW 9010   0.039   5.722   3.401
 2704SOL    HW1 9011   0.083   5.644   3.447
 2704SOL    HW2 9012   0.041   5.708   3.302
 2705SOL     OW 9013   6.999   1.394   5.541
 2705SOL    HW1 9014   0.033   1.455   5.594
 2705SOL    HW2 9015   6.904   1.420   5.553
 2706SOL     OW 9016   5.904   4.398   4.200
 2706SOL    HW1 9017   5.837   4.467   4.171
 2706SOL    HW2 9018   5.930   4.415   4.295
 2707SOL     OW 9019   3.994   6.856   3.073
 2707SOL    HW1 9020   3.988   6.890   2.979
 2707SOL    HW2 9021   4.001   6.933   3.136
 2708SOL     OW 9022   5.951   3.035   0.417
 2708SOL    HW1 9023   5.939   3.110   0.352
 2708SOL    HW2 9024   6.048   3.017   0.430
 2709SOL     OW 9025   5.236   6.886   6.080
 2709SOL    HW1 9026   5.287   6.944   6.144
 2709SOL    HW2 9027   5.138   6.908   6.087
 2710SOL     OW 9028   1.629   3.108   3.890
 2710SOL    HW1 9029   1.597   3.013   3.888
 2710SOL    HW2 9030   1.726   3.111   3.914
 2711SOL     OW 9031   3.516   1.861   3.524
 2711SOL    HW1 9032   3.575   1.802   3.468
 2711SOL    HW2 9033   3.568   1.892   3.604
 2712SOL     OW 9034   3.537   5.517   2.198
 2712SOL    HW1 9035   3.439   5.522   2.221
 2712SOL    HW2 9036   3.564   5.599   2.149
 2713SOL     OW 9037   4.674   4.622   6.353
 2713SOL    HW1 9038   4.701   4.705   6.304
 2713SOL    HW2 9039   4.713   4.624   6.445
 2714SOL     OW 9040   3.417   3.892   6.628
 2714SOL    HW1 9041   3.480   3.840   6.570
 2714SOL    HW2 9042   3.403   3.982   6.589
 2715SOL     OW 9043   5.595   1.706   1.163
 2715SOL    HW1 9044   5.649   1.779   1.120
 2715SOL    HW2 9045   5.544   1.745   1.240
 2716SOL     OW 9046   4.328   2.283   2.618
 2716SOL    HW1 9047   4.276   2.253   2.698
 2716SOL    HW2 9048   4.269   2.283   2.537
 2717SOL     OW 9049   0.714   0.565   2.023
 2717SOL    HW1 9050   0.776   0.488   2.032
 2717SOL    HW2 9051   0.656   0.571   2.105
 2718SOL     OW 9052   0.663   0.980   5.851
 2718SOL    HW1 9053   0.650   1.043   5.774
 2718SOL    HW2 9054   0.736   1.013   5.910
 2719SOL     OW 9055   1.389   4.530   2.654
 2719SOL    HW1 9056   1.355   4.555   2.744
 2719SOL    HW2 9057   1.423   4.436   2.656
 2720SOL     OW 9058   0.671   6.973   5.039
 2720SOL    HW1 9059   0.757   7.013   5.070
 2720SOL    HW2 9060   0.619   6.940   5.118
 2721SOL     OW 9061   3.228   6.073   1.732
 2721SOL    HW1 9062   3.310   6.061   1.676
 2721SOL    HW2 9063   3.152   6.024   1.690
 2722SOL     OW 9064   4.742   5.926   6.835
 2722SOL    HW1 9065   4.745   5.954   6.739
 2722SOL    HW2 9066   4.818   5.968   6.884
 2723SOL     OW 9067   3.382   6.742   6.806
 2723SOL    HW1 9068   3.436   6.666   6.842
 2723SOL    HW2 9069   3.389   6.820   6.869
 2724SOL     OW 9070   1.269   6.193   6.493
 2724SOL    HW1 9071   1.261   6.133   6.573
 2724SOL    HW2 9072   1.365   6.219   6.480
 2725SOL     OW 9073   5.258   3.949   4.074
 2725SOL    HW1 9074   5.236   4.046   4.086
 2725SOL    HW2 9075   5.310   3.937   3.989
 2726SOL     OW 9076   0.990   1.820   1.350
 2726SOL    HW1 9077   0.996   1.783   1.258
 2726SOL    HW2 9078   1.063   1.782   1.407
 2727SOL     OW 9079   2.326   4.219   4.056
 2727SOL    HW1 9080   2.304   4.132   4.102
 2727SOL    HW2 9081   2.340   4.290   4.125
 2728SOL     OW 9082   5.494   6.039   6.523
 2728SOL    HW1 9083   5.515   5.984   6.442
 2728SOL    HW2 9084   5.575   6.043   6.582
 2729SOL     OW 9085   5.890   6.789   0.082
 2729SOL    HW1 9086   5.977   6.781   0.033
 2729SOL    HW2 9087   5.820   6.738   0.032
 2730SOL     OW 9088   0.406   5.462   1.657
 2730SOL    HW1 9089   0.358   5.547   1.677
 2730SOL    HW2 9090   0.355   5.409   1.590
 2731SOL     OW 9091   3.078   3.330   3.811
 2731SOL    HW1 9092   3.067   3.247   3.866
 2731SOL    HW2 9093   3.155   3.383   3.847
 2732SOL     OW 9094   4.828   1.254   1.187
 2732SOL    HW1 9095   4.877   1.186   1.241
 2732SOL    HW2 9096   4.733   1.260   1.218
 2733SOL     OW 9097   6.992   1.136   5.782
 2733SOL    HW1 9098   7.023   1.149   5.876
 2733SOL    HW2 9099   6.981   1.225   5.738
 2734SOL     OW 9100   3.494   6.421   1.598
 2734SOL    HW1 9101   3.497   6.363   1.679
 2734SOL    HW2 9102   3.401   6.422   1.560
 2735SOL     OW 9103   1.119   2.093   0.383
 2735SOL    HW1 9104   1.085   2.024   0.318
 2735SOL    HW2 9105   1.067   2.177   0.372
 2736SOL     OW 9106   5.648   5.952   4.108
 2736SOL    HW1 9107   5.623   5.986   4.017
 2736SOL    HW2 9108   5.586   5.878   4.134
 2737SOL     OW 9109   2.770   2.216   6.109
 2737SOL    HW1 9110   2.852   2.170   6.144
 2737SOL    HW2 9111   2.731   2.274   6.181
 2738SOL     OW 9112   5.778   0.412   1.627
 2738SOL    HW1 9113   5.759   0.495   1.679
 2738SOL    HW2 9114   5.858   0.428   1.569
 2739SOL     OW 9115   1.122   5.493   1.246
 2739SOL    HW1 9116   1.049   5.562   1.250
 2739SOL    HW2 9117   1.104   5.430   1.171
 2740SOL     OW 9118   0.200   5.279   2.670
 2740SOL    HW1 9119   0.140   5.206   2.703
 2740SOL    HW2 9120   0.240   5.253   2.583
 2741SOL     OW 9121   1.259   2.212   4.232
 2741SOL    HW1 9122   1.236   2.282   4.300
 2741SOL    HW2 9123   1.184   2.146   4.225
 2742SOL     OW 9124   3.372   4.471   1.623
 2742SOL    HW1 9125   3.411   4.469   1.531
 2742SOL    HW2 9126   3.433   4.521   1.684
 2743SOL     OW 9127   0.045   4.864   2.294
 2743SOL    HW1 9128   0.090   4.775   2.305
 2743SOL    HW2 9129   0.100   4.922   2.234
 2744SOL     OW 9130   3.616   3.153   2.373
 2744SOL    HW1 9131   3.663   3.240   2.387
 2744SOL    HW2 9132   3.656   3.105   2.295
 2745SOL     OW 9133   6.431   1.583   5.734
 2745SOL    HW1 9134   6.463   1.642   5.659
 2745SOL    HW2 9135   6.356   1.628   5.782
 2746SOL     OW 9136   0.905   1.255   4.275
 2746SOL    HW1 9137   0.900   1.268   4.374
 2746SOL    HW2 9138   0.863   1.168   4.251
 2747SOL     OW 9139   3.858   5.831   6.883
 2747SOL    HW1 9140   3.854   5.796   6.977
 2747SOL    HW2 9141   3.774   5.880   6.862
 2748SOL     OW 9142   4.267   0.661   1.315
 2748SOL    HW1 9143   4.177   0.620   1.324
 2748SOL    HW2 9144   4.309   0.632   1.228
 2749SOL     OW 9145   0.914   3.629   0.338
 2749SOL    HW1 9146   1.000   3.621   0.388
 2749SOL    HW2 9147   0.924   3.590   0.247
 2750SOL     OW 9148   2.499   5.163   1.933
 2750SOL    HW1 9149   2.536   5.115   2.012
 2750SOL    HW2 9150   2.436   5.103   1.884
 2751SOL     OW 9151   2.006   2.004   1.453
 2751SOL    HW1 9152   2.070   1.930   1.475
 2751SOL    HW2 9153   2.050   2.068   1.390
 2752SOL     OW 9154   4.278   4.566   5.788
 2752SOL    HW1 9155   4.188   4.607   5.773
 2752SOL    HW2 9156   4.267   4.477   5.832
 2753SOL     OW 9157   6.116   6.275   5.057
 2753SOL    HW1 9158   6.063   6.242   5.136
 2753SOL    HW2 9159   6.055   6.321   4.993
 2754SOL     OW 9160   0.704   6.392   6.845
 2754SOL    HW1 9161   0.710   6.486   6.878
 2754SOL    HW2 9162   0.641   6.388   6.768
 2755SOL     OW 9163   2.780   6.769   2.683
 2755SOL    HW1 9164   2.780   6.670   2.671
 2755SOL    HW2 9165   2.871   6.805   2.661
 2756SOL     OW 9166   4.418   6.377   0.814
 2756SOL    HW1 9167   4.403   6.461   0.867
 2756SOL    HW2 9168   4.357   6.375   0.735
 2757SOL     OW 9169   1.655   5.362   0.406
 2757SOL    HW1 9170   1.555   5.365   0.405
 2757SOL    HW2 9171   1.688   5.367   0.500
 2758SOL     OW 9172   5.492   0.171   4.711
 2758SOL    HW1 9173   5.531   0.262   4.703
 2758SOL    HW2 9174   5.519   0.130   4.799
 2759SOL     OW 9175   5.374   6.444   4.315
 2759SOL    HW1 9176   5.379   6.492   4.402
 2759SOL    HW2 9177   5.369   6.510   4.240
 2760SOL     OW 9178   1.355   5.265   2.515
 2760SOL    HW1 9179   1.286   5.213   2.464
 2760SOL    HW2 9180   1.355   5.235   2.610
 2761SOL     OW 9181   1.904   4.693   3.693
 2761SOL    HW1 9182   1.813   4.684   3.651
 2761SOL    HW2 9183   1.971   4.642   3.638
 2762SOL     OW 9184   0.811   0.486   5.582
 2762SOL    HW1 9185   0.760   0.502   5.666
 2762SOL    HW2 9186   0.765   0.532   5.506
 2763SOL     OW 9187   5.766   2.138   3.993
 2763SOL    HW1 9188   5.836   2.129   4.065
 2763SOL    HW2 9189   5.748   2.047   3.954
 2764SOL     OW 9190   5.401   0.238   1.428
 2764SOL    HW1 9191   5.333   0.303   1.396
 2764SOL    HW2 9192   5.381   0.147   1.390
 2765SOL     OW 9193   5.258   0.866   1.347
 2765SOL    HW1 9194   5.181   0.842   1.406
 2765SOL    HW2 9195   5.342   0.869   1.401
 2766SOL     OW 9196   5.702   1.683   0.730
 2766SOL    HW1 9197   5.706   1.584   0.713
 2766SOL    HW2 9198   5.679   1.699   0.826
 2767SOL     OW 9199   6.875   4.808   6.863
 2767SOL    HW1 9200   6.788   4.839   6.902
 2767SOL    HW2 9201   6.864   4.715   6.827
 2768SOL     OW 9202   5.913   1.458   0.332
 2768SOL    HW1 9203   5.988   1.397   0.307
 2768SOL    HW2 9204   5.872   1.427   0.418
 2769SOL     OW 9205   6.177   4.317   3.668
 2769SOL    HW1 9206   6.082   4.289   3.654
 2769SOL    HW2 9207   6.233   4.280   3.593
 2770SOL     OW 9208   1.656   5.433   7.004
 2770SOL    HW1 9209   1.651   5.387   6.915
 2770SOL    HW2 9210   1.676   5.366   0.050
 2771SOL     OW 9211   5.302   1.424   1.262
 2771SOL    HW1 9212   5.256   1.472   1.187
 2771SOL    HW2 9213   5.315   1.328   1.238
 2772SOL     OW 9214   4.684   2.375   0.417
 2772SOL    HW1 9215   4.763   2.422   0.377
 2772SOL    HW2 9216   4.610   2.440   0.433
 2773SOL     OW 9217   4.192   3.143   5.940
 2773SOL    HW1 9218   4.132   3.205   5.990
 2773SOL    HW2 9219   4.147   3.055   5.929
 2774SOL     OW 9220   6.056   2.935   2.967
 2774SOL    HW1 9221   6.133   2.940   2.902
 2774SOL    HW2 9222   5.994   2.862   2.939
 2775SOL     OW 9223   6.866   5.572   0.856
 2775SOL    HW1 9224   6.955   5.603   0.889
 2775SOL    HW2 9225   6.805   5.650   0.843
 2776SOL     OW 9226   4.326   5.513   5.335
 2776SOL    HW1 9227   4.301   5.562   5.418
 2776SOL    HW2 9228   4.251   5.452   5.308
 2777SOL     OW 9229   3.206   1.089   2.490
 2777SOL    HW1 9230   3.293   1.113   2.445
 2777SOL    HW2 9231   3.170   1.005   2.450
 2778SOL     OW 9232   1.835   1.372   5.655
 2778SOL    HW1 9233   1.908   1.386   5.588
 2778SOL    HW2 9234   1.753   1.337   5.609
 2779SOL     OW 9235   4.349   0.314   0.505
 2779SOL    HW1 9236   4.424   0.309   0.571
 2779SOL    HW2 9237   4.346   0.230   0.450
 2780SOL     OW 9238   6.194   5.705   5.680
 2780SOL    HW1 9239   6.191   5.631   5.748
 2780SOL    HW2 9240   6.161   5.671   5.592
 2781SOL     OW 9241   6.225   5.462   1.895
 2781SOL    HW1 9242   6.285   5.539   1.876
 2781SOL    HW2 9243   6.133   5.482   1.861
 2782SOL     OW 9244   3.282   2.432   6.564
 2782SOL    HW1 9245   3.285   2.530   6.544
 2782SOL    HW2 9246   3.369   2.402   6.603
 2783SOL     OW 9247   6.010   3.120   4.937
 2783SOL    HW1 9248   5.980   3.172   4.856
 2783SOL    HW2 9249   6.109   3.129   4.946
 2784SOL     OW 9250   2.109   2.301   1.079
 2784SOL    HW1 9251   2.101   2.325   0.982
 2784SOL    HW2 9252   2.101   2.384   1.134
 2785SOL     OW 9253   6.237   1.118   0.126
 2785SOL    HW1 9254   6.331   1.087   0.140
 2785SOL    HW2 9255   6.204   1.087   0.037
 2786SOL     OW 9256   3.670   0.106   1.325
 2786SOL    HW1 9257   3.726   0.042   1.272
 2786SOL    HW2 9258   3.636   0.060   1.407
 2787SOL     OW 9259   2.532   3.466   6.619
 2787SOL    HW1 9260   2.571   3.428   6.702
 2787SOL    HW2 9261   2.565   3.415   6.540
 2788SOL     OW 9262   2.352   4.162   0.391
 2788SOL    HW1 9263   2.300   4.137   0.473
 2788SOL    HW2 9264   2.389   4.254   0.402
 2789SOL     OW 9265   1.619   2.079   4.146
 2789SOL    HW1 9266   1.600   1.991   4.189
 2789SOL    HW2 9267   1.625   2.150   4.216
 2790SOL     OW 9268   3.417   5.289   2.740
 2790SOL    HW1 9269   3.350   5.232   2.693
 2790SOL    HW2 9270   3.509   5.255   2.720
 2791SOL     OW 9271   1.883   4.228   5.198
 2791SOL    HW1 9272   1.964   4.176   5.226
 2791SOL    HW2 9273   1.902   4.278   5.114
 2792SOL     OW 9274   1.484   0.451   5.128
 2792SOL    HW1 9275   1.484   0.381   5.199
 2792SOL    HW2 9276   1.446   0.536   5.166
 2793SOL     OW 9277   4.861   1.799   2.571
 2793SOL    HW1 9278   4.887   1.893   2.592
 2793SOL    HW2 9279   4.919   1.764   2.497
 2794SOL     OW 9280   0.100   2.739   0.474
 2794SOL    HW1 9281   0.149   2.776   0.395
 2794SOL    HW2 9282   0.065   2.648   0.453
 2795SOL     OW 9283   2.837   4.108   1.405
 2795SOL    HW1 9284   2.892   4.127   1.487
 2795SOL    HW2 9285   2.896   4.106   1.325
 2796SOL     OW 9286   6.265   4.272   2.661
 2796SOL    HW1 9287   6.272   4.311   2.753
 2796SOL    HW2 9288   6.179   4.301   2.619
 2797SOL     OW 9289   5.478   5.805   5.005
 2797SOL    HW1 9290   5.554   5.784   4.942
 2797SOL    HW2 9291   5.491   5.897   5.043
 2798SOL     OW 9292   0.908   4.222   2.667
 2798SOL    HW1 9293   0.840   4.149   2.677
 2798SOL    HW2 9294   0.998   4.186   2.690
 2799SOL     OW 9295   0.178   5.951   6.901
 2799SOL    HW1 9296   0.245   6.013   6.942
 2799SOL    HW2 9297   0.218   5.906   6.822
 2800SOL     OW 9298   4.623   4.058   6.655
 2800SOL    HW1 9299   4.629   4.066   6.755
 2800SOL    HW2 9300   4.707   4.018   6.619
 2801SOL     OW 9301   4.400   6.092   3.434
 2801SOL    HW1 9302   4.384   5.995   3.453
 2801SOL    HW2 9303   4.499   6.110   3.432
 2802SOL     OW 9304   4.280   3.130   6.484
 2802SOL    HW1 9305   4.216   3.187   6.432
 2802SOL    HW2 9306   4.337   3.188   6.542
 2803SOL     OW 9307   2.600   6.519   5.838
 2803SOL    HW1 9308   2.544   6.589   5.882
 2803SOL    HW2 9309   2.667   6.484   5.903
 2804SOL     OW 9310   6.362   4.464   3.352
 2804SOL    HW1 9311   6.418   4.397   3.399
 2804SOL    HW2 9312   6.284   4.419   3.308
 2805SOL     OW 9313   4.593   3.667   1.487
 2805SOL    HW1 9314   4.536   3.747   1.508
 2805SOL    HW2 9315   4.689   3.689   1.508
 2806SOL     OW 9316   5.804   5.035   3.286
 2806SOL    HW1 9317   5.775   5.056   3.380
 2806SOL    HW2 9318   5.895   4.994   3.288
 2807SOL     OW 9319   5.700   4.661   3.409
 2807SOL    HW1 9320   5.612   4.704   3.425
 2807SOL    HW2 9321   5.751   4.713   3.340
 2808SOL     OW 9322   4.045   1.496   3.133
 2808SOL    HW1 9323   4.127   1.472   3.081
 2808SOL    HW2 9324   3.974   1.428   3.115
 2809SOL     OW 9325   6.638   2.400   1.269
 2809SOL    HW1 9326   6.688   2.318   1.242
 2809SOL    HW2 9327   6.695   2.454   1.332
 2810SOL     OW 9328   3.384   6.515   4.627
 2810SOL    HW1 9329   3.331   6.498   4.710
 2810SOL    HW2 9330   3.441   6.597   4.640
 2811SOL     OW 9331   0.701   0.616   2.716
 2811SOL    HW1 9332   0.633   0.648   2.650
 2811SOL    HW2 9333   0.768   0.687   2.733
 2812SOL     OW 9334   5.000   3.611   1.931
 2812SOL    HW1 9335   5.048   3.537   1.883
 2812SOL    HW2 9336   4.961   3.575   2.016
 2813SOL     OW 9337   5.826   6.978   5.798
 2813SOL    HW1 9338   5.859   6.976   5.704
 2813SOL    HW2 9339   5.818   0.048   5.829
 2814SOL     OW 9340   4.313   2.971   0.185
 2814SOL    HW1 9341   4.298   3.068   0.166
 2814SOL    HW2 9342   4.339   2.958   0.280
 2815SOL     OW 9343   0.086   1.197   4.552
 2815SOL    HW1 9344   0.057   1.192   4.647
 2815SOL    HW2 9345   0.019   1.249   4.499
 2816SOL     OW 9346   6.481   6.426   3.931
 2816SOL    HW1 9347   6.544   6.351   3.952
 2816SOL    HW2 9348   6.429   6.403   3.849
 2817SOL     OW 9349   1.528   0.306   1.540
 2817SOL    HW1 9350   1.597   0.378   1.535
 2817SOL    HW2 9351   1.573   0.217   1.543
 2818SOL     OW 9352   6.877   5.325   0.073
 2818SOL    HW1 9353   6.849   5.404   0.018
 2818SOL    HW2 9354   6.899   5.355   0.166
 2819SOL     OW 9355   0.557   1.888   0.632
 2819SOL    HW1 9356   0.500   1.960   0.671
 2819SOL    HW2 9357   0.548   1.888   0.533
 2820SOL     OW 9358   0.452   2.757   2.600
 2820SOL    HW1 9359   0.507   2.683   2.562
 2820SOL    HW2 9360   0.481   2.844   2.560
 2821SOL     OW 9361   3.120   4.361   6.740
 2821SOL    HW1 9362   3.176   4.388   6.818
 2821SOL    HW2 9363   3.072   4.441   6.704
 2822SOL     OW 9364   4.104   2.496   0.591
 2822SOL    HW1 9365   4.110   2.587   0.550
 2822SOL    HW2 9366   4.032   2.443   0.546
 2823SOL     OW 9367   2.303   6.753   1.618
 2823SOL    HW1 9368   2.255   6.716   1.697
 2823SOL    HW2 9369   2.266   6.714   1.534
 2824SOL     OW 9370   2.417   1.374   5.072
 2824SOL    HW1 9371   2.506   1.356   5.029
 2824SOL    HW2 9372   2.345   1.332   5.017
 2825SOL     OW 9373   6.343   6.883   0.608
 2825SOL    HW1 9374   6.374   6.811   0.546
 2825SOL    HW2 9375   6.310   6.841   0.693
 2826SOL     OW 9376   5.428   2.122   6.226
 2826SOL    HW1 9377   5.370   2.078   6.158
 2826SOL    HW2 9378   5.515   2.073   6.233
 2827SOL     OW 9379   6.863   0.984   5.312
 2827SOL    HW1 9380   6.813   0.910   5.268
 2827SOL    HW2 9381   6.873   1.060   5.248
 2828SOL     OW 9382   3.767   1.074   6.501
 2828SOL    HW1 9383   3.866   1.074   6.483
 2828SOL    HW2 9384   3.718   1.063   6.414
 2829SOL     OW 9385   4.096   4.267   6.251
 2829SOL    HW1 9386   4.097   4.251   6.350
 2829SOL    HW2 9387   4.189   4.266   6.216
 2830SOL     OW 9388   6.883   4.508   6.796
 2830SOL    HW1 9389   6.919   4.486   6.706
 2830SOL    HW2 9390   6.921   4.446   6.864
 2831SOL     OW 9391   6.965   6.308   4.508
 2831SOL    HW1 9392   6.936   6.229   4.562
 2831SOL    HW2 9393   0.039   6.319   4.516
 2832SOL     OW 9394   0.671   1.040   1.193
 2832SOL    HW1 9395   0.654   1.120   1.250
 2832SOL    HW2 9396   0.767   1.011   1.204
 2833SOL     OW 9397   5.462   1.578   2.377
 2833SOL    HW1 9398   5.511   1.569   2.290
 2833SOL    HW2 9399   5.364   1.567   2.360
 2834SOL     OW 9400   2.564   0.691   5.866
 2834SOL    HW1 9401   2.640   0.750   5.893
 2834SOL    HW2 9402   2.524   0.725   5.781
 2835SOL     OW 9403   0.201   6.891   1.698
 2835SOL    HW1 9404   0.212   6.793   1.680
 2835SOL    HW2 9405   0.268   6.920   1.767
 2836SOL     OW 9406   6.765   0.226   1.206
 2836SOL    HW1 9407   6.812   0.259   1.125
 2836SOL    HW2 9408   6.766   0.126   1.206
 2837SOL     OW 9409   5.716   3.203   3.102
 2837SOL    HW1 9410   5.796   3.236   3.052
 2837SOL    HW2 9411   5.663   3.281   3.136
 2838SOL     OW 9412   1.942   4.140   1.700
 2838SOL    HW1 9413   2.013   4.087   1.746
 2838SOL    HW2 9414   1.964   4.148   1.603
 2839SOL     OW 9415   5.922   1.327   2.104
 2839SOL    HW1 9416   5.954   1.390   2.033
 2839SOL    HW2 9417   5.823   1.317   2.097
 2840SOL     OW 9418   0.526   0.929   4.265
 2840SOL    HW1 9419   0.599   0.998   4.267
 2840SOL    HW2 9420   0.449   0.960   4.321
 2841SOL     OW 9421   6.867   0.874   6.338
 2841SOL    HW1 9422   6.819   0.895   6.253
 2841SOL    HW2 9423   6.809   0.816   6.395
 2842SOL     OW 9424   0.334   2.101   3.902
 2842SOL    HW1 9425   0.247   2.127   3.859
 2842SOL    HW2 9426   0.368   2.177   3.957
 2843SOL     OW 9427   3.112   1.722   3.973
 2843SOL    HW1 9428   3.176   1.798   3.971
 2843SOL    HW2 9429   3.106   1.685   4.066
 2844SOL     OW 9430   1.032   3.867   0.377
 2844SOL    HW1 9431   0.980   3.792   0.336
 2844SOL    HW2 9432   1.127   3.863   0.345
 2845SOL     OW 9433   1.052   3.432   0.666
 2845SOL    HW1 9434   1.077   3.520   0.706
 2845SOL    HW2 9435   1.097   3.359   0.717
 2846SOL     OW 9436   5.009   1.750   6.762
 2846SOL    HW1 9437   4.997   1.793   6.851
 2846SOL    HW2 9438   5.071   1.672   6.769
 2847SOL     OW 9439   5.134   3.668   3.672
 2847SOL    HW1 9440   5.085   3.586   3.701
 2847SOL    HW2 9441   5.069   3.738   3.645
 2848SOL     OW 9442   0.181   4.637   6.277
 2848SOL    HW1 9443   0.093   4.615   6.234
 2848SOL    HW2 9444   0.232   4.699   6.218
 2849SOL     OW 9445   3.506   0.313   1.244
 2849SOL    HW1 9446   3.429   0.278   1.296
 2849SOL    HW2 9447   3.578   0.243   1.239
 2850SOL     OW 9448   3.790   0.570   1.894
 2850SOL    HW1 9449   3.700   0.562   1.937
 2850SOL    HW2 9450   3.844   0.488   1.914
 2851SOL     OW 9451   0.765   4.389   5.323
 2851SOL    HW1 9452   0.778   4.294   5.349
 2851SOL    HW2 9453   0.844   4.443   5.351
 2852SOL     OW 9454   5.357   4.308   6.967
 2852SOL    HW1 9455   5.407   4.386   6.931
 2852SOL    HW2 9456   5.416   4.255   0.003
 2853SOL     OW 9457   2.878   2.200   6.784
 2853SOL    HW1 9458   2.972   2.181   6.812
 2853SOL    HW2 9459   2.817   2.131   6.823
 2854SOL     OW 9460   2.865   1.437   4.373
 2854SOL    HW1 9461   2.854   1.356   4.315
 2854SOL    HW2 9462   2.783   1.494   4.367
 2855SOL     OW 9463   1.663   0.503   5.840
 2855SOL    HW1 9464   1.719   0.438   5.788
 2855SOL    HW2 9465   1.647   0.468   5.932
 2856SOL     OW 9466   2.070   2.988   6.065
 2856SOL    HW1 9467   2.139   2.994   6.137
 2856SOL    HW2 9468   2.006   3.065   6.074
 2857SOL     OW 9469   3.101   1.878   1.628
 2857SOL    HW1 9470   3.111   1.880   1.728
 2857SOL    HW2 9471   3.154   1.802   1.591
 2858SOL     OW 9472   6.263   3.546   2.030
 2858SOL    HW1 9473   6.202   3.617   2.063
 2858SOL    HW2 9474   6.335   3.529   2.097
 2859SOL     OW 9475   5.375   1.995   0.753
 2859SOL    HW1 9476   5.385   1.923   0.684
 2859SOL    HW2 9477   5.433   1.974   0.831
 2860SOL     OW 9478   3.892   1.813   1.021
 2860SOL    HW1 9479   3.940   1.828   1.108
 2860SOL    HW2 9480   3.882   1.714   1.006
 2861SOL     OW 9481   4.735   5.292   5.584
 2861SOL    HW1 9482   4.635   5.299   5.585
 2861SOL    HW2 9483   4.767   5.280   5.490
 2862SOL     OW 9484   5.951   1.649   3.291
 2862SOL    HW1 9485   5.999   1.593   3.358
 2862SOL    HW2 9486   6.017   1.706   3.242
 2863SOL     OW 9487   5.746   1.423   0.056
 2863SOL    HW1 9488   5.817   1.468   0.110
 2863SOL    HW2 9489   5.785   1.344   0.008
 2864SOL     OW 9490   3.878   0.458   1.092
 2864SOL    HW1 9491   3.872   0.521   1.014
 2864SOL    HW2 9492   3.786   0.431   1.120
 2865SOL     OW 9493   5.137   4.531   5.176
 2865SOL    HW1 9494   5.206   4.556   5.244
 2865SOL    HW2 9495   5.167   4.449   5.126
 2866SOL     OW 9496   6.377   6.674   0.424
 2866SOL    HW1 9497   6.387   6.657   0.326
 2866SOL    HW2 9498   6.313   6.608   0.463
 2867SOL     OW 9499   5.755   4.083   2.022
 2867SOL    HW1 9500   5.828   4.033   1.977
 2867SOL    HW2 9501   5.780   4.100   2.118
 2868SOL     OW 9502   0.708   3.559   5.135
 2868SOL    HW1 9503   0.758   3.477   5.162
 2868SOL    HW2 9504   0.772   3.626   5.097
 2869SOL     OW 9505   6.094   1.158   3.133
 2869SOL    HW1 9506   6.006   1.204   3.149
 2869SOL    HW2 9507   6.101   1.078   3.193
 2870SOL     OW 9508   6.926   1.352   4.386
 2870SOL    HW1 9509   6.961   1.304   4.305
 2870SOL    HW2 9510   6.926   1.450   4.369
 2871SOL     OW 9511   2.082   1.745   6.587
 2871SOL    HW1 9512   2.131   1.829   6.565
 2871SOL    HW2 9513   1.987   1.754   6.558
 2872SOL     OW 9514   2.827   1.753   4.121
 2872SOL    HW1 9515   2.783   1.717   4.038
 2872SOL    HW2 9516   2.874   1.679   4.169
 2873SOL     OW 9517   0.845   5.184   3.421
 2873SOL    HW1 9518   0.857   5.092   3.458
 2873SOL    HW2 9519   0.902   5.248   3.472
 2874SOL     OW 9520   4.944   5.322   2.268
 2874SOL    HW1 9521   5.020   5.270   2.307
 2874SOL    HW2 9522   4.980   5.390   2.204
 2875SOL     OW 9523   4.238   6.406   6.377
 2875SOL    HW1 9524   4.287   6.388   6.292
 2875SOL    HW2 9525   4.302   6.404   6.454
 2876SOL     OW 9526   0.563   0.230   1.942
 2876SOL    HW1 9527   0.501   0.298   1.904
 2876SOL    HW2 9528   0.653   0.237   1.898
 2877SOL     OW 9529   3.434   2.805   5.470
 2877SOL    HW1 9530   3.405   2.754   5.389
 2877SOL    HW2 9531   3.433   2.744   5.549
 2878SOL     OW 9532   3.616   5.018   4.294
 2878SOL    HW1 9533   3.518   5.029   4.277
 2878SOL    HW2 9534   3.647   4.932   4.252
 2879SOL     OW 9535   4.916   5.392   0.201
 2879SOL    HW1 9536   4.883   5.479   0.165
 2879SOL    HW2 9537   4.955   5.406   0.292
 2880SOL     OW 9538   5.955   6.550   0.426
 2880SOL    HW1 9539   5.880   6.527   0.488
 2880SOL    HW2 9540   5.948   6.647   0.401
 2881SOL     OW 9541   5.732   6.155   0.804
 2881SOL    HW1 9542   5.777   6.146   0.893
 2881SOL    HW2 9543   5.633   6.159   0.818
 2882SOL     OW 9544   0.478   3.441   2.705
 2882SOL    HW1 9545   0.383   3.421   2.731
 2882SOL    HW2 9546   0.540   3.407   2.775
 2883SOL     OW 9547   4.286   6.764   3.732
 2883SOL    HW1 9548   4.372   6.804   3.700
 2883SOL    HW2 9549   4.218   6.769   3.659
 2884SOL     OW 9550   0.744   5.994   3.338
 2884SOL    HW1 9551   0.837   6.014   3.309
 2884SOL    HW2 9552   0.744   5.916   3.400
 2885SOL     OW 9553   0.090   2.532   3.042
 2885SOL    HW1 9554   0.084   2.465   2.968
 2885SOL    HW2 9555   0.186   2.554   3.059
 2886SOL     OW 9556   2.467   3.478   6.897
 2886SOL    HW1 9557   2.497   3.388   6.864
 2886SOL    HW2 9558   2.372   3.493   6.870
 2887SOL     OW 9559   2.313   0.037   5.189
 2887SOL    HW1 9560   2.261   0.105   5.137
 2887SOL    HW2 9561   2.295   6.971   5.153
 2888SOL     OW 9562   0.154   5.146   6.588
 2888SOL    HW1 9563   0.087   5.190   6.648
 2888SOL    HW2 9564   0.107   5.091   6.520
 2889SOL     OW 9565   1.493   0.834   2.374
 2889SOL    HW1 9566   1.494   0.735   2.357
 2889SOL    HW2 9567   1.467   0.882   2.291
 2890SOL     OW 9568   2.980   0.607   1.387
 2890SOL    HW1 9569   2.928   0.632   1.469
 2890SOL    HW2 9570   2.946   0.657   1.308
 2891SOL     OW 9571   2.475   4.509   3.300
 2891SOL    HW1 9572   2.409   4.584   3.288
 2891SOL    HW2 9573   2.498   4.501   3.397
 2892SOL     OW 9574   5.089   4.131   0.279
 2892SOL    HW1 9575   5.048   4.183   0.354
 2892SOL    HW2 9576   5.039   4.045   0.267
 2893SOL     OW 9577   1.530   6.567   5.396
 2893SOL    HW1 9578   1.581   6.496   5.445
 2893SOL    HW2 9579   1.490   6.630   5.462
 2894SOL     OW 9580   3.130   2.498   6.782
 2894SOL    HW1 9581   3.090   2.410   6.805
 2894SOL    HW2 9582   3.193   2.487   6.705
 2895SOL     OW 9583   3.989   3.014   6.593
 2895SOL    HW1 9584   3.981   2.955   6.513
 2895SOL    HW2 9585   3.952   2.968   6.673
 2896SOL     OW 9586   2.611   5.154   6.495
 2896SOL    HW1 9587   2.577   5.113   6.579
 2896SOL    HW2 9588   2.664   5.086   6.444
 2897SOL     OW 9589   2.479   6.307   3.859
 2897SOL    HW1 9590   2.535   6.387   3.877
 2897SOL    HW2 9591   2.441   6.272   3.945
 2898SOL     OW 9592   4.538   4.654   2.871
 2898SOL    HW1 9593   4.599   4.628   2.797
 2898SOL    HW2 9594   4.570   4.740   2.912
 2899SOL     OW 9595   0.352   1.564   6.621
 2899SOL    HW1 9596   0.408   1.645   6.638
 2899SOL    HW2 9597   0.398   1.506   6.554
 2900SOL     OW 9598   1.599   5.012   5.476
 2900SOL    HW1 9599   1.525   4.975   5.533
 2900SOL    HW2 9600   1.639   5.091   5.521
 2901SOL     OW 9601   1.303   6.891   2.471
 2901SOL    HW1 9602   1.360   6.909   2.391
 2901SOL    HW2 9603   1.308   6.968   2.534
 2902SOL     OW 9604   5.347   6.579   0.514
 2902SOL    HW1 9605   5.395   6.495   0.541
 2902SOL    HW2 9606   5.304   6.620   0.594
 2903SOL     OW 9607   3.352   6.839   1.862
 2903SOL    HW1 9608   3.432   6.780   1.853
 2903SOL    HW2 9609   3.327   6.877   1.773
 2904SOL     OW 9610   2.460   3.287   5.331
 2904SOL    HW1 9611   2.472   3.195   5.295
 2904SOL    HW2 9612   2.417   3.282   5.421
 2905SOL     OW 9613   1.250   1.638   2.889
 2905SOL    HW1 9614   1.316   1.702   2.849
 2905SOL    HW2 9615   1.249   1.650   2.988
 2906SOL     OW 9616   5.062   5.168   2.602
 2906SOL    HW1 9617   5.053   5.077   2.643
 2906SOL    HW2 9618   4.991   5.228   2.640
 2907SOL     OW 9619   6.296   1.174   4.772
 2907SOL    HW1 9620   6.217   1.230   4.797
 2907SOL    HW2 9621   6.297   1.091   4.827
 2908SOL     OW 9622   4.041   6.437   3.973
 2908SOL    HW1 9623   4.059   6.345   4.009
 2908SOL    HW2 9624   3.989   6.489   4.041
 2909SOL     OW 9625   0.542   5.055   4.713
 2909SOL    HW1 9626   0.563   5.056   4.811
 2909SOL    HW2 9627   0.591   5.130   4.668
 2910SOL     OW 9628   3.917   6.486   4.468
 2910SOL    HW1 9629   3.866   6.516   4.547
 2910SOL    HW2 9630   3.878   6.526   4.385
 2911SOL     OW 9631   2.410   5.357   3.867
 2911SOL    HW1 9632   2.387   5.397   3.956
 2911SOL    HW2 9633   2.487   5.406   3.827
 2912SOL     OW 9634   3.158   6.259   0.497
 2912SOL    HW1 9635   3.186   6.347   0.459
 2912SOL    HW2 9636   3.104   6.209   0.429
 2913SOL     OW 9637   1.905   4.678   2.890
 2913SOL    HW1 9638   1.937   4.763   2.932
 2913SOL    HW2 9639   1.805   4.675   2.894
 2914SOL     OW 9640   5.664   5.197   6.515
 2914SOL    HW1 9641   5.614   5.182   6.601
 2914SOL    HW2 9642   5.618   5.149   6.441
 2915SOL     OW 9643   4.786   1.892   3.958
 2915SOL    HW1 9644   4.847   1.886   3.879
 2915SOL    HW2 9645   4.840   1.903   4.042
 2916SOL     OW 9646   6.345   4.740   5.998
 2916SOL    HW1 9647   6.376   4.672   5.931
 2916SOL    HW2 9648   6.266   4.789   5.961
 2917SOL     OW 9649   3.873   0.284   1.425
 2917SOL    HW1 9650   3.901   0.242   1.511
 2917SOL    HW2 9651   3.808   0.224   1.378
 2918SOL     OW 9652   6.946   3.006   3.621
 2918SOL    HW1 9653   7.001   2.952   3.558
 2918SOL    HW2 9654   6.938   2.959   3.709
 2919SOL     OW 9655   6.385   0.437   0.192
 2919SOL    HW1 9656   6.376   0.349   0.144
 2919SOL    HW2 9657   6.479   0.448   0.223
 2920SOL     OW 9658   3.618   2.016   2.456
 2920SOL    HW1 9659   3.519   2.000   2.448
 2920SOL    HW2 9660   3.641   2.029   2.553
 2921SOL     OW 9661   6.889   0.920   2.957
 2921SOL    HW1 9662   6.856   0.998   2.905
 2921SOL    HW2 9663   6.988   0.926   2.969
 2922SOL     OW 9664   5.692   6.553   0.269
 2922SOL    HW1 9665   5.685   6.454   0.276
 2922SOL    HW2 9666   5.670   6.582   0.176
 2923SOL     OW 9667   0.034   5.508   2.184
 2923SOL    HW1 9668   0.049   5.466   2.273
 2923SOL    HW2 9669   6.979   5.465   2.140
 2924SOL     OW 9670   7.007   1.942   6.254
 2924SOL    HW1 9671   0.048   1.868   6.244
 2924SOL    HW2 9672   6.949   1.947   6.173
 2925SOL     OW 9673   5.534   0.855   3.125
 2925SOL    HW1 9674   5.575   0.806   3.202
 2925SOL    HW2 9675   5.587   0.938   3.107
 2926SOL     OW 9676   6.841   1.481   5.259
 2926SOL    HW1 9677   6.834   1.553   5.190
 2926SOL    HW2 9678   6.916   1.504   5.322
 2927SOL     OW 9679   1.582   1.921   2.317
 2927SOL    HW1 9680   1.669   1.902   2.272
 2927SOL    HW2 9681   1.555   2.016   2.299
 2928SOL     OW 9682   6.285   2.254   6.440
 2928SOL    HW1 9683   6.304   2.156   6.429
 2928SOL    HW2 9684   6.367   2.306   6.419
 2929SOL     OW 9685   1.034   1.226   5.808
 2929SOL    HW1 9686   1.024   1.198   5.712
 2929SOL    HW2 9687   0.969   1.300   5.828
 2930SOL     OW 9688   4.691   6.549   4.932
 2930SOL    HW1 9689   4.674   6.452   4.949
 2930SOL    HW2 9690   4.661   6.603   5.010
 2931SOL     OW 9691   5.111   6.026   6.363
 2931SOL    HW1 9692   5.028   6.070   6.327
 2931SOL    HW2 9693   5.109   6.027   6.463
 2932SOL     OW 9694   1.360   4.918   2.081
 2932SOL    HW1 9695   1.331   4.830   2.118
 2932SOL    HW2 9696   1.460   4.924   2.083
 2933SOL     OW 9697   5.400   2.766   3.912
 2933SOL    HW1 9698   5.305   2.755   3.881
 2933SOL    HW2 9699   5.440   2.677   3.930
 2934SOL     OW 9700   3.736   0.900   0.974
 2934SOL    HW1 9701   3.662   0.941   0.921
 2934SOL    HW2 9702   3.798   0.971   1.005
 2935SOL     OW 9703   6.630   2.972   1.462
 2935SOL    HW1 9704   6.602   3.068   1.463
 2935SOL    HW2 9705   6.705   2.960   1.397
 2936SOL     OW 9706   4.890   5.603   1.565
 2936SOL    HW1 9707   4.977   5.643   1.539
 2936SOL    HW2 9708   4.887   5.507   1.536
 2937SOL     OW 9709   3.523   5.115   0.775
 2937SOL    HW1 9710   3.452   5.147   0.837
 2937SOL    HW2 9711   3.548   5.188   0.712
 2938SOL     OW 9712   4.828   4.852   5.219
 2938SOL    HW1 9713   4.905   4.876   5.277
 2938SOL    HW2 9714   4.838   4.757   5.188
 2939SOL     OW 9715   0.400   6.749   4.397
 2939SOL    HW1 9716   0.496   6.779   4.403
 2939SOL    HW2 9717   0.357   6.756   4.487
 2940SOL     OW 9718   5.916   0.387   5.115
 2940SOL    HW1 9719   6.016   0.392   5.111
 2940SOL    HW2 9720   5.881   0.465   5.167
 2941SOL     OW 9721   1.755   2.432   5.525
 2941SOL    HW1 9722   1.756   2.425   5.425
 2941SOL    HW2 9723   1.828   2.375   5.563
 2942SOL     OW 9724   2.409   0.908   2.175
 2942SOL    HW1 9725   2.377   0.828   2.226
 2942SOL    HW2 9726   2.455   0.879   2.092
 2943SOL     OW 9727   5.124   3.363   3.077
 2943SOL    HW1 9728   5.136   3.344   2.980
 2943SOL    HW2 9729   5.143   3.281   3.130
 2944SOL     OW 9730   3.264   5.344   5.509
 2944SOL    HW1 9731   3.238   5.386   5.422
 2944SOL    HW2 9732   3.312   5.410   5.565
 2945SOL     OW 9733   4.149   3.678   3.465
 2945SOL    HW1 9734   4.196   3.745   3.408
 2945SOL    HW2 9735   4.131   3.596   3.412
 2946SOL     OW 9736   7.006   5.639   5.678
 2946SOL    HW1 9737   6.940   5.697   5.632
 2946SOL    HW2 9738   7.015   5.668   5.773
 2947SOL     OW 9739   0.893   3.975   0.616
 2947SOL    HW1 9740   0.854   3.892   0.656
 2947SOL    HW2 9741   0.956   3.950   0.543
 2948SOL     OW 9742   6.186   3.809   5.450
 2948SOL    HW1 9743   6.135   3.842   5.371
 2948SOL    HW2 9744   6.244   3.882   5.485
 2949SOL     OW 9745   1.842   6.252   1.242
 2949SOL    HW1 9746   1.845   6.239   1.143
 2949SOL    HW2 9747   1.870   6.346   1.264
 2950SOL     OW 9748   5.480   3.505   4.580
 2950SOL    HW1 9749   5.550   3.561   4.626
 2950SOL    HW2 9750   5.498   3.505   4.482
 2951SOL     OW 9751   0.081   2.566   0.059
 2951SOL    HW1 9752   0.127   2.594   0.143
 2951SOL    HW2 9753   7.015   2.529   0.081
 2952SOL     OW 9754   1.555   4.827   3.984
 2952SOL    HW1 9755   1.642   4.854   4.026
 2952SOL    HW2 9756   1.510   4.908   3.947
 2953SOL     OW 9757   5.115   2.542   2.456
 2953SOL    HW1 9758   5.054   2.467   2.482
 2953SOL    HW2 9759   5.060   2.620   2.425
 2954SOL     OW 9760   0.962   6.241   1.769
 2954SOL    HW1 9761   1.006   6.186   1.839
 2954SOL    HW2 9762   1.031   6.289   1.715
 2955SOL     OW 9763   0.677   3.060   0.191
 2955SOL    HW1 9764   0.659   3.103   0.280
 2955SOL    HW2 9765   0.689   3.131   0.122
 2956SOL     OW 9766   6.951   6.020   2.582
 2956SOL    HW1 9767   6.921   6.062   2.667
 2956SOL    HW2 9768   6.895   6.054   2.506
 2957SOL     OW 9769   6.911   3.662   1.053
 2957SOL    HW1 9770   6.902   3.613   0.966
 2957SOL    HW2 9771   6.891   3.600   1.128
 2958SOL     OW 9772   2.496   4.574   4.671
 2958SOL    HW1 9773   2.541   4.655   4.632
 2958SOL    HW2 9774   2.520   4.566   4.768
 2959SOL     OW 9775   5.122   4.643   6.896
 2959SOL    HW1 9776   5.135   4.740   6.878
 2959SOL    HW2 9777   5.137   4.591   6.811
 2960SOL     OW 9778   3.000   1.018   6.657
 2960SOL    HW1 9779   2.913   1.035   6.702
 2960SOL    HW2 9780   3.038   1.104   6.623
 2961SOL     OW 9781   5.112   2.893   4.505
 2961SOL    HW1 9782   5.188   2.897   4.440
 2961SOL    HW2 9783   5.139   2.839   4.584
 2962SOL     OW 9784   4.692   0.775   3.803
 2962SOL    HW1 9785   4.613   0.714   3.807
 2962SOL    HW2 9786   4.686   0.842   3.876
 2963SOL     OW 9787   2.078   1.692   5.793
 2963SOL    HW1 9788   2.144   1.755   5.833
 2963SOL    HW2 9789   2.095   1.684   5.695
 2964SOL     OW 9790   1.441   0.273   1.908
 2964SOL    HW1 9791   1.531   0.275   1.865
 2964SOL    HW2 9792   1.395   0.361   1.896
 2965SOL     OW 9793   0.065   1.068   5.469
 2965SOL    HW1 9794   0.050   1.166   5.458
 2965SOL    HW2 9795   7.009   1.018   5.440
 2966SOL     OW 9796   5.928   4.624   3.835
 2966SOL    HW1 9797   5.834   4.604   3.808
 2966SOL    HW2 9798   5.989   4.614   3.756
 2967SOL     OW 9799   6.059   2.956   3.523
 2967SOL    HW1 9800   5.988   2.991   3.462
 2967SOL    HW2 9801   6.017   2.909   3.600
 2968SOL     OW 9802   0.905   4.084   6.035
 2968SOL    HW1 9803   0.950   4.128   5.957
 2968SOL    HW2 9804   0.827   4.139   6.064
 2969SOL     OW 9805   5.391   1.411   4.952
 2969SOL    HW1 9806   5.310   1.361   4.921
 2969SOL    HW2 9807   5.402   1.495   4.899
 2970SOL     OW 9808   0.954   4.132   6.943
 2970SOL    HW1 9809   0.998   4.204   6.888
 2970SOL    HW2 9810   1.013   4.111   7.021
 2971SOL     OW 9811   5.686   2.810   4.480
 2971SOL    HW1 9812   5.668   2.832   4.576
 2971SOL    HW2 9813   5.604   2.768   4.440
 2972SOL     OW 9814   6.411   4.670   6.902
 2972SOL    HW1 9815   6.497   4.622   6.892
 2972SOL    HW2 9816   6.337   4.605   6.921
 2973SOL     OW 9817   5.509   0.624   4.343
 2973SOL    HW1 9818   5.539   0.693   4.408
 2973SOL    HW2 9819   5.422   0.652   4.301
 2974SOL     OW 9820   6.407   3.513   3.332
 2974SOL    HW1 9821   6.500   3.545   3.311
 2974SOL    HW2 9822   6.341   3.582   3.302
 2975SOL     OW 9823   0.146   1.735   5.220
 2975SOL    HW1 9824   0.239   1.772   5.214
 2975SOL    HW2 9825   0.085   1.806   5.255
 2976SOL     OW 9826   3.917   1.737   3.095
 2976SOL    HW1 9827   3.985   1.663   3.096
 2976SOL    HW2 9828   3.848   1.718   3.025
 2977SOL     OW 9829   2.306   0.204   4.300
 2977SOL    HW1 9830   2.395   0.209   4.255
 2977SOL    HW2 9831   2.313   0.244   4.391
 2978SOL     OW 9832   4.309   4.691   0.070
 2978SOL    HW1 9833   4.346   4.602   0.043
 2978SOL    HW2 9834   4.374   4.763   0.045
 2979SOL     OW 9835   4.160   6.846   3.948
 2979SOL    HW1 9836   4.202   6.831   3.859
 2979SOL    HW2 9837   4.228   6.832   4.020
 2980SOL     OW 9838   1.575   6.308   4.004
 2980SOL    HW1 9839   1.651   6.373   4.006
 2980SOL    HW2 9840   1.495   6.349   4.048
 2981SOL     OW 9841   0.499   0.177   6.023
 2981SOL    HW1 9842   0.535   0.083   6.021
 2981SOL    HW2 9843   0.454   0.193   6.111
 2982SOL     OW 9844   4.722   6.556   3.213
 2982SOL    HW1 9845   4.649   6.494   3.186
 2982SOL    HW2 9846   4.737   6.549   3.311
 2983SOL     OW 9847   0.988   0.782   3.871
 2983SOL    HW1 9848   0.905   0.734   3.900
 2983SOL    HW2 9849   1.063   0.759   3.934
 2984SOL     OW 9850   4.701   6.237   1.331
 2984SOL    HW1 9851   4.636   6.302   1.369
 2984SOL    HW2 9852   4.784   6.235   1.387
 2985SOL     OW 9853   0.664   2.142   4.455
 2985SOL    HW1 9854   0.673   2.228   4.405
 2985SOL    HW2 9855   0.590   2.087   4.415
 2986SOL     OW 9856   2.428   4.121   6.400
 2986SOL    HW1 9857   2.428   4.021   6.396
 2986SOL    HW2 9858   2.352   4.156   6.346
 2987SOL     OW 9859   4.966   1.470   3.964
 2987SOL    HW1 9860   4.992   1.377   3.937
 2987SOL    HW2 9861   5.031   1.535   3.925
 2988SOL     OW 9862   0.027   6.719   2.433
 2988SOL    HW1 9863   6.963   6.716   2.477
 2988SOL    HW2 9864   0.098   6.699   2.500
 2989SOL     OW 9865   5.940   5.803   0.906
 2989SOL    HW1 9866   6.011   5.740   0.937
 2989SOL    HW2 9867   5.906   5.856   0.984
 2990SOL     OW 9868   3.999   0.856   3.259
 2990SOL    HW1 9869   4.061   0.812   3.325
 2990SOL    HW2 9870   3.934   0.789   3.224
 2991SOL     OW 9871   0.125   3.861   0.644
 2991SOL    HW1 9872   0.212   3.877   0.690
 2991SOL    HW2 9873   0.132   3.781   0.584
 2992SOL     OW 9874   2.613   5.705   5.298
 2992SOL    HW1 9875   2.642   5.620   5.344
 2992SOL    HW2 9876   2.639   5.700   5.201
 2993SOL     OW 9877   1.069   4.691   1.848
 2993SOL    HW1 9878   1.099   4.597   1.865
 2993SOL    HW2 9879   1.102   4.750   1.921
 2994SOL     OW 9880   4.236   1.137   0.324
 2994SOL    HW1 9881   4.230   1.048   0.370
 2994SOL    HW2 9882   4.258   1.208   0.391
 2995SOL     OW 9883   0.945   2.695   6.639
 2995SOL    HW1 9884   1.023   2.758   6.640
 2995SOL    HW2 9885   0.887   2.712   6.718
 2996SOL     OW 9886   3.112   6.348   4.544
 2996SOL    HW1 9887   3.171   6.314   4.617
 2996SOL    HW2 9888   3.149   6.433   4.508
 2997SOL     OW 9889   4.955   5.860   1.957
 2997SOL    HW1 9890   4.899   5.857   2.040
 2997SOL    HW2 9891   5.046   5.824   1.976
 2998SOL     OW 9892   4.953   6.160   4.910
 2998SOL    HW1 9893   4.945   6.254   4.878
 2998SOL    HW2 9894   4.915   6.098   4.841
 2999SOL     OW 9895   3.897   5.936   3.633
 2999SOL    HW1 9896   3.812   5.988   3.638
 2999SOL    HW2 9897   3.974   5.999   3.620
 3000SOL     OW 9898   1.867   3.881   6.236
 3000SOL    HW1 9899   1.956   3.895   6.193
 3000SOL    HW2 9900   1.795   3.920   6.178
 3001SOL     OW 9901   5.296   6.918   6.974
 3001SOL    HW1 9902   5.264   7.013   6.966
 3001SOL    HW2 9903   5.380   6.917   0.004
 3002SOL     OW 9904   3.883   0.349   5.276
 3002SOL    HW1 9905   3.830   0.267   5.299
 3002SOL    HW2 9906   3.979   0.332   5.295
 3003SOL     OW 9907   2.867   6.252   6.315
 3003SOL    HW1 9908   2.866   6.167   6.367
 3003SOL    HW2 9909   2.960   6.290   6.314
 3004SOL     OW 9910   6.815   4.644   4.026
 3004SOL    HW1 9911   6.772   4.567   4.073
 3004SOL    HW2 9912   6.861   4.703   4.093
 3005SOL     OW 9913   3.527   3.222   1.089
 3005SOL    HW1 9914   3.500   3.319   1.085
 3005SOL    HW2 9915   3.472   3.175   1.158
 3006SOL     OW 9916   6.167   1.941   0.853
 3006SOL    HW1 9917   6.080   1.990   0.863
 3006SOL    HW2 9918   6.227   1.992   0.792
 3007SOL     OW 9919   6.238   5.210   2.273
 3007SOL    HW1 9920   6.237   5.302   2.312
 3007SOL    HW2 9921   6.270   5.214   2.178
 3008SOL     OW 9922   3.782   0.173   6.102
 3008SOL    HW1 9923   3.785   0.074   6.086
 3008SOL    HW2 9924   3.859   0.216   6.054
 3009SOL     OW 9925   0.622   6.595   2.607
 3009SOL    HW1 9926   0.609   6.498   2.629
 3009SOL    HW2 9927   0.650   6.603   2.511
 3010SOL     OW 9928   3.910   5.764   3.194
 3010SOL    HW1 9929   3.849   5.693   3.160
 3010SOL    HW2 9930   3.897   5.848   3.141
 3011SOL     OW 9931   5.545   0.892   6.434
 3011SOL    HW1 9932   5.473   0.961   6.439
 3011SOL    HW2 9933   5.536   0.840   6.350
 3012SOL     OW 9934   0.482   3.684   4.258
 3012SOL    HW1 9935   0.535   3.759   4.297
 3012SOL    HW2 9936   0.463   3.703   4.162
 3013SOL     OW 9937   5.295   6.024   3.983
 3013SOL    HW1 9938   5.390   6.023   3.952
 3013SOL    HW2 9939   5.286   6.085   4.061
 3014SOL     OW 9940   5.131   2.396   4.138
 3014SOL    HW1 9941   5.152   2.338   4.060
 3014SOL    HW2 9942   5.032   2.407   4.146
 3015SOL     OW 9943   3.689   2.688   0.482
 3015SOL    HW1 9944   3.744   2.640   0.414
 3015SOL    HW2 9945   3.706   2.649   0.572
 3016SOL     OW 9946   3.373   6.149   4.232
 3016SOL    HW1 9947   3.373   6.144   4.132
 3016SOL    HW2 9948   3.283   6.181   4.263
 3017SOL     OW 9949   1.398   5.571   1.146
 3017SOL    HW1 9950   1.481   5.516   1.139
 3017SOL    HW2 9951   1.332   5.525   1.206
 3018SOL     OW 9952   3.372   0.440   6.356
 3018SOL    HW1 9953   3.288   0.490   6.379
 3018SOL    HW2 9954   3.360   0.392   6.269
 3019SOL     OW 9955   2.959   6.491   1.271
 3019SOL    HW1 9956   2.911   6.551   1.335
 3019SOL    HW2 9957   2.991   6.545   1.193
 3020SOL     OW 9958   3.597   3.768   1.583
 3020SOL    HW1 9959   3.602   3.696   1.513
 3020SOL    HW2 9960   3.686   3.812   1.592
 3021SOL     OW 9961   2.542   1.799   0.377
 3021SOL    HW1 9962   2.551   1.812   0.476
 3021SOL    HW2 9963   2.588   1.714   0.351
 3022SOL     OW 9964   4.087   6.249   2.569
 3022SOL    HW1 9965   4.124   6.338   2.542
 3022SOL    HW2 9966   4.001   6.232   2.520
 3023SOL     OW 9967   3.638   6.105   2.952
 3023SOL    HW1 9968   3.636   6.058   2.864
 3023SOL    HW2 9969   3.631   6.203   2.937
 3024SOL     OW 9970   3.141   0.548   6.442
 3024SOL    HW1 9971   3.104   0.458   6.467
 3024SOL    HW2 9972   3.085   0.620   6.484
 3025SOL     OW 9973   3.411   2.734   0.554
 3025SOL    HW1 9974   3.483   2.673   0.525
 3025SOL    HW2 9975   3.408   2.737   0.654
 3026SOL     OW 9976   1.513   3.234   0.992
 3026SOL    HW1 9977   1.564   3.148   0.997
 3026SOL    HW2 9978   1.415   3.216   1.007
 3027SOL     OW 9979   3.781   1.296   2.153
 3027SOL    HW1 9980   3.803   1.218   2.095
 3027SOL    HW2 9981   3.856   1.362   2.148
 3028SOL     OW 9982   0.910   4.484   6.502
 3028SOL    HW1 9983   0.866   4.561   6.457
 3028SOL    HW2 9984   0.842   4.432   6.554
 3029SOL     OW 9985   6.722   5.203   4.974
 3029SOL    HW1 9986   6.751   5.107   4.977
 3029SOL    HW2 9987   6.801   5.262   4.958
 3030SOL     OW 9988   0.586   1.742   5.583
 3030SOL    HW1 9989   0.584   1.824   5.639
 3030SOL    HW2 9990   0.668   1.743   5.526
 3031SOL     OW 9991   0.598   3.569   0.662
 3031SOL    HW1 9992   0.570   3.510   0.586
 3031SOL    HW2 9993   0.637   3.513   0.735
 3032SOL     OW 9994   5.277   0.687   0.395
 3032SOL    HW1 9995   5.221   0.696   0.478
 3032SOL    HW2 9996   5.321   0.774   0.375
 3033SOL     OW 9997   0.953   2.644   0.175
 3033SOL    HW1 9998   0.895   2.563   0.187
 3033SOL    HW2 9999   1.006   2.634   0.091
 3034SOL     OW10000   2.201   5.957   3.826
 3034SOL    HW110001   2.295   5.925   3.820
 3034SOL    HW210002   2.181   6.019   3.750
 3035SOL     OW10003   6.676   2.373   0.585
 3035SOL    HW110004   6.624   2.459   0.580
 3035SOL    HW210005   6.639   2.309   0.518
 3036SOL     OW10006   1.796   3.633   0.159
 3036SOL    HW110007   1.811   3.542   0.120
 3036SOL    HW210008   1.701   3.641   0.188
 3037SOL     OW10009   6.456   5.968   4.495
 3037SOL    HW110010   6.448   5.868   4.500
 3037SOL    HW210011   6.384   6.003   4.436
 3038SOL     OW10012   5.821   6.758   6.573
 3038SOL    HW110013   5.891   6.687   6.569
 3038SOL    HW210014   5.861   6.846   6.547
 3039SOL     OW10015   6.987   4.200   2.616
 3039SOL    HW110016   0.023   4.245   2.552
 3039SOL    HW210017   6.983   4.102   2.595
 3040SOL     OW10018   4.873   4.120   5.947
 3040SOL    HW110019   4.787   4.121   5.997
 3040SOL    HW210020   4.933   4.192   5.981
 3041SOL     OW10021   1.549   2.441   5.732
 3041SOL    HW110022   1.583   2.483   5.815
 3041SOL    HW210023   1.607   2.468   5.655
 3042SOL     OW10024   4.923   6.209   1.565
 3042SOL    HW110025   4.906   6.121   1.520
 3042SOL    HW210026   5.022   6.226   1.568
 3043SOL     OW10027   0.108   5.283   0.918
 3043SOL    HW110028   0.173   5.247   0.851
 3043SOL    HW210029   0.033   5.218   0.929
 3044SOL     OW10030   3.091   4.600   5.983
 3044SOL    HW110031   3.031   4.625   6.058
 3044SOL    HW210032   3.109   4.680   5.926
 3045SOL     OW10033   4.500   0.303   2.563
 3045SOL    HW110034   4.491   0.204   2.553
 3045SOL    HW210035   4.573   0.324   2.628
 3046SOL     OW10036   1.666   2.878   5.369
 3046SOL    HW110037   1.728   2.890   5.292
 3046SOL    HW210038   1.621   2.965   5.390
 3047SOL     OW10039   5.063   5.525   2.105
 3047SOL    HW110040   5.030   5.572   2.024
 3047SOL    HW210041   5.163   5.520   2.102
 3048SOL     OW10042   3.635   3.459   1.582
 3048SOL    HW110043   3.554   3.443   1.638
 3048SOL    HW210044   3.658   3.376   1.531
 3049SOL     OW10045   0.907   6.100   1.274
 3049SOL    HW110046   0.872   6.052   1.354
 3049SOL    HW210047   1.000   6.069   1.254
 3050SOL     OW10048   3.524   0.044   3.378
 3050SOL    HW110049   3.572   0.092   3.451
 3050SOL    HW210050   3.425   0.052   3.392
 3051SOL     OW10051   2.869   3.670   0.123
 3051SOL    HW110052   2.954   3.617   0.134
 3051SOL    HW210053   2.841   3.706   0.212
 3052SOL     OW10054   4.377   0.797   2.998
 3052SOL    HW110055   4.433   0.723   3.033
 3052SOL    HW210056   4.434   0.863   2.949
 3053SOL     OW10057   6.295   0.610   6.903
 3053SOL    HW110058   6.306   0.579   6.997
 3053SOL    HW210059   6.282   0.531   6.843
 3054SOL     OW10060   0.539   2.383   0.085
 3054SOL    HW110061   0.562   2.330   0.166
 3054SOL    HW210062   0.553   2.480   0.104
 3055SOL     OW10063   5.195   0.291   3.707
 3055SOL    HW110064   5.249   0.376   3.711
 3055SOL    HW210065   5.232   0.232   3.635
 3056SOL     OW10066   6.715   0.486   6.768
 3056SOL    HW110067   6.786   0.548   6.735
 3056SOL    HW210068   6.715   0.486   6.868
 3057SOL     OW10069   4.250   5.709   2.697
 3057SOL    HW110070   4.187   5.632   2.683
 3057SOL    HW210071   4.207   5.793   2.665
 3058SOL     OW10072   6.388   5.495   1.325
 3058SOL    HW110073   6.303   5.445   1.340
 3058SOL    HW210074   6.465   5.441   1.359
 3059SOL     OW10075   2.005   2.923   5.059
 3059SOL    HW110076   1.996   2.920   5.159
 3059SOL    HW210077   2.080   2.984   5.034
 3060SOL     OW10078   0.228   6.278   0.407
 3060SOL    HW110079   0.152   6.233   0.360
 3060SOL    HW210080   0.256   6.223   0.486
 3061SOL     OW10081   6.673   1.141   5.064
 3061SOL    HW110082   6.769   1.156   5.089
 3061SOL    HW210083   6.661   1.154   4.966
 3062SOL     OW10084   1.830   6.624   0.907
 3062SOL    HW110085   1.826   6.724   0.908
 3062SOL    HW210086   1.744   6.586   0.874
 3063SOL     OW10087   2.180   5.168   2.352
 3063SOL    HW110088   2.217   5.245   2.301
 3063SOL    HW210089   2.138   5.201   2.437
 3064SOL     OW10090   5.894   3.647   3.646
 3064SOL    HW110091   5.988   3.668   3.674
 3064SOL    HW210092   5.892   3.624   3.549
 3065SOL     OW10093   1.902   0.296   6.530
 3065SOL    HW110094   1.858   0.386   6.532
 3065SOL    HW210095   1.857   0.239   6.461
 3066SOL     OW10096   5.469   4.329   0.468
 3066SOL    HW110097   5.380   4.315   0.512
 3066SOL    HW210098   5.528   4.385   0.527
 3067SOL     OW10099   3.339   1.078   4.418
 3067SOL    HW110100   3.259   1.090   4.478
 3067SOL    HW210101   3.315   1.016   4.344
 3068SOL     OW10102   5.613   5.821   0.537
 3068SOL    HW110103   5.578   5.750   0.598
 3068SOL    HW210104   5.674   5.778   0.470
 3069SOL     OW10105   6.811   5.573   1.409
 3069SOL    HW110106   6.896   5.579   1.461
 3069SOL    HW210107   6.818   5.631   1.327
 3070SOL     OW10108   2.007   0.789   2.370
 3070SOL    HW110109   2.051   0.840   2.444
 3070SOL    HW210110   1.960   0.853   2.309
 3071SOL     OW10111   6.611   6.686   3.619
 3071SOL    HW110112   6.620   6.710   3.715
 3071SOL    HW210113   6.644   6.761   3.562
 3072SOL     OW10114   1.003   5.937   0.913
 3072SOL    HW110115   0.995   6.031   0.880
 3072SOL    HW210116   1.100   5.915   0.930
 3073SOL     OW10117   1.026   3.928   5.261
 3073SOL    HW110118   0.941   3.966   5.227
 3073SOL    HW210119   1.030   3.830   5.240
 3074SOL     OW10120   5.448   2.704   0.821
 3074SOL    HW110121   5.469   2.785   0.877
 3074SOL    HW210122   5.404   2.635   0.877
 3075SOL     OW10123   1.764   6.256   1.509
 3075SOL    HW110124   1.763   6.245   1.410
 3075SOL    HW210125   1.795   6.170   1.552
 3076SOL     OW10126   6.897   0.932   4.402
 3076SOL    HW110127   6.830   0.976   4.463
 3076SOL    HW210128   6.978   0.907   4.455
 3077SOL     OW10129   5.333   4.510   2.543
 3077SOL    HW110130   5.396   4.533   2.617
 3077SOL    HW210131   5.250   4.565   2.551
 3078SOL     OW10132   2.035   3.709   1.239
 3078SOL    HW110133   2.077   3.703   1.329
 3078SOL    HW210134   2.070   3.634   1.181
 3079SOL     OW10135   1.859   2.571   4.704
 3079SOL    HW110136   1.893   2.515   4.780
 3079SOL    HW210137   1.879   2.667   4.722
 3080SOL     OW10138   5.270   5.129   2.154
 3080SOL    HW110139   5.280   5.036   2.118
 3080SOL    HW210140   5.215   5.126   2.238
 3081SOL     OW10141   0.621   4.418   5.972
 3081SOL    HW110142   0.601   4.405   5.875
 3081SOL    HW210143   0.539   4.450   6.019
 3082SOL     OW10144   3.774   6.663   3.714
 3082SOL    HW110145   3.838   6.588   3.731
 3082SOL    HW210146   3.730   6.649   3.625
 3083SOL     OW10147   4.135   6.615   2.776
 3083SOL    HW110148   4.153   6.709   2.745
 3083SOL    HW210149   4.130   6.614   2.876
 3084SOL     OW10150   5.078   4.612   4.294
 3084SOL    HW110151   5.116   4.521   4.311
 3084SOL    HW210152   5.096   4.670   4.373
 3085SOL     OW10153   7.025   4.570   2.764
 3085SOL    HW110154   6.990   4.557   2.857
 3085SOL    HW210155   0.073   4.505   2.747
 3086SOL     OW10156   4.383   1.522   1.503
 3086SOL    HW110157   4.336   1.610   1.496
 3086SOL    HW210158   4.324   1.456   1.550
 3087SOL     OW10159   0.120   4.744   3.860
 3087SOL    HW110160   0.030   4.768   3.824
 3087SOL    HW210161   0.112   4.720   3.957
 3088SOL     OW10162   2.958   5.142   5.305
 3088SOL    HW110163   2.931   5.054   5.345
 3088SOL    HW210164   3.057   5.143   5.292
 3089SOL     OW10165   1.292   3.008   6.980
 3089SOL    HW110166   1.304   3.106   6.991
 3089SOL    HW210167   1.366   2.971   6.923
 3090SOL     OW10168   1.882   1.696   1.336
 3090SOL    HW110169   1.981   1.706   1.349
 3090SOL    HW210170   1.836   1.715   1.423
 3091SOL     OW10171   2.575   6.565   0.468
 3091SOL    HW110172   2.582   6.567   0.368
 3091SOL    HW210173   2.655   6.519   0.506
 3092SOL     OW10174   5.056   0.228   0.090
 3092SOL    HW110175   5.116   0.163   0.137
 3092SOL    HW210176   4.987   0.262   0.154
 3093SOL     OW10177   5.583   5.253   5.607
 3093SOL    HW110178   5.589   5.335   5.663
 3093SOL    HW210179   5.499   5.255   5.554
 3094SOL     OW10180   3.481   0.174   4.957
 3094SOL    HW110181   3.479   0.194   5.055
 3094SOL    HW210182   3.463   0.077   4.943
 3095SOL     OW10183   2.605   4.611   4.269
 3095SOL    HW110184   2.586   4.526   4.319
 3095SOL    HW210185   2.557   4.610   4.182
 3096SOL     OW10186   0.514   0.436   4.319
 3096SOL    HW110187   0.573   0.392   4.386
 3096SOL    HW210188   0.445   0.371   4.287
 3097SOL     OW10189   0.821   2.392   0.268
 3097SOL    HW110190   0.891   2.321   0.267
 3097SOL    HW210191   0.731   2.351   0.284
 3098SOL     OW10192   2.252   3.682   1.464
 3098SOL    HW110193   2.311   3.730   1.399
 3098SOL    HW210194   2.303   3.662   1.547
 3099SOL     OW10195   0.339   5.704   5.232
 3099SOL    HW110196   0.365   5.743   5.144
 3099SOL    HW210197   0.358   5.770   5.304
 3100SOL     OW10198   6.817   0.331   4.606
 3100SOL    HW110199   6.786   0.238   4.589
 3100SOL    HW210200   6.738   0.393   4.601
 3101SOL     OW10201   4.688   6.274   5.421
 3101SOL    HW110202   4.638   6.354   5.390
 3101SOL    HW210203   4.752   6.244   5.351
 3102SOL     OW10204   1.147   4.962   1.938
 3102SOL    HW110205   1.114   5.057   1.932
 3102SOL    HW210206   1.241   4.962   1.971
 3103SOL     OW10207   3.440   1.669   1.141
 3103SOL    HW110208   3.440   1.700   1.236
 3103SOL    HW210209   3.347   1.671   1.105
 3104SOL     OW10210   5.823   6.248   4.096
 3104SOL    HW110211   5.767   6.317   4.141
 3104SOL    HW210212   5.773   6.210   4.018
 3105SOL     OW10213   6.261   5.726   3.576
 3105SOL    HW110214   6.305   5.738   3.665
 3105SOL    HW210215   6.320   5.764   3.504
 3106SOL     OW10216   6.907   1.948   2.620
 3106SOL    HW110217   6.970   1.877   2.588
 3106SOL    HW210218   6.883   2.008   2.543
 3107SOL     OW10219   3.621   0.347   4.419
 3107SOL    HW110220   3.651   0.440   4.399
 3107SOL    HW210221   3.599   0.340   4.517
 3108SOL     OW10222   1.817   0.945   4.615
 3108SOL    HW110223   1.836   1.023   4.675
 3108SOL    HW210224   1.800   0.864   4.670
 3109SOL     OW10225   6.003   5.910   2.839
 3109SOL    HW110226   6.072   5.890   2.909
 3109SOL    HW210227   6.049   5.950   2.759
 3110SOL     OW10228   0.655   1.670   3.934
 3110SOL    HW110229   0.588   1.745   3.938
 3110SOL    HW210230   0.637   1.607   4.010
 3111SOL     OW10231   6.144   5.334   4.216
 3111SOL    HW110232   6.215   5.353   4.148
 3111SOL    HW210233   6.063   5.389   4.195
 3112SOL     OW10234   5.133   2.472   6.000
 3112SOL    HW110235   5.120   2.567   5.973
 3112SOL    HW210236   5.109   2.461   6.097
 3113SOL     OW10237   2.155   0.191   4.086
 3113SOL    HW110238   2.209   0.200   4.169
 3113SOL    HW210239   2.189   0.115   4.031
 3114SOL     OW10240   5.094   3.534   6.916
 3114SOL    HW110241   5.138   3.480   6.845
 3114SOL    HW210242   5.163   3.586   6.967
 3115SOL     OW10243   4.643   3.654   0.357
 3115SOL    HW110244   4.696   3.712   0.419
 3115SOL    HW210245   4.679   3.561   0.358
 3116SOL     OW10246   0.024   3.333   6.928
 3116SOL    HW110247   0.109   3.351   6.879
 3116SOL    HW210248   7.018   3.417   6.973
 3117SOL     OW10249   4.548   3.744   5.328
 3117SOL    HW110250   4.455   3.750   5.293
 3117SOL    HW210251   4.595   3.667   5.284
 3118SOL     OW10252   6.861   4.530   6.325
 3118SOL    HW110253   6.768   4.565   6.326
 3118SOL    HW210254   6.897   4.531   6.232
 3119SOL     OW10255   1.929   3.737   5.488
 3119SOL    HW110256   1.935   3.727   5.388
 3119SOL    HW210257   1.999   3.800   5.520
 3120SOL     OW10258   2.423   6.117   4.791
 3120SOL    HW110259   2.459   6.062   4.866
 3120SOL    HW210260   2.346   6.171   4.823
 3121SOL     OW10261   0.285   1.315   2.542
 3121SOL    HW110262   0.262   1.344   2.635
 3121SOL    HW210263   0.384   1.317   2.530
 3122SOL     OW10264   3.480   5.926   6.002
 3122SOL    HW110265   3.446   5.879   5.921
 3122SOL    HW210266   3.411   5.924   6.074
 3123SOL     OW10267   3.441   6.530   3.749
 3123SOL    HW110268   3.519   6.468   3.757
 3123SOL    HW210269   3.473   6.625   3.759
 3124SOL     OW10270   3.880   0.745   5.220
 3124SOL    HW110271   3.913   0.758   5.127
 3124SOL    HW210272   3.861   0.648   5.235
 3125SOL     OW10273   6.158   2.008   6.254
 3125SOL    HW110274   6.152   2.107   6.242
 3125SOL    HW210275   6.227   1.987   6.323
 3126SOL     OW10276   4.972   4.877   6.525
 3126SOL    HW110277   5.057   4.929   6.525
 3126SOL    HW210278   4.894   4.940   6.522
 3127SOL     OW10279   0.733   2.425   3.013
 3127SOL    HW110280   0.658   2.359   3.009
 3127SOL    HW210281   0.803   2.401   2.946
 3128SOL     OW10282   1.344   0.309   0.500
 3128SOL    HW110283   1.412   0.382   0.494
 3128SOL    HW210284   1.330   0.268   0.409
 3129SOL     OW10285   0.547   4.726   6.436
 3129SOL    HW110286   0.579   4.769   6.521
 3129SOL    HW210287   0.485   4.650   6.458
 3130SOL     OW10288   2.546   4.576   2.444
 3130SOL    HW110289   2.616   4.581   2.373
 3130SOL    HW210290   2.590   4.562   2.533
 3131SOL     OW10291   1.174   2.591   3.032
 3131SOL    HW110292   1.150   2.503   3.073
 3131SOL    HW210293   1.155   2.664   3.097
 3132SOL     OW10294   5.387   6.374   5.159
 3132SOL    HW110295   5.460   6.397   5.223
 3132SOL    HW210296   5.362   6.278   5.169
 3133SOL     OW10297   2.625   2.129   4.282
 3133SOL    HW110298   2.531   2.130   4.249
 3133SOL    HW210299   2.654   2.222   4.303
 3134SOL     OW10300   5.210   3.795   1.950
 3134SOL    HW110301   5.231   3.824   1.856
 3134SOL    HW210302   5.125   3.741   1.950
 3135SOL     OW10303   4.069   1.895   4.797
 3135SOL    HW110304   4.119   1.867   4.714
 3135SOL    HW210305   4.103   1.983   4.829
 3136SOL     OW10306   6.148   6.824   5.705
 3136SOL    HW110307   6.238   6.784   5.691
 3136SOL    HW210308   6.116   6.865   5.620
 3137SOL     OW10309   5.391   1.068   3.780
 3137SOL    HW110310   5.430   0.978   3.804
 3137SOL    HW210311   5.362   1.067   3.684
 3138SOL     OW10312   6.313   2.028   4.485
 3138SOL    HW110313   6.309   1.972   4.402
 3138SOL    HW210314   6.394   2.087   4.481
 3139SOL     OW10315   5.368   6.831   6.713
 3139SOL    HW110316   5.457   6.784   6.721
 3139SOL    HW210317   5.344   6.873   6.801
 3140SOL     OW10318   6.688   6.189   6.271
 3140SOL    HW110319   6.707   6.276   6.225
 3140SOL    HW210320   6.694   6.202   6.370
 3141SOL     OW10321   0.814   6.548   6.610
 3141SOL    HW110322   0.857   6.458   6.612
 3141SOL    HW210323   0.865   6.612   6.668
 3142SOL     OW10324   5.074   6.322   6.986
 3142SOL    HW110325   5.094   6.389   6.915
 3142SOL    HW210326   4.982   6.337   7.021
 3143SOL     OW10327   6.939   2.510   6.636
 3143SOL    HW110328   6.965   2.500   6.540
 3143SOL    HW210329   7.020   2.521   6.692
 3144SOL     OW10330   2.324   3.327   1.049
 3144SOL    HW110331   2.316   3.244   0.994
 3144SOL    HW210332   2.409   3.374   1.027
 3145SOL     OW10333   2.643   5.755   2.740
 3145SOL    HW110334   2.604   5.792   2.655
 3145SOL    HW210335   2.718   5.693   2.718
 3146SOL     OW10336   1.572   6.091   3.051
 3146SOL    HW110337   1.593   6.100   2.954
 3146SOL    HW210338   1.531   6.176   3.085
 3147SOL     OW10339   4.061   5.294   6.980
 3147SOL    HW110340   4.152   5.318   7.014
 3147SOL    HW210341   4.027   5.367   6.922
 3148SOL     OW10342   4.509   5.539   4.025
 3148SOL    HW110343   4.457   5.456   4.007
 3148SOL    HW210344   4.508   5.558   4.123
 3149SOL     OW10345   3.039   0.540   5.501
 3149SOL    HW110346   3.052   0.565   5.405
 3149SOL    HW210347   3.003   0.619   5.551
 3150SOL     OW10348   5.490   5.981   4.450
 3150SOL    HW110349   5.393   6.004   4.456
 3150SOL    HW210350   5.540   6.055   4.406
 3151SOL     OW10351   4.734   1.230   6.414
 3151SOL    HW110352   4.819   1.194   6.375
 3151SOL    HW210353   4.726   1.199   6.509
 3152SOL     OW10354   0.767   5.264   1.826
 3152SOL    HW110355   0.701   5.246   1.753
 3152SOL    HW210356   0.722   5.313   1.900
 3153SOL     OW10357   6.162   4.362   1.808
 3153SOL    HW110358   6.077   4.365   1.861
 3153SOL    HW210359   6.232   4.313   1.860
 3154SOL     OW10360   6.383   2.295   0.335
 3154SOL    HW110361   6.463   2.235   0.325
 3154SOL    HW210362   6.408   2.388   0.306
 3155SOL     OW10363   0.357   4.868   1.731
 3155SOL    HW110364   0.393   4.961   1.733
 3155SOL    HW210365   0.334   4.844   1.637
 3156SOL     OW10366   3.827   3.782   3.964
 3156SOL    HW110367   3.860   3.742   3.878
 3156SOL    HW210368   3.904   3.798   4.025
 3157SOL     OW10369   1.677   2.952   4.572
 3157SOL    HW110370   1.724   2.951   4.661
 3157SOL    HW210371   1.657   3.047   4.547
 3158SOL     OW10372   4.827   0.379   1.722
 3158SOL    HW110373   4.786   0.470   1.718
 3158SOL    HW210374   4.883   0.365   1.640
 3159SOL     OW10375   4.892   6.304   6.644
 3159SOL    HW110376   4.823   6.369   6.674
 3159SOL    HW210377   4.968   6.304   6.709
 3160SOL     OW10378   6.109   4.326   6.403
 3160SOL    HW110379   6.037   4.284   6.458
 3160SOL    HW210380   6.125   4.270   6.321
 3161SOL     OW10381   1.659   1.084   3.182
 3161SOL    HW110382   1.569   1.040   3.176
 3161SOL    HW210383   1.678   1.132   3.097
 3162SOL     OW10384   6.943   5.423   0.322
 3162SOL    HW110385   6.933   5.508   0.373
 3162SOL    HW210386   6.919   5.345   0.381
 3163SOL     OW10387   3.842   2.767   6.417
 3163SOL    HW110388   3.915   2.777   6.349
 3163SOL    HW210389   3.755   2.795   6.377
 3164SOL     OW10390   5.062   4.128   1.462
 3164SOL    HW110391   5.105   4.216   1.441
 3164SOL    HW210392   5.024   4.089   1.378
 3165SOL     OW10393   0.847   6.650   2.106
 3165SOL    HW110394   0.883   6.716   2.039
 3165SOL    HW210395   0.755   6.622   2.079
 3166SOL     OW10396   4.965   3.067   6.312
 3166SOL    HW110397   5.032   3.141   6.320
 3166SOL    HW210398   4.908   3.064   6.393
 3167SOL     OW10399   6.494   4.488   1.633
 3167SOL    HW110400   6.502   4.528   1.724
 3167SOL    HW210401   6.497   4.388   1.640
 3168SOL     OW10402   5.249   3.050   0.839
 3168SOL    HW110403   5.203   2.969   0.802
 3168SOL    HW210404   5.348   3.033   0.845
 3169SOL     OW10405   0.649   3.663   5.866
 3169SOL    HW110406   0.734   3.697   5.905
 3169SOL    HW210407   0.659   3.566   5.843
 3170SOL     OW10408   4.190   0.368   0.080
 3170SOL    HW110409   4.288   0.390   0.082
 3170SOL    HW210410   4.167   0.331   7.015
 3171SOL     OW10411   6.121   6.967   1.328
 3171SOL    HW110412   6.086   0.005   1.396
 3171SOL    HW210413   6.200   7.007   1.281
 3172SOL     OW10414   6.655   6.347   5.036
 3172SOL    HW110415   6.588   6.374   4.967
 3172SOL    HW210416   6.624   6.377   5.126
 3173SOL     OW10417   2.412   0.530   2.498
 3173SOL    HW110418   2.512   0.533   2.500
 3173SOL    HW210419   2.382   0.442   2.462
 3174SOL     OW10420   2.852   3.255   6.234
 3174SOL    HW110421   2.760   3.227   6.205
 3174SOL    HW210422   2.917   3.182   6.214
 3175SOL     OW10423   0.947   6.214   6.816
 3175SOL    HW110424   0.960   6.252   6.724
 3175SOL    HW210425   0.862   6.250   6.855
 3176SOL     OW10426   1.681   4.248   6.253
 3176SOL    HW110427   1.677   4.328   6.193
 3176SOL    HW210428   1.653   4.167   6.202
 3177SOL     OW10429   5.887   4.701   6.052
 3177SOL    HW110430   5.801   4.717   6.004
 3177SOL    HW210431   5.934   4.788   6.067
 3178SOL     OW10432   0.355   4.010   1.758
 3178SOL    HW110433   0.426   4.038   1.694
 3178SOL    HW210434   0.327   3.917   1.738
 3179SOL     OW10435   2.048   2.220   1.990
 3179SOL    HW110436   2.080   2.314   1.979
 3179SOL    HW210437   2.101   2.160   1.930
 3180SOL     OW10438   4.646   0.814   5.205
 3180SOL    HW110439   4.729   0.776   5.244
 3180SOL    HW210440   4.634   0.782   5.111
 3181SOL     OW10441   0.745   0.904   3.745
 3181SOL    HW110442   0.747   1.003   3.761
 3181SOL    HW210443   0.835   0.865   3.765
 3182SOL     OW10444   0.466   0.407   5.907
 3182SOL    HW110445   0.493   0.325   5.957
 3182SOL    HW210446   0.547   0.457   5.878
 3183SOL     OW10447   4.155   4.898   1.522
 3183SOL    HW110448   4.243   4.941   1.542
 3183SOL    HW210449   4.099   4.897   1.605
 3184SOL     OW10450   2.214   1.700   2.445
 3184SOL    HW110451   2.216   1.605   2.475
 3184SOL    HW210452   2.128   1.718   2.396
 3185SOL     OW10453   0.295   0.152   5.621
 3185SOL    HW110454   0.226   0.224   5.620
 3185SOL    HW210455   0.376   0.184   5.670
 3186SOL     OW10456   3.494   1.046   2.809
 3186SOL    HW110457   3.406   1.095   2.810
 3186SOL    HW210458   3.481   0.957   2.766
 3187SOL     OW10459   3.860   3.984   0.090
 3187SOL    HW110460   3.835   4.059   0.029
 3187SOL    HW210461   3.854   3.898   0.040
 3188SOL     OW10462   3.479   5.749   2.848
 3188SOL    HW110463   3.510   5.687   2.776
 3188SOL    HW210464   3.458   5.839   2.808
 3189SOL     OW10465   1.303   0.901   3.277
 3189SOL    HW110466   1.352   0.828   3.325
 3189SOL    HW210467   1.294   0.878   3.181
 3190SOL     OW10468   1.601   6.446   1.629
 3190SOL    HW110469   1.674   6.382   1.607
 3190SOL    HW210470   1.578   6.500   1.548
 3191SOL     OW10471   3.634   0.576   1.228
 3191SOL    HW110472   3.568   0.506   1.257
 3191SOL    HW210473   3.589   0.666   1.228
 3192SOL     OW10474   1.005   1.864   1.034
 3192SOL    HW110475   0.967   1.933   0.972
 3192SOL    HW210476   0.952   1.779   1.025
 3193SOL     OW10477   4.561   2.262   6.465
 3193SOL    HW110478   4.477   2.245   6.517
 3193SOL    HW210479   4.620   2.181   6.470
 3194SOL     OW10480   1.600   3.622   6.506
 3194SOL    HW110481   1.647   3.671   6.579
 3194SOL    HW210482   1.666   3.598   6.434
 3195SOL     OW10483   1.266   2.562   3.397
 3195SOL    HW110484   1.337   2.555   3.326
 3195SOL    HW210485   1.309   2.585   3.485
 3196SOL     OW10486   0.303   0.240   4.626
 3196SOL    HW110487   0.385   0.288   4.594
 3196SOL    HW210488   0.255   0.297   4.692
 3197SOL     OW10489   1.232   5.908   3.332
 3197SOL    HW110490   1.289   5.839   3.287
 3197SOL    HW210491   1.272   5.932   3.420
 3198SOL     OW10492   6.868   1.875   6.023
 3198SOL    HW110493   6.830   1.789   6.057
 3198SOL    HW210494   6.798   1.925   5.972
 3199SOL     OW10495   4.868   1.726   2.134
 3199SOL    HW110496   4.795   1.790   2.110
 3199SOL    HW210497   4.890   1.670   2.054
 3200SOL     OW10498   0.353   2.552   0.826
 3200SOL    HW110499   0.279   2.486   0.812
 3200SOL    HW210500   0.319   2.631   0.877
 3201SOL     OW10501   5.357   3.808   3.835
 3201SOL    HW110502   5.281   3.746   3.814
 3201SOL    HW210503   5.417   3.766   3.902
 3202SOL     OW10504   2.019   4.432   2.465
 3202SOL    HW110505   1.936   4.484   2.446
 3202SOL    HW210506   1.995   4.339   2.494
 3203SOL     OW10507   6.513   0.850   1.096
 3203SOL    HW110508   6.595   0.817   1.143
 3203SOL    HW210509   6.525   0.841   0.997
 3204SOL     OW10510   6.442   5.710   1.458
 3204SOL    HW110511   6.402   5.649   1.390
 3204SOL    HW210512   6.482   5.656   1.533
 3205SOL     OW10513   6.714   3.663   5.885
 3205SOL    HW110514   6.759   3.752   5.893
 3205SOL    HW210515   6.616   3.677   5.867
 3206SOL     OW10516   0.194   6.720   5.493
 3206SOL    HW110517   0.239   6.636   5.525
 3206SOL    HW210518   0.159   6.771   5.572
 3207SOL     OW10519   0.932   1.063   5.259
 3207SOL    HW110520   0.850   1.105   5.221
 3207SOL    HW210521   0.995   1.040   5.185
 3208SOL     OW10522   4.564   5.715   4.787
 3208SOL    HW110523   4.629   5.650   4.748
 3208SOL    HW210524   4.471   5.679   4.775
 3209SOL     OW10525   3.060   6.852   4.107
 3209SOL    HW110526   3.028   6.858   4.201
 3209SOL    HW210527   3.058   6.757   4.077
 3210SOL     OW10528   6.570   3.727   2.269
 3210SOL    HW110529   6.652   3.784   2.273
 3210SOL    HW210530   6.491   3.780   2.298
 3211SOL     OW10531   2.107   4.506   1.171
 3211SOL    HW110532   2.077   4.595   1.204
 3211SOL    HW210533   2.047   4.435   1.206
 3212SOL     OW10534   4.694   2.409   6.661
 3212SOL    HW110535   4.637   2.354   6.601
 3212SOL    HW210536   4.786   2.370   6.665
 3213SOL     OW10537   5.653   5.661   3.394
 3213SOL    HW110538   5.679   5.656   3.297
 3213SOL    HW210539   5.733   5.643   3.451
 3214SOL     OW10540   4.229   6.270   6.761
 3214SOL    HW110541   4.130   6.268   6.777
 3214SOL    HW210542   4.247   6.265   6.663
 3215SOL     OW10543   6.811   2.467   0.248
 3215SOL    HW110544   6.800   2.458   0.149
 3215SOL    HW210545   6.790   2.562   0.275
 3216SOL     OW10546   5.570   6.335   3.942
 3216SOL    HW110547   5.620   6.416   3.910
 3216SOL    HW210548   5.481   6.332   3.897
 3217SOL     OW10549   0.667   4.427   2.667
 3217SOL    HW110550   0.755   4.417   2.620
 3217SOL    HW210551   0.614   4.499   2.622
 3218SOL     OW10552   3.616   6.760   2.824
 3218SOL    HW110553   3.525   6.798   2.839
 3218SOL    HW210554   3.612   6.660   2.829
 3219SOL     OW10555   0.367   0.050   2.683
 3219SOL    HW110556   0.270   0.071   2.673
 3219SOL    HW210557   0.378   6.977   2.697
 3220SOL     OW10558   0.096   4.722   4.929
 3220SOL    HW110559   0.009   4.752   4.888
 3220SOL    HW210560   0.104   4.623   4.920
 3221SOL     OW10561   2.421   6.517   3.427
 3221SOL    HW110562   2.493   6.584   3.410
 3221SOL    HW210563   2.332   6.564   3.428
 3222SOL     OW10564   5.112   1.812   2.993
 3222SOL    HW110565   5.186   1.865   2.953
 3222SOL    HW210566   5.149   1.730   3.038
 3223SOL     OW10567   2.617   5.417   6.004
 3223SOL    HW110568   2.623   5.494   6.067
 3223SOL    HW210569   2.703   5.409   5.954
 3224SOL     OW10570   4.377   5.670   6.782
 3224SOL    HW110571   4.325   5.596   6.739
 3224SOL    HW210572   4.461   5.685   6.731
 3225SOL     OW10573   3.853   3.356   0.466
 3225SOL    HW110574   3.829   3.360   0.369
 3225SOL    HW210575   3.816   3.272   0.506
 3226SOL     OW10576   2.173   0.909   4.263
 3226SOL    HW110577   2.192   0.811   4.276
 3226SOL    HW210578   2.161   0.952   4.353
 3227SOL     OW10579   3.685   1.704   5.594
 3227SOL    HW110580   3.685   1.704   5.494
 3227SOL    HW210581   3.611   1.645   5.627
 3228SOL     OW10582   5.855   3.206   3.990
 3228SOL    HW110583   5.869   3.189   3.892
 3228SOL    HW210584   5.909   3.286   4.017
 3229SOL     OW10585   3.809   2.126   5.656
 3229SOL    HW110586   3.733   2.071   5.623
 3229SOL    HW210587   3.780   2.178   5.737
 3230SOL     OW10588   0.260   1.164   2.904
 3230SOL    HW110589   0.329   1.097   2.879
 3230SOL    HW210590   0.175   1.144   2.855
 3231SOL     OW10591   4.604   5.749   1.201
 3231SOL    HW110592   4.525   5.792   1.245
 3231SOL    HW210593   4.688   5.792   1.234
 3232SOL     OW10594   3.235   5.207   4.497
 3232SOL    HW110595   3.292   5.124   4.503
 3232SOL    HW210596   3.139   5.180   4.493
 3233SOL     OW10597   0.558   3.712   1.150
 3233SOL    HW110598   0.490   3.779   1.121
 3233SOL    HW210599   0.615   3.751   1.222
 3234SOL     OW10600   6.992   2.012   0.209
 3234SOL    HW110601   0.017   2.098   0.212
 3234SOL    HW210602   6.908   2.024   0.157
 3235SOL     OW10603   5.676   7.006   3.002
 3235SOL    HW110604   5.730   0.014   3.078
 3235SOL    HW210605   5.579   7.003   3.028
 3236SOL     OW10606   1.086   2.683   2.803
 3236SOL    HW110607   1.090   2.783   2.807
 3236SOL    HW210608   1.125   2.644   2.886
 3237SOL     OW10609   4.028   6.382   4.726
 3237SOL    HW110610   4.015   6.411   4.631
 3237SOL    HW210611   3.939   6.357   4.765
 3238SOL     OW10612   0.393   5.527   6.405
 3238SOL    HW110613   0.408   5.495   6.498
 3238SOL    HW210614   0.301   5.502   6.375
 3239SOL     OW10615   6.225   0.527   5.825
 3239SOL    HW110616   6.270   0.476   5.752
 3239SOL    HW210617   6.272   0.614   5.840
 3240SOL     OW10618   0.965   0.270   4.868
 3240SOL    HW110619   1.017   0.219   4.936
 3240SOL    HW210620   1.029   0.319   4.808
 3241SOL     OW10621   4.910   1.189   3.846
 3241SOL    HW110622   4.852   1.206   3.766
 3241SOL    HW210623   4.961   1.104   3.834
 3242SOL     OW10624   3.769   5.960   6.342
 3242SOL    HW110625   3.835   5.920   6.279
 3242SOL    HW210626   3.738   6.048   6.307
 3243SOL     OW10627   4.354   5.329   0.064
 3243SOL    HW110628   4.377   5.426   0.052
 3243SOL    HW210629   4.423   5.272   0.019
 3244SOL     OW10630   3.714   5.804   5.754
 3244SOL    HW110631   3.723   5.870   5.828
 3244SOL    HW210632   3.776   5.828   5.679
 3245SOL     OW10633   4.111   3.295   6.329
 3245SOL    HW110634   4.091   3.290   6.231
 3245SOL    HW210635   4.032   3.261   6.380
 3246SOL     OW10636   5.570   6.605   2.923
 3246SOL    HW110637   5.498   6.630   2.858
 3246SOL    HW210638   5.654   6.653   2.900
 3247SOL     OW10639   6.878   3.233   3.892
 3247SOL    HW110640   6.814   3.214   3.818
 3247SOL    HW210641   6.828   3.239   3.979
 3248SOL     OW10642   6.013   2.924   2.099
 3248SOL    HW110643   6.102   2.924   2.052
 3248SOL    HW210644   5.943   2.890   2.037
 3249SOL     OW10645   3.224   4.916   4.742
 3249SOL    HW110646   3.149   4.917   4.675
 3249SOL    HW210647   3.187   4.896   4.833
 3250SOL     OW10648   4.774   6.626   2.527
 3250SOL    HW110649   4.703   6.634   2.458
 3250SOL    HW210650   4.847   6.567   2.494
 3251SOL     OW10651   3.643   2.139   2.709
 3251SOL    HW110652   3.670   2.210   2.774
 3251SOL    HW210653   3.545   2.123   2.715
 3252SOL     OW10654   3.023   1.150   2.913
 3252SOL    HW110655   3.004   1.245   2.936
 3252SOL    HW210656   2.946   1.112   2.862
 3253SOL     OW10657   5.117   2.847   1.460
 3253SOL    HW110658   5.205   2.847   1.414
 3253SOL    HW210659   5.082   2.940   1.467
 3254SOL     OW10660   4.197   4.793   3.436
 3254SOL    HW110661   4.205   4.891   3.421
 3254SOL    HW210662   4.153   4.750   3.357
 3255SOL     OW10663   4.554   5.820   0.131
 3255SOL    HW110664   4.488   5.814   0.207
 3255SOL    HW210665   4.529   5.897   0.072
 3256SOL     OW10666   5.098   6.644   5.749
 3256SOL    HW110667   5.173   6.703   5.777
 3256SOL    HW210668   5.093   6.565   5.810
 3257SOL     OW10669   1.706   1.888   0.882
 3257SOL    HW110670   1.616   1.884   0.839
 3257SOL    HW210671   1.719   1.806   0.939
 3258SOL     OW10672   5.072   6.610   1.544
 3258SOL    HW110673   5.114   6.564   1.622
 3258SOL    HW210674   5.124   6.692   1.520
 3259SOL     OW10675   4.056   6.001   4.542
 3259SOL    HW110676   4.023   5.928   4.483
 3259SOL    HW210677   4.009   6.087   4.518
 3260SOL     OW10678   1.758   1.460   6.996
 3260SOL    HW110679   1.775   1.424   6.904
 3260SOL    HW210680   1.829   1.427   0.033
 3261SOL     OW10681   4.425   6.622   0.995
 3261SOL    HW110682   4.436   6.719   0.970
 3261SOL    HW210683   4.486   6.601   1.071
 3262SOL     OW10684   3.513   1.882   3.097
 3262SOL    HW110685   3.594   1.858   3.045
 3262SOL    HW210686   3.501   1.981   3.098
 3263SOL     OW10687   4.361   6.656   1.815
 3263SOL    HW110688   4.456   6.623   1.815
 3263SOL    HW210689   4.357   6.746   1.770
 3264SOL     OW10690   0.060   5.050   0.388
 3264SOL    HW110691   6.987   5.044   0.370
 3264SOL    HW210692   0.077   5.121   0.456
 3265SOL     OW10693   4.564   1.531   6.520
 3265SOL    HW110694   4.590   1.528   6.617
 3265SOL    HW210695   4.631   1.481   6.466
 3266SOL     OW10696   0.459   2.479   6.289
 3266SOL    HW110697   0.479   2.467   6.192
 3266SOL    HW210698   0.544   2.481   6.341
 3267SOL     OW10699   3.385   2.018   0.921
 3267SOL    HW110700   3.443   2.019   1.003
 3267SOL    HW210701   3.422   1.953   0.855
 3268SOL     OW10702   0.625   4.027   0.309
 3268SOL    HW110703   0.552   4.087   0.277
 3268SOL    HW210704   0.713   4.076   0.305
 3269SOL     OW10705   4.236   4.456   1.117
 3269SOL    HW110706   4.214   4.552   1.101
 3269SOL    HW210707   4.163   4.414   1.173
 3270SOL     OW10708   0.929   5.287   3.903
 3270SOL    HW110709   0.952   5.384   3.905
 3270SOL    HW210710   0.926   5.255   3.809
 3271SOL     OW10711   6.545   2.711   1.419
 3271SOL    HW110712   6.598   2.791   1.449
 3271SOL    HW210713   6.534   2.713   1.320
 3272SOL     OW10714   3.658   0.798   0.581
 3272SOL    HW110715   3.708   0.884   0.590
 3272SOL    HW210716   3.718   0.728   0.542
 3273SOL     OW10717   0.680   6.536   2.334
 3273SOL    HW110718   0.659   6.565   2.240
 3273SOL    HW210719   0.618   6.463   2.361
 3274SOL     OW10720   2.522   2.096   5.666
 3274SOL    HW110721   2.512   2.009   5.714
 3274SOL    HW210722   2.548   2.167   5.731
 3275SOL     OW10723   2.183   0.541   0.055
 3275SOL    HW110724   2.246   0.618   0.045
 3275SOL    HW210725   2.151   0.512   6.989
 3276SOL     OW10726   3.277   5.695   6.476
 3276SOL    HW110727   3.356   5.635   6.480
 3276SOL    HW210728   3.267   5.744   6.563
 3277SOL     OW10729   6.993   6.397   5.649
 3277SOL    HW110730   0.050   6.394   5.591
 3277SOL    HW210731   6.940   6.313   5.636
 3278SOL     OW10732   1.497   0.730   5.816
 3278SOL    HW110733   1.555   0.662   5.860
 3278SOL    HW210734   1.552   0.808   5.786
 3279SOL     OW10735   0.036   6.685   0.857
 3279SOL    HW110736   0.009   6.676   0.953
 3279SOL    HW210737   0.094   6.607   0.832
 3280SOL     OW10738   2.082   5.192   6.364
 3280SOL    HW110739   2.060   5.290   6.365
 3280SOL    HW210740   2.127   5.168   6.450
 3281SOL     OW10741   2.552   5.527   0.129
 3281SOL    HW110742   2.649   5.546   0.109
 3281SOL    HW210743   2.495   5.575   0.062
 3282SOL     OW10744   2.691   5.326   4.079
 3282SOL    HW110745   2.624   5.399   4.066
 3282SOL    HW210746   2.739   5.308   3.993
 3283SOL     OW10747   2.818   0.831   3.303
 3283SOL    HW110748   2.882   0.790   3.368
 3283SOL    HW210749   2.855   0.917   3.269
 3284SOL     OW10750   6.798   5.594   6.914
 3284SOL    HW110751   6.772   5.575   6.819
 3284SOL    HW210752   6.892   5.627   6.917
 3285SOL     OW10753   0.513   2.017   2.788
 3285SOL    HW110754   0.434   2.077   2.777
 3285SOL    HW210755   0.499   1.958   2.868
 3286SOL     OW10756   3.239   3.711   4.794
 3286SOL    HW110757   3.221   3.765   4.711
 3286SOL    HW210758   3.266   3.773   4.868
 3287SOL     OW10759   1.924   5.481   0.273
 3287SOL    HW110760   1.950   5.406   0.213
 3287SOL    HW210761   1.869   5.447   0.348
 3288SOL     OW10762   0.678   5.899   6.487
 3288SOL    HW110763   0.658   5.912   6.584
 3288SOL    HW210764   0.595   5.868   6.440
 3289SOL     OW10765   0.660   6.228   5.483
 3289SOL    HW110766   0.563   6.246   5.469
 3289SOL    HW210767   0.680   6.132   5.464
 3290SOL     OW10768   6.913   5.641   1.751
 3290SOL    HW110769   6.934   5.711   1.819
 3290SOL    HW210770   6.921   5.551   1.794
 3291SOL     OW10771   1.469   6.160   6.914
 3291SOL    HW110772   1.372   6.134   6.910
 3291SOL    HW210773   1.477   6.260   6.915
 3292SOL     OW10774   6.636   0.094   6.114
 3292SOL    HW110775   6.709   0.089   6.046
 3292SOL    HW210776   6.673   0.127   6.201
 3293SOL     OW10777   6.771   1.144   2.793
 3293SOL    HW110778   6.686   1.137   2.845
 3293SOL    HW210779   6.750   1.159   2.696
 3294SOL     OW10780   6.757   0.526   6.106
 3294SOL    HW110781   6.752   0.571   6.017
 3294SOL    HW210782   6.717   0.585   6.176
 3295SOL     OW10783   2.277   3.104   0.881
 3295SOL    HW110784   2.203   3.091   0.815
 3295SOL    HW210785   2.281   3.025   0.943
 3296SOL     OW10786   2.156   6.396   2.584
 3296SOL    HW110787   2.210   6.474   2.617
 3296SOL    HW210788   2.076   6.430   2.534
 3297SOL     OW10789   3.147   2.601   5.816
 3297SOL    HW110790   3.049   2.579   5.815
 3297SOL    HW210791   3.163   2.683   5.762
 3298SOL     OW10792   6.775   3.300   2.786
 3298SOL    HW110793   6.735   3.220   2.832
 3298SOL    HW210794   6.837   3.269   2.714
 3299SOL     OW10795   1.476   0.212   4.963
 3299SOL    HW110796   1.408   0.222   4.889
 3299SOL    HW210797   1.464   0.286   5.029
 3300SOL     OW10798   6.362   6.714   4.707
 3300SOL    HW110799   6.340   6.681   4.799
 3300SOL    HW210800   6.309   6.662   4.640
 3301SOL     OW10801   0.051   3.429   3.212
 3301SOL    HW110802   0.037   3.417   3.114
 3301SOL    HW210803   7.010   3.375   3.263
 3302SOL     OW10804   1.396   4.886   3.642
 3302SOL    HW110805   1.345   4.970   3.660
 3302SOL    HW210806   1.494   4.903   3.658
 3303SOL     OW10807   4.109   3.721   4.050
 3303SOL    HW110808   4.164   3.645   4.084
 3303SOL    HW210809   4.106   3.718   3.950
 3304SOL     OW10810   0.582   6.403   4.115
 3304SOL    HW110811   0.646   6.480   4.119
 3304SOL    HW210812   0.497   6.428   4.161
 3305SOL     OW10813   1.783   0.929   2.054
 3305SOL    HW110814   1.735   1.013   2.027
 3305SOL    HW210815   1.820   0.941   2.146
 3306SOL     OW10816   2.151   3.978   3.550
 3306SOL    HW110817   2.153   4.067   3.506
 3306SOL    HW210818   2.184   3.986   3.644
 3307SOL     OW10819   6.241   6.169   0.626
 3307SOL    HW110820   6.332   6.127   0.624
 3307SOL    HW210821   6.184   6.128   0.556
 3308SOL     OW10822   4.961   5.993   0.675
 3308SOL    HW110823   4.878   5.980   0.620
 3308SOL    HW210824   5.039   6.007   0.614
 3309SOL     OW10825   0.769   4.870   3.345
 3309SOL    HW110826   0.715   4.950   3.318
 3309SOL    HW210827   0.714   4.811   3.404
 3310SOL     OW10828   0.488   4.625   2.567
 3310SOL    HW110829   0.391   4.647   2.578
 3310SOL    HW210830   0.544   4.701   2.601
 3311SOL     OW10831   4.203   6.833   1.069
 3311SOL    HW110832   4.138   6.831   1.145
 3311SOL    HW210833   4.208   6.742   1.028
 3312SOL     OW10834   3.593   3.571   6.084
 3312SOL    HW110835   3.638   3.656   6.113
 3312SOL    HW210836   3.524   3.545   6.152
 3313SOL     OW10837   0.682   4.911   3.666
 3313SOL    HW110838   0.611   4.861   3.717
 3313SOL    HW210839   0.678   5.008   3.690
 3314SOL     OW10840   1.908   3.384   5.206
 3314SOL    HW110841   2.007   3.391   5.196
 3314SOL    HW210842   1.886   3.353   5.298
 3315SOL     OW10843   6.898   2.244   3.726
 3315SOL    HW110844   6.860   2.215   3.814
 3315SOL    HW210845   6.834   2.223   3.652
 3316SOL     OW10846   4.778   2.153   6.131
 3316SOL    HW110847   4.735   2.234   6.089
 3316SOL    HW210848   4.806   2.090   6.060
 3317SOL     OW10849   4.184   2.759   1.396
 3317SOL    HW110850   4.147   2.762   1.303
 3317SOL    HW210851   4.283   2.741   1.392
 3318SOL     OW10852   2.586   6.027   5.017
 3318SOL    HW110853   2.683   6.039   4.999
 3318SOL    HW210854   2.565   6.059   5.110
 3319SOL     OW10855   0.736   6.250   4.579
 3319SOL    HW110856   0.679   6.250   4.497
 3319SOL    HW210857   0.813   6.312   4.565
 3320SOL     OW10858   6.026   0.800   5.390
 3320SOL    HW110859   6.108   0.809   5.334
 3320SOL    HW210860   6.051   0.768   5.481
 3321SOL     OW10861   3.130   3.228   3.543
 3321SOL    HW110862   3.103   3.234   3.639
 3321SOL    HW210863   3.049   3.223   3.485
 3322SOL     OW10864   3.865   2.227   0.856
 3322SOL    HW110865   3.838   2.295   0.789
 3322SOL    HW210866   3.805   2.147   0.849
 3323SOL     OW10867   2.070   5.047   0.230
 3323SOL    HW110868   2.108   4.954   0.234
 3323SOL    HW210869   2.126   5.107   0.286
 3324SOL     OW10870   1.042   3.249   0.188
 3324SOL    HW110871   0.985   3.243   0.270
 3324SOL    HW210872   1.007   3.187   0.118
 3325SOL     OW10873   1.648   2.596   0.756
 3325SOL    HW110874   1.648   2.692   0.728
 3325SOL    HW210875   1.618   2.589   0.851
 3326SOL     OW10876   6.528   1.803   0.913
 3326SOL    HW110877   6.465   1.806   0.835
 3326SOL    HW210878   6.476   1.816   0.998
 3327SOL     OW10879   3.153   6.539   2.074
 3327SOL    HW110880   3.092   6.501   2.144
 3327SOL    HW210881   3.098   6.570   1.996
 3328SOL     OW10882   4.932   1.351   2.142
 3328SOL    HW110883   4.988   1.339   2.224
 3328SOL    HW210884   4.991   1.361   2.062
 3329SOL     OW10885   4.410   0.754   4.985
 3329SOL    HW110886   4.312   0.743   4.999
 3329SOL    HW210887   4.457   0.668   5.003
 3330SOL     OW10888   5.959   6.501   2.282
 3330SOL    HW110889   5.971   6.597   2.257
 3330SOL    HW210890   5.878   6.492   2.340
 3331SOL     OW10891   2.096   3.477   3.095
 3331SOL    HW110892   2.145   3.414   3.154
 3331SOL    HW210893   2.032   3.426   3.037
 3332SOL     OW10894   4.257   5.418   0.325
 3332SOL    HW110895   4.342   5.414   0.377
 3332SOL    HW210896   4.275   5.399   0.229
 3333SOL     OW10897   3.753   3.672   1.863
 3333SOL    HW110898   3.728   3.734   1.938
 3333SOL    HW210899   3.749   3.722   1.776
 3334SOL     OW10900   1.639   2.220   2.763
 3334SOL    HW110901   1.707   2.267   2.707
 3334SOL    HW210902   1.608   2.137   2.715
 3335SOL     OW10903   3.778   4.307   5.143
 3335SOL    HW110904   3.700   4.350   5.189
 3335SOL    HW210905   3.748   4.268   5.056
 3336SOL     OW10906   3.875   6.901   3.639
 3336SOL    HW110907   3.842   6.810   3.664
 3336SOL    HW210908   3.893   6.953   3.722
 3337SOL     OW10909   3.359   4.113   2.906
 3337SOL    HW110910   3.345   4.145   2.999
 3337SOL    HW210911   3.278   4.063   2.875
 3338SOL     OW10912   2.218   1.307   1.502
 3338SOL    HW110913   2.127   1.290   1.463
 3338SOL    HW210914   2.211   1.378   1.572
 3339SOL     OW10915   2.269   0.442   5.897
 3339SOL    HW110916   2.322   0.361   5.872
 3339SOL    HW210917   2.294   0.471   5.989
 3340SOL     OW10918   3.958   1.134   4.214
 3340SOL    HW110919   3.895   1.163   4.285
 3340SOL    HW210920   3.936   1.040   4.186
 3341SOL     OW10921   2.371   4.848   2.612
 3341SOL    HW110922   2.425   4.763   2.611
 3341SOL    HW210923   2.429   4.924   2.582
 3342SOL     OW10924   6.428   6.950   2.943
 3342SOL    HW110925   6.364   6.927   2.869
 3342SOL    HW210926   6.393   6.913   3.029
 3343SOL     OW10927   4.924   5.392   6.547
 3343SOL    HW110928   4.948   5.489   6.540
 3343SOL    HW210929   5.000   5.337   6.512
 3344SOL     OW10930   0.046   3.030   1.469
 3344SOL    HW110931   0.015   2.983   1.552
 3344SOL    HW210932   0.083   3.120   1.493
 3345SOL     OW10933   0.294   4.614   1.026
 3345SOL    HW110934   0.243   4.612   0.940
 3345SOL    HW210935   0.346   4.699   1.032
 3346SOL     OW10936   1.874   0.980   6.920
 3346SOL    HW110937   1.846   0.917   6.848
 3346SOL    HW210938   1.865   0.935   7.009
 3347SOL     OW10939   0.860   3.118   6.290
 3347SOL    HW110940   0.916   3.129   6.372
 3347SOL    HW210941   0.769   3.087   6.315
 3348SOL     OW10942   3.975   4.119   6.043
 3348SOL    HW110943   3.995   4.174   6.124
 3348SOL    HW210944   4.029   4.152   5.966
 3349SOL     OW10945   2.847   4.701   3.477
 3349SOL    HW110946   2.838   4.797   3.450
 3349SOL    HW210947   2.824   4.643   3.399
 3350SOL     OW10948   7.002   4.179   5.555
 3350SOL    HW110949   6.974   4.247   5.488
 3350SOL    HW210950   0.072   4.197   5.583
 3351SOL     OW10951   5.075   1.042   0.858
 3351SOL    HW110952   5.043   0.983   0.932
 3351SOL    HW210953   5.111   1.127   0.896
 3352SOL     OW10954   5.489   3.026   6.413
 3352SOL    HW110955   5.490   3.085   6.333
 3352SOL    HW210956   5.405   3.042   6.466
 3353SOL     OW10957   2.374   1.296   1.844
 3353SOL    HW110958   2.469   1.266   1.835
 3353SOL    HW210959   2.314   1.232   1.796
 3354SOL     OW10960   3.632   2.757   6.035
 3354SOL    HW110961   3.661   2.844   5.995
 3354SOL    HW210962   3.591   2.773   6.125
 3355SOL     OW10963   1.936   0.550   4.856
 3355SOL    HW110964   1.875   0.626   4.878
 3355SOL    HW210965   2.031   0.577   4.870
 3356SOL     OW10966   1.579   6.992   5.447
 3356SOL    HW110967   1.584   6.911   5.506
 3356SOL    HW210968   1.507   6.979   5.379
 3357SOL     OW10969   3.292   3.227   1.592
 3357SOL    HW110970   3.330   3.319   1.605
 3357SOL    HW210971   3.333   3.164   1.658
 3358SOL     OW10972   6.318   0.672   2.900
 3358SOL    HW110973   6.255   0.648   2.826
 3358SOL    HW210974   6.274   0.738   2.962
 3359SOL     OW10975   6.804   5.734   4.193
 3359SOL    HW110976   6.802   5.730   4.093
 3359SOL    HW210977   6.834   5.646   4.230
 3360SOL     OW10978   0.041   2.872   5.548
 3360SOL    HW110979   6.966   2.876   5.549
 3360SOL    HW210980   0.077   2.963   5.526
 3361SOL     OW10981   0.483   0.950   4.717
 3361SOL    HW110982   0.577   0.974   4.694
 3361SOL    HW210983   0.452   0.876   4.657
 3362SOL     OW10984   3.494   1.633   4.147
 3362SOL    HW110985   3.447   1.597   4.228
 3362SOL    HW210986   3.484   1.732   4.144
 3363SOL     OW10987   5.940   3.368   1.518
 3363SOL    HW110988   5.874   3.298   1.489
 3363SOL    HW210989   6.012   3.376   1.450
 3364SOL     OW10990   2.149   4.325   2.904
 3364SOL    HW110991   2.147   4.422   2.881
 3364SOL    HW210992   2.199   4.312   2.990
 3365SOL     OW10993   2.009   3.204   4.490
 3365SOL    HW110994   1.911   3.224   4.488
 3365SOL    HW210995   2.047   3.232   4.578
 3366SOL     OW10996   6.056   3.620   4.278
 3366SOL    HW110997   6.144   3.657   4.248
 3366SOL    HW210998   6.067   3.581   4.370
 3367SOL     OW10999   3.820   3.342   4.614
 3367SOL    HW111000   3.788   3.435   4.598
 3367SOL    HW211001   3.861   3.336   4.705
 3368SOL     OW11002   1.818   5.898   0.309
 3368SOL    HW111003   1.791   5.938   0.396
 3368SOL    HW211004   1.749   5.920   0.239
 3369SOL     OW11005   4.329   2.534   1.208
 3369SOL    HW111006   4.420   2.506   1.240
 3369SOL    HW211007   4.294   2.467   1.144
 3370SOL     OW11008   0.293   5.694   1.767
 3370SOL    HW111009   0.391   5.686   1.789
 3370SOL    HW211010   0.240   5.673   1.849
 3371SOL     OW11011   2.302   2.875   3.152
 3371SOL    HW111012   2.281   2.844   3.059
 3371SOL    HW211013   2.278   2.971   3.161
 3372SOL     OW11014   6.654   3.357   1.308
 3372SOL    HW111015   6.649   3.286   1.238
 3372SOL    HW211016   6.588   3.337   1.380
 3373SOL     OW11017   0.298   2.187   1.593
 3373SOL    HW111018   0.305   2.179   1.493
 3373SOL    HW211019   0.210   2.229   1.616
 3374SOL     OW11020   0.755   0.629   3.599
 3374SOL    HW111021   0.732   0.676   3.684
 3374SOL    HW211022   0.849   0.650   3.573
 3375SOL     OW11023   6.852   4.991   6.646
 3375SOL    HW111024   6.925   4.963   6.584
 3375SOL    HW211025   6.857   4.937   6.730
 3376SOL     OW11026   2.524   3.540   5.587
 3376SOL    HW111027   2.599   3.584   5.537
 3376SOL    HW211028   2.452   3.607   5.605
 3377SOL     OW11029   5.606   4.228   2.884
 3377SOL    HW111030   5.645   4.191   2.968
 3377SOL    HW211031   5.669   4.297   2.846
 3378SOL     OW11032   1.441   6.410   6.826
 3378SOL    HW111033   1.478   6.498   6.856
 3378SOL    HW211034   1.343   6.420   6.806
 3379SOL     OW11035   0.490   3.978   3.738
 3379SOL    HW111036   0.566   4.019   3.687
 3379SOL    HW211037   0.453   4.044   3.803
 3380SOL     OW11038   3.719   4.505   6.192
 3380SOL    HW111039   3.721   4.580   6.125
 3380SOL    HW211040   3.656   4.434   6.160
 3381SOL     OW11041   1.533   3.282   1.458
 3381SOL    HW111042   1.483   3.329   1.386
 3381SOL    HW211043   1.620   3.330   1.474
 3382SOL     OW11044   6.932   2.440   0.668
 3382SOL    HW111045   6.850   2.434   0.611
 3382SOL    HW211046   6.926   2.522   0.724
 3383SOL     OW11047   4.871   5.182   0.016
 3383SOL    HW111048   4.879   5.265   0.072
 3383SOL    HW211049   4.881   5.102   0.075
 3384SOL     OW11050   2.651   4.158   0.667
 3384SOL    HW111051   2.661   4.126   0.762
 3384SOL    HW211052   2.599   4.090   0.615
 3385SOL     OW11053   0.533   2.226   3.085
 3385SOL    HW111054   0.441   2.219   3.047
 3385SOL    HW211055   0.562   2.136   3.117
 3386SOL     OW11056   6.524   4.908   6.807
 3386SOL    HW111057   6.493   4.817   6.835
 3386SOL    HW211058   6.446   4.971   6.806
 3387SOL     OW11059   6.318   0.137   3.182
 3387SOL    HW111060   6.376   0.217   3.194
 3387SOL    HW211061   6.373   0.060   3.149
 3388SOL     OW11062   6.137   3.013   1.668
 3388SOL    HW111063   6.212   3.017   1.734
 3388SOL    HW211064   6.054   3.050   1.710
 3389SOL     OW11065   6.161   6.010   0.923
 3389SOL    HW111066   6.181   6.050   0.834
 3389SOL    HW211067   6.107   5.926   0.911
 3390SOL     OW11068   4.014   6.304   6.065
 3390SOL    HW111069   3.986   6.285   6.159
 3390SOL    HW211070   3.950   6.369   6.023
 3391SOL     OW11071   5.511   2.909   3.406
 3391SOL    HW111072   5.442   2.913   3.478
 3391SOL    HW211073   5.469   2.879   3.321
 3392SOL     OW11074   4.418   6.868   5.656
 3392SOL    HW111075   4.450   6.872   5.751
 3392SOL    HW211076   4.334   6.815   5.651
 3393SOL     OW11077   5.235   6.667   1.234
 3393SOL    HW111078   5.229   6.735   1.307
 3393SOL    HW211079   5.143   6.643   1.203
 3394SOL     OW11080   3.022   5.489   1.725
 3394SOL    HW111081   2.986   5.398   1.706
 3394SOL    HW211082   3.002   5.549   1.649
 3395SOL     OW11083   3.971   0.249   3.027
 3395SOL    HW111084   3.900   0.297   2.975
 3395SOL    HW211085   4.053   0.240   2.972
 3396SOL     OW11086   4.152   1.800   3.760
 3396SOL    HW111087   4.206   1.750   3.827
 3396SOL    HW211088   4.058   1.810   3.794
 3397SOL     OW11089   2.309   5.510   6.538
 3397SOL    HW111090   2.352   5.463   6.460
 3397SOL    HW211091   2.369   5.583   6.570
 3398SOL     OW11092   6.825   2.151   4.980
 3398SOL    HW111093   6.874   2.168   5.066
 3398SOL    HW211094   6.852   2.063   4.943
 3399SOL     OW11095   0.023   4.984   2.750
 3399SOL    HW111096   6.984   4.947   2.683
 3399SOL    HW211097   0.062   4.910   2.804
 3400SOL     OW11098   5.625   2.530   5.569
 3400SOL    HW111099   5.541   2.519   5.623
 3400SOL    HW211100   5.629   2.459   5.499
 3401SOL     OW11101   6.825   3.461   5.446
 3401SOL    HW111102   6.894   3.498   5.383
 3401SOL    HW211103   6.844   3.494   5.538
 3402SOL     OW11104   6.689   4.862   1.531
 3402SOL    HW111105   6.705   4.790   1.598
 3402SOL    HW211106   6.608   4.915   1.558
 3403SOL     OW11107   4.222   6.679   6.741
 3403SOL    HW111108   4.181   6.767   6.720
 3403SOL    HW211109   4.150   6.610   6.748
 3404SOL     OW11110   5.219   3.469   5.349
 3404SOL    HW111111   5.198   3.466   5.447
 3404SOL    HW211112   5.138   3.499   5.299
 3405SOL     OW11113   5.677   6.081   5.824
 3405SOL    HW111114   5.755   6.060   5.883
 3405SOL    HW211115   5.655   6.178   5.832
 3406SOL     OW11116   1.948   3.859   2.020
 3406SOL    HW111117   1.984   3.879   1.929
 3406SOL    HW211118   2.024   3.853   2.085
 3407SOL     OW11119   1.738   3.912   0.135
 3407SOL    HW111120   1.793   3.942   0.214
 3407SOL    HW211121   1.785   3.837   0.089
 3408SOL     OW11122   4.927   2.290   3.946
 3408SOL    HW111123   4.985   2.336   3.878
 3408SOL    HW211124   4.831   2.307   3.924
 3409SOL     OW11125   4.785   1.469   1.022
 3409SOL    HW111126   4.787   1.386   1.077
 3409SOL    HW211127   4.690   1.493   1.000
 3410SOL     OW11128   5.274   0.043   2.211
 3410SOL    HW111129   5.274   0.019   2.308
 3410SOL    HW211130   5.206   0.114   2.194
 3411SOL     OW11131   6.836   2.104   0.699
 3411SOL    HW111132   6.782   2.047   0.638
 3411SOL    HW211133   6.829   2.199   0.670
 3412SOL     OW11134   5.573   3.153   1.642
 3412SOL    HW111135   5.575   3.236   1.698
 3412SOL    HW211136   5.479   3.132   1.616
 3413SOL     OW11137   0.076   1.953   5.889
 3413SOL    HW111138   0.001   1.916   5.944
 3413SOL    HW211139   0.140   2.003   5.948
 3414SOL     OW11140   4.057   3.241   1.140
 3414SOL    HW111141   4.108   3.326   1.154
 3414SOL    HW211142   4.063   3.215   1.043
 3415SOL     OW11143   2.215   2.661   4.898
 3415SOL    HW111144   2.133   2.706   4.861
 3415SOL    HW211145   2.240   2.703   4.985
 3416SOL     OW11146   6.392   0.046   6.565
 3416SOL    HW111147   6.473   0.104   6.577
 3416SOL    HW211148   6.411   7.001   6.496
 3417SOL     OW11149   6.849   6.828   2.953
 3417SOL    HW111150   6.780   6.867   3.015
 3417SOL    HW211151   6.811   6.748   2.907
 3418SOL     OW11152   4.581   4.829   1.509
 3418SOL    HW111153   4.505   4.893   1.518
 3418SOL    HW211154   4.575   4.784   1.420
 3419SOL     OW11155   3.017   5.939   6.180
 3419SOL    HW111156   2.973   5.927   6.091
 3419SOL    HW211157   3.048   6.034   6.190
 3420SOL     OW11158   4.317   2.409   3.765
 3420SOL    HW111159   4.247   2.408   3.836
 3420SOL    HW211160   4.303   2.333   3.702
 3421SOL     OW11161   5.548   2.426   3.542
 3421SOL    HW111162   5.638   2.462   3.566
 3421SOL    HW211163   5.514   2.474   3.461
 3422SOL     OW11164   1.924   6.905   0.965
 3422SOL    HW111165   1.968   6.987   1.004
 3422SOL    HW211166   1.959   6.889   0.873
 3423SOL     OW11167   0.979   4.535   5.416
 3423SOL    HW111168   1.052   4.584   5.369
 3423SOL    HW211169   0.920   4.600   5.464
 3424SOL     OW11170   4.601   0.199   1.694
 3424SOL    HW111171   4.691   0.239   1.713
 3424SOL    HW211172   4.552   0.186   1.780
 3425SOL     OW11173   5.883   4.275   1.516
 3425SOL    HW111174   5.817   4.209   1.551
 3425SOL    HW211175   5.905   4.252   1.421
 3426SOL     OW11176   5.378   3.605   0.006
 3426SOL    HW111177   5.448   3.677   0.004
 3426SOL    HW211178   5.421   3.516   0.018
 3427SOL     OW11179   1.205   2.436   0.492
 3427SOL    HW111180   1.109   2.458   0.474
 3427SOL    HW211181   1.235   2.484   0.575
 3428SOL     OW11182   5.534   6.059   5.088
 3428SOL    HW111183   5.536   6.118   5.008
 3428SOL    HW211184   5.625   6.054   5.129
 3429SOL     OW11185   6.927   0.359   1.427
 3429SOL    HW111186   0.001   0.371   1.437
 3429SOL    HW211187   6.896   0.404   1.343
 3430SOL     OW11188   2.398   4.467   5.562
 3430SOL    HW111189   2.308   4.432   5.536
 3430SOL    HW211190   2.405   4.563   5.535
 3431SOL     OW11191   2.475   6.038   2.662
 3431SOL    HW111192   2.504   6.122   2.708
 3431SOL    HW211193   2.375   6.029   2.668
 3432SOL     OW11194   2.263   4.324   0.793
 3432SOL    HW111195   2.314   4.407   0.816
 3432SOL    HW211196   2.303   4.245   0.840
 3433SOL     OW11197   2.551   0.826   6.393
 3433SOL    HW111198   2.534   0.912   6.441
 3433SOL    HW211199   2.608   0.844   6.312
 3434SOL     OW11200   3.017   2.073   1.386
 3434SOL    HW111201   3.059   2.010   1.450
 3434SOL    HW211202   2.979   2.151   1.435
 3435SOL     OW11203   2.324   0.814   0.413
 3435SOL    HW111204   2.259   0.749   0.374
 3435SOL    HW211205   2.322   0.808   0.513
 3436SOL     OW11206   3.196   6.003   0.595
 3436SOL    HW111207   3.203   6.021   0.693
 3436SOL    HW211208   3.182   6.089   0.546
 3437SOL     OW11209   1.357   6.435   6.346
 3437SOL    HW111210   1.426   6.410   6.414
 3437SOL    HW211211   1.307   6.354   6.317
 3438SOL     OW11212   1.155   4.155   1.254
 3438SOL    HW111213   1.078   4.129   1.195
 3438SOL    HW211214   1.125   4.154   1.349
 3439SOL     OW11215   1.987   5.510   2.076
 3439SOL    HW111216   2.013   5.417   2.103
 3439SOL    HW211217   1.898   5.507   2.029
 3440SOL     OW11218   4.066   3.811   4.611
 3440SOL    HW111219   4.099   3.731   4.562
 3440SOL    HW211220   4.097   3.894   4.564
 3441SOL     OW11221   5.718   5.863   5.377
 3441SOL    HW111222   5.800   5.842   5.430
 3441SOL    HW211223   5.682   5.951   5.408
 3442SOL     OW11224   3.676   3.221   1.413
 3442SOL    HW111225   3.767   3.200   1.378
 3442SOL    HW211226   3.616   3.248   1.338
 3443SOL     OW11227   2.099   5.949   2.232
 3443SOL    HW111228   2.031   5.883   2.264
 3443SOL    HW211229   2.053   6.022   2.182
 3444SOL     OW11230   5.851   3.736   1.616
 3444SOL    HW111231   5.932   3.689   1.650
 3444SOL    HW211232   5.878   3.800   1.543
 3445SOL     OW11233   6.076   4.169   3.384
 3445SOL    HW111234   6.157   4.129   3.426
 3445SOL    HW211235   5.996   4.151   3.442
 3446SOL     OW11236   5.311   1.150   1.289
 3446SOL    HW111237   5.377   1.174   1.361
 3446SOL    HW211238   5.278   1.057   1.304
 3447SOL     OW11239   5.016   0.845   0.263
 3447SOL    HW111240   4.943   0.913   0.263
 3447SOL    HW211241   4.977   0.755   0.244
 3448SOL     OW11242   1.613   6.261   4.690
 3448SOL    HW111243   1.522   6.245   4.727
 3448SOL    HW211244   1.614   6.237   4.593
 3449SOL     OW11245   6.409   4.138   5.090
 3449SOL    HW111246   6.319   4.108   5.057
 3449SOL    HW211247   6.401   4.175   5.182
 3450SOL     OW11248   1.689   6.300   0.490
 3450SOL    HW111249   1.606   6.246   0.486
 3450SOL    HW211250   1.688   6.357   0.572
 3451SOL     OW11251   2.129   6.357   1.215
 3451SOL    HW111252   2.177   6.343   1.128
 3451SOL    HW211253   2.060   6.429   1.203
 3452SOL     OW11254   4.915   0.272   5.571
 3452SOL    HW111255   5.001   0.244   5.528
 3452SOL    HW211256   4.844   0.280   5.501
 3453SOL     OW11257   5.073   6.382   5.839
 3453SOL    HW111258   5.163   6.344   5.860
 3453SOL    HW211259   5.033   6.333   5.761
 3454SOL     OW11260   1.243   2.481   2.318
 3454SOL    HW111261   1.291   2.564   2.350
 3454SOL    HW211262   1.211   2.496   2.225
 3455SOL     OW11263   1.163   3.528   5.990
 3455SOL    HW111264   1.219   3.604   6.023
 3455SOL    HW211265   1.213   3.479   5.918
 3456SOL     OW11266   5.082   4.049   2.499
 3456SOL    HW111267   5.016   4.084   2.566
 3456SOL    HW211268   5.034   4.006   2.423
 3457SOL     OW11269   3.825   5.751   5.264
 3457SOL    HW111270   3.922   5.750   5.290
 3457SOL    HW211271   3.812   5.695   5.182
 3458SOL     OW11272   4.339   1.492   3.030
 3458SOL    HW111273   4.433   1.457   3.030
 3458SOL    HW211274   4.335   1.576   3.085
 3459SOL     OW11275   3.999   0.374   3.265
 3459SOL    HW111276   4.078   0.435   3.263
 3459SOL    HW211277   3.990   0.328   3.177
 3460SOL     OW11278   4.067   1.999   5.475
 3460SOL    HW111279   3.994   1.961   5.532
 3460SOL    HW211280   4.147   2.020   5.532
 3461SOL     OW11281   5.744   4.872   6.241
 3461SOL    HW111282   5.745   4.809   6.318
 3461SOL    HW211283   5.689   4.833   6.167
 3462SOL     OW11284   2.726   3.837   6.861
 3462SOL    HW111285   2.723   3.788   6.773
 3462SOL    HW211286   2.694   3.931   6.847
 3463SOL     OW11287   5.938   4.508   1.016
 3463SOL    HW111288   5.943   4.511   1.116
 3463SOL    HW211289   6.010   4.565   0.978
 3464SOL     OW11290   6.959   4.845   5.979
 3464SOL    HW111291   6.892   4.778   5.947
 3464SOL    HW211292   6.946   4.862   6.076
 3465SOL     OW11293   1.902   0.575   1.754
 3465SOL    HW111294   1.982   0.583   1.813
 3465SOL    HW211295   1.897   0.482   1.717
 3466SOL     OW11296   6.282   3.833   5.062
 3466SOL    HW111297   6.315   3.770   4.992
 3466SOL    HW211298   6.207   3.789   5.113
 3467SOL     OW11299   1.693   2.258   6.396
 3467SOL    HW111300   1.791   2.243   6.403
 3467SOL    HW211301   1.672   2.310   6.313
 3468SOL     OW11302   3.311   0.353   3.942
 3468SOL    HW111303   3.239   0.285   3.932
 3468SOL    HW211304   3.283   0.438   3.896
 3469SOL     OW11305   5.583   2.307   3.050
 3469SOL    HW111306   5.536   2.240   3.108
 3469SOL    HW211307   5.530   2.392   3.046
 3470SOL     OW11308   0.108   5.617   0.940
 3470SOL    HW111309   0.156   5.698   0.906
 3470SOL    HW211310   0.156   5.535   0.910
 3471SOL     OW11311   4.091   6.118   4.821
 3471SOL    HW111312   4.066   6.211   4.794
 3471SOL    HW211313   4.043   6.052   4.764
 3472SOL     OW11314   3.333   1.187   5.295
 3472SOL    HW111315   3.385   1.110   5.332
 3472SOL    HW211316   3.251   1.153   5.249
 3473SOL     OW11317   5.492   0.731   6.214
 3473SOL    HW111318   5.588   0.741   6.187
 3473SOL    HW211319   5.435   0.727   6.133
 3474SOL     OW11320   4.048   5.123   1.746
 3474SOL    HW111321   4.060   5.041   1.801
 3474SOL    HW211322   3.986   5.103   1.670
 3475SOL     OW11323   1.321   5.804   4.370
 3475SOL    HW111324   1.295   5.755   4.287
 3475SOL    HW211325   1.257   5.781   4.443
 3476SOL     OW11326   4.488   0.771   4.160
 3476SOL    HW111327   4.566   0.815   4.204
 3476SOL    HW211328   4.520   0.709   4.089
 3477SOL     OW11329   3.713   6.270   1.176
 3477SOL    HW111330   3.811   6.286   1.191
 3477SOL    HW211331   3.675   6.347   1.124
 3478SOL     OW11332   3.705   5.382   0.013
 3478SOL    HW111333   3.704   5.318   0.090
 3478SOL    HW211334   3.788   5.438   0.018
 3479SOL     OW11335   0.965   0.570   1.865
 3479SOL    HW111336   0.959   0.661   1.905
 3479SOL    HW211337   0.952   0.501   1.936
 3480SOL     OW11338   0.397   1.395   3.099
 3480SOL    HW111339   0.465   1.326   3.124
 3480SOL    HW211340   0.424   1.483   3.139
 3481SOL     OW11341   2.596   6.402   6.602
 3481SOL    HW111342   2.692   6.388   6.581
 3481SOL    HW211343   2.547   6.430   6.519
 3482SOL     OW11344   0.172   2.355   0.748
 3482SOL    HW111345   0.173   2.280   0.681
 3482SOL    HW211346   0.082   2.399   0.746
 3483SOL     OW11347   2.294   0.579   1.679
 3483SOL    HW111348   2.284   0.671   1.718
 3483SOL    HW211349   2.346   0.585   1.594
 3484SOL     OW11350   3.833   3.408   3.961
 3484SOL    HW111351   3.868   3.457   3.881
 3484SOL    HW211352   3.851   3.310   3.951
 3485SOL     OW11353   1.408   2.971   5.165
 3485SOL    HW111354   1.404   2.895   5.230
 3485SOL    HW211355   1.331   2.967   5.102
 3486SOL     OW11356   4.640   2.098   1.533
 3486SOL    HW111357   4.678   2.042   1.460
 3486SOL    HW211358   4.555   2.141   1.501
 3487SOL     OW11359   5.928   1.615   6.647
 3487SOL    HW111360   5.948   1.694   6.705
 3487SOL    HW211361   5.900   1.646   6.556
 3488SOL     OW11362   5.576   3.484   3.444
 3488SOL    HW111363   5.543   3.391   3.432
 3488SOL    HW211364   5.627   3.513   3.363
 3489SOL     OW11365   3.396   0.541   1.444
 3489SOL    HW111366   3.360   0.578   1.530
 3489SOL    HW211367   3.377   0.604   1.369
 3490SOL     OW11368   4.692   3.952   0.178
 3490SOL    HW111369   4.722   4.015   0.106
 3490SOL    HW211370   4.713   3.992   0.267
 3491SOL     OW11371   0.461   3.183   5.329
 3491SOL    HW111372   0.447   3.093   5.370
 3491SOL    HW211373   0.559   3.201   5.319
 3492SOL     OW11374   6.617   4.519   6.780
 3492SOL    HW111375   6.715   4.540   6.774
 3492SOL    HW211376   6.604   4.420   6.776
 3493SOL     OW11377   6.433   4.818   0.908
 3493SOL    HW111378   6.484   4.740   0.943
 3493SOL    HW211379   6.482   4.858   0.830
 3494SOL     OW11380   3.296   0.254   1.375
 3494SOL    HW111381   3.306   0.351   1.396
 3494SOL    HW211382   3.207   0.238   1.332
 3495SOL     OW11383   4.535   4.933   1.045
 3495SOL    HW111384   4.614   4.976   1.089
 3495SOL    HW211385   4.455   4.992   1.056
 3496SOL     OW11386   1.946   2.745   0.761
 3496SOL    HW111387   1.946   2.679   0.686
 3496SOL    HW211388   2.032   2.739   0.811
 3497SOL     OW11389   4.513   0.582   3.910
 3497SOL    HW111390   4.452   0.558   3.834
 3497SOL    HW211391   4.546   0.498   3.953
 3498SOL     OW11392   2.561   1.689   1.842
 3498SOL    HW111393   2.621   1.694   1.762
 3498SOL    HW211394   2.599   1.745   1.915
 3499SOL     OW11395   6.558   2.862   4.369
 3499SOL    HW111396   6.596   2.921   4.297
 3499SOL    HW211397   6.557   2.912   4.455
 3500SOL     OW11398   5.871   3.951   6.809
 3500SOL    HW111399   5.808   3.959   6.886
 3500SOL    HW211400   5.904   3.857   6.803
 3501SOL     OW11401   1.960   4.366   4.956
 3501SOL    HW111402   1.956   4.330   4.863
 3501SOL    HW211403   2.053   4.397   4.976
 3502SOL     OW11404   1.132   2.238   0.670
 3502SOL    HW111405   1.168   2.298   0.599
 3502SOL    HW211406   1.142   2.143   0.641
 3503SOL     OW11407   5.070   6.035   5.382
 3503SOL    HW111408   4.980   6.067   5.351
 3503SOL    HW211409   5.059   5.954   5.440
 3504SOL     OW11410   2.169   3.407   1.587
 3504SOL    HW111411   2.263   3.374   1.596
 3504SOL    HW211412   2.125   3.363   1.509
 3505SOL     OW11413   5.586   5.574   5.627
 3505SOL    HW111414   5.683   5.590   5.649
 3505SOL    HW211415   5.547   5.511   5.693
 3506SOL     OW11416   4.906   5.413   3.158
 3506SOL    HW111417   4.941   5.469   3.234
 3506SOL    HW211418   4.823   5.366   3.186
 3507SOL     OW11419   0.800   0.176   6.487
 3507SOL    HW111420   0.719   0.234   6.501
 3507SOL    HW211421   0.772   0.082   6.471
 3508SOL     OW11422   5.548   4.121   0.066
 3508SOL    HW111423   5.581   4.094   7.001
 3508SOL    HW211424   5.478   4.056   0.096
 3509SOL     OW11425   6.447   6.380   0.021
 3509SOL    HW111426   6.452   6.340   0.113
 3509SOL    HW211427   6.397   6.317   6.986
 3510SOL     OW11428   2.412   2.310   1.964
 3510SOL    HW111429   2.334   2.359   1.924
 3510SOL    HW211430   2.480   2.291   1.893
 3511SOL     OW11431   0.545   2.596   6.666
 3511SOL    HW111432   0.482   2.646   6.606
 3511SOL    HW211433   0.517   2.501   6.673
 3512SOL     OW11434   2.773   2.877   0.839
 3512SOL    HW111435   2.714   2.925   0.904
 3512SOL    HW211436   2.856   2.846   0.886
 3513SOL     OW11437   6.406   4.104   1.492
 3513SOL    HW111438   6.415   4.019   1.544
 3513SOL    HW211439   6.330   4.157   1.529
 3514SOL     OW11440   0.787   6.123   0.990
 3514SOL    HW111441   0.826   6.154   0.903
 3514SOL    HW211442   0.860   6.086   1.047
 3515SOL     OW11443   3.386   6.627   3.124
 3515SOL    HW111444   3.362   6.707   3.069
 3515SOL    HW211445   3.473   6.642   3.170
 3516SOL     OW11446   2.957   1.289   0.797
 3516SOL    HW111447   2.883   1.262   0.735
 3516SOL    HW211448   2.922   1.292   0.891
 3517SOL     OW11449   1.095   1.509   6.572
 3517SOL    HW111450   1.068   1.526   6.477
 3517SOL    HW211451   1.078   1.592   6.626
 3518SOL     OW11452   4.545   3.337   6.313
 3518SOL    HW111453   4.487   3.394   6.255
 3518SOL    HW211454   4.509   3.335   6.406
 3519SOL     OW11455   2.114   6.551   6.551
 3519SOL    HW111456   2.105   6.483   6.624
 3519SOL    HW211457   2.082   6.640   6.585
 3520SOL     OW11458   3.691   5.693   1.206
 3520SOL    HW111459   3.758   5.623   1.179
 3520SOL    HW211460   3.622   5.652   1.265
 3521SOL     OW11461   5.800   2.488   1.448
 3521SOL    HW111462   5.873   2.438   1.494
 3521SOL    HW211463   5.840   2.558   1.389
 3522SOL     OW11464   3.382   4.983   2.319
 3522SOL    HW111465   3.351   5.077   2.329
 3522SOL    HW211466   3.470   4.981   2.272
 3523SOL     OW11467   2.568   4.894   4.621
 3523SOL    HW111468   2.617   4.896   4.534
 3523SOL    HW211469   2.630   4.864   4.694
 3524SOL     OW11470   2.753   0.531   0.777
 3524SOL    HW111471   2.810   0.579   0.709
 3524SOL    HW211472   2.805   0.455   0.816
 3525SOL     OW11473   0.632   2.910   2.415
 3525SOL    HW111474   0.672   2.983   2.469
 3525SOL    HW211475   0.665   2.916   2.321
 3526SOL     OW11476   1.337   0.594   2.290
 3526SOL    HW111477   1.239   0.596   2.271
 3526SOL    HW211478   1.387   0.578   2.204
 3527SOL     OW11479   5.447   3.238   6.238
 3527SOL    HW111480   5.404   3.265   6.151
 3527SOL    HW211481   5.440   3.313   6.303
 3528SOL     OW11482   0.720   6.695   4.111
 3528SOL    HW111483   0.820   6.686   4.104
 3528SOL    HW211484   0.685   6.741   4.029
 3529SOL     OW11485   4.409   6.129   5.707
 3529SOL    HW111486   4.345   6.183   5.761
 3529SOL    HW211487   4.497   6.176   5.702
 3530SOL     OW11488   2.403   5.609   2.757
 3530SOL    HW111489   2.484   5.667   2.753
 3530SOL    HW211490   2.332   5.653   2.812
 3531SOL     OW11491   5.873   4.465   0.297
 3531SOL    HW111492   5.796   4.402   0.286
 3531SOL    HW211493   5.941   4.425   0.359
 3532SOL     OW11494   2.184   0.252   0.074
 3532SOL    HW111495   2.169   0.346   0.103
 3532SOL    HW211496   2.111   0.194   0.110
 3533SOL     OW11497   0.814   1.436   3.529
 3533SOL    HW111498   0.796   1.531   3.553
 3533SOL    HW211499   0.733   1.381   3.547
 3534SOL     OW11500   4.909   1.170   4.538
 3534SOL    HW111501   4.927   1.196   4.443
 3534SOL    HW211502   4.829   1.110   4.542
 3535SOL     OW11503   5.247   5.319   6.007
 3535SOL    HW111504   5.292   5.244   6.056
 3535SOL    HW211505   5.199   5.378   6.072
 3536SOL     OW11506   1.750   3.452   2.792
 3536SOL    HW111507   1.672   3.441   2.853
 3536SOL    HW211508   1.728   3.519   2.721
 3537SOL     OW11509   1.921   5.363   0.962
 3537SOL    HW111510   1.998   5.303   0.986
 3537SOL    HW211511   1.925   5.445   1.019
 3538SOL     OW11512   2.907   0.213   3.543
 3538SOL    HW111513   2.920   0.280   3.616
 3538SOL    HW211514   2.898   0.261   3.456
 3539SOL     OW11515   5.026   4.937   5.897
 3539SOL    HW111516   4.995   4.942   5.802
 3539SOL    HW211517   5.122   4.961   5.903
 3540SOL     OW11518   3.287   3.414   6.600
 3540SOL    HW111519   3.239   3.327   6.589
 3540SOL    HW211520   3.247   3.482   6.538
 3541SOL     OW11521   3.095   2.352   0.707
 3541SOL    HW111522   3.183   2.344   0.753
 3541SOL    HW211523   3.053   2.440   0.729
 3542SOL     OW11524   5.649   1.957   6.089
 3542SOL    HW111525   5.641   1.862   6.119
 3542SOL    HW211526   5.745   1.986   6.097
 3543SOL     OW11527   1.708   2.789   3.455
 3543SOL    HW111528   1.804   2.793   3.428
 3543SOL    HW211529   1.699   2.736   3.539
 3544SOL     OW11530   2.597   4.554   5.986
 3544SOL    HW111531   2.523   4.566   5.920
 3544SOL    HW211532   2.563   4.509   6.068
 3545SOL     OW11533   3.367   0.184   0.840
 3545SOL    HW111534   3.369   0.116   0.767
 3545SOL    HW211535   3.424   0.152   0.917
 3546SOL     OW11536   6.692   3.465   3.231
 3546SOL    HW111537   6.738   3.433   3.313
 3546SOL    HW211538   6.758   3.508   3.170
 3547SOL     OW11539   0.413   3.717   5.987
 3547SOL    HW111540   0.490   3.691   5.929
 3547SOL    HW211541   0.407   3.655   6.065
 3548SOL     OW11542   5.520   0.695   5.752
 3548SOL    HW111543   5.582   0.754   5.804
 3548SOL    HW211544   5.548   0.694   5.656
 3549SOL     OW11545   2.833   5.650   6.354
 3549SOL    HW111546   2.838   5.593   6.436
 3549SOL    HW211547   2.924   5.685   6.332
 3550SOL     OW11548   5.132   1.244   4.897
 3550SOL    HW111549   5.053   1.303   4.910
 3550SOL    HW211550   5.112   1.152   4.930
 3551SOL     OW11551   4.270   2.082   4.490
 3551SOL    HW111552   4.236   2.156   4.548
 3551SOL    HW211553   4.256   1.994   4.536
 3552SOL     OW11554   0.155   5.949   3.010
 3552SOL    HW111555   0.060   5.922   2.991
 3552SOL    HW211556   0.155   6.023   3.078
 3553SOL     OW11557   4.129   5.282   6.459
 3553SOL    HW111558   4.130   5.230   6.544
 3553SOL    HW211559   4.043   5.265   6.410
 3554SOL     OW11560   4.545   3.404   1.648
 3554SOL    HW111561   4.487   3.485   1.642
 3554SOL    HW211562   4.641   3.431   1.645
 3555SOL     OW11563   2.409   2.332   4.468
 3555SOL    HW111564   2.471   2.276   4.523
 3555SOL    HW211565   2.446   2.424   4.461
 3556SOL     OW11566   4.498   0.948   5.402
 3556SOL    HW111567   4.556   1.026   5.426
 3556SOL    HW211568   4.552   0.881   5.351
 3557SOL     OW11569   6.602   1.425   1.384
 3557SOL    HW111570   6.654   1.396   1.464
 3557SOL    HW211571   6.510   1.452   1.412
 3558SOL     OW11572   3.075   6.901   1.353
 3558SOL    HW111573   2.993   6.875   1.404
 3558SOL    HW211574   3.061   6.989   1.308
 3559SOL     OW11575   3.915   6.223   4.451
 3559SOL    HW111576   3.817   6.202   4.446
 3559SOL    HW211577   3.928   6.321   4.438
 3560SOL     OW11578   2.054   5.978   4.278
 3560SOL    HW111579   2.057   5.883   4.249
 3560SOL    HW211580   2.112   6.033   4.218
 3561SOL     OW11581   4.888   4.276   5.081
 3561SOL    HW111582   4.935   4.195   5.047
 3561SOL    HW211583   4.841   4.322   5.005
 3562SOL     OW11584   2.406   1.313   5.543
 3562SOL    HW111585   2.398   1.376   5.620
 3562SOL    HW211586   2.402   1.365   5.457
 3563SOL     OW11587   5.925   2.576   5.315
 3563SOL    HW111588   5.852   2.619   5.262
 3563SOL    HW211589   5.885   2.505   5.374
 3564SOL     OW11590   6.751   4.338   2.671
 3564SOL    HW111591   6.817   4.267   2.649
 3564SOL    HW211592   6.787   4.427   2.644
 3565SOL     OW11593   3.744   6.028   3.341
 3565SOL    HW111594   3.780   5.990   3.256
 3565SOL    HW211595   3.661   5.979   3.367
 3566SOL     OW11596   0.362   1.361   5.832
 3566SOL    HW111597   0.421   1.380   5.753
 3566SOL    HW211598   0.278   1.414   5.823
 3567SOL     OW11599   0.345   4.781   6.756
 3567SOL    HW111600   0.358   4.832   6.671
 3567SOL    HW211601   0.371   4.686   6.742
 3568SOL     OW11602   6.495   3.493   5.987
 3568SOL    HW111603   6.502   3.420   5.918
 3568SOL    HW211604   6.577   3.491   6.044
 3569SOL     OW11605   2.106   2.393   5.308
 3569SOL    HW111606   2.203   2.405   5.330
 3569SOL    HW211607   2.093   2.406   5.210
 3570SOL     OW11608   6.604   1.361   4.043
 3570SOL    HW111609   6.657   1.277   4.029
 3570SOL    HW211610   6.575   1.398   3.955
 3571SOL     OW11611   6.312   5.791   6.585
 3571SOL    HW111612   6.363   5.855   6.642
 3571SOL    HW211613   6.227   5.766   6.631
 3572SOL     OW11614   5.826   3.545   4.796
 3572SOL    HW111615   5.764   3.558   4.873
 3572SOL    HW211616   5.884   3.625   4.785
 3573SOL     OW11617   1.422   3.286   3.310
 3573SOL    HW111618   1.511   3.273   3.267
 3573SOL    HW211619   1.352   3.296   3.239
 3574SOL     OW11620   0.373   4.232   0.664
 3574SOL    HW111621   0.279   4.258   0.686
 3574SOL    HW211622   0.386   4.135   0.685
 3575SOL     OW11623   6.309   5.531   2.687
 3575SOL    HW111624   6.218   5.493   2.700
 3575SOL    HW211625   6.361   5.525   2.772
 3576SOL     OW11626   0.619   1.311   6.256
 3576SOL    HW111627   0.715   1.287   6.275
 3576SOL    HW211628   0.585   1.255   6.181
 3577SOL     OW11629   0.748   2.771   6.462
 3577SOL    HW111630   0.811   2.790   6.537
 3577SOL    HW211631   0.677   2.842   6.458
 3578SOL     OW11632   3.060   4.859   0.446
 3578SOL    HW111633   3.097   4.921   0.515
 3578SOL    HW211634   3.017   4.780   0.491
 3579SOL     OW11635   6.589   3.269   4.835
 3579SOL    HW111636   6.557   3.352   4.789
 3579SOL    HW211637   6.605   3.198   4.767
 3580SOL     OW11638   6.289   1.421   2.114
 3580SOL    HW111639   6.310   1.444   2.209
 3580SOL    HW211640   6.307   1.323   2.099
 3581SOL     OW11641   7.000   0.406   2.485
 3581SOL    HW111642   0.061   0.364   2.511
 3581SOL    HW211643   6.931   0.387   2.555
 3582SOL     OW11644   1.071   0.589   5.845
 3582SOL    HW111645   1.154   0.629   5.805
 3582SOL    HW211646   1.002   0.661   5.856
 3583SOL     OW11647   0.925   4.758   6.847
 3583SOL    HW111648   0.931   4.663   6.879
 3583SOL    HW211649   0.869   4.811   6.910
 3584SOL     OW11650   5.506   6.352   6.835
 3584SOL    HW111651   5.447   6.389   6.907
 3584SOL    HW211652   5.524   6.422   6.766
 3585SOL     OW11653   3.912   4.929   4.037
 3585SOL    HW111654   3.964   4.844   4.032
 3585SOL    HW211655   3.817   4.912   4.012
 3586SOL     OW11656   6.529   3.284   5.832
 3586SOL    HW111657   6.624   3.278   5.802
 3586SOL    HW211658   6.490   3.192   5.839
 3587SOL     OW11659   3.750   6.857   0.632
 3587SOL    HW111660   3.692   6.927   0.589
 3587SOL    HW211661   3.769   6.884   0.727
 3588SOL     OW11662   1.782   2.319   5.956
 3588SOL    HW111663   1.728   2.300   5.874
 3588SOL    HW211664   1.861   2.257   5.959
 3589SOL     OW11665   2.965   0.826   5.494
 3589SOL    HW111666   3.026   0.811   5.572
 3589SOL    HW211667   2.979   0.918   5.457
 3590SOL     OW11668   1.429   5.323   6.065
 3590SOL    HW111669   1.363   5.303   5.992
 3590SOL    HW211670   1.509   5.265   6.053
 3591SOL     OW11671   5.317   2.806   5.899
 3591SOL    HW111672   5.279   2.863   5.827
 3591SOL    HW211673   5.272   2.827   5.986
 3592SOL     OW11674   4.990   3.016   2.999
 3592SOL    HW111675   5.055   2.947   2.967
 3592SOL    HW211676   5.025   3.058   3.083
 3593SOL     OW11677   2.032   6.731   3.919
 3593SOL    HW111678   2.073   6.669   3.853
 3593SOL    HW211679   1.994   6.679   3.995
 3594SOL     OW11680   2.483   0.893   3.303
 3594SOL    HW111681   2.537   0.970   3.339
 3594SOL    HW211682   2.545   0.822   3.270
 3595SOL     OW11683   2.361   6.632   6.174
 3595SOL    HW111684   2.350   6.685   6.089
 3595SOL    HW211685   2.418   6.552   6.156
 3596SOL     OW11686   6.616   0.915   2.090
 3596SOL    HW111687   6.605   1.013   2.106
 3596SOL    HW211688   6.529   0.869   2.104
 3597SOL     OW11689   4.301   6.060   4.397
 3597SOL    HW111690   4.212   6.017   4.385
 3597SOL    HW211691   4.293   6.134   4.464
 3598SOL     OW11692   0.688   6.942   6.371
 3598SOL    HW111693   0.699   6.853   6.327
 3598SOL    HW211694   0.601   6.945   6.419
 3599SOL     OW11695   6.830   2.270   4.704
 3599SOL    HW111696   6.805   2.233   4.793
 3599SOL    HW211697   6.748   2.296   4.653
 3600SOL     OW11698   6.366   2.958   1.338
 3600SOL    HW111699   6.458   2.930   1.364
 3600SOL    HW211700   6.304   2.879   1.341
 3601SOL     OW11701   0.137   3.626   0.437
 3601SOL    HW111702   0.138   3.547   0.376
 3601SOL    HW211703   0.050   3.629   0.487
 3602SOL     OW11704   1.894   0.896   0.152
 3602SOL    HW111705   1.939   0.949   0.223
 3602SOL    HW211706   1.888   0.800   0.180
 3603SOL     OW11707   4.338   5.102   3.828
 3603SOL    HW111708   4.268   5.038   3.797
 3603SOL    HW211709   4.420   5.090   3.772
 3604SOL     OW11710   6.906   2.462   2.632
 3604SOL    HW111711   6.824   2.409   2.611
 3604SOL    HW211712   6.971   2.455   2.557
 3605SOL     OW11713   5.949   4.182   6.602
 3605SOL    HW111714   5.921   4.100   6.652
 3605SOL    HW211715   5.986   4.249   6.666
 3606SOL     OW11716   6.742   4.149   5.629
 3606SOL    HW111717   6.838   4.173   5.617
 3606SOL    HW211718   6.693   4.227   5.669
 3607SOL     OW11719   5.401   0.732   0.694
 3607SOL    HW111720   5.333   0.772   0.633
 3607SOL    HW211721   5.490   0.773   0.676
 3608SOL     OW11722   0.710   1.825   1.327
 3608SOL    HW111723   0.807   1.812   1.306
 3608SOL    HW211724   0.655   1.785   1.254
 3609SOL     OW11725   6.622   0.772   4.590
 3609SOL    HW111726   6.682   0.852   4.594
 3609SOL    HW211727   6.665   0.696   4.639
 3610SOL     OW11728   0.718   6.372   5.715
 3610SOL    HW111729   0.681   6.465   5.714
 3610SOL    HW211730   0.670   6.317   5.646
 3611SOL     OW11731   3.515   5.202   5.169
 3611SOL    HW111732   3.565   5.249   5.242
 3611SOL    HW211733   3.553   5.110   5.156
 3612SOL     OW11734   1.242   6.316   0.132
 3612SOL    HW111735   1.228   6.413   0.155
 3612SOL    HW211736   1.227   6.303   0.034
 3613SOL     OW11737   5.159   4.927   0.653
 3613SOL    HW111738   5.253   4.956   0.674
 3613SOL    HW211739   5.152   4.908   0.555
 3614SOL     OW11740   3.909   3.818   3.508
 3614SOL    HW111741   3.991   3.760   3.498
 3614SOL    HW211742   3.868   3.802   3.597
 3615SOL     OW11743   6.052   5.319   5.436
 3615SOL    HW111744   6.018   5.273   5.518
 3615SOL    HW211745   5.984   5.311   5.363
 3616SOL     OW11746   6.640   2.071   6.294
 3616SOL    HW111747   6.562   2.102   6.239
 3616SOL    HW211748   6.615   1.989   6.345
 3617SOL     OW11749   6.241   2.365   6.672
 3617SOL    HW111750   6.252   2.337   6.577
 3617SOL    HW211751   6.329   2.392   6.710
 3618SOL     OW11752   1.877   1.913   5.838
 3618SOL    HW111753   1.829   1.921   5.925
 3618SOL    HW211754   1.904   1.818   5.824
 3619SOL     OW11755   6.076   2.584   3.788
 3619SOL    HW111756   5.992   2.560   3.838
 3619SOL    HW211757   6.147   2.516   3.808
 3620SOL     OW11758   5.744   0.450   5.516
 3620SOL    HW111759   5.812   0.477   5.584
 3620SOL    HW211760   5.729   0.351   5.521
 3621SOL     OW11761   2.849   2.874   5.772
 3621SOL    HW111762   2.864   2.805   5.701
 3621SOL    HW211763   2.812   2.830   5.854
 3622SOL     OW11764   0.597   1.419   2.830
 3622SOL    HW111765   0.653   1.354   2.881
 3622SOL    HW211766   0.553   1.483   2.894
 3623SOL     OW11767   5.815   5.149   3.827
 3623SOL    HW111768   5.891   5.149   3.763
 3623SOL    HW211769   5.770   5.060   3.827
 3624SOL     OW11770   2.539   6.380   3.230
 3624SOL    HW111771   2.494   6.438   3.298
 3624SOL    HW211772   2.472   6.319   3.188
 3625SOL     OW11773   5.953   3.368   5.948
 3625SOL    HW111774   5.927   3.423   5.868
 3625SOL    HW211775   5.967   3.273   5.920
 3626SOL     OW11776   2.154   3.447   4.737
 3626SOL    HW111777   2.254   3.449   4.745
 3626SOL    HW211778   2.114   3.497   4.814
 3627SOL     OW11779   3.885   3.961   3.279
 3627SOL    HW111780   3.912   3.903   3.202
 3627SOL    HW211781   3.883   3.906   3.362
 3628SOL     OW11782   2.264   5.475   1.881
 3628SOL    HW111783   2.223   5.384   1.880
 3628SOL    HW211784   2.219   5.532   1.812
 3629SOL     OW11785   6.112   2.329   5.476
 3629SOL    HW111786   6.165   2.308   5.559
 3629SOL    HW211787   6.141   2.418   5.441
 3630SOL     OW11788   5.697   2.316   4.846
 3630SOL    HW111789   5.698   2.266   4.760
 3630SOL    HW211790   5.682   2.413   4.828
 3631SOL     OW11791   2.559   0.105   4.578
 3631SOL    HW111792   2.563   0.057   4.491
 3631SOL    HW211793   2.647   0.148   4.597
 3632SOL     OW11794   5.179   0.791   1.105
 3632SOL    HW111795   5.213   0.825   1.192
 3632SOL    HW211796   5.084   0.763   1.115
 3633SOL     OW11797   2.587   2.524   5.789
 3633SOL    HW111798   2.631   2.441   5.823
 3633SOL    HW211799   2.605   2.534   5.691
 3634SOL     OW11800   1.132   6.617   4.715
 3634SOL    HW111801   1.041   6.583   4.735
 3634SOL    HW211802   1.196   6.588   4.786
 3635SOL     OW11803   3.051   1.521   5.030
 3635SOL    HW111804   3.012   1.434   5.063
 3635SOL    HW211805   2.978   1.577   4.990
 3636SOL     OW11806   0.330   5.677   6.112
 3636SOL    HW111807   0.237   5.707   6.089
 3636SOL    HW211808   0.325   5.607   6.183
 3637SOL     OW11809   5.918   2.256   1.085
 3637SOL    HW111810   5.855   2.330   1.062
 3637SOL    HW211811   5.941   2.206   1.001
 3638SOL     OW11812   6.591   4.428   4.373
 3638SOL    HW111813   6.689   4.426   4.393
 3638SOL    HW211814   6.558   4.522   4.377
 3639SOL     OW11815   3.748   3.985   1.125
 3639SOL    HW111816   3.759   4.081   1.101
 3639SOL    HW211817   3.670   3.947   1.075
 3640SOL     OW11818   3.544   6.233   0.051
 3640SOL    HW111819   3.617   6.241   0.118
 3640SOL    HW211820   3.457   6.258   0.093
 3641SOL     OW11821   3.662   1.403   4.654
 3641SOL    HW111822   3.711   1.489   4.641
 3641SOL    HW211823   3.567   1.414   4.628
 3642SOL     OW11824   4.645   1.156   5.492
 3642SOL    HW111825   4.731   1.191   5.455
 3642SOL    HW211826   4.583   1.232   5.510
 3643SOL     OW11827   3.424   5.770   4.201
 3643SOL    HW111828   3.513   5.814   4.212
 3643SOL    HW211829   3.360   5.806   4.269
 3644SOL     OW11830   6.944   2.333   1.273
 3644SOL    HW111831   6.939   2.340   1.173
 3644SOL    HW211832   7.000   2.407   1.309
 3645SOL     OW11833   5.567   1.680   3.842
 3645SOL    HW111834   5.632   1.622   3.892
 3645SOL    HW211835   5.498   1.715   3.906
 3646SOL     OW11836   6.728   4.616   5.025
 3646SOL    HW111837   6.657   4.630   5.093
 3646SOL    HW211838   6.697   4.550   4.957
 3647SOL     OW11839   1.327   3.309   0.257
 3647SOL    HW111840   1.380   3.268   0.183
 3647SOL    HW211841   1.234   3.325   0.226
 3648SOL     OW11842   4.014   5.512   2.723
 3648SOL    HW111843   3.931   5.552   2.761
 3648SOL    HW211844   4.012   5.413   2.737
 3649SOL     OW11845   4.345   3.467   0.888
 3649SOL    HW111846   4.327   3.388   0.830
 3649SOL    HW211847   4.318   3.551   0.841
 3650SOL     OW11848   6.283   6.356   1.200
 3650SOL    HW111849   6.258   6.338   1.295
 3650SOL    HW211850   6.203   6.384   1.149
 3651SOL     OW11851   0.195   6.144   2.116
 3651SOL    HW111852   0.217   6.241   2.104
 3651SOL    HW211853   0.228   6.093   2.036
 3652SOL     OW11854   4.819   6.541   3.495
 3652SOL    HW111855   4.915   6.521   3.513
 3652SOL    HW211856   4.788   6.614   3.555
 3653SOL     OW11857   6.167   0.976   3.330
 3653SOL    HW111858   6.107   0.953   3.407
 3653SOL    HW211859   6.257   1.001   3.364
 3654SOL     OW11860   2.365   6.623   0.858
 3654SOL    HW111861   2.347   6.685   0.782
 3654SOL    HW211862   2.288   6.561   0.870
 3655SOL     OW11863   1.363   6.706   4.433
 3655SOL    HW111864   1.383   6.694   4.530
 3655SOL    HW211865   1.440   6.671   4.379
 3656SOL     OW11866   1.786   2.399   1.928
 3656SOL    HW111867   1.774   2.378   1.831
 3656SOL    HW211868   1.814   2.316   1.977
 3657SOL     OW11869   3.934   5.497   6.835
 3657SOL    HW111870   3.899   5.590   6.820
 3657SOL    HW211871   3.907   5.439   6.758
 3658SOL     OW11872   0.878   5.567   5.333
 3658SOL    HW111873   0.826   5.513   5.267
 3658SOL    HW211874   0.827   5.573   5.419
 3659SOL     OW11875   2.761   4.310   6.966
 3659SOL    HW111876   2.716   4.325   0.029
 3659SOL    HW211877   2.857   4.336   6.973
 3660SOL     OW11878   4.668   6.266   2.115
 3660SOL    HW111879   4.674   6.274   2.215
 3660SOL    HW211880   4.684   6.356   2.074
 3661SOL     OW11881   5.117   2.498   6.764
 3661SOL    HW111882   5.072   2.418   6.724
 3661SOL    HW211883   5.212   2.475   6.786
 3662SOL     OW11884   3.737   6.939   5.046
 3662SOL    HW111885   3.653   6.928   4.993
 3662SOL    HW211886   3.811   6.968   4.986
 3663SOL     OW11887   1.483   1.429   0.262
 3663SOL    HW111888   1.426   1.510   0.248
 3663SOL    HW211889   1.470   1.365   0.186
 3664SOL     OW11890   4.862   1.361   0.336
 3664SOL    HW111891   4.886   1.319   0.249
 3664SOL    HW211892   4.830   1.454   0.321
 3665SOL     OW11893   0.396   5.998   5.568
 3665SOL    HW111894   0.309   6.011   5.617
 3665SOL    HW211895   0.393   6.047   5.481
 3666SOL     OW11896   1.597   4.454   3.820
 3666SOL    HW111897   1.563   4.401   3.898
 3666SOL    HW211898   1.661   4.523   3.854
 3667SOL     OW11899   6.230   0.852   0.291
 3667SOL    HW111900   6.177   0.832   0.373
 3667SOL    HW211901   6.181   0.818   0.211
 3668SOL     OW11902   1.459   6.649   2.542
 3668SOL    HW111903   1.399   6.729   2.539
 3668SOL    HW211904   1.549   6.674   2.507
 3669SOL     OW11905   5.914   1.581   4.234
 3669SOL    HW111906   6.007   1.618   4.237
 3669SOL    HW211907   5.863   1.614   4.313
 3670SOL     OW11908   2.363   5.585   0.539
 3670SOL    HW111909   2.383   5.678   0.511
 3670SOL    HW211910   2.272   5.559   0.506
 3671SOL     OW11911   6.600   0.151   3.035
 3671SOL    HW111912   6.537   0.080   3.002
 3671SOL    HW211913   6.679   0.107   3.077
 3672SOL     OW11914   5.998   2.053   0.484
 3672SOL    HW111915   5.998   2.048   0.384
 3672SOL    HW211916   5.945   1.978   0.522
 3673SOL     OW11917   3.962   0.979   6.204
 3673SOL    HW111918   3.958   0.904   6.139
 3673SOL    HW211919   3.996   0.945   6.292
 3674SOL     OW11920   0.437   6.622   6.614
 3674SOL    HW111921   0.474   6.684   6.682
 3674SOL    HW211922   0.499   6.544   6.603
 3675SOL     OW11923   1.812   2.479   5.224
 3675SOL    HW111924   1.899   2.493   5.175
 3675SOL    HW211925   1.802   2.382   5.247
 3676SOL     OW11926   4.309   5.367   3.948
 3676SOL    HW111927   4.305   5.281   3.896
 3676SOL    HW211928   4.215   5.398   3.966
 3677SOL     OW11929   1.005   6.034   3.264
 3677SOL    HW111930   1.042   6.126   3.268
 3677SOL    HW211931   1.079   5.967   3.276
 3678SOL     OW11932   1.025   2.227   3.604
 3678SOL    HW111933   1.050   2.265   3.515
 3678SOL    HW211934   0.930   2.196   3.600
 3679SOL     OW11935   0.322   0.705   2.754
 3679SOL    HW111936   0.409   0.752   2.769
 3679SOL    HW211937   0.268   0.755   2.686
 3680SOL     OW11938   6.090   3.040   3.913
 3680SOL    HW111939   6.031   3.019   3.990
 3680SOL    HW211940   6.035   3.080   3.839
 3681SOL     OW11941   0.881   0.771   5.846
 3681SOL    HW111942   0.891   0.834   5.923
 3681SOL    HW211943   0.844   0.821   5.768
 3682SOL     OW11944   6.163   2.219   5.866
 3682SOL    HW111945   6.110   2.135   5.874
 3682SOL    HW211946   6.110   2.288   5.817
 3683SOL     OW11947   6.331   0.085   4.695
 3683SOL    HW111948   6.372   0.018   4.757
 3683SOL    HW211949   6.359   0.064   4.601
 3684SOL     OW11950   1.704   2.914   1.570
 3684SOL    HW111951   1.766   2.991   1.558
 3684SOL    HW211952   1.756   2.833   1.596
 3685SOL     OW11953   6.295   6.085   6.022
 3685SOL    HW111954   6.230   6.023   5.978
 3685SOL    HW211955   6.245   6.152   6.077
 3686SOL     OW11956   6.711   5.042   2.843
 3686SOL    HW111957   6.612   5.031   2.858
 3686SOL    HW211958   6.758   4.956   2.861
 3687SOL     OW11959   3.195   6.430   5.825
 3687SOL    HW111960   3.182   6.342   5.869
 3687SOL    HW211961   3.118   6.490   5.847
 3688SOL     OW11962   0.787   3.928   6.924
 3688SOL    HW111963   0.833   3.851   6.969
 3688SOL    HW211964   0.852   4.003   6.912
 3689SOL     OW11965   0.836   0.426   5.118
 3689SOL    HW111966   0.773   0.424   5.040
 3689SOL    HW211967   0.864   0.520   5.136
 3690SOL     OW11968   4.329   0.722   6.256
 3690SOL    HW111969   4.326   0.762   6.164
 3690SOL    HW211970   4.237   0.691   6.281
 3691SOL     OW11971   2.478   2.890   6.711
 3691SOL    HW111972   2.459   2.832   6.790
 3691SOL    HW211973   2.574   2.881   6.685
 3692SOL     OW11974   0.909   5.537   4.667
 3692SOL    HW111975   0.821   5.570   4.632
 3692SOL    HW211976   0.916   5.558   4.765
 3693SOL     OW11977   1.784   2.563   2.982
 3693SOL    HW111978   1.867   2.514   2.956
 3693SOL    HW211979   1.706   2.524   2.934
 3694SOL     OW11980   0.964   5.381   3.557
 3694SOL    HW111981   0.912   5.454   3.599
 3694SOL    HW211982   1.062   5.402   3.563
 3695SOL     OW11983   0.378   2.352   2.793
 3695SOL    HW111984   0.326   2.433   2.767
 3695SOL    HW211985   0.439   2.325   2.718
 3696SOL     OW11986   4.661   6.161   5.905
 3696SOL    HW111987   4.685   6.079   5.854
 3696SOL    HW211988   4.653   6.239   5.842
 3697SOL     OW11989   6.946   6.396   3.289
 3697SOL    HW111990   6.958   6.297   3.297
 3697SOL    HW211991   0.001   6.443   3.326
 3698SOL     OW11992   3.684   0.402   5.568
 3698SOL    HW111993   3.707   0.391   5.471
 3698SOL    HW211994   3.732   0.482   5.604
 3699SOL     OW11995   6.697   3.809   3.138
 3699SOL    HW111996   6.713   3.907   3.152
 3699SOL    HW211997   6.602   3.795   3.110
 3700SOL     OW11998   6.180   0.522   3.819
 3700SOL    HW111999   6.186   0.548   3.915
 3700SOL    HW212000   6.103   0.458   3.807
 3701SOL     OW12001   0.548   0.926   4.000
 3701SOL    HW112002   0.631   0.980   3.989
 3701SOL    HW212003   0.526   0.917   4.097
 3702SOL     OW12004   4.110   0.155   1.793
 3702SOL    HW112005   4.105   0.217   1.871
 3702SOL    HW212006   4.196   0.104   1.797
 3703SOL     OW12007   4.185   3.882   5.695
 3703SOL    HW112008   4.268   3.873   5.640
 3703SOL    HW212009   4.165   3.979   5.710
 3704SOL     OW12010   3.096   0.869   2.292
 3704SOL    HW112011   3.019   0.909   2.243
 3704SOL    HW212012   3.061   0.814   2.368
 3705SOL     OW12013   4.547   6.906   3.661
 3705SOL    HW112014   4.529   7.004   3.672
 3705SOL    HW212015   4.529   6.880   3.566
 3706SOL     OW12016   1.852   2.605   4.341
 3706SOL    HW112017   1.905   2.547   4.402
 3706SOL    HW212018   1.848   2.698   4.378
 3707SOL     OW12019   5.400   3.210   5.684
 3707SOL    HW112020   5.394   3.119   5.642
 3707SOL    HW212021   5.330   3.270   5.645
 3708SOL     OW12022   5.852   0.235   6.429
 3708SOL    HW112023   5.853   0.335   6.432
 3708SOL    HW212024   5.769   0.201   6.475
 3709SOL     OW12025   3.637   1.008   6.259
 3709SOL    HW112026   3.720   0.956   6.241
 3709SOL    HW212027   3.605   1.051   6.175
 3710SOL     OW12028   6.738   6.262   0.187
 3710SOL    HW112029   6.793   6.344   0.172
 3710SOL    HW212030   6.654   6.287   0.236
 3711SOL     OW12031   0.293   6.077   2.828
 3711SOL    HW112032   0.241   6.022   2.894
 3711SOL    HW212033   0.247   6.075   2.739
 3712SOL     OW12034   6.745   6.554   6.718
 3712SOL    HW112035   6.736   6.601   6.805
 3712SOL    HW212036   6.696   6.466   6.722
 3713SOL     OW12037   2.072   5.994   4.900
 3713SOL    HW112038   2.168   5.969   4.893
 3713SOL    HW212039   2.055   6.076   4.844
 3714SOL     OW12040   4.870   6.385   4.774
 3714SOL    HW112041   4.798   6.419   4.835
 3714SOL    HW212042   4.835   6.378   4.681
 3715SOL     OW12043   5.923   4.281   4.753
 3715SOL    HW112044   5.894   4.197   4.706
 3715SOL    HW212045   5.861   4.355   4.729
 3716SOL     OW12046   0.016   6.989   4.582
 3716SOL    HW112047   6.981   6.921   4.541
 3716SOL    HW212048   7.001   7.022   4.668
 3717SOL     OW12049   6.001   5.667   0.328
 3717SOL    HW112050   6.058   5.722   0.390
 3717SOL    HW212051   6.060   5.612   0.269
 3718SOL     OW12052   1.480   6.639   6.601
 3718SOL    HW112053   1.434   6.710   6.547
 3718SOL    HW212054   1.458   6.652   6.697
 3719SOL     OW12055   4.607   4.317   0.836
 3719SOL    HW112056   4.629   4.241   0.897
 3719SOL    HW212057   4.576   4.395   0.889
 3720SOL     OW12058   6.455   2.518   6.790
 3720SOL    HW112059   6.413   2.453   6.853
 3720SOL    HW212060   6.543   2.482   6.759
 3721SOL     OW12061   5.277   4.870   0.081
 3721SOL    HW112062   5.220   4.931   0.027
 3721SOL    HW212063   5.219   4.805   0.130
 3722SOL     OW12064   6.686   6.352   2.283
 3722SOL    HW112065   6.664   6.281   2.215
 3722SOL    HW212066   6.775   6.333   2.324
 3723SOL     OW12067   5.573   6.834   2.259
 3723SOL    HW112068   5.630   6.854   2.179
 3723SOL    HW212069   5.543   6.920   2.301
 3724SOL     OW12070   1.817   5.041   6.746
 3724SOL    HW112071   1.785   5.047   6.651
 3724SOL    HW212072   1.788   4.955   6.786
 3725SOL     OW12073   6.300   6.199   6.919
 3725SOL    HW112074   6.204   6.226   6.915
 3725SOL    HW212075   6.314   6.137   6.996
 3726SOL     OW12076   6.923   4.133   1.293
 3726SOL    HW112077   7.019   4.162   1.295
 3726SOL    HW212078   6.911   4.063   1.223
 3727SOL     OW12079   0.563   3.272   5.601
 3727SOL    HW112080   0.621   3.349   5.631
 3727SOL    HW212081   0.467   3.296   5.615
 3728SOL     OW12082   2.135   3.481   0.128
 3728SOL    HW112083   2.231   3.451   0.133
 3728SOL    HW212084   2.099   3.493   0.220
 3729SOL     OW12085   0.913   2.412   2.782
 3729SOL    HW112086   0.855   2.419   2.701
 3729SOL    HW212087   0.942   2.503   2.810
 3730SOL     OW12088   2.567   6.804   0.106
 3730SOL    HW112089   2.479   6.846   0.085
 3730SOL    HW212090   2.641   6.864   0.074
 3731SOL     OW12091   5.052   1.734   0.359
 3731SOL    HW112092   5.128   1.670   0.342
 3731SOL    HW212093   4.967   1.683   0.372
 3732SOL     OW12094   2.250   3.475   5.891
 3732SOL    HW112095   2.216   3.528   5.968
 3732SOL    HW212096   2.179   3.411   5.861
 3733SOL     OW12097   2.312   4.074   2.005
 3733SOL    HW112098   2.279   3.985   2.036
 3733SOL    HW212099   2.360   4.064   1.918
 3734SOL     OW12100   4.567   1.551   1.928
 3734SOL    HW112101   4.560   1.560   2.027
 3734SOL    HW212102   4.648   1.495   1.905
 3735SOL     OW12103   1.396   1.802   2.689
 3735SOL    HW112104   1.314   1.793   2.632
 3735SOL    HW212105   1.381   1.874   2.757
 3736SOL     OW12106   0.162   2.884   0.706
 3736SOL    HW112107   0.092   2.840   0.650
 3736SOL    HW212108   0.244   2.900   0.651
 3737SOL     OW12109   5.020   0.328   3.439
 3737SOL    HW112110   5.102   0.274   3.419
 3737SOL    HW212111   5.045   0.407   3.494
 3738SOL     OW12112   5.997   5.647   2.878
 3738SOL    HW112113   5.976   5.741   2.851
 3738SOL    HW212114   6.077   5.647   2.938
 3739SOL     OW12115   1.731   3.925   2.842
 3739SOL    HW112116   1.640   3.928   2.802
 3739SOL    HW212117   1.792   3.986   2.792
 3740SOL     OW12118   4.419   0.704   6.667
 3740SOL    HW112119   4.517   0.726   6.674
 3740SOL    HW212120   4.373   0.775   6.614
 3741SOL     OW12121   4.614   3.843   0.978
 3741SOL    HW112122   4.666   3.771   1.024
 3741SOL    HW212123   4.533   3.865   1.031
 3742SOL     OW12124   2.891   2.446   5.848
 3742SOL    HW112125   2.920   2.443   5.752
 3742SOL    HW212126   2.855   2.356   5.875
 3743SOL     OW12127   6.174   4.875   0.543
 3743SOL    HW112128   6.126   4.962   0.534
 3743SOL    HW212129   6.267   4.886   0.508
 3744SOL     OW12130   0.627   5.461   4.275
 3744SOL    HW112131   0.598   5.416   4.360
 3744SOL    HW212132   0.556   5.448   4.205
 3745SOL     OW12133   3.420   5.382   3.124
 3745SOL    HW112134   3.427   5.282   3.126
 3745SOL    HW212135   3.489   5.418   3.061
 3746SOL     OW12136   4.650   1.538   1.387
 3746SOL    HW112137   4.657   1.460   1.324
 3746SOL    HW212138   4.554   1.549   1.415
 3747SOL     OW12139   3.252   6.572   6.154
 3747SOL    HW112140   3.252   6.669   6.178
 3747SOL    HW212141   3.179   6.554   6.088
 3748SOL     OW12142   5.808   1.288   1.673
 3748SOL    HW112143   5.836   1.361   1.736
 3748SOL    HW212144   5.718   1.255   1.699
 3749SOL     OW12145   2.019   6.867   4.413
 3749SOL    HW112146   1.955   6.808   4.364
 3749SOL    HW212147   2.106   6.870   4.364
 3750SOL     OW12148   1.305   3.948   0.382
 3750SOL    HW112149   1.391   3.990   0.354
 3750SOL    HW212150   1.324   3.873   0.445
 3751SOL     OW12151   0.122   3.922   2.894
 3751SOL    HW112152   0.146   3.826   2.905
 3751SOL    HW212153   0.140   3.971   2.979
 3752SOL     OW12154   5.061   0.921   5.700
 3752SOL    HW112155   5.028   0.835   5.740
 3752SOL    HW212156   5.139   0.955   5.752
 3753SOL     OW12157   6.485   1.033   4.370
 3753SOL    HW112158   6.502   1.034   4.271
 3753SOL    HW212159   6.387   1.028   4.387
 3754SOL     OW12160   2.031   0.832   2.002
 3754SOL    HW112161   2.042   0.733   2.010
 3754SOL    HW212162   1.935   0.854   1.983
 3755SOL     OW12163   3.385   4.980   4.535
 3755SOL    HW112164   3.470   5.009   4.577
 3755SOL    HW212165   3.329   4.932   4.602
 3756SOL     OW12166   2.650   5.915   0.109
 3756SOL    HW112167   2.700   5.839   0.149
 3756SOL    HW212168   2.636   5.986   0.178
 3757SOL     OW12169   5.880   5.065   1.943
 3757SOL    HW112170   5.973   5.029   1.952
 3757SOL    HW212171   5.825   5.003   1.887
 3758SOL     OW12172   1.947   0.773   4.154
 3758SOL    HW112173   1.960   0.838   4.229
 3758SOL    HW212174   1.903   0.690   4.189
 3759SOL     OW12175   5.367   1.002   4.329
 3759SOL    HW112176   5.406   1.024   4.419
 3759SOL    HW212177   5.421   1.047   4.257
 3760SOL     OW12178   0.372   0.440   3.950
 3760SOL    HW112179   0.343   0.412   4.041
 3760SOL    HW212180   0.293   0.435   3.887
 3761SOL     OW12181   5.728   1.581   4.431
 3761SOL    HW112182   5.755   1.656   4.491
 3761SOL    HW212183   5.634   1.596   4.399
 3762SOL     OW12184   1.587   4.000   2.448
 3762SOL    HW112185   1.648   3.920   2.455
 3762SOL    HW212186   1.619   4.059   2.374
 3763SOL     OW12187   6.859   4.162   0.486
 3763SOL    HW112188   6.807   4.087   0.529
 3763SOL    HW212189   6.835   4.248   0.530
 3764SOL     OW12190   2.139   6.943   3.301
 3764SOL    HW112191   2.233   6.910   3.305
 3764SOL    HW212192   2.137   0.016   3.321
 3765SOL     OW12193   6.357   1.794   1.131
 3765SOL    HW112194   6.261   1.776   1.111
 3765SOL    HW212195   6.366   1.882   1.178
 3766SOL     OW12196   2.080   2.753   3.767
 3766SOL    HW112197   1.984   2.740   3.792
 3766SOL    HW212198   2.129   2.792   3.845
 3767SOL     OW12199   2.964   4.370   6.233
 3767SOL    HW112200   2.923   4.456   6.203
 3767SOL    HW212201   3.049   4.355   6.183
 3768SOL     OW12202   1.211   0.987   4.341
 3768SOL    HW112203   1.307   1.013   4.330
 3768SOL    HW212204   1.165   1.053   4.400
 3769SOL     OW12205   5.622   5.673   4.805
 3769SOL    HW112206   5.606   5.700   4.710
 3769SOL    HW212207   5.604   5.576   4.816
 3770SOL     OW12208   0.941   1.006   0.466
 3770SOL    HW112209   0.941   1.090   0.520
 3770SOL    HW212210   0.919   1.027   0.371
 3771SOL     OW12211   6.910   5.117   0.952
 3771SOL    HW112212   6.926   5.099   1.049
 3771SOL    HW212213   6.820   5.161   0.941
 3772SOL     OW12214   1.157   6.295   0.518
 3772SOL    HW112215   1.065   6.260   0.533
 3772SOL    HW212216   1.152   6.392   0.494
 3773SOL     OW12217   5.745   3.733   5.865
 3773SOL    HW112218   5.655   3.693   5.846
 3773SOL    HW212219   5.815   3.675   5.824
 3774SOL     OW12220   5.208   5.459   1.565
 3774SOL    HW112221   5.141   5.411   1.623
 3774SOL    HW212222   5.277   5.502   1.623
 3775SOL     OW12223   4.120   4.750   3.159
 3775SOL    HW112224   4.026   4.749   3.126
 3775SOL    HW212225   4.182   4.718   3.087
 3776SOL     OW12226   4.101   2.895   6.144
 3776SOL    HW112227   4.012   2.924   6.179
 3776SOL    HW212228   4.150   2.845   6.216
 3777SOL     OW12229   2.454   6.527   4.201
 3777SOL    HW112230   2.423   6.437   4.231
 3777SOL    HW212231   2.511   6.518   4.119
 3778SOL     OW12232   3.114   6.204   4.310
 3778SOL    HW112233   3.102   6.253   4.396
 3778SOL    HW212234   3.057   6.122   4.310
 3779SOL     OW12235   0.041   5.216   0.609
 3779SOL    HW112236   6.989   5.276   0.632
 3779SOL    HW212237   0.126   5.261   0.635
 3780SOL     OW12238   0.286   2.421   2.082
 3780SOL    HW112239   0.323   2.468   2.002
 3780SOL    HW212240   0.301   2.477   2.164
 3781SOL     OW12241   1.419   6.658   5.140
 3781SOL    HW112242   1.450   6.752   5.123
 3781SOL    HW212243   1.479   6.615   5.208
 3782SOL     OW12244   4.045   6.344   2.039
 3782SOL    HW112245   4.107   6.267   2.022
 3782SOL    HW212246   3.996   6.367   1.955
 3783SOL     OW12247   5.476   4.907   5.418
 3783SOL    HW112248   5.408   4.890   5.346
 3783SOL    HW212249   5.455   4.849   5.497
 3784SOL     OW12250   5.208   2.620   2.711
 3784SOL    HW112251   5.299   2.587   2.736
 3784SOL    HW212252   5.189   2.597   2.616
 3785SOL     OW12253   0.683   3.029   4.726
 3785SOL    HW112254   0.584   3.037   4.725
 3785SOL    HW212255   0.709   2.945   4.774
 3786SOL     OW12256   2.740   2.071   3.848
 3786SOL    HW112257   2.687   1.987   3.839
 3786SOL    HW212258   2.783   2.074   3.938
 3787SOL     OW12259   4.019   0.589   2.786
 3787SOL    HW112260   3.991   0.677   2.748
 3787SOL    HW212261   4.116   0.575   2.770
 3788SOL     OW12262   0.366   3.612   4.848
 3788SOL    HW112263   0.391   3.615   4.752
 3788SOL    HW212264   0.266   3.604   4.857
 3789SOL     OW12265   1.127   2.208   2.807
 3789SOL    HW112266   1.176   2.256   2.734
 3789SOL    HW212267   1.032   2.240   2.810
 3790SOL     OW12268   1.137   5.679   0.384
 3790SOL    HW112269   1.232   5.685   0.414
 3790SOL    HW212270   1.080   5.739   0.440
 3791SOL     OW12271   5.368   1.551   5.628
 3791SOL    HW112272   5.451   1.605   5.617
 3791SOL    HW212273   5.288   1.612   5.622
 3792SOL     OW12274   0.873   0.670   4.372
 3792SOL    HW112275   0.795   0.643   4.314
 3792SOL    HW212276   0.863   0.627   4.462
 3793SOL     OW12277   6.059   6.018   0.499
 3793SOL    HW112278   6.053   5.984   0.406
 3793SOL    HW212279   5.969   6.048   0.531
 3794SOL     OW12280   1.772   3.856   1.353
 3794SOL    HW112281   1.870   3.846   1.337
 3794SOL    HW212282   1.752   3.842   1.450
 3795SOL     OW12283   2.792   5.858   1.016
 3795SOL    HW112284   2.793   5.958   1.016
 3795SOL    HW212285   2.809   5.825   1.108
 3796SOL     OW12286   4.069   2.164   1.074
 3796SOL    HW112287   4.158   2.194   1.040
 3796SOL    HW212288   3.999   2.184   1.005
 3797SOL     OW12289   1.147   4.038   2.652
 3797SOL    HW112290   1.192   4.023   2.740
 3797SOL    HW212291   1.144   3.952   2.602
 3798SOL     OW12292   2.903   6.722   2.995
 3798SOL    HW112293   2.849   6.657   3.049
 3798SOL    HW212294   2.844   6.768   2.929
 3799SOL     OW12295   6.640   2.472   2.829
 3799SOL    HW112296   6.720   2.517   2.869
 3799SOL    HW212297   6.669   2.397   2.771
 3800SOL     OW12298   5.702   1.538   3.344
 3800SOL    HW112299   5.785   1.586   3.318
 3800SOL    HW212300   5.634   1.603   3.377
 3801SOL     OW12301   5.477   6.598   2.383
 3801SOL    HW112302   5.506   6.678   2.331
 3801SOL    HW212303   5.377   6.593   2.385
 3802SOL     OW12304   0.139   1.908   2.216
 3802SOL    HW112305   0.192   1.938   2.295
 3802SOL    HW212306   0.202   1.881   2.142
 3803SOL     OW12307   3.085   3.903   3.874
 3803SOL    HW112308   3.101   3.987   3.927
 3803SOL    HW212309   3.173   3.862   3.851
 3804SOL     OW12310   3.698   0.585   4.357
 3804SOL    HW112311   3.795   0.577   4.333
 3804SOL    HW212312   3.686   0.661   4.421
 3805SOL     OW12313   2.202   2.651   0.837
 3805SOL    HW112314   2.241   2.677   0.749
 3805SOL    HW212315   2.254   2.694   0.910
 3806SOL     OW12316   4.076   4.512   6.582
 3806SOL    HW112317   4.164   4.467   6.573
 3806SOL    HW212318   4.033   4.521   6.492
 3807SOL     OW12319   1.593   5.030   4.281
 3807SOL    HW112320   1.621   5.099   4.348
 3807SOL    HW212321   1.581   5.073   4.192
 3808SOL     OW12322   4.874   0.391   5.802
 3808SOL    HW112323   4.946   0.352   5.859
 3808SOL    HW212324   4.890   0.366   5.706
 3809SOL     OW12325   5.680   2.095   1.360
 3809SOL    HW112326   5.709   2.110   1.455
 3809SOL    HW212327   5.581   2.083   1.357
 3810SOL     OW12328   6.417   2.430   2.993
 3810SOL    HW112329   6.438   2.392   3.083
 3810SOL    HW212330   6.497   2.421   2.934
 3811SOL     OW12331   0.065   5.281   4.464
 3811SOL    HW112332   0.148   5.228   4.479
 3811SOL    HW212333   0.010   5.282   4.548
 3812SOL     OW12334   3.453   6.090   6.865
 3812SOL    HW112335   3.507   6.122   6.943
 3812SOL    HW212336   3.384   6.158   6.841
 3813SOL     OW12337   6.000   3.642   1.228
 3813SOL    HW112338   5.979   3.661   1.132
 3813SOL    HW212339   6.036   3.550   1.237
 3814SOL     OW12340   0.101   6.941   3.855
 3814SOL    HW112341   0.172   6.908   3.794
 3814SOL    HW212342   0.129   0.002   3.896
 3815SOL     OW12343   5.440   3.180   0.414
 3815SOL    HW112344   5.431   3.219   0.506
 3815SOL    HW212345   5.535   3.153   0.399
 3816SOL     OW12346   0.633   6.464   5.256
 3816SOL    HW112347   0.554   6.453   5.316
 3816SOL    HW212348   0.708   6.407   5.289
 3817SOL     OW12349   4.929   3.474   2.802
 3817SOL    HW112350   4.924   3.502   2.898
 3817SOL    HW212351   4.892   3.546   2.744
 3818SOL     OW12352   0.195   0.386   1.402
 3818SOL    HW112353   0.216   0.481   1.379
 3818SOL    HW212354   0.273   0.327   1.380
 3819SOL     OW12355   6.561   4.345   2.885
 3819SOL    HW112356   6.589   4.332   2.790
 3819SOL    HW212357   6.620   4.414   2.928
 3820SOL     OW12358   5.448   6.639   4.117
 3820SOL    HW112359   5.503   6.713   4.157
 3820SOL    HW212360   5.402   6.671   4.034
 3821SOL     OW12361   0.479   6.754   6.900
 3821SOL    HW112362   0.506   6.821   6.832
 3821SOL    HW212363   0.452   6.801   6.984
 3822SOL     OW12364   3.404   0.795   6.961
 3822SOL    HW112365   3.476   0.726   6.974
 3822SOL    HW212366   3.348   0.801   0.018
 3823SOL     OW12367   4.972   4.705   6.037
 3823SOL    HW112368   4.901   4.718   6.106
 3823SOL    HW212369   4.981   4.789   5.983
 3824SOL     OW12370   1.161   2.990   0.556
 3824SOL    HW112371   1.098   3.064   0.532
 3824SOL    HW212372   1.128   2.904   0.517
 3825SOL     OW12373   0.844   4.277   0.901
 3825SOL    HW112374   0.872   4.182   0.915
 3825SOL    HW212375   0.872   4.331   0.980
 3826SOL     OW12376   6.956   3.926   2.702
 3826SOL    HW112377   6.961   3.835   2.661
 3826SOL    HW212378   7.019   3.932   2.779
 3827SOL     OW12379   0.910   0.782   1.004
 3827SOL    HW112380   0.822   0.786   0.957
 3827SOL    HW212381   0.920   0.864   1.062
 3828SOL     OW12382   3.605   4.158   4.994
 3828SOL    HW112383   3.548   4.118   4.922
 3828SOL    HW212384   3.547   4.211   5.056
 3829SOL     OW12385   0.627   5.397   2.485
 3829SOL    HW112386   0.699   5.347   2.533
 3829SOL    HW212387   0.554   5.420   2.550
 3830SOL     OW12388   0.301   0.618   5.238
 3830SOL    HW112389   0.272   0.555   5.167
 3830SOL    HW212390   0.315   0.569   5.324
 3831SOL     OW12391   4.092   2.214   3.064
 3831SOL    HW112392   4.154   2.286   3.097
 3831SOL    HW212393   4.110   2.129   3.114
 3832SOL     OW12394   0.220   0.340   1.668
 3832SOL    HW112395   0.297   0.276   1.660
 3832SOL    HW212396   0.183   0.358   1.577
 3833SOL     OW12397   1.691   6.324   6.768
 3833SOL    HW112398   1.611   6.354   6.820
 3833SOL    HW212399   1.769   6.311   6.829
 3834SOL     OW12400   4.233   4.260   1.418
 3834SOL    HW112401   4.195   4.289   1.506
 3834SOL    HW212402   4.305   4.324   1.391
 3835SOL     OW12403   3.811   6.037   5.349
 3835SOL    HW112404   3.835   6.001   5.439
 3835SOL    HW212405   3.790   5.961   5.288
 3836SOL     OW12406   0.704   4.861   5.933
 3836SOL    HW112407   0.708   4.860   5.833
 3836SOL    HW212408   0.676   4.952   5.964
 3837SOL     OW12409   3.778   5.060   5.213
 3837SOL    HW112410   3.804   4.985   5.152
 3837SOL    HW212411   3.833   5.056   5.296
 3838SOL     OW12412   1.674   1.368   3.584
 3838SOL    HW112413   1.632   1.322   3.661
 3838SOL    HW212414   1.627   1.342   3.499
 3839SOL     OW12415   4.545   0.605   3.060
 3839SOL    HW112416   4.644   0.611   3.077
 3839SOL    HW212417   4.512   0.517   3.093
 3840SOL     OW12418   2.496   1.331   6.280
 3840SOL    HW112419   2.474   1.235   6.297
 3840SOL    HW212420   2.593   1.346   6.300
 3841SOL     OW12421   0.664   4.362   3.948
 3841SOL    HW112422   0.753   4.362   3.993
 3841SOL    HW212423   0.608   4.287   3.985
 3842SOL     OW12424   2.245   2.477   4.273
 3842SOL    HW112425   2.275   2.419   4.348
 3842SOL    HW212426   2.309   2.470   4.197
 3843SOL     OW12427   5.504   3.468   1.134
 3843SOL    HW112428   5.425   3.410   1.117
 3843SOL    HW212429   5.544   3.445   1.223
 3844SOL     OW12430   1.517   4.720   0.069
 3844SOL    HW112431   1.534   4.678   0.159
 3844SOL    HW212432   1.429   4.688   0.034
 3845SOL     OW12433   2.449   6.315   0.026
 3845SOL    HW112434   2.386   6.247   7.014
 3845SOL    HW212435   2.537   6.309   7.004
 3846SOL     OW12436   0.785   3.249   4.530
 3846SOL    HW112437   0.747   3.181   4.593
 3846SOL    HW212438   0.784   3.339   4.574
 3847SOL     OW12439   5.514   1.974   4.482
 3847SOL    HW112440   5.451   1.977   4.405
 3847SOL    HW212441   5.530   1.878   4.509
 3848SOL     OW12442   4.864   3.305   3.145
 3848SOL    HW112443   4.828   3.237   3.081
 3848SOL    HW212444   4.935   3.359   3.100
 3849SOL     OW12445   0.179   6.946   6.656
 3849SOL    HW112446   0.195   6.849   6.673
 3849SOL    HW212447   0.095   6.974   6.702
 3850SOL     OW12448   3.121   3.053   1.168
 3850SOL    HW112449   3.189   3.052   1.241
 3850SOL    HW212450   3.089   2.960   1.151
 3851SOL     OW12451   6.694   4.945   3.621
 3851SOL    HW112452   6.617   4.886   3.648
 3851SOL    HW212453   6.739   4.907   3.541
 3852SOL     OW12454   3.793   6.491   4.216
 3852SOL    HW112455   3.766   6.550   4.141
 3852SOL    HW212456   3.780   6.395   4.190
 3853SOL     OW12457   2.195   1.815   3.571
 3853SOL    HW112458   2.144   1.743   3.618
 3853SOL    HW212459   2.199   1.896   3.629
 3854SOL     OW12460   1.360   3.152   3.063
 3854SOL    HW112461   1.392   3.076   3.120
 3854SOL    HW212462   1.405   3.147   2.974
 3855SOL     OW12463   4.054   6.504   0.424
 3855SOL    HW112464   4.112   6.568   0.375
 3855SOL    HW212465   4.012   6.551   0.502
 3856SOL     OW12466   0.851   1.649   6.019
 3856SOL    HW112467   0.878   1.635   6.115
 3856SOL    HW212468   0.752   1.658   6.013
 3857SOL     OW12469   1.649   6.329   5.580
 3857SOL    HW112470   1.651   6.284   5.669
 3857SOL    HW212471   1.719   6.288   5.520
 3858SOL     OW12472   3.253   1.466   5.923
 3858SOL    HW112473   3.260   1.367   5.911
 3858SOL    HW212474   3.201   1.505   5.847
 3859SOL     OW12475   6.094   1.167   1.019
 3859SOL    HW112476   6.002   1.161   1.060
 3859SOL    HW212477   6.159   1.198   1.089
 3860SOL     OW12478   1.903   1.149   4.777
 3860SOL    HW112479   1.941   1.237   4.749
 3860SOL    HW212480   1.977   1.087   4.802
 3861SOL     OW12481   4.636   5.945   2.915
 3861SOL    HW112482   4.641   6.045   2.918
 3861SOL    HW212483   4.703   5.907   2.977
 3862SOL     OW12484   0.869   0.510   4.616
 3862SOL    HW112485   0.784   0.529   4.666
 3862SOL    HW212486   0.865   0.418   4.578
 3863SOL     OW12487   5.973   1.620   0.118
 3863SOL    HW112488   5.990   1.582   0.209
 3863SOL    HW212489   5.915   1.701   0.127
 3864SOL     OW12490   2.431   0.593   4.759
 3864SOL    HW112491   2.473   0.674   4.801
 3864SOL    HW212492   2.465   0.511   4.804
 3865SOL     OW12493   4.444   1.213   0.659
 3865SOL    HW112494   4.368   1.163   0.700
 3865SOL    HW212495   4.409   1.288   0.604
 3866SOL     OW12496   3.629   1.308   0.059
 3866SOL    HW112497   3.717   1.336   0.099
 3866SOL    HW212498   3.587   1.239   0.118
 3867SOL     OW12499   1.620   4.255   3.121
 3867SOL    HW112500   1.649   4.304   3.203
 3867SOL    HW212501   1.648   4.160   3.127
 3868SOL     OW12502   4.383   0.473   6.801
 3868SOL    HW112503   4.449   0.407   6.764
 3868SOL    HW212504   4.411   0.566   6.776
 3869SOL     OW12505   6.247   3.154   3.667
 3869SOL    HW112506   6.158   3.120   3.638
 3869SOL    HW212507   6.297   3.081   3.715
 3870SOL     OW12508   6.611   6.498   1.961
 3870SOL    HW112509   6.647   6.533   2.048
 3870SOL    HW212510   6.630   6.400   1.953
 3871SOL     OW12511   2.942   6.874   3.341
 3871SOL    HW112512   2.930   6.940   3.267
 3871SOL    HW212513   2.932   6.781   3.305
 3872SOL     OW12514   3.284   3.182   4.469
 3872SOL    HW112515   3.218   3.246   4.429
 3872SOL    HW212516   3.371   3.229   4.484
 3873SOL     OW12517   4.959   4.058   1.149
 3873SOL    HW112518   5.047   4.024   1.118
 3873SOL    HW212519   4.950   4.155   1.123
 3874SOL     OW12520   4.442   0.685   0.189
 3874SOL    HW112521   4.406   0.716   0.102
 3874SOL    HW212522   4.371   0.637   0.240
 3875SOL     OW12523   1.936   3.118   3.656
 3875SOL    HW112524   1.944   3.147   3.561
 3875SOL    HW212525   1.991   3.036   3.671
 3876SOL     OW12526   3.361   5.419   1.226
 3876SOL    HW112527   3.333   5.506   1.184
 3876SOL    HW212528   3.431   5.437   1.295
 3877SOL     OW12529   6.672   2.547   1.001
 3877SOL    HW112530   6.764   2.577   0.974
 3877SOL    HW212531   6.674   2.514   1.096
 3878SOL     OW12532   4.813   6.388   4.507
 3878SOL    HW112533   4.817   6.331   4.425
 3878SOL    HW212534   4.838   6.482   4.482
 3879SOL     OW12535   5.464   5.317   0.665
 3879SOL    HW112536   5.502   5.336   0.756
 3879SOL    HW212537   5.386   5.378   0.649
 3880SOL     OW12538   4.925   4.311   4.459
 3880SOL    HW112539   4.962   4.272   4.375
 3880SOL    HW212540   4.997   4.318   4.528
 3881SOL     OW12541   1.593   3.661   1.531
 3881SOL    HW112542   1.629   3.569   1.547
 3881SOL    HW212543   1.579   3.707   1.618
 3882SOL     OW12544   0.532   1.125   7.013
 3882SOL    HW112545   0.545   1.218   0.022
 3882SOL    HW212546   0.445   1.120   6.962
 3883SOL     OW12547   3.991   1.132   2.697
 3883SOL    HW112548   4.071   1.129   2.637
 3883SOL    HW212549   3.942   1.218   2.684
 3884SOL     OW12550   0.439   5.816   2.302
 3884SOL    HW112551   0.359   5.778   2.348
 3884SOL    HW212552   0.522   5.783   2.347
 3885SOL     OW12553   6.443   5.891   3.368
 3885SOL    HW112554   6.528   5.840   3.358
 3885SOL    HW212555   6.409   5.918   3.278
 3886SOL     OW12556   4.350   5.637   5.066
 3886SOL    HW112557   4.299   5.570   5.119
 3886SOL    HW212558   4.444   5.642   5.099
 3887SOL     OW12559   0.772   6.645   6.967
 3887SOL    HW112560   0.787   6.740   6.939
 3887SOL    HW212561   0.691   6.639   0.000
 3888SOL     OW12562   6.475   6.979   5.317
 3888SOL    HW112563   6.571   6.977   5.291
 3888SOL    HW212564   6.467   7.000   5.415
 3889SOL     OW12565   6.985   3.100   0.430
 3889SOL    HW112566   0.009   3.051   0.358
 3889SOL    HW212567   6.940   3.035   0.491
 3890SOL     OW12568   6.028   5.133   3.670
 3890SOL    HW112569   6.076   5.178   3.745
 3890SOL    HW212570   6.081   5.145   3.585
 3891SOL     OW12571   5.382   3.767   4.231
 3891SOL    HW112572   5.393   3.828   4.310
 3891SOL    HW212573   5.356   3.822   4.151
 3892SOL     OW12574   0.656   2.289   0.606
 3892SOL    HW112575   0.745   2.281   0.649
 3892SOL    HW212576   0.587   2.309   0.676
 3893SOL     OW12577   4.278   3.949   0.373
 3893SOL    HW112578   4.302   3.862   0.331
 3893SOL    HW212579   4.232   4.007   0.305
 3894SOL     OW12580   4.994   0.829   6.974
 3894SOL    HW112581   5.038   0.834   0.038
 3894SOL    HW212582   4.957   0.736   6.960
 3895SOL     OW12583   0.827   6.933   5.766
 3895SOL    HW112584   0.730   6.913   5.758
 3895SOL    HW212585   0.840   0.007   5.764
 3896SOL     OW12586   0.868   1.010   6.025
 3896SOL    HW112587   0.962   1.045   6.028
 3896SOL    HW212588   0.838   0.987   6.118
 3897SOL     OW12589   4.023   5.658   2.479
 3897SOL    HW112590   3.936   5.693   2.444
 3897SOL    HW212591   4.010   5.622   2.572
 3898SOL     OW12592   2.754   2.748   5.987
 3898SOL    HW112593   2.712   2.669   5.942
 3898SOL    HW212594   2.804   2.717   6.068
 3899SOL     OW12595   4.599   6.667   5.575
 3899SOL    HW112596   4.668   6.654   5.646
 3899SOL    HW212597   4.526   6.727   5.610
 3900SOL     OW12598   4.527   2.545   3.661
 3900SOL    HW112599   4.438   2.515   3.697
 3900SOL    HW212600   4.570   2.608   3.727
 3901SOL     OW12601   3.476   0.695   6.113
 3901SOL    HW112602   3.382   0.683   6.082
 3901SOL    HW212603   3.477   0.720   6.209
 3902SOL     OW12604   6.643   2.907   1.765
 3902SOL    HW112605   6.594   2.829   1.805
 3902SOL    HW212606   6.616   2.917   1.669
 3903SOL     OW12607   3.730   6.335   0.343
 3903SOL    HW112608   3.765   6.365   0.432
 3903SOL    HW212609   3.723   6.235   0.342
 3904SOL     OW12610   1.837   1.064   6.186
 3904SOL    HW112611   1.877   1.137   6.130
 3904SOL    HW212612   1.872   1.072   6.279
 3905SOL     OW12613   6.645   6.791   6.141
 3905SOL    HW112614   6.644   6.891   6.141
 3905SOL    HW212615   6.617   6.757   6.051
 3906SOL     OW12616   5.884   6.345   5.289
 3906SOL    HW112617   5.924   6.432   5.317
 3906SOL    HW212618   5.843   6.355   5.198
 3907SOL     OW12619   6.421   0.729   3.890
 3907SOL    HW112620   6.331   0.690   3.910
 3907SOL    HW212621   6.472   0.743   3.975
 3908SOL     OW12622   0.730   2.325   6.894
 3908SOL    HW112623   0.828   2.340   6.907
 3908SOL    HW212624   0.681   2.356   6.976
 3909SOL     OW12625   6.348   5.975   5.296
 3909SOL    HW112626   6.333   5.989   5.199
 3909SOL    HW212627   6.436   5.930   5.311
 3910SOL     OW12628   3.141   3.625   2.828
 3910SOL    HW112629   3.091   3.676   2.758
 3910SOL    HW212630   3.136   3.527   2.808
 3911SOL     OW12631   5.485   1.941   5.463
 3911SOL    HW112632   5.490   1.843   5.443
 3911SOL    HW212633   5.393   1.975   5.443
 3912SOL     OW12634   5.292   0.800   5.261
 3912SOL    HW112635   5.350   0.725   5.293
 3912SOL    HW212636   5.348   0.867   5.211
 3913SOL     OW12637   2.588   6.581   5.575
 3913SOL    HW112638   2.611   6.551   5.668
 3913SOL    HW212639   2.578   6.680   5.574
 3914SOL     OW12640   2.650   1.015   1.726
 3914SOL    HW112641   2.666   1.114   1.724
 3914SOL    HW212642   2.668   0.977   1.635
 3915SOL     OW12643   4.829   5.334   1.180
 3915SOL    HW112644   4.896   5.352   1.252
 3915SOL    HW212645   4.826   5.236   1.160
 3916SOL     OW12646   1.118   0.031   4.238
 3916SOL    HW112647   1.040   0.080   4.198
 3916SOL    HW212648   1.200   0.089   4.233
 3917SOL     OW12649   6.669   6.079   7.019
 3917SOL    HW112650   6.738   6.092   6.947
 3917SOL    HW212651   6.671   6.158   0.055
 3918SOL     OW12652   5.426   5.550   1.777
 3918SOL    HW112653   5.419   5.641   1.736
 3918SOL    HW212654   5.447   5.559   1.874
 3919SOL     OW12655   3.922   6.848   0.415
 3919SOL    HW112656   3.878   6.918   0.358
 3919SOL    HW212657   3.870   6.838   0.500
 3920SOL     OW12658   3.275   3.178   0.695
 3920SOL    HW112659   3.291   3.275   0.711
 3920SOL    HW212660   3.338   3.146   0.624
 3921SOL     OW12661   0.248   3.762   1.763
 3921SOL    HW112662   0.260   3.673   1.719
 3921SOL    HW212663   0.166   3.807   1.727
 3922SOL     OW12664   6.452   3.441   2.269
 3922SOL    HW112665   6.440   3.526   2.320
 3922SOL    HW212666   6.392   3.371   2.307
 3923SOL     OW12667   6.701   1.063   0.353
 3923SOL    HW112668   6.680   0.966   0.368
 3923SOL    HW212669   6.788   1.071   0.304
 3924SOL     OW12670   6.195   5.171   3.445
 3924SOL    HW112671   6.196   5.270   3.438
 3924SOL    HW212672   6.286   5.134   3.428
 3925SOL     OW12673   2.316   5.444   1.527
 3925SOL    HW112674   2.361   5.420   1.613
 3925SOL    HW212675   2.244   5.511   1.543
 3926SOL     OW12676   6.331   5.350   2.918
 3926SOL    HW112677   6.242   5.305   2.934
 3926SOL    HW212678   6.397   5.316   2.985
 3927SOL     OW12679   6.539   2.601   4.259
 3927SOL    HW112680   6.551   2.681   4.317
 3927SOL    HW212681   6.628   2.570   4.225
 3928SOL     OW12682   3.970   5.906   6.148
 3928SOL    HW112683   4.016   5.819   6.129
 3928SOL    HW212684   4.026   5.961   6.210
 3929SOL     OW12685   7.002   0.695   5.131
 3929SOL    HW112686   7.011   0.656   5.222
 3929SOL    HW212687   0.052   0.760   5.114
 3930SOL     OW12688   2.868   1.814   3.568
 3930SOL    HW112689   2.944   1.839   3.628
 3930SOL    HW212690   2.903   1.767   3.488
 3931SOL     OW12691   1.553   0.677   1.380
 3931SOL    HW112692   1.653   0.679   1.383
 3931SOL    HW212693   1.523   0.594   1.333
 3932SOL     OW12694   1.936   4.669   3.247
 3932SOL    HW112695   1.936   4.576   3.210
 3932SOL    HW212696   1.885   4.730   3.186
 3933SOL     OW12697   2.021   6.286   6.741
 3933SOL    HW112698   1.965   6.247   6.667
 3933SOL    HW212699   2.113   6.247   6.735
 3934SOL     OW12700   6.680   1.324   6.760
 3934SOL    HW112701   6.684   1.229   6.728
 3934SOL    HW212702   6.679   1.386   6.681
 3935SOL     OW12703   2.818   6.496   6.901
 3935SOL    HW112704   2.740   6.548   6.937
 3935SOL    HW212705   2.894   6.501   6.965
 3936SOL     OW12706   0.174   5.124   5.377
 3936SOL    HW112707   0.099   5.058   5.371
 3936SOL    HW212708   0.137   5.217   5.378
 3937SOL     OW12709   6.739   1.914   3.374
 3937SOL    HW112710   6.737   1.864   3.288
 3937SOL    HW212711   6.666   1.881   3.433
 3938SOL     OW12712   0.366   2.299   4.071
 3938SOL    HW112713   0.402   2.386   4.036
 3938SOL    HW212714   0.339   2.309   4.166
 3939SOL     OW12715   2.349   2.589   2.693
 3939SOL    HW112716   2.297   2.660   2.647
 3939SOL    HW212717   2.397   2.533   2.625
 3940SOL     OW12718   5.190   4.689   0.873
 3940SOL    HW112719   5.158   4.615   0.814
 3940SOL    HW212720   5.189   4.775   0.822
 3941SOL     OW12721   4.981   3.351   5.771
 3941SOL    HW112722   5.006   3.334   5.866
 3941SOL    HW212723   4.936   3.270   5.733
 3942SOL     OW12724   0.418   7.000   6.499
 3942SOL    HW112725   0.336   6.993   6.556
 3942SOL    HW212726   0.392   0.006   6.408
 3943SOL     OW12727   6.992   3.098   2.995
 3943SOL    HW112728   6.945   3.078   3.081
 3943SOL    HW212729   0.029   3.022   2.973
 3944SOL     OW12730   4.473   2.497   5.011
 3944SOL    HW112731   4.497   2.583   4.965
 3944SOL    HW212732   4.383   2.507   5.054
 3945SOL     OW12733   0.668   1.602   0.220
 3945SOL    HW112734   0.759   1.583   0.254
 3945SOL    HW212735   0.674   1.640   0.127
 3946SOL     OW12736   5.721   5.220   5.067
 3946SOL    HW112737   5.794   5.211   5.134
 3946SOL    HW212738   5.634   5.239   5.114
 3947SOL     OW12739   5.276   6.279   0.621
 3947SOL    HW112740   5.239   6.256   0.711
 3947SOL    HW212741   5.353   6.219   0.600
 3948SOL     OW12742   0.435   4.891   2.312
 3948SOL    HW112743   0.441   4.799   2.274
 3948SOL    HW212744   0.482   4.895   2.400
 3949SOL     OW12745   4.838   0.432   2.960
 3949SOL    HW112746   4.912   0.495   2.984
 3949SOL    HW212747   4.857   0.341   2.997
 3950SOL     OW12748   1.512   4.211   0.798
 3950SOL    HW112749   1.576   4.245   0.730
 3950SOL    HW212750   1.558   4.204   0.887
 3951SOL     OW12751   4.985   6.967   1.510
 3951SOL    HW112752   5.040   0.012   1.556
 3951SOL    HW212753   5.037   6.882   1.505
 3952SOL     OW12754   6.619   2.584   2.288
 3952SOL    HW112755   6.646   2.498   2.332
 3952SOL    HW212756   6.675   2.659   2.323
 3953SOL     OW12757   3.617   4.789   1.486
 3953SOL    HW112758   3.669   4.715   1.528
 3953SOL    HW212759   3.606   4.771   1.388
 3954SOL     OW12760   4.068   5.201   4.721
 3954SOL    HW112761   3.995   5.249   4.671
 3954SOL    HW212762   4.143   5.180   4.659
 3955SOL     OW12763   2.902   6.624   6.253
 3955SOL    HW112764   2.947   6.547   6.298
 3955SOL    HW212765   2.901   6.702   6.315
 3956SOL     OW12766   0.928   0.543   2.564
 3956SOL    HW112767   0.836   0.534   2.601
 3956SOL    HW212768   0.986   0.470   2.599
 3957SOL     OW12769   4.708   6.627   4.053
 3957SOL    HW112770   4.701   6.632   4.153
 3957SOL    HW212771   4.801   6.601   4.028
 3958SOL     OW12772   5.550   1.611   4.770
 3958SOL    HW112773   5.596   1.637   4.686
 3958SOL    HW212774   5.618   1.583   4.838
 3959SOL     OW12775   3.879   0.122   0.826
 3959SOL    HW112776   3.919   0.157   0.911
 3959SOL    HW212777   3.807   0.056   0.849
 3960SOL     OW12778   4.893   1.826   6.338
 3960SOL    HW112779   4.991   1.849   6.341
 3960SOL    HW212780   4.865   1.788   6.426
 3961SOL     OW12781   5.618   1.444   2.836
 3961SOL    HW112782   5.630   1.430   2.935
 3961SOL    HW212783   5.534   1.398   2.806
 3962SOL     OW12784   2.953   4.029   6.939
 3962SOL    HW112785   2.885   3.965   6.904
 3962SOL    HW212786   3.021   3.980   6.993
 3963SOL     OW12787   5.220   5.449   3.411
 3963SOL    HW112788   5.232   5.351   3.423
 3963SOL    HW212789   5.287   5.498   3.466
 3964SOL     OW12790   5.023   5.349   3.782
 3964SOL    HW112791   4.994   5.405   3.704
 3964SOL    HW212792   4.959   5.363   3.858
 3965SOL     OW12793   5.061   2.950   4.838
 3965SOL    HW112794   5.027   3.043   4.848
 3965SOL    HW212795   5.040   2.917   4.746
 3966SOL     OW12796   4.808   6.305   6.385
 3966SOL    HW112797   4.886   6.366   6.369
 3966SOL    HW212798   4.785   6.306   6.482
 3967SOL     OW12799   2.062   3.810   2.351
 3967SOL    HW112800   2.118   3.826   2.433
 3967SOL    HW212801   2.065   3.712   2.328
 3968SOL     OW12802   4.460   0.247   1.261
 3968SOL    HW112803   4.473   0.179   1.333
 3968SOL    HW212804   4.424   0.332   1.299
 3969SOL     OW12805   1.252   4.144   2.430
 3969SOL    HW112806   1.349   4.130   2.450
 3969SOL    HW212807   1.197   4.112   2.507
 3970SOL     OW12808   6.116   6.271   3.300
 3970SOL    HW112809   6.068   6.339   3.245
 3970SOL    HW212810   6.080   6.272   3.393
 3971SOL     OW12811   3.432   5.243   3.611
 3971SOL    HW112812   3.443   5.148   3.580
 3971SOL    HW212813   3.405   5.300   3.534
 3972SOL     OW12814   1.292   3.964   0.736
 3972SOL    HW112815   1.309   3.909   0.654
 3972SOL    HW212816   1.320   4.058   0.720
 3973SOL     OW12817   1.676   5.676   6.478
 3973SOL    HW112818   1.583   5.650   6.504
 3973SOL    HW212819   1.674   5.725   6.390
 3974SOL     OW12820   2.229   0.239   5.497
 3974SOL    HW112821   2.199   0.147   5.473
 3974SOL    HW212822   2.311   0.262   5.444
 3975SOL     OW12823   4.769   1.733   5.302
 3975SOL    HW112824   4.672   1.734   5.325
 3975SOL    HW212825   4.812   1.652   5.342
 3976SOL     OW12826   1.301   6.318   1.822
 3976SOL    HW112827   1.292   6.228   1.866
 3976SOL    HW212828   1.377   6.368   1.863
 3977SOL     OW12829   2.451   3.754   5.924
 3977SOL    HW112830   2.535   3.729   5.876
 3977SOL    HW212831   2.433   3.852   5.912
 3978SOL     OW12832   5.996   5.156   4.395
 3978SOL    HW112833   6.054   5.223   4.347
 3978SOL    HW212834   5.931   5.205   4.453
 3979SOL     OW12835   3.178   0.422   6.990
 3979SOL    HW112836   3.140   0.472   6.912
 3979SOL    HW212837   3.273   0.398   6.971
 3980SOL     OW12838   5.772   6.186   0.295
 3980SOL    HW112839   5.766   6.142   0.385
 3980SOL    HW212840   5.683   6.222   0.270
 3981SOL     OW12841   3.490   0.236   0.595
 3981SOL    HW112842   3.571   0.291   0.579
 3981SOL    HW212843   3.436   0.278   0.668
 3982SOL     OW12844   2.670   6.690   3.419
 3982SOL    HW112845   2.673   6.768   3.357
 3982SOL    HW212846   2.754   6.636   3.409
 3983SOL     OW12847   5.146   4.835   4.057
 3983SOL    HW112848   5.235   4.866   4.023
 3983SOL    HW212849   5.118   4.891   4.135
 3984SOL     OW12850   6.721   0.985   2.363
 3984SOL    HW112851   6.778   0.912   2.401
 3984SOL    HW212852   6.629   0.951   2.345
 3985SOL     OW12853   2.400   4.745   6.846
 3985SOL    HW112854   2.402   4.737   6.746
 3985SOL    HW212855   2.441   4.664   6.887
 3986SOL     OW12856   5.127   1.677   2.686
 3986SOL    HW112857   5.039   1.712   2.653
 3986SOL    HW212858   5.118   1.647   2.780
 3987SOL     OW12859   3.904   4.843   2.997
 3987SOL    HW112860   3.983   4.894   2.963
 3987SOL    HW212861   3.843   4.820   2.920
 3988SOL     OW12862   3.185   4.965   0.140
 3988SOL    HW112863   3.228   4.883   0.103
 3988SOL    HW212864   3.131   4.942   0.221
 3989SOL     OW12865   0.116   2.816   7.019
 3989SOL    HW112866   0.067   2.848   6.938
 3989SOL    HW212867   0.091   2.721   0.012
 3990SOL     OW12868   4.281   2.073   2.891
 3990SOL    HW112869   4.216   2.148   2.880
 3990SOL    HW212870   4.231   1.987   2.899
 3991SOL     OW12871   6.492   1.017   2.677
 3991SOL    HW112872   6.429   1.016   2.599
 3991SOL    HW212873   6.534   0.927   2.687
 3992SOL     OW12874   3.147   1.744   0.208
 3992SOL    HW112875   3.223   1.680   0.199
 3992SOL    HW212876   3.066   1.694   0.239
 3993SOL     OW12877   1.340   2.237   2.185
 3993SOL    HW112878   1.320   2.320   2.237
 3993SOL    HW212879   1.275   2.166   2.209
 3994SOL     OW12880   1.442   0.137   6.295
 3994SOL    HW112881   1.357   0.145   6.242
 3994SOL    HW212882   1.420   0.122   6.391
 3995SOL     OW12883   2.598   3.512   6.137
 3995SOL    HW112884   2.522   3.476   6.083
 3995SOL    HW212885   2.586   3.610   6.149
 3996SOL     OW12886   0.637   6.808   4.569
 3996SOL    HW112887   0.564   6.796   4.637
 3996SOL    HW212888   0.717   6.757   4.599
 3997SOL     OW12889   5.657   1.372   3.102
 3997SOL    HW112890   5.756   1.376   3.108
 3997SOL    HW212891   5.617   1.422   3.179
 3998SOL     OW12892   3.929   1.098   3.752
 3998SOL    HW112893   3.975   1.019   3.793
 3998SOL    HW212894   3.957   1.106   3.656
 3999SOL     OW12895   5.137   3.120   4.028
 3999SOL    HW112896   5.204   3.105   3.955
 3999SOL    HW212897   5.107   3.032   4.063
 4000SOL     OW12898   3.332   6.763   3.475
 4000SOL    HW112899   3.328   6.749   3.574
 4000SOL    HW212900   3.301   6.681   3.428
 4001SOL     OW12901   2.662   1.464   3.495
 4001SOL    HW112902   2.597   1.535   3.466
 4001SOL    HW212903   2.651   1.446   3.593
 4002SOL     OW12904   3.017   4.215   0.605
 4002SOL    HW112905   3.010   4.310   0.577
 4002SOL    HW212906   3.098   4.173   0.564
 4003SOL     OW12907   3.596   7.011   4.140
 4003SOL    HW112908   3.554   7.017   4.050
 4003SOL    HW212909   3.677   0.044   4.143
 4004SOL     OW12910   5.717   1.950   3.766
 4004SOL    HW112911   5.703   1.857   3.801
 4004SOL    HW212912   5.676   1.958   3.675
 4005SOL     OW12913   5.002   5.507   6.854
 4005SOL    HW112914   5.016   5.409   6.842
 4005SOL    HW212915   5.072   5.543   6.916
 4006SOL     OW12916   4.507   5.441   2.466
 4006SOL    HW112917   4.417   5.400   2.486
 4006SOL    HW212918   4.575   5.402   2.528
 4007SOL     OW12919   0.172   2.522   6.818
 4007SOL    HW112920   0.209   2.605   6.776
 4007SOL    HW212921   0.149   2.540   6.913
 4008SOL     OW12922   2.730   1.816   4.744
 4008SOL    HW112923   2.750   1.822   4.646
 4008SOL    HW212924   2.663   1.744   4.760
 4009SOL     OW12925   4.504   3.463   1.342
 4009SOL    HW112926   4.447   3.402   1.396
 4009SOL    HW212927   4.544   3.533   1.402
 4010SOL     OW12928   2.477   2.900   1.227
 4010SOL    HW112929   2.377   2.906   1.235
 4010SOL    HW212930   2.508   2.811   1.262
 4011SOL     OW12931   0.298   0.990   1.955
 4011SOL    HW112932   0.341   0.901   1.966
 4011SOL    HW212933   0.355   1.049   1.898
 4012SOL     OW12934   6.501   4.605   1.923
 4012SOL    HW112935   6.490   4.515   1.964
 4012SOL    HW212936   6.548   4.666   1.987
 4013SOL     OW12937   3.362   1.575   4.910
 4013SOL    HW112938   3.308   1.655   4.937
 4013SOL    HW212939   3.366   1.570   4.810
 4014SOL     OW12940   5.209   6.406   2.397
 4014SOL    HW112941   5.215   6.362   2.308
 4014SOL    HW212942   5.300   6.417   2.436
 4015SOL     OW12943   4.848   5.090   6.109
 4015SOL    HW112944   4.906   5.066   6.030
 4015SOL    HW212945   4.856   5.188   6.128
 4016SOL     OW12946   2.811   6.359   6.078
 4016SOL    HW112947   2.881   6.426   6.052
 4016SOL    HW212948   2.841   6.310   6.160
 4017SOL     OW12949   6.774   6.018   0.697
 4017SOL    HW112950   6.818   6.058   0.616
 4017SOL    HW212951   6.805   6.066   0.779
 4018SOL     OW12952   3.637   5.684   2.590
 4018SOL    HW112953   3.632   5.748   2.513
 4018SOL    HW212954   3.608   5.594   2.559
 4019SOL     OW12955   4.865   4.485   3.213
 4019SOL    HW112956   4.798   4.418   3.181
 4019SOL    HW212957   4.945   4.437   3.248
 4020SOL     OW12958   4.787   1.968   4.713
 4020SOL    HW112959   4.796   1.868   4.710
 4020SOL    HW212960   4.875   2.009   4.738
 4021SOL     OW12961   3.686   4.972   6.047
 4021SOL    HW112962   3.593   5.008   6.048
 4021SOL    HW212963   3.739   5.018   5.976
 4022SOL     OW12964   5.204   1.552   6.802
 4022SOL    HW112965   5.232   1.502   6.720
 4022SOL    HW212966   5.209   1.492   6.882
 4023SOL     OW12967   6.253   1.883   4.705
 4023SOL    HW112968   6.276   1.921   4.615
 4023SOL    HW212969   6.322   1.816   4.731
 4024SOL     OW12970   3.323   6.621   4.015
 4024SOL    HW112971   3.230   6.652   3.995
 4024SOL    HW212972   3.383   6.642   3.938
 4025SOL     OW12973   0.744   3.961   2.925
 4025SOL    HW112974   0.827   3.932   2.973
 4025SOL    HW212975   0.762   3.965   2.827
 4026SOL     OW12976   5.955   5.902   4.088
 4026SOL    HW112977   5.973   5.819   4.142
 4026SOL    HW212978   5.860   5.930   4.100
 4027SOL     OW12979   3.726   4.074   2.427
 4027SOL    HW112980   3.688   4.067   2.519
 4027SOL    HW212981   3.769   4.164   2.416
 4028SOL     OW12982   1.797   1.896   4.717
 4028SOL    HW112983   1.726   1.827   4.705
 4028SOL    HW212984   1.853   1.900   4.634
 4029SOL     OW12985   2.631   4.045   5.647
 4029SOL    HW112986   2.700   4.037   5.719
 4029SOL    HW212987   2.672   4.085   5.565
 4030SOL     OW12988   0.877   2.035   5.581
 4030SOL    HW112989   0.932   1.962   5.541
 4030SOL    HW212990   0.858   2.013   5.676
 4031SOL     OW12991   4.622   5.706   3.350
 4031SOL    HW112992   4.606   5.621   3.299
 4031SOL    HW212993   4.576   5.782   3.304
 4032SOL     OW12994   6.402   6.660   4.011
 4032SOL    HW112995   6.464   6.736   3.988
 4032SOL    HW212996   6.441   6.574   3.978
 4033SOL     OW12997   3.302   3.987   4.443
 4033SOL    HW112998   3.380   4.034   4.485
 4033SOL    HW212999   3.335   3.932   4.366
 4034SOL     OW13000   6.309   1.350   4.463
 4034SOL    HW113001   6.328   1.448   4.470
 4034SOL    HW213002   6.383   1.299   4.507
 4035SOL     OW13003   0.364   4.486   6.405
 4035SOL    HW113004   0.324   4.416   6.465
 4035SOL    HW213005   0.291   4.543   6.367
 4036SOL     OW13006   6.374   6.041   2.747
 4036SOL    HW113007   6.307   6.114   2.735
 4036SOL    HW213008   6.336   5.955   2.713
 4037SOL     OW13009   1.751   3.638   6.230
 4037SOL    HW113010   1.664   3.652   6.184
 4037SOL    HW213011   1.810   3.717   6.216
 4038SOL     OW13012   5.113   4.352   3.032
 4038SOL    HW113013   5.158   4.425   2.982
 4038SOL    HW213014   5.149   4.346   3.125
 4039SOL     OW13015   5.446   5.948   0.814
 4039SOL    HW113016   5.535   5.909   0.839
 4039SOL    HW213017   5.446   6.046   0.830
 4040SOL     OW13018   2.998   0.382   1.281
 4040SOL    HW113019   2.942   0.371   1.199
 4040SOL    HW213020   2.984   0.473   1.320
 4041SOL     OW13021   1.479   6.309   3.195
 4041SOL    HW113022   1.441   6.390   3.151
 4041SOL    HW213023   1.417   6.278   3.267
 4042SOL     OW13024   5.861   5.531   1.877
 4042SOL    HW113025   5.860   5.591   1.797
 4042SOL    HW213026   5.848   5.586   1.960
 4043SOL     OW13027   5.245   2.045   2.778
 4043SOL    HW113028   5.274   1.983   2.705
 4043SOL    HW213029   5.301   2.128   2.776
 4044SOL     OW13030   5.859   6.978   3.347
 4044SOL    HW113031   5.881   6.910   3.276
 4044SOL    HW213032   5.939   0.011   3.363
 4045SOL     OW13033   2.001   5.043   6.926
 4045SOL    HW113034   1.923   5.049   6.865
 4045SOL    HW213035   1.976   4.994   7.009
 4046SOL     OW13036   0.846   2.233   1.690
 4046SOL    HW113037   0.915   2.288   1.643
 4046SOL    HW213038   0.758   2.245   1.645
 4047SOL     OW13039   3.112   3.623   1.784
 4047SOL    HW113040   3.186   3.689   1.788
 4047SOL    HW213041   3.091   3.601   1.688
 4048SOL     OW13042   5.390   1.003   0.989
 4048SOL    HW113043   5.475   0.988   1.040
 4048SOL    HW213044   5.317   0.947   1.029
 4049SOL     OW13045   5.581   6.824   5.789
 4049SOL    HW113046   5.653   6.891   5.806
 4049SOL    HW213047   5.618   6.732   5.799
 4050SOL     OW13048   1.851   6.447   0.316
 4050SOL    HW113049   1.768   6.412   0.360
 4050SOL    HW213050   1.850   6.424   0.219
 4051SOL     OW13051   3.136   4.765   0.754
 4051SOL    HW113052   3.132   4.864   0.742
 4051SOL    HW213053   3.058   4.723   0.707
 4052SOL     OW13054   0.581   0.709   0.019
 4052SOL    HW113055   0.639   0.629   0.033
 4052SOL    HW213056   0.495   0.696   0.068
 4053SOL     OW13057   3.297   4.902   3.859
 4053SOL    HW113058   3.202   4.893   3.828
 4053SOL    HW213059   3.358   4.897   3.780
 4054SOL     OW13060   3.493   2.431   0.798
 4054SOL    HW113061   3.445   2.363   0.854
 4054SOL    HW213062   3.426   2.498   0.763
 4055SOL     OW13063   2.973   2.450   6.401
 4055SOL    HW113064   2.975   2.472   6.303
 4055SOL    HW213065   3.033   2.372   6.418
 4056SOL     OW13066   3.544   2.662   6.791
 4056SOL    HW113067   3.622   2.700   6.741
 4056SOL    HW213068   3.491   2.737   6.832
 4057SOL     OW13069   4.864   3.389   6.391
 4057SOL    HW113070   4.809   3.404   6.309
 4057SOL    HW213071   4.846   3.463   6.456
 4058SOL     OW13072   2.281   1.086   5.416
 4058SOL    HW113073   2.222   1.039   5.483
 4058SOL    HW213074   2.253   1.181   5.409
 4059SOL     OW13075   1.849   1.725   5.043
 4059SOL    HW113076   1.757   1.723   5.003
 4059SOL    HW213077   1.905   1.791   4.994
 4060SOL     OW13078   4.114   4.736   4.071
 4060SOL    HW113079   4.171   4.664   4.030
 4060SOL    HW213080   4.141   4.749   4.167
 4061SOL     OW13081   3.545   4.282   1.783
 4061SOL    HW113082   3.542   4.382   1.794
 4061SOL    HW213083   3.464   4.251   1.735
 4062SOL     OW13084   3.532   1.101   2.507
 4062SOL    HW113085   3.524   1.018   2.451
 4062SOL    HW213086   3.490   1.085   2.596
 4063SOL     OW13087   3.372   5.637   6.005
 4063SOL    HW113088   3.322   5.688   6.075
 4063SOL    HW213089   3.340   5.665   5.915
 4064SOL     OW13090   0.504   0.329   3.337
 4064SOL    HW113091   0.520   0.415   3.385
 4064SOL    HW213092   0.452   0.347   3.253
 4065SOL     OW13093   6.759   6.735   0.694
 4065SOL    HW113094   6.754   6.827   0.654
 4065SOL    HW213095   6.777   6.743   0.792
 4066SOL     OW13096   5.435   4.261   1.739
 4066SOL    HW113097   5.416   4.345   1.689
 4066SOL    HW213098   5.422   4.277   1.837
 4067SOL     OW13099   6.144   1.053   2.672
 4067SOL    HW113100   6.190   0.976   2.629
 4067SOL    HW213101   6.148   1.043   2.772
 4068SOL     OW13102   5.730   0.619   4.119
 4068SOL    HW113103   5.662   0.676   4.165
 4068SOL    HW213104   5.782   0.675   4.055
 4069SOL     OW13105   5.584   5.364   0.896
 4069SOL    HW113106   5.606   5.294   0.964
 4069SOL    HW213107   5.570   5.452   0.943
 4070SOL     OW13108   1.819   3.775   3.202
 4070SOL    HW113109   1.821   3.677   3.184
 4070SOL    HW213110   1.903   3.802   3.250
 4071SOL     OW13111   2.025   0.438   4.239
 4071SOL    HW113112   1.927   0.423   4.257
 4071SOL    HW213113   2.068   0.351   4.213
 4072SOL     OW13114   1.555   7.001   4.277
 4072SOL    HW113115   1.627   0.016   4.333
 4072SOL    HW213116   1.543   6.905   4.302
 4073SOL     OW13117   2.738   6.040   6.727
 4073SOL    HW113118   2.757   6.127   6.681
 4073SOL    HW213119   2.695   5.977   6.662
 4074SOL     OW13120   1.113   2.331   0.940
 4074SOL    HW113121   1.117   2.303   0.845
 4074SOL    HW213122   1.024   2.307   0.978
 4075SOL     OW13123   5.168   0.982   3.318
 4075SOL    HW113124   5.175   0.992   3.219
 4075SOL    HW213125   5.090   0.923   3.340
 4076SOL     OW13126   1.725   3.253   4.500
 4076SOL    HW113127   1.643   3.250   4.557
 4076SOL    HW213128   1.717   3.329   4.435
 4077SOL     OW13129   3.458   0.894   0.323
 4077SOL    HW113130   3.404   0.883   0.407
 4077SOL    HW213131   3.539   0.834   0.327
 4078SOL     OW13132   6.319   3.950   1.266
 4078SOL    HW113133   6.253   3.884   1.301
 4078SOL    HW213134   6.345   4.013   1.340
 4079SOL     OW13135   0.946   1.259   3.937
 4079SOL    HW113136   0.997   1.344   3.923
 4079SOL    HW213137   1.007   1.189   3.973
 4080SOL     OW13138   3.321   3.590   1.493
 4080SOL    HW113139   3.327   3.674   1.439
 4080SOL    HW213140   3.337   3.611   1.589
 4081SOL     OW13141   1.807   2.034   5.596
 4081SOL    HW113142   1.839   2.007   5.687
 4081SOL    HW213143   1.879   2.083   5.548
 4082SOL     OW13144   1.076   2.844   5.097
 4082SOL    HW113145   1.076   2.918   5.030
 4082SOL    HW213146   1.107   2.760   5.054
 4083SOL     OW13147   5.987   4.684   3.547
 4083SOL    HW113148   5.999   4.615   3.475
 4083SOL    HW213149   5.890   4.709   3.552
 4084SOL     OW13150   4.046   1.051   3.492
 4084SOL    HW113151   4.134   1.094   3.468
 4084SOL    HW213152   4.020   0.988   3.419
 4085SOL     OW13153   3.049   5.145   2.132
 4085SOL    HW113154   3.026   5.090   2.051
 4085SOL    HW213155   2.987   5.121   2.207
 4086SOL     OW13156   6.646   5.785   6.547
 4086SOL    HW113157   6.577   5.743   6.488
 4086SOL    HW213158   6.601   5.824   6.627
 4087SOL     OW13159   2.135   0.074   2.622
 4087SOL    HW113160   2.136   0.139   2.697
 4087SOL    HW213161   2.041   0.044   2.604
 4088SOL     OW13162   0.263   1.098   5.784
 4088SOL    HW113163   0.165   1.095   5.764
 4088SOL    HW213164   0.291   1.193   5.800
 4089SOL     OW13165   0.202   6.867   3.474
 4089SOL    HW113166   0.151   6.935   3.422
 4089SOL    HW213167   0.294   6.903   3.494
 4090SOL     OW13168   2.463   0.201   5.319
 4090SOL    HW113169   2.558   0.175   5.304
 4090SOL    HW213170   2.403   0.130   5.283
 4091SOL     OW13171   1.945   5.542   1.154
 4091SOL    HW113172   1.881   5.573   1.225
 4091SOL    HW213173   2.000   5.467   1.189
 4092SOL     OW13174   4.864   3.253   4.410
 4092SOL    HW113175   4.836   3.307   4.331
 4092SOL    HW213176   4.887   3.160   4.381
 4093SOL     OW13177   5.280   5.749   3.185
 4093SOL    HW113178   5.288   5.838   3.141
 4093SOL    HW213179   5.199   5.702   3.150
 4094SOL     OW13180   0.032   5.677   6.917
 4094SOL    HW113181   0.112   5.620   6.936
 4094SOL    HW213182   0.061   5.761   6.872
 4095SOL     OW13183   0.171   4.903   0.088
 4095SOL    HW113184   0.198   4.925   0.182
 4095SOL    HW213185   0.231   4.831   0.052
 4096SOL     OW13186   2.073   2.106   6.673
 4096SOL    HW113187   1.981   2.073   6.652
 4096SOL    HW213188   2.117   2.043   6.737
 4097SOL     OW13189   0.093   4.460   4.865
 4097SOL    HW113190   0.032   4.457   4.785
 4097SOL    HW213191   0.073   4.383   4.925
 4098SOL     OW13192   2.204   5.106   3.308
 4098SOL    HW113193   2.188   5.134   3.214
 4098SOL    HW213194   2.298   5.126   3.334
 4099SOL     OW13195   4.467   4.671   5.991
 4099SOL    HW113196   4.481   4.770   5.997
 4099SOL    HW213197   4.412   4.649   5.911
 4100SOL     OW13198   1.766   0.997   3.764
 4100SOL    HW113199   1.826   1.060   3.714
 4100SOL    HW213200   1.795   0.994   3.860
 4101SOL     OW13201   5.907   0.775   6.905
 4101SOL    HW113202   5.991   0.827   6.891
 4101SOL    HW213203   5.829   0.837   6.904
 4102SOL     OW13204   1.918   0.590   0.110
 4102SOL    HW113205   2.009   0.549   0.119
 4102SOL    HW213206   1.884   0.575   0.018
 4103SOL     OW13207   1.471   6.819   1.828
 4103SOL    HW113208   1.497   6.809   1.924
 4103SOL    HW213209   1.382   6.864   1.822
 4104SOL     OW13210   0.706   5.656   3.912
 4104SOL    HW113211   0.662   5.620   3.994
 4104SOL    HW213212   0.719   5.755   3.921
 4105SOL     OW13213   4.347   1.052   1.068
 4105SOL    HW113214   4.382   0.994   0.995
 4105SOL    HW213215   4.403   1.040   1.151
 4106SOL     OW13216   0.156   2.167   3.711
 4106SOL    HW113217   0.057   2.164   3.727
 4106SOL    HW213218   0.174   2.199   3.619
 4107SOL     OW13219   0.263   6.303   6.362
 4107SOL    HW113220   0.344   6.245   6.353
 4107SOL    HW213221   0.183   6.247   6.382
 4108SOL     OW13222   0.068   5.342   3.925
 4108SOL    HW113223   0.028   5.258   3.887
 4108SOL    HW213224   0.010   5.420   3.900
 4109SOL     OW13225   6.121   6.113   3.027
 4109SOL    HW113226   6.213   6.081   3.049
 4109SOL    HW213227   6.091   6.179   3.096
 4110SOL     OW13228   4.688   3.720   7.024
 4110SOL    HW113229   4.678   3.639   0.057
 4110SOL    HW213230   4.692   3.802   0.057
 4111SOL     OW13231   6.717   4.226   4.810
 4111SOL    HW113232   6.651   4.152   4.824
 4111SOL    HW213233   6.798   4.191   4.765
 4112SOL     OW13234   4.473   0.278   5.189
 4112SOL    HW113235   4.449   0.192   5.143
 4112SOL    HW213236   4.474   0.352   5.121
 4113SOL     OW13237   4.827   4.352   4.800
 4113SOL    HW113238   4.842   4.255   4.781
 4113SOL    HW213239   4.855   4.407   4.721
 4114SOL     OW13240   6.734   1.561   2.614
 4114SOL    HW113241   6.694   1.587   2.526
 4114SOL    HW213242   6.834   1.568   2.609
 4115SOL     OW13243   3.164   5.032   3.561
 4115SOL    HW113244   3.115   4.948   3.584
 4115SOL    HW213245   3.175   5.088   3.642
 4116SOL     OW13246   5.143   2.701   3.423
 4116SOL    HW113247   5.163   2.610   3.460
 4116SOL    HW213248   5.130   2.695   3.324
 4117SOL     OW13249   1.566   2.485   2.826
 4117SOL    HW113250   1.566   2.388   2.800
 4117SOL    HW213251   1.495   2.501   2.895
 4118SOL     OW13252   6.648   6.600   6.354
 4118SOL    HW113253   6.622   6.613   6.259
 4118SOL    HW213254   6.744   6.625   6.366
 4119SOL     OW13255   2.172   0.932   3.512
 4119SOL    HW113256   2.222   0.991   3.575
 4119SOL    HW213257   2.129   0.988   3.441
 4120SOL     OW13258   2.124   1.241   6.495
 4120SOL    HW113259   2.071   1.323   6.516
 4120SOL    HW213260   2.062   1.163   6.483
 4121SOL     OW13261   6.646   7.000   1.958
 4121SOL    HW113262   6.607   6.927   1.902
 4121SOL    HW213263   6.646   6.973   2.054
 4122SOL     OW13264   0.078   4.636   4.137
 4122SOL    HW113265   0.151   4.640   4.206
 4122SOL    HW213266   0.082   4.548   4.089
 4123SOL     OW13267   3.640   4.967   2.475
 4123SOL    HW113268   3.553   4.980   2.521
 4123SOL    HW213269   3.629   4.984   2.377
 4124SOL     OW13270   6.722   5.789   0.800
 4124SOL    HW113271   6.655   5.809   0.872
 4124SOL    HW213272   6.737   5.871   0.745
 4125SOL     OW13273   5.848   2.391   1.973
 4125SOL    HW113274   5.841   2.304   1.925
 4125SOL    HW213275   5.776   2.453   1.942
 4126SOL     OW13276   0.934   2.863   2.269
 4126SOL    HW113277   0.978   2.774   2.264
 4126SOL    HW213278   0.998   2.929   2.310
 4127SOL     OW13279   3.805   1.876   4.082
 4127SOL    HW113280   3.832   1.788   4.121
 4127SOL    HW213281   3.866   1.948   4.117
 4128SOL     OW13282   0.581   3.453   1.200
 4128SOL    HW113283   0.647   3.446   1.274
 4128SOL    HW213284   0.570   3.549   1.174
 4129SOL     OW13285   2.597   2.741   0.657
 4129SOL    HW113286   2.644   2.663   0.616
 4129SOL    HW213287   2.653   2.778   0.732
 4130SOL     OW13288   6.272   3.163   1.481
 4130SOL    HW113289   6.209   3.105   1.533
 4130SOL    HW213290   6.340   3.105   1.436
 4131SOL     OW13291   4.768   0.920   2.206
 4131SOL    HW113292   4.741   1.005   2.251
 4131SOL    HW213293   4.711   0.905   2.126
 4132SOL     OW13294   6.976   4.168   4.299
 4132SOL    HW113295   6.953   4.171   4.202
 4132SOL    HW213296   0.045   4.138   4.311
 4133SOL     OW13297   5.772   6.778   2.020
 4133SOL    HW113298   5.815   6.753   1.933
 4133SOL    HW213299   5.842   6.785   2.091
 4134SOL     OW13300   2.141   3.044   1.508
 4134SOL    HW113301   2.121   2.967   1.569
 4134SOL    HW213302   2.239   3.062   1.508
 4135SOL     OW13303   6.896   1.329   2.280
 4135SOL    HW113304   6.976   1.384   2.258
 4135SOL    HW213305   6.813   1.379   2.255
 4136SOL     OW13306   1.390   4.274   2.215
 4136SOL    HW113307   1.335   4.276   2.299
 4136SOL    HW213308   1.414   4.367   2.189
 4137SOL     OW13309   1.582   3.157   0.348
 4137SOL    HW113310   1.535   3.134   0.263
 4137SOL    HW213311   1.521   3.141   0.425
 4138SOL     OW13312   4.137   6.334   0.762
 4138SOL    HW113313   4.062   6.316   0.699
 4138SOL    HW213314   4.183   6.249   0.786
 4139SOL     OW13315   2.064   2.299   3.189
 4139SOL    HW113316   2.057   2.395   3.217
 4139SOL    HW213317   2.145   2.258   3.230
 4140SOL     OW13318   2.549   2.378   4.774
 4140SOL    HW113319   2.540   2.458   4.832
 4140SOL    HW213320   2.635   2.383   4.723
 4141SOL     OW13321   4.452   0.140   0.006
 4141SOL    HW113322   4.354   0.121   0.000
 4141SOL    HW213323   4.466   0.237   0.029
 4142SOL     OW13324   6.983   4.464   3.025
 4142SOL    HW113325   0.008   4.521   3.090
 4142SOL    HW213326   6.887   4.494   3.022
 4143SOL     OW13327   6.206   3.039   0.868
 4143SOL    HW113328   6.149   2.956   0.867
 4143SOL    HW213329   6.202   3.080   0.959
 4144SOL     OW13330   5.666   2.122   0.547
 4144SOL    HW113331   5.592   2.188   0.558
 4144SOL    HW213332   5.724   2.149   0.470
 4145SOL     OW13333   0.031   6.720   1.384
 4145SOL    HW113334   0.036   6.695   1.287
 4145SOL    HW213335   0.116   6.695   1.429
 4146SOL     OW13336   5.747   6.525   3.896
 4146SOL    HW113337   5.846   6.515   3.884
 4146SOL    HW213338   5.728   6.576   3.979
 4147SOL     OW13339   4.997   4.279   5.403
 4147SOL    HW113340   4.963   4.220   5.476
 4147SOL    HW213341   4.921   4.329   5.362
 4148SOL     OW13342   3.062   1.180   5.723
 4148SOL    HW113343   3.121   1.115   5.675
 4148SOL    HW213344   3.092   1.187   5.818
 4149SOL     OW13345   1.794   3.242   0.797
 4149SOL    HW113346   1.697   3.224   0.780
 4149SOL    HW213347   1.811   3.242   0.895
 4150SOL     OW13348   6.076   2.583   6.343
 4150SOL    HW113349   6.131   2.590   6.260
 4150SOL    HW213350   5.995   2.641   6.336
 4151SOL     OW13351   2.318   6.621   4.810
 4151SOL    HW113352   2.395   6.666   4.854
 4151SOL    HW213353   2.320   6.639   4.711
 4152SOL     OW13354   2.844   5.564   1.951
 4152SOL    HW113355   2.897   5.548   1.868
 4152SOL    HW213356   2.765   5.622   1.930
 4153SOL     OW13357   6.682   4.882   1.894
 4153SOL    HW113358   6.713   4.961   1.947
 4153SOL    HW213359   6.586   4.894   1.869
 4154SOL     OW13360   0.876   5.592   4.959
 4154SOL    HW113361   0.937   5.651   5.012
 4154SOL    HW213362   0.782   5.604   4.991
 4155SOL     OW13363   0.955   1.998   1.577
 4155SOL    HW113364   0.951   1.922   1.512
 4155SOL    HW213365   0.903   1.974   1.659
 4156SOL     OW13366   6.947   4.753   5.158
 4156SOL    HW113367   6.877   4.693   5.119
 4156SOL    HW213368   0.005   4.700   5.175
 4157SOL     OW13369   6.667   6.235   1.987
 4157SOL    HW113370   6.667   6.238   1.887
 4157SOL    HW213371   6.761   6.227   2.019
 4158SOL     OW13372   1.843   2.670   1.940
 4158SOL    HW113373   1.912   2.702   2.005
 4158SOL    HW213374   1.831   2.571   1.949
 4159SOL     OW13375   2.663   1.377   2.917
 4159SOL    HW113376   2.603   1.330   2.982
 4159SOL    HW213377   2.642   1.475   2.918
 4160SOL     OW13378   6.507   0.142   6.812
 4160SOL    HW113379   6.583   0.084   6.841
 4160SOL    HW213380   6.422   0.090   6.817
 4161SOL     OW13381   2.179   2.126   1.289
 4161SOL    HW113382   2.175   2.180   1.205
 4161SOL    HW213383   2.249   2.056   1.281
 4162SOL     OW13384   6.625   5.879   1.321
 4162SOL    HW113385   6.607   5.969   1.360
 4162SOL    HW213386   6.579   5.809   1.376
 4163SOL     OW13387   3.957   6.419   1.170
 4163SOL    HW113388   3.954   6.475   1.252
 4163SOL    HW213389   3.915   6.469   1.094
 4164SOL     OW13390   0.004   6.613   5.110
 4164SOL    HW113391   7.008   6.553   5.187
 4164SOL    HW213392   0.076   6.572   5.054
 4165SOL     OW13393   3.957   1.327   5.390
 4165SOL    HW113394   4.039   1.270   5.390
 4165SOL    HW213395   3.876   1.269   5.383
 4166SOL     OW13396   6.029   0.669   2.460
 4166SOL    HW113397   6.022   0.578   2.419
 4166SOL    HW213398   5.937   0.700   2.486
 4167SOL     OW13399   3.555   5.102   5.728
 4167SOL    HW113400   3.463   5.088   5.764
 4167SOL    HW213401   3.581   5.198   5.738
 4168SOL     OW13402   6.408   4.276   0.046
 4168SOL    HW113403   6.332   4.213   0.030
 4168SOL    HW213404   6.414   4.341   6.995
 4169SOL     OW13405   5.107   4.096   4.980
 4169SOL    HW113406   5.073   4.050   4.898
 4169SOL    HW213407   5.175   4.038   5.025
 4170SOL     OW13408   5.181   3.194   4.699
 4170SOL    HW113409   5.085   3.201   4.727
 4170SOL    HW213410   5.198   3.102   4.664
 4171SOL     OW13411   1.421   3.890   1.311
 4171SOL    HW113412   1.456   3.976   1.274
 4171SOL    HW213413   1.474   3.814   1.274
 4172SOL     OW13414   3.322   3.722   0.951
 4172SOL    HW113415   3.272   3.643   0.987
 4172SOL    HW213416   3.401   3.690   0.899
 4173SOL     OW13417   4.548   2.814   5.282
 4173SOL    HW113418   4.575   2.810   5.186
 4173SOL    HW213419   4.487   2.739   5.303
 4174SOL     OW13420   4.864   0.237   4.291
 4174SOL    HW113421   4.833   0.276   4.378
 4174SOL    HW213422   4.788   0.194   4.244
 4175SOL     OW13423   1.425   4.317   6.399
 4175SOL    HW113424   1.423   4.397   6.458
 4175SOL    HW213425   1.509   4.318   6.344
 4176SOL     OW13426   4.931   6.653   0.104
 4176SOL    HW113427   4.900   6.745   0.131
 4176SOL    HW213428   4.879   6.584   0.154
 4177SOL     OW13429   4.821   4.835   4.535
 4177SOL    HW113430   4.732   4.881   4.538
 4177SOL    HW213431   4.859   4.843   4.443
 4178SOL     OW13432   3.022   5.759   2.108
 4178SOL    HW113433   2.988   5.708   2.186
 4178SOL    HW213434   3.037   5.697   2.031
 4179SOL     OW13435   5.241   3.315   4.280
 4179SOL    HW113436   5.238   3.374   4.361
 4179SOL    HW213437   5.155   3.265   4.272
 4180SOL     OW13438   5.625   3.298   0.815
 4180SOL    HW113439   5.571   3.295   0.732
 4180SOL    HW213440   5.617   3.388   0.858
 4181SOL     OW13441   5.115   0.644   5.537
 4181SOL    HW113442   5.149   0.590   5.460
 4181SOL    HW213443   5.167   0.621   5.619
 4182SOL     OW13444   0.407   6.031   3.969
 4182SOL    HW113445   0.501   6.049   3.999
 4182SOL    HW213446   0.361   6.117   3.951
 4183SOL     OW13447   2.154   1.016   2.131
 4183SOL    HW113448   2.249   0.992   2.148
 4183SOL    HW213449   2.114   0.951   2.066
 4184SOL     OW13450   3.125   6.343   2.714
 4184SOL    HW113451   3.114   6.404   2.792
 4184SOL    HW213452   3.201   6.280   2.730
 4185SOL     OW13453   0.102   3.711   3.199
 4185SOL    HW113454   0.172   3.706   3.128
 4185SOL    HW213455   0.070   3.619   3.220
 4186SOL     OW13456   1.725   5.899   6.655
 4186SOL    HW113457   1.784   5.869   6.729
 4186SOL    HW213458   1.705   5.822   6.594
 4187SOL     OW13459   2.401   3.475   0.127
 4187SOL    HW113460   2.472   3.445   0.190
 4187SOL    HW213461   2.441   3.492   0.037
 4188SOL     OW13462   4.981   0.245   6.228
 4188SOL    HW113463   5.031   0.212   6.308
 4188SOL    HW213464   5.045   0.286   6.163
 4189SOL     OW13465   5.024   5.622   3.010
 4189SOL    HW113466   4.944   5.566   3.028
 4189SOL    HW213467   5.062   5.600   2.920
 4190SOL     OW13468   6.992   6.574   1.139
 4190SOL    HW113469   6.904   6.587   1.093
 4190SOL    HW213470   7.008   6.476   1.154
 4191SOL     OW13471   4.989   3.882   5.859
 4191SOL    HW113472   5.021   3.822   5.932
 4191SOL    HW213473   4.952   3.966   5.899
 4192SOL     OW13474   1.221   1.493   2.367
 4192SOL    HW113475   1.311   1.449   2.364
 4192SOL    HW213476   1.216   1.554   2.446
 4193SOL     OW13477   5.717   0.624   0.432
 4193SOL    HW113478   5.663   0.641   0.350
 4193SOL    HW213479   5.756   0.532   0.427
 4194SOL     OW13480   4.040   0.686   5.444
 4194SOL    HW113481   4.122   0.646   5.401
 4194SOL    HW213482   3.977   0.717   5.373
 4195SOL     OW13483   4.758   6.492   1.970
 4195SOL    HW113484   4.777   6.589   1.960
 4195SOL    HW213485   4.794   6.443   1.891
 4196SOL     OW13486   6.696   2.602   3.833
 4196SOL    HW113487   6.788   2.571   3.859
 4196SOL    HW213488   6.700   2.649   3.746
 4197SOL     OW13489   3.741   5.998   5.953
 4197SOL    HW113490   3.806   5.979   6.026
 4197SOL    HW213491   3.648   5.983   5.986
 4198SOL     OW13492   6.530   0.589   2.028
 4198SOL    HW113493   6.478   0.517   1.982
 4198SOL    HW213494   6.576   0.645   1.960
 4199SOL     OW13495   1.751   4.258   6.524
 4199SOL    HW113496   1.718   4.172   6.563
 4199SOL    HW213497   1.725   4.262   6.428
 4200SOL     OW13498   3.886   0.793   4.951
 4200SOL    HW113499   3.825   0.870   4.932
 4200SOL    HW213500   3.883   0.728   4.875
 4201SOL     OW13501   6.530   6.920   3.427
 4201SOL    HW113502   6.451   6.940   3.485
 4201SOL    HW213503   6.611   6.965   3.463
 4202SOL     OW13504   3.610   5.803   0.041
 4202SOL    HW113505   3.514   5.783   0.058
 4202SOL    HW213506   3.665   5.770   0.118
 4203SOL     OW13507   5.260   5.216   0.482
 4203SOL    HW113508   5.327   5.222   0.556
 4203SOL    HW213509   5.280   5.137   0.424
 4204SOL     OW13510   3.679   3.308   6.000
 4204SOL    HW113511   3.593   3.302   5.949
 4204SOL    HW213512   3.670   3.375   6.073
 4205SOL     OW13513   3.645   5.834   4.688
 4205SOL    HW113514   3.566   5.817   4.747
 4205SOL    HW213515   3.629   5.916   4.634
 4206SOL     OW13516   1.471   1.518   5.117
 4206SOL    HW113517   1.517   1.429   5.119
 4206SOL    HW213518   1.439   1.540   5.209
 4207SOL     OW13519   1.869   2.204   1.180
 4207SOL    HW113520   1.820   2.158   1.106
 4207SOL    HW213521   1.964   2.221   1.153
 4208SOL     OW13522   1.854   4.355   5.448
 4208SOL    HW113523   1.762   4.376   5.481
 4208SOL    HW213524   1.849   4.312   5.358
 4209SOL     OW13525   0.108   5.839   2.738
 4209SOL    HW113526   0.047   5.870   2.665
 4209SOL    HW213527   0.053   5.811   2.817
 4210SOL     OW13528   3.899   3.306   4.932
 4210SOL    HW113529   3.818   3.285   4.986
 4210SOL    HW213530   3.934   3.222   4.890
 4211SOL     OW13531   3.897   1.874   5.093
 4211SOL    HW113532   3.899   1.780   5.060
 4211SOL    HW213533   3.984   1.896   5.138
 4212SOL     OW13534   0.339   1.120   3.563
 4212SOL    HW113535   0.384   1.032   3.548
 4212SOL    HW213536   0.250   1.120   3.515
 4213SOL     OW13537   3.175   1.091   3.161
 4213SOL    HW113538   3.125   1.148   3.226
 4213SOL    HW213539   3.150   1.119   3.068
 4214SOL     OW13540   0.514   5.316   4.489
 4214SOL    HW113541   0.586   5.287   4.553
 4214SOL    HW213542   0.472   5.235   4.448
 4215SOL     OW13543   4.892   6.474   5.362
 4215SOL    HW113544   4.827   6.540   5.324
 4215SOL    HW213545   4.983   6.490   5.324
 4216SOL     OW13546   1.552   0.572   2.727
 4216SOL    HW113547   1.646   0.579   2.692
 4216SOL    HW213548   1.547   0.617   2.816
 4217SOL     OW13549   0.807   0.193   1.779
 4217SOL    HW113550   0.900   0.159   1.770
 4217SOL    HW213551   0.792   0.268   1.715
 4218SOL     OW13552   3.286   1.233   1.341
 4218SOL    HW113553   3.278   1.155   1.279
 4218SOL    HW213554   3.374   1.278   1.329
 4219SOL     OW13555   4.357   6.279   4.579
 4219SOL    HW113556   4.362   6.377   4.562
 4219SOL    HW213557   4.442   6.249   4.623
 4220SOL     OW13558   5.254   1.989   1.799
 4220SOL    HW113559   5.263   2.079   1.842
 4220SOL    HW213560   5.333   1.973   1.739
 4221SOL     OW13561   6.452   5.356   6.939
 4221SOL    HW113562   6.385   5.302   6.887
 4221SOL    HW213563   6.465   5.315   0.004
 4222SOL     OW13564   5.772   1.924   3.206
 4222SOL    HW113565   5.853   1.872   3.178
 4222SOL    HW213566   5.713   1.939   3.127
 4223SOL     OW13567   4.208   4.101   0.869
 4223SOL    HW113568   4.146   4.172   0.904
 4223SOL    HW213569   4.194   4.017   0.922
 4224SOL     OW13570   5.411   4.251   4.935
 4224SOL    HW113571   5.444   4.280   5.025
 4224SOL    HW213572   5.313   4.230   4.942
 4225SOL     OW13573   1.272   2.090   5.536
 4225SOL    HW113574   1.226   2.074   5.623
 4225SOL    HW213575   1.371   2.085   5.549
 4226SOL     OW13576   0.544   6.028   4.663
 4226SOL    HW113577   0.598   5.948   4.636
 4226SOL    HW213578   0.588   6.111   4.630
 4227SOL     OW13579   4.933   5.601   1.867
 4227SOL    HW113580   4.898   5.694   1.875
 4227SOL    HW213581   4.967   5.586   1.774
 4228SOL     OW13582   0.962   5.967   4.984
 4228SOL    HW113583   0.867   5.954   5.013
 4228SOL    HW213584   1.014   6.009   5.058
 4229SOL     OW13585   5.647   6.070   5.552
 4229SOL    HW113586   5.563   6.102   5.508
 4229SOL    HW213587   5.632   6.059   5.650
 4230SOL     OW13588   1.433   6.968   2.765
 4230SOL    HW113589   1.381   0.006   2.707
 4230SOL    HW213590   1.372   6.899   2.803
 4231SOL     OW13591   5.025   1.021   5.414
 4231SOL    HW113592   5.120   1.036   5.384
 4231SOL    HW213593   5.026   0.972   5.501
 4232SOL     OW13594   2.343   5.493   3.474
 4232SOL    HW113595   2.432   5.536   3.492
 4232SOL    HW213596   2.271   5.548   3.515
 4233SOL     OW13597   0.262   0.005   4.201
 4233SOL    HW113598   0.247   0.023   4.299
 4233SOL    HW213599   0.246   6.933   4.182
 4234SOL     OW13600   1.904   5.326   5.414
 4234SOL    HW113601   1.898   5.335   5.314
 4234SOL    HW213602   1.959   5.400   5.451
 4235SOL     OW13603   6.653   5.228   5.681
 4235SOL    HW113604   6.707   5.258   5.760
 4235SOL    HW213605   6.634   5.131   5.689
 4236SOL     OW13606   0.392   5.467   2.662
 4236SOL    HW113607   0.357   5.553   2.625
 4236SOL    HW213608   0.314   5.409   2.688
 4237SOL     OW13609   6.647   4.432   4.088
 4237SOL    HW113610   6.644   4.401   4.184
 4237SOL    HW213611   6.566   4.489   4.070
 4238SOL     OW13612   1.797   1.028   3.408
 4238SOL    HW113613   1.750   1.068   3.329
 4238SOL    HW213614   1.769   0.932   3.417
 4239SOL     OW13615   4.359   0.938   3.280
 4239SOL    HW113616   4.342   0.928   3.182
 4239SOL    HW213617   4.413   1.021   3.296
 4240SOL     OW13618   2.012   5.274   0.110
 4240SOL    HW113619   2.063   5.296   0.027
 4240SOL    HW213620   2.035   5.181   0.139
 4241SOL     OW13621   6.537   1.781   0.631
 4241SOL    HW113622   6.608   1.769   0.699
 4241SOL    HW213623   6.528   1.699   0.575
 4242SOL     OW13624   2.441   2.155   3.867
 4242SOL    HW113625   2.431   2.235   3.808
 4242SOL    HW213626   2.528   2.110   3.848
 4243SOL     OW13627   5.057   1.485   2.871
 4243SOL    HW113628   5.116   1.497   2.951
 4243SOL    HW213629   5.006   1.399   2.880
 4244SOL     OW13630   3.878   3.446   2.004
 4244SOL    HW113631   3.876   3.364   1.947
 4244SOL    HW213632   3.850   3.525   1.950
 4245SOL     OW13633   6.617   1.901   6.515
 4245SOL    HW113634   6.587   1.837   6.586
 4245SOL    HW213635   6.716   1.913   6.520
 4246SOL     OW13636   6.717   4.499   3.023
 4246SOL    HW113637   6.647   4.569   3.041
 4246SOL    HW213638   6.743   4.456   3.109
 4247SOL     OW13639   0.386   6.488   4.260
 4247SOL    HW113640   0.406   6.551   4.335
 4247SOL    HW213641   0.287   6.483   4.245
 4248SOL     OW13642   2.336   1.845   5.183
 4248SOL    HW113643   2.254   1.796   5.212
 4248SOL    HW213644   2.313   1.940   5.162
 4249SOL     OW13645   6.557   2.788   5.379
 4249SOL    HW113646   6.607   2.722   5.436
 4249SOL    HW213647   6.549   2.752   5.286
 4250SOL     OW13648   6.881   4.668   3.273
 4250SOL    HW113649   6.824   4.586   3.272
 4250SOL    HW213650   6.965   4.649   3.324
 4251SOL     OW13651   6.397   4.520   0.698
 4251SOL    HW113652   6.414   4.422   0.685
 4251SOL    HW213653   6.408   4.543   0.795
 4252SOL     OW13654   6.718   6.092   4.912
 4252SOL    HW113655   6.782   6.112   4.838
 4252SOL    HW213656   6.697   6.177   4.961
 4253SOL     OW13657   3.226   0.080   2.695
 4253SOL    HW113658   3.240   0.085   2.794
 4253SOL    HW213659   3.242   0.170   2.654
 4254SOL     OW13660   1.281   3.037   1.434
 4254SOL    HW113661   1.204   3.097   1.411
 4254SOL    HW213662   1.265   2.946   1.396
 4255SOL     OW13663   6.097   2.449   3.559
 4255SOL    HW113664   6.087   2.527   3.620
 4255SOL    HW213665   6.009   2.425   3.519
 4256SOL     OW13666   1.360   6.358   0.719
 4256SOL    HW113667   1.301   6.313   0.786
 4256SOL    HW213668   1.336   6.327   0.627
 4257SOL     OW13669   3.395   0.886   5.378
 4257SOL    HW113670   3.335   0.811   5.350
 4257SOL    HW213671   3.482   0.880   5.328
 4258SOL     OW13672   5.998   6.779   2.241
 4258SOL    HW113673   6.022   6.840   2.317
 4258SOL    HW213674   6.076   6.771   2.179
 4259SOL     OW13675   2.286   1.017   6.770
 4259SOL    HW113676   2.293   1.041   6.867
 4259SOL    HW213677   2.289   1.101   6.715
 4260SOL     OW13678   4.368   5.960   3.769
 4260SOL    HW113679   4.387   5.910   3.685
 4260SOL    HW213680   4.453   5.974   3.820
 4261SOL     OW13681   2.649   0.388   2.146
 4261SOL    HW113682   2.630   0.301   2.102
 4261SOL    HW213683   2.736   0.383   2.195
 4262SOL     OW13684   1.430   4.898   5.662
 4262SOL    HW113685   1.367   4.823   5.642
 4262SOL    HW213686   1.465   4.889   5.755
 4263SOL     OW13687   2.501   6.612   4.510
 4263SOL    HW113688   2.505   6.582   4.414
 4263SOL    HW213689   2.416   6.661   4.526
 4264SOL     OW13690   0.109   1.650   1.602
 4264SOL    HW113691   0.010   1.657   1.604
 4264SOL    HW213692   0.136   1.559   1.571
 4265SOL     OW13693   6.302   1.796   6.957
 4265SOL    HW113694   6.302   1.801   0.032
 4265SOL    HW213695   6.269   1.707   6.928
 4266SOL     OW13696   2.775   5.433   0.493
 4266SOL    HW113697   2.697   5.370   0.496
 4266SOL    HW213698   2.746   5.521   0.457
 4267SOL     OW13699   1.983   3.633   4.862
 4267SOL    HW113700   2.016   3.641   4.956
 4267SOL    HW213701   2.017   3.711   4.808
 4268SOL     OW13702   1.583   6.617   0.242
 4268SOL    HW113703   1.651   6.656   0.303
 4268SOL    HW213704   1.500   6.673   0.244
 4269SOL     OW13705   2.109   1.933   0.526
 4269SOL    HW113706   2.069   1.858   0.473
 4269SOL    HW213707   2.125   1.902   0.620
 4270SOL     OW13708   4.064   3.365   4.454
 4270SOL    HW113709   4.092   3.414   4.536
 4270SOL    HW213710   3.970   3.335   4.463
 4271SOL     OW13711   0.338   0.427   5.476
 4271SOL    HW113712   0.369   0.484   5.552
 4271SOL    HW213713   0.246   0.393   5.496
 4272SOL     OW13714   6.972   5.123   4.769
 4272SOL    HW113715   6.891   5.112   4.711
 4272SOL    HW213716   0.008   5.046   4.755
 4273SOL     OW13717   4.548   6.489   4.254
 4273SOL    HW113718   4.612   6.543   4.309
 4273SOL    HW213719   4.465   6.542   4.237
 4274SOL     OW13720   0.833   6.939   3.301
 4274SOL    HW113721   0.750   6.982   3.266
 4274SOL    HW213722   0.825   6.840   3.290
 4275SOL     OW13723   6.773   1.303   6.162
 4275SOL    HW113724   6.693   1.249   6.135
 4275SOL    HW213725   6.752   1.400   6.155
 4276SOL     OW13726   1.347   5.178   2.774
 4276SOL    HW113727   1.402   5.200   2.855
 4276SOL    HW213728   1.257   5.221   2.782
 4277SOL     OW13729   0.076   4.416   3.978
 4277SOL    HW113730   0.148   4.379   3.921
 4277SOL    HW213731   0.004   4.454   3.921
 4278SOL     OW13732   6.556   0.460   5.112
 4278SOL    HW113733   6.548   0.386   5.180
 4278SOL    HW213734   6.635   0.442   5.053
 4279SOL     OW13735   3.644   6.276   5.334
 4279SOL    HW113736   3.675   6.181   5.343
 4279SOL    HW213737   3.619   6.312   5.424
 4280SOL     OW13738   5.485   1.554   5.351
 4280SOL    HW113739   5.488   1.454   5.353
 4280SOL    HW213740   5.442   1.588   5.434
 4281SOL     OW13741   1.781   4.486   4.707
 4281SOL    HW113742   1.837   4.518   4.783
 4281SOL    HW213743   1.697   4.446   4.742
 4282SOL     OW13744   2.473   1.968   0.190
 4282SOL    HW113745   2.499   1.923   0.275
 4282SOL    HW213746   2.378   1.998   0.196
 4283SOL     OW13747   1.762   0.509   4.042
 4283SOL    HW113748   1.844   0.525   3.987
 4283SOL    HW213749   1.711   0.432   4.004
 4284SOL     OW13750   5.182   6.741   2.460
 4284SOL    HW113751   5.177   6.662   2.522
 4284SOL    HW213752   5.091   6.784   2.454
 4285SOL     OW13753   0.347   6.950   6.246
 4285SOL    HW113754   0.303   6.931   6.158
 4285SOL    HW213755   0.421   6.884   6.261
 4286SOL     OW13756   5.131   5.747   6.305
 4286SOL    HW113757   5.207   5.744   6.239
 4286SOL    HW213758   5.118   5.842   6.335
 4287SOL     OW13759   5.649   0.706   5.502
 4287SOL    HW113760   5.703   0.622   5.513
 4287SOL    HW213761   5.698   0.769   5.441
 4288SOL     OW13762   0.865   6.408   3.151
 4288SOL    HW113763   0.961   6.380   3.149
 4288SOL    HW213764   0.859   6.505   3.175
 4289SOL     OW13765   5.564   2.547   2.265
 4289SOL    HW113766   5.595   2.618   2.202
 4289SOL    HW213767   5.607   2.460   2.240
 4290SOL     OW13768   2.655   6.698   1.117
 4290SOL    HW113769   2.647   6.612   1.168
 4290SOL    HW213770   2.752   6.720   1.105
 4291SOL     OW13771   4.860   3.440   1.672
 4291SOL    HW113772   4.865   3.383   1.754
 4291SOL    HW213773   4.867   3.536   1.698
 4292SOL     OW13774   6.239   4.499   5.503
 4292SOL    HW113775   6.248   4.591   5.541
 4292SOL    HW213776   6.158   4.496   5.445
 4293SOL     OW13777   6.299   3.944   6.345
 4293SOL    HW113778   6.314   3.935   6.444
 4293SOL    HW213779   6.378   3.906   6.296
 4294SOL     OW13780   4.709   3.194   6.566
 4294SOL    HW113781   4.764   3.251   6.504
 4294SOL    HW213782   4.749   3.196   6.657
 4295SOL     OW13783   3.978   0.031   4.842
 4295SOL    HW113784   4.062   0.076   4.814
 4295SOL    HW213785   3.901   0.094   4.833
 4296SOL     OW13786   2.785   1.628   0.461
 4296SOL    HW113787   2.803   1.627   0.560
 4296SOL    HW213788   2.816   1.715   0.423
 4297SOL     OW13789   5.180   6.945   5.199
 4297SOL    HW113790   5.268   6.903   5.177
 4297SOL    HW213791   5.171   0.006   5.149
 4298SOL     OW13792   1.441   5.394   6.756
 4298SOL    HW113793   1.530   5.356   6.729
 4298SOL    HW213794   1.380   5.319   6.783
 4299SOL     OW13795   1.464   2.904   6.778
 4299SOL    HW113796   1.401   2.935   6.707
 4299SOL    HW213797   1.503   2.816   6.752
 4300SOL     OW13798   2.679   1.734   6.210
 4300SOL    HW113799   2.727   1.666   6.266
 4300SOL    HW213800   2.665   1.818   6.264
 4301SOL     OW13801   2.777   1.344   0.365
 4301SOL    HW113802   2.819   1.432   0.386
 4301SOL    HW213803   2.848   1.280   0.334
 4302SOL     OW13804   1.244   6.547   5.795
 4302SOL    HW113805   1.189   6.551   5.878
 4302SOL    HW213806   1.298   6.462   5.795
 4303SOL     OW13807   6.185   4.326   3.163
 4303SOL    HW113808   6.137   4.249   3.205
 4303SOL    HW213809   6.269   4.293   3.120
 4304SOL     OW13810   3.337   3.815   4.228
 4304SOL    HW113811   3.299   3.729   4.262
 4304SOL    HW213812   3.413   3.795   4.166
 4305SOL     OW13813   6.211   1.852   3.920
 4305SOL    HW113814   6.300   1.807   3.916
 4305SOL    HW213815   6.141   1.790   3.883
 4306SOL     OW13816   0.050   3.766   6.883
 4306SOL    HW113817   0.067   3.862   6.908
 4306SOL    HW213818   0.095   3.747   6.796
 4307SOL     OW13819   4.684   4.807   5.669
 4307SOL    HW113820   4.675   4.799   5.768
 4307SOL    HW213821   4.763   4.864   5.647
 4308SOL     OW13822   5.501   5.935   6.006
 4308SOL    HW113823   5.568   5.874   5.964
 4308SOL    HW213824   5.420   5.941   5.948
 4309SOL     OW13825   0.567   6.683   0.183
 4309SOL    HW113826   0.525   6.593   0.192
 4309SOL    HW213827   0.500   6.748   0.146
 4310SOL     OW13828   2.213   2.506   3.738
 4310SOL    HW113829   2.154   2.583   3.762
 4310SOL    HW213830   2.157   2.429   3.708
 4311SOL     OW13831   1.313   5.674   3.192
 4311SOL    HW113832   1.301   5.752   3.130
 4311SOL    HW213833   1.299   5.589   3.142
 4312SOL     OW13834   1.100   5.804   1.438
 4312SOL    HW113835   1.094   5.805   1.338
 4312SOL    HW213836   1.061   5.718   1.473
 4313SOL     OW13837   5.890   1.520   1.798
 4313SOL    HW113838   5.969   1.512   1.859
 4313SOL    HW213839   5.901   1.599   1.739
 4314SOL     OW13840   4.989   3.073   3.567
 4314SOL    HW113841   4.956   3.147   3.626
 4314SOL    HW213842   4.937   3.073   3.482
 4315SOL     OW13843   1.821   0.637   2.866
 4315SOL    HW113844   1.853   0.561   2.809
 4315SOL    HW213845   1.818   0.609   2.962
 4316SOL     OW13846   4.947   0.052   1.245
 4316SOL    HW113847   4.964   0.012   1.335
 4316SOL    HW213848   4.891   0.135   1.255
 4317SOL     OW13849   3.077   1.261   4.757
 4317SOL    HW113850   2.997   1.210   4.789
 4317SOL    HW213851   3.149   1.255   4.825
 4318SOL     OW13852   0.323   3.712   3.390
 4318SOL    HW113853   0.316   3.670   3.300
 4318SOL    HW213854   0.412   3.756   3.400
 4319SOL     OW13855   2.888   2.976   0.438
 4319SOL    HW113856   2.818   3.025   0.490
 4319SOL    HW213857   2.873   2.878   0.447
 4320SOL     OW13858   1.564   6.463   2.145
 4320SOL    HW113859   1.482   6.414   2.176
 4320SOL    HW213860   1.549   6.497   2.052
 4321SOL     OW13861   6.572   0.639   4.349
 4321SOL    HW113862   6.627   0.558   4.330
 4321SOL    HW213863   6.594   0.675   4.440
 4322SOL     OW13864   6.242   1.391   6.685
 4322SOL    HW113865   6.326   1.433   6.650
 4322SOL    HW213866   6.196   1.455   6.747
 4323SOL     OW13867   5.375   3.387   2.032
 4323SOL    HW113868   5.304   3.454   2.010
 4323SOL    HW213869   5.465   3.426   2.014
 4324SOL     OW13870   5.918   4.815   0.067
 4324SOL    HW113871   5.948   4.873   0.143
 4324SOL    HW213872   5.821   4.832   0.047
 4325SOL     OW13873   0.857   0.667   0.082
 4325SOL    HW113874   0.791   0.731   0.122
 4325SOL    HW213875   0.913   0.716   0.016
 4326SOL     OW13876   0.103   2.999   5.029
 4326SOL    HW113877   0.029   3.058   5.060
 4326SOL    HW213878   0.189   3.031   5.069
 4327SOL     OW13879   6.158   5.484   2.369
 4327SOL    HW113880   6.115   5.556   2.313
 4327SOL    HW213881   6.138   5.500   2.465
 4328SOL     OW13882   4.574   4.971   6.024
 4328SOL    HW113883   4.525   4.999   5.942
 4328SOL    HW213884   4.661   5.019   6.029
 4329SOL     OW13885   2.981   1.930   6.288
 4329SOL    HW113886   3.017   1.855   6.234
 4329SOL    HW213887   2.913   1.895   6.353
 4330SOL     OW13888   2.715   0.711   5.563
 4330SOL    HW113889   2.741   0.626   5.610
 4330SOL    HW213890   2.797   0.761   5.536
 4331SOL     OW13891   5.255   3.406   1.354
 4331SOL    HW113892   5.264   3.379   1.258
 4331SOL    HW213893   5.159   3.429   1.374
 4332SOL     OW13894   5.442   3.813   2.372
 4332SOL    HW113895   5.491   3.900   2.377
 4332SOL    HW213896   5.367   3.812   2.438
 4333SOL     OW13897   4.690   1.578   4.996
 4333SOL    HW113898   4.593   1.584   4.972
 4333SOL    HW213899   4.700   1.564   5.094
 4334SOL     OW13900   2.538   2.002   2.221
 4334SOL    HW113901   2.634   2.006   2.248
 4334SOL    HW213902   2.500   1.913   2.250
 4335SOL     OW13903   3.029   3.694   3.564
 4335SOL    HW113904   2.969   3.615   3.573
 4335SOL    HW213905   3.107   3.684   3.625
 4336SOL     OW13906   0.994   6.967   5.484
 4336SOL    HW113907   1.015   6.954   5.581
 4336SOL    HW213908   0.906   6.925   5.463
 4337SOL     OW13909   1.120   4.781   0.338
 4337SOL    HW113910   1.178   4.807   0.416
 4337SOL    HW213911   1.087   4.688   0.351
 4338SOL     OW13912   4.871   5.967   4.729
 4338SOL    HW113913   4.796   5.933   4.672
 4338SOL    HW213914   4.948   5.903   4.725
 4339SOL     OW13915   5.881   2.896   5.632
 4339SOL    HW113916   5.817   2.854   5.567
 4339SOL    HW213917   5.832   2.919   5.716
 4340SOL     OW13918   6.250   3.782   2.723
 4340SOL    HW113919   6.177   3.720   2.694
 4340SOL    HW213920   6.336   3.753   2.682
 4341SOL     OW13921   0.901   3.982   1.537
 4341SOL    HW113922   0.829   4.013   1.475
 4341SOL    HW213923   0.962   3.919   1.487
 4342SOL     OW13924   6.584   3.226   4.104
 4342SOL    HW113925   6.527   3.254   4.027
 4342SOL    HW213926   6.613   3.308   4.155
 4343SOL     OW13927   2.788   0.022   6.719
 4343SOL    HW113928   2.763   0.038   6.624
 4343SOL    HW213929   2.880   0.058   6.736
 4344SOL     OW13930   1.788   5.321   3.462
 4344SOL    HW113931   1.743   5.261   3.528
 4344SOL    HW213932   1.828   5.400   3.509
 4345SOL     OW13933   1.520   3.095   5.543
 4345SOL    HW113934   1.448   3.038   5.583
 4345SOL    HW213935   1.589   3.115   5.613
 4346SOL     OW13936   2.073   2.839   1.656
 4346SOL    HW113937   1.999   2.774   1.641
 4346SOL    HW213938   2.085   2.854   1.754
 4347SOL     OW13939   6.698   1.132   1.479
 4347SOL    HW113940   6.768   1.094   1.419
 4347SOL    HW213941   6.678   1.066   1.552
 4348SOL     OW13942   0.011   3.155   2.647
 4348SOL    HW113943   6.975   3.105   2.586
 4348SOL    HW213944   0.083   3.198   2.592
 4349SOL     OW13945   0.110   1.837   2.857
 4349SOL    HW113946   0.046   1.866   2.928
 4349SOL    HW213947   0.079   1.750   2.818
 4350SOL     OW13948   4.702   2.440   4.134
 4350SOL    HW113949   4.608   2.415   4.159
 4350SOL    HW213950   4.764   2.412   4.207
 4351SOL     OW13951   2.521   6.627   1.432
 4351SOL    HW113952   2.459   6.567   1.484
 4351SOL    HW213953   2.468   6.694   1.381
 4352SOL     OW13954   0.726   2.125   1.342
 4352SOL    HW113955   0.808   2.142   1.287
 4352SOL    HW213956   0.711   2.026   1.349
 4353SOL     OW13957   3.158   5.066   0.983
 4353SOL    HW113958   3.087   4.995   0.983
 4353SOL    HW213959   3.171   5.101   0.890
 4354SOL     OW13960   2.018   6.513   5.700
 4354SOL    HW113961   2.038   6.589   5.763
 4354SOL    HW213962   1.943   6.538   5.640
 4355SOL     OW13963   3.736   0.250   1.771
 4355SOL    HW113964   3.797   0.189   1.719
 4355SOL    HW213965   3.707   0.326   1.713
 4356SOL     OW13966   4.535   4.345   1.625
 4356SOL    HW113967   4.525   4.444   1.614
 4356SOL    HW213968   4.475   4.312   1.698
 4357SOL     OW13969   5.885   0.155   6.823
 4357SOL    HW113970   5.840   0.243   6.842
 4357SOL    HW213971   5.959   0.170   6.757
 4358SOL     OW13972   6.515   6.110   0.622
 4358SOL    HW113973   6.589   6.042   0.621
 4358SOL    HW213974   6.538   6.182   0.687
 4359SOL     OW13975   1.483   2.108   4.816
 4359SOL    HW113976   1.490   2.040   4.743
 4359SOL    HW213977   1.555   2.092   4.884
 4360SOL     OW13978   1.658   3.632   2.606
 4360SOL    HW113979   1.646   3.547   2.555
 4360SOL    HW213980   1.710   3.697   2.550
 4361SOL     OW13981   3.203   2.472   1.690
 4361SOL    HW113982   3.123   2.486   1.748
 4361SOL    HW213983   3.178   2.486   1.594
 4362SOL     OW13984   6.006   4.080   5.242
 4362SOL    HW113985   5.952   3.996   5.239
 4362SOL    HW213986   5.982   4.132   5.324
 4363SOL     OW13987   5.107   1.942   5.763
 4363SOL    HW113988   5.205   1.957   5.750
 4363SOL    HW213989   5.091   1.907   5.856
 4364SOL     OW13990   3.002   3.776   5.518
 4364SOL    HW113991   3.037   3.718   5.444
 4364SOL    HW213992   3.006   3.872   5.489
 4365SOL     OW13993   2.971   1.365   2.220
 4365SOL    HW113994   2.949   1.461   2.209
 4365SOL    HW213995   2.962   1.339   2.316
 4366SOL     OW13996   5.549   6.460   0.935
 4366SOL    HW113997   5.556   6.546   0.883
 4366SOL    HW213998   5.491   6.475   1.015
 4367SOL     OW13999   1.164   5.057   5.514
 4367SOL    HW114000   1.185   5.116   5.591
 4367SOL    HW214001   1.230   5.073   5.440
 4368SOL     OW14002   3.950   5.215   1.078
 4368SOL    HW114003   3.894   5.191   0.998
 4368SOL    HW214004   3.972   5.132   1.128
 4369SOL     OW14005   4.740   5.720   2.533
 4369SOL    HW114006   4.813   5.660   2.566
 4369SOL    HW214007   4.752   5.811   2.574
 4370SOL     OW14008   5.375   4.355   2.869
 4370SOL    HW114009   5.401   4.443   2.908
 4370SOL    HW214010   5.456   4.297   2.862
 4371SOL     OW14011   6.241   0.340   1.219
 4371SOL    HW114012   6.290   0.377   1.140
 4371SOL    HW214013   6.175   0.271   1.187
 4372SOL     OW14014   4.418   1.382   2.639
 4372SOL    HW114015   4.350   1.378   2.712
 4372SOL    HW214016   4.508   1.359   2.676
 4373SOL     OW14017   0.291   3.170   6.526
 4373SOL    HW114018   0.255   3.166   6.433
 4373SOL    HW214019   0.337   3.084   6.547
 4374SOL     OW14020   1.201   2.125   1.554
 4374SOL    HW114021   1.111   2.110   1.596
 4374SOL    HW214022   1.260   2.047   1.574
 4375SOL     OW14023   2.479   0.303   3.961
 4375SOL    HW114024   2.497   0.287   4.058
 4375SOL    HW214025   2.562   0.338   3.918
 4376SOL     OW14026   6.911   0.251   2.250
 4376SOL    HW114027   6.865   0.186   2.311
 4376SOL    HW214028   6.969   0.312   2.303
 4377SOL     OW14029   5.388   3.934   0.862
 4377SOL    HW114030   5.313   3.951   0.798
 4377SOL    HW214031   5.475   3.951   0.817
 4378SOL     OW14032   1.827   0.804   3.143
 4378SOL    HW114033   1.883   0.881   3.113
 4378SOL    HW214034   1.859   0.721   3.098
 4379SOL     OW14035   2.619   1.526   4.435
 4379SOL    HW114036   2.622   1.615   4.389
 4379SOL    HW214037   2.535   1.478   4.410
 4380SOL     OW14038   1.570   0.637   1.716
 4380SOL    HW114039   1.644   0.692   1.755
 4380SOL    HW214040   1.556   0.664   1.620
 4381SOL     OW14041   1.554   5.610   5.126
 4381SOL    HW114042   1.572   5.524   5.077
 4381SOL    HW214043   1.456   5.629   5.124
 4382SOL     OW14044   6.813   3.259   5.740
 4382SOL    HW114045   6.769   3.215   5.662
 4382SOL    HW214046   6.836   3.191   5.809
 4383SOL     OW14047   6.057   3.846   6.496
 4383SOL    HW114048   5.964   3.877   6.477
 4383SOL    HW214049   6.119   3.884   6.426
 4384SOL     OW14050   6.470   0.669   3.448
 4384SOL    HW114051   6.468   0.668   3.348
 4384SOL    HW214052   6.379   0.647   3.483
 4385SOL     OW14053   4.393   2.288   4.791
 4385SOL    HW114054   4.405   2.338   4.877
 4385SOL    HW214055   4.447   2.204   4.794
 4386SOL     OW14056   1.235   3.886   5.417
 4386SOL    HW114057   1.151   3.911   5.367
 4386SOL    HW214058   1.246   3.948   5.495
 4387SOL     OW14059   6.782   2.496   1.510
 4387SOL    HW114060   6.826   2.408   1.524
 4387SOL    HW214061   6.746   2.529   1.598
 4388SOL     OW14062   5.313   2.001   6.016
 4388SOL    HW114063   5.381   1.948   5.966
 4388SOL    HW214064   5.325   2.098   5.996
 4389SOL     OW14065   6.848   3.964   1.528
 4389SOL    HW114066   6.859   4.040   1.465
 4389SOL    HW214067   6.938   3.937   1.563
 4390SOL     OW14068   5.277   6.793   0.698
 4390SOL    HW114069   5.190   6.777   0.744
 4390SOL    HW214070   5.332   6.857   0.751
 4391SOL     OW14071   1.740   5.029   6.451
 4391SOL    HW114072   1.656   4.974   6.443
 4391SOL    HW214073   1.816   4.969   6.474
 4392SOL     OW14074   0.392   1.714   4.222
 4392SOL    HW114075   0.451   1.633   4.229
 4392SOL    HW214076   0.297   1.685   4.218
 4393SOL     OW14077   6.193   0.353   1.856
 4393SOL    HW114078   6.110   0.302   1.837
 4393SOL    HW214079   6.192   0.440   1.805
 4394SOL     OW14080   0.944   6.947   1.648
 4394SOL    HW114081   0.974   6.897   1.567
 4394SOL    HW214082   1.003   0.001   1.663
 4395SOL     OW14083   1.917   0.278   1.681
 4395SOL    HW114084   1.886   0.243   1.770
 4395SOL    HW214085   1.996   0.225   1.650
 4396SOL     OW14086   1.770   1.787   4.024
 4396SOL    HW114087   1.844   1.720   4.021
 4396SOL    HW214088   1.686   1.746   3.991
 4397SOL     OW14089   1.933   3.016   4.035
 4397SOL    HW114090   2.002   3.073   3.992
 4397SOL    HW214091   1.977   2.956   4.102
 4398SOL     OW14092   2.121   3.873   6.140
 4398SOL    HW114093   2.138   3.898   6.045
 4398SOL    HW214094   2.120   3.774   6.150
 4399SOL     OW14095   1.839   5.750   1.820
 4399SOL    HW114096   1.785   5.680   1.776
 4399SOL    HW214097   1.798   5.774   1.909
 4400SOL     OW14098   1.835   6.807   3.760
 4400SOL    HW114099   1.771   6.881   3.782
 4400SOL    HW214100   1.902   6.798   3.833
 4401SOL     OW14101   4.056   6.307   5.039
 4401SOL    HW114102   4.055   6.388   4.981
 4401SOL    HW214103   4.059   6.225   4.982
 4402SOL     OW14104   1.065   0.540   2.237
 4402SOL    HW114105   1.062   0.459   2.296
 4402SOL    HW214106   1.032   0.516   2.146
 4403SOL     OW14107   0.753   5.836   0.887
 4403SOL    HW114108   0.843   5.879   0.898
 4403SOL    HW214109   0.699   5.890   0.823
 4404SOL     OW14110   1.250   5.766   5.430
 4404SOL    HW114111   1.310   5.687   5.418
 4404SOL    HW214112   1.248   5.819   5.345
 4405SOL     OW14113   2.758   5.279   3.407
 4405SOL    HW114114   2.742   5.288   3.309
 4405SOL    HW214115   2.835   5.218   3.423
 4406SOL     OW14116   6.910   3.425   1.543
 4406SOL    HW114117   6.820   3.383   1.528
 4406SOL    HW214118   6.917   3.507   1.486
 4407SOL     OW14119   0.225   5.475   1.300
 4407SOL    HW114120   0.130   5.501   1.286
 4407SOL    HW214121   0.230   5.409   1.375
 4408SOL     OW14122   2.900   6.211   0.032
 4408SOL    HW114123   2.841   6.166   6.990
 4408SOL    HW214124   2.988   6.163   0.037
 4409SOL     OW14125   3.727   1.077   1.757
 4409SOL    HW114126   3.694   0.982   1.752
 4409SOL    HW214127   3.651   1.139   1.741
 4410SOL     OW14128   6.975   6.282   0.682
 4410SOL    HW114129   6.922   6.333   0.616
 4410SOL    HW214130   6.918   6.259   0.761
 4411SOL     OW14131   3.615   4.869   5.549
 4411SOL    HW114132   3.602   4.946   5.611
 4411SOL    HW214133   3.531   4.815   5.545
 4412SOL     OW14134   5.190   6.775   4.384
 4412SOL    HW114135   5.250   6.697   4.402
 4412SOL    HW214136   5.170   6.822   4.470
 4413SOL     OW14137   4.302   6.623   4.230
 4413SOL    HW114138   4.312   6.610   4.131
 4413SOL    HW214139   4.211   6.657   4.250
 4414SOL     OW14140   4.505   5.448   1.741
 4414SOL    HW114141   4.433   5.456   1.810
 4414SOL    HW214142   4.463   5.435   1.651
 4415SOL     OW14143   3.208   3.953   0.970
 4415SOL    HW114144   3.268   4.027   0.940
 4415SOL    HW214145   3.256   3.866   0.962
 4416SOL     OW14146   3.980   1.455   4.378
 4416SOL    HW114147   3.912   1.387   4.350
 4416SOL    HW214148   4.036   1.418   4.452
 4417SOL     OW14149   6.268   2.868   4.071
 4417SOL    HW114150   6.190   2.880   4.009
 4417SOL    HW214151   6.349   2.909   4.031
 4418SOL     OW14152   6.343   2.120   1.991
 4418SOL    HW114153   6.407   2.061   1.942
 4418SOL    HW214154   6.297   2.180   1.925
 4419SOL     OW14155   6.111   6.181   5.707
 4419SOL    HW114156   6.123   6.151   5.613
 4419SOL    HW214157   6.130   6.104   5.769
 4420SOL     OW14158   3.665   1.811   1.231
 4420SOL    HW114159   3.589   1.793   1.169
 4420SOL    HW214160   3.692   1.726   1.276
 4421SOL     OW14161   1.280   3.196   5.451
 4421SOL    HW114162   1.249   3.103   5.431
 4421SOL    HW214163   1.377   3.195   5.472
 4422SOL     OW14164   0.789   4.918   0.009
 4422SOL    HW114165   0.827   4.923   0.101
 4422SOL    HW214166   0.691   4.901   0.014
 4423SOL     OW14167   6.432   4.488   5.744
 4423SOL    HW114168   6.361   4.419   5.731
 4423SOL    HW214169   6.521   4.443   5.755
 4424SOL     OW14170   5.266   5.754   4.179
 4424SOL    HW114171   5.280   5.843   4.221
 4424SOL    HW214172   5.206   5.763   4.099
 4425SOL     OW14173   1.875   5.469   0.715
 4425SOL    HW114174   1.936   5.548   0.704
 4425SOL    HW214175   1.895   5.424   0.803
 4426SOL     OW14176   1.223   0.700   3.988
 4426SOL    HW114177   1.288   0.719   4.062
 4426SOL    HW214178   1.268   0.644   3.918
 4427SOL     OW14179   3.801   6.323   2.739
 4427SOL    HW114180   3.793   6.367   2.650
 4427SOL    HW214181   3.853   6.239   2.731
 4428SOL     OW14182   5.233   0.938   4.859
 4428SOL    HW114183   5.307   0.980   4.806
 4428SOL    HW214184   5.154   0.923   4.801
 4429SOL     OW14185   3.071   6.503   2.947
 4429SOL    HW114186   3.024   6.591   2.950
 4429SOL    HW214187   3.101   6.479   3.039
 4430SOL     OW14188   5.671   4.882   4.264
 4430SOL    HW114189   5.718   4.948   4.207
 4430SOL    HW214190   5.727   4.799   4.272
 4431SOL     OW14191   3.267   0.539   3.689
 4431SOL    HW114192   3.336   0.602   3.725
 4431SOL    HW214193   3.289   0.516   3.594
 4432SOL     OW14194   2.644   3.712   6.610
 4432SOL    HW114195   2.610   3.782   6.547
 4432SOL    HW214196   2.582   3.634   6.609
 4433SOL     OW14197   0.718   2.004   4.951
 4433SOL    HW114198   0.751   1.912   4.974
 4433SOL    HW214199   0.622   2.012   4.979
 4434SOL     OW14200   6.416   1.096   1.721
 4434SOL    HW114201   6.414   1.094   1.621
 4434SOL    HW214202   6.464   1.178   1.752
 4435SOL     OW14203   3.439   4.178   0.927
 4435SOL    HW114204   3.363   4.238   0.901
 4435SOL    HW214205   3.525   4.221   0.902
 4436SOL     OW14206   4.220   1.757   1.580
 4436SOL    HW114207   4.155   1.819   1.534
 4436SOL    HW214208   4.279   1.810   1.640
 4437SOL     OW14209   0.237   3.261   2.497
 4437SOL    HW114210   0.240   3.361   2.501
 4437SOL    HW214211   0.321   3.224   2.535
 4438SOL     OW14212   4.513   0.033   5.465
 4438SOL    HW114213   4.491   6.994   5.538
 4438SOL    HW214214   4.505   0.126   5.499
 4439SOL     OW14215   0.970   6.023   2.925
 4439SOL    HW114216   1.004   6.109   2.887
 4439SOL    HW214217   0.981   6.024   3.025
 4440SOL     OW14218   2.751   4.721   1.065
 4440SOL    HW114219   2.731   4.646   1.001
 4440SOL    HW214220   2.693   4.711   1.146
 4441SOL     OW14221   0.792   1.478   0.550
 4441SOL    HW114222   0.722   1.406   0.549
 4441SOL    HW214223   0.762   1.552   0.609
 4442SOL     OW14224   1.003   5.028   6.016
 4442SOL    HW114225   1.051   4.965   5.956
 4442SOL    HW214226   0.986   4.985   6.104
 4443SOL     OW14227   0.672   4.799   6.681
 4443SOL    HW114228   0.717   4.725   6.731
 4443SOL    HW214229   0.672   4.881   6.738
 4444SOL     OW14230   4.491   4.132   0.444
 4444SOL    HW114231   4.520   4.133   0.539
 4444SOL    HW214232   4.419   4.063   0.432
 4445SOL     OW14233   0.920   5.407   6.902
 4445SOL    HW114234   0.941   5.318   6.861
 4445SOL    HW214235   1.002   5.463   6.902
 4446SOL     OW14236   5.273   1.712   0.024
 4446SOL    HW114237   5.180   1.706   7.014
 4446SOL    HW214238   5.276   1.670   0.115
 4447SOL     OW14239   5.447   4.464   5.222
 4447SOL    HW114240   5.403   4.379   5.194
 4447SOL    HW214241   5.448   4.527   5.144
 4448SOL     OW14242   2.765   6.906   1.272
 4448SOL    HW114243   2.677   6.858   1.269
 4448SOL    HW214244   2.749   7.005   1.269
 4449SOL     OW14245   4.512   1.052   6.255
 4449SOL    HW114246   4.491   1.123   6.322
 4449SOL    HW214247   4.498   1.087   6.163
 4450SOL     OW14248   3.341   1.352   6.961
 4450SOL    HW114249   3.327   1.378   0.031
 4450SOL    HW214250   3.439   1.338   6.944
 4451SOL     OW14251   4.875   4.474   3.810
 4451SOL    HW114252   4.888   4.525   3.895
 4451SOL    HW214253   4.935   4.511   3.740
 4452SOL     OW14254   5.962   6.032   4.630
 4452SOL    HW114255   5.966   5.996   4.537
 4452SOL    HW214256   5.889   5.986   4.680
 4453SOL     OW14257   0.717   2.897   2.117
 4453SOL    HW114258   0.716   2.946   2.030
 4453SOL    HW214259   0.803   2.916   2.165
 4454SOL     OW14260   0.313   1.098   6.841
 4454SOL    HW114261   0.230   1.042   6.842
 4454SOL    HW214262   0.289   1.195   6.835
 4455SOL     OW14263   6.137   5.739   4.928
 4455SOL    HW114264   6.226   5.721   4.968
 4455SOL    HW214265   6.149   5.786   4.841
 4456SOL     OW14266   2.172   6.152   3.639
 4456SOL    HW114267   2.239   6.191   3.575
 4456SOL    HW214268   2.088   6.205   3.636
 4457SOL     OW14269   2.028   1.955   4.892
 4457SOL    HW114270   2.096   1.942   4.820
 4457SOL    HW214271   1.940   1.977   4.850
 4458SOL     OW14272   2.066   3.610   1.750
 4458SOL    HW114273   2.109   3.541   1.692
 4458SOL    HW214274   2.115   3.617   1.837
 4459SOL     OW14275   2.205   1.735   4.933
 4459SOL    HW114276   2.142   1.812   4.922
 4459SOL    HW214277   2.209   1.709   5.029
 4460SOL     OW14278   0.200   3.317   4.188
 4460SOL    HW114279   0.240   3.245   4.132
 4460SOL    HW214280   0.215   3.405   4.145
 4461SOL     OW14281   2.043   0.723   1.297
 4461SOL    HW114282   2.082   0.815   1.294
 4461SOL    HW214283   2.116   0.655   1.307
 4462SOL     OW14284   6.094   3.725   2.143
 4462SOL    HW114285   6.012   3.710   2.087
 4462SOL    HW214286   6.067   3.743   2.237
 4463SOL     OW14287   5.460   1.151   0.767
 4463SOL    HW114288   5.419   1.092   0.836
 4463SOL    HW214289   5.461   1.245   0.800
 4464SOL     OW14290   0.534   5.181   0.438
 4464SOL    HW114291   0.485   5.095   0.421
 4464SOL    HW214292   0.575   5.178   0.529
 4465SOL     OW14293   2.634   5.673   0.384
 4465SOL    HW114294   2.575   5.676   0.303
 4465SOL    HW214295   2.593   5.726   0.458
 4466SOL     OW14296   2.407   2.027   3.535
 4466SOL    HW114297   2.372   2.121   3.541
 4466SOL    HW214298   2.369   1.983   3.454
 4467SOL     OW14299   2.466   5.892   4.154
 4467SOL    HW114300   2.556   5.915   4.189
 4467SOL    HW214301   2.471   5.877   4.055
 4468SOL     OW14302   0.940   3.138   0.437
 4468SOL    HW114303   0.885   3.056   0.457
 4468SOL    HW214304   0.886   3.220   0.458
 4469SOL     OW14305   2.488   0.649   1.506
 4469SOL    HW114306   2.503   0.743   1.537
 4469SOL    HW214307   2.574   0.613   1.468
 4470SOL     OW14308   0.563   0.738   2.522
 4470SOL    HW114309   0.562   0.832   2.489
 4470SOL    HW214310   0.513   0.679   2.458
 4471SOL     OW14311   2.191   2.974   6.337
 4471SOL    HW114312   2.240   3.061   6.346
 4471SOL    HW214313   2.247   2.900   6.375
 4472SOL     OW14314   1.650   2.861   1.294
 4472SOL    HW114315   1.661   2.874   1.393
 4472SOL    HW214316   1.623   2.948   1.252
 4473SOL     OW14317   6.629   2.960   4.125
 4473SOL    HW114318   6.601   3.056   4.126
 4473SOL    HW214319   6.589   2.915   4.046
 4474SOL     OW14320   2.976   1.012   1.919
 4474SOL    HW114321   2.904   1.080   1.932
 4474SOL    HW214322   2.937   0.921   1.928
 4475SOL     OW14323   0.863   3.698   2.135
 4475SOL    HW114324   0.769   3.730   2.122
 4475SOL    HW214325   0.922   3.777   2.153
 4476SOL     OW14326   5.923   1.160   3.948
 4476SOL    HW114327   5.943   1.237   4.008
 4476SOL    HW214328   5.939   1.187   3.853
 4477SOL     OW14329   1.794   0.346   5.222
 4477SOL    HW114330   1.832   0.378   5.309
 4477SOL    HW214331   1.743   0.421   5.178
 4478SOL     OW14332   0.886   0.437   1.511
 4478SOL    HW114333   0.923   0.474   1.425
 4478SOL    HW214334   0.943   0.468   1.587
 4479SOL     OW14335   1.213   1.916   0.087
 4479SOL    HW114336   1.260   1.886   0.004
 4479SOL    HW214337   1.275   1.909   0.165
 4480SOL     OW14338   0.173   4.631   4.495
 4480SOL    HW114339   0.273   4.634   4.506
 4480SOL    HW214340   0.135   4.560   4.555
 4481SOL     OW14341   2.607   5.371   4.972
 4481SOL    HW114342   2.554   5.382   4.888
 4481SOL    HW214343   2.545   5.377   5.051
 4482SOL     OW14344   2.823   4.115   6.002
 4482SOL    HW114345   2.861   4.055   6.072
 4482SOL    HW214346   2.853   4.084   5.912
 4483SOL     OW14347   0.838   2.702   1.791
 4483SOL    HW114348   0.782   2.639   1.737
 4483SOL    HW214349   0.902   2.750   1.731
 4484SOL     OW14350   2.593   3.014   0.564
 4484SOL    HW114351   2.589   2.916   0.584
 4484SOL    HW214352   2.599   3.066   0.649
 4485SOL     OW14353   4.774   2.425   4.764
 4485SOL    HW114354   4.873   2.435   4.777
 4485SOL    HW214355   4.734   2.382   4.844
 4486SOL     OW14356   5.918   4.641   5.612
 4486SOL    HW114357   5.943   4.615   5.518
 4486SOL    HW214358   5.826   4.608   5.633
 4487SOL     OW14359   2.010   2.968   6.813
 4487SOL    HW114360   2.106   2.961   6.841
 4487SOL    HW214361   1.998   3.048   6.755
 4488SOL     OW14362   0.816   3.886   3.503
 4488SOL    HW114363   0.895   3.946   3.488
 4488SOL    HW214364   0.849   3.793   3.521
 4489SOL     OW14365   4.888   5.460   4.901
 4489SOL    HW114366   4.944   5.499   4.829
 4489SOL    HW214367   4.835   5.532   4.946
 4490SOL     OW14368   5.370   1.999   1.074
 4490SOL    HW114369   5.460   2.040   1.058
 4490SOL    HW214370   5.351   1.996   1.172
 4491SOL     OW14371   0.498   3.469   3.089
 4491SOL    HW114372   0.538   3.551   3.129
 4491SOL    HW214373   0.425   3.435   3.148
 4492SOL     OW14374   5.796   0.686   1.434
 4492SOL    HW114375   5.881   0.669   1.384
 4492SOL    HW214376   5.790   0.783   1.457
 4493SOL     OW14377   5.369   6.782   4.876
 4493SOL    HW114378   5.402   6.806   4.784
 4493SOL    HW214379   5.368   6.682   4.886
 4494SOL     OW14380   0.717   0.510   5.839
 4494SOL    HW114381   0.773   0.592   5.849
 4494SOL    HW214382   0.730   0.451   5.919
 4495SOL     OW14383   3.202   5.842   2.340
 4495SOL    HW114384   3.143   5.775   2.295
 4495SOL    HW214385   3.284   5.797   2.375
 4496SOL     OW14386   4.352   6.136   6.540
 4496SOL    HW114387   4.432   6.142   6.480
 4496SOL    HW214388   4.353   6.049   6.588
 4497SOL     OW14389   3.620   2.393   0.038
 4497SOL    HW114390   3.684   2.332   0.083
 4497SOL    HW214391   3.668   2.446   6.993
 4498SOL     OW14392   6.908   5.403   6.375
 4498SOL    HW114393   6.879   5.498   6.364
 4498SOL    HW214394   6.939   5.388   6.469
 4499SOL     OW14395   6.763   1.531   2.910
 4499SOL    HW114396   6.675   1.563   2.945
 4499SOL    HW214397   6.756   1.517   2.812
 4500SOL     OW14398   4.134   5.026   6.906
 4500SOL    HW114399   4.157   5.120   6.933
 4500SOL    HW214400   4.035   5.013   6.909
 4501SOL     OW14401   6.011   2.110   1.953
 4501SOL    HW114402   5.953   2.029   1.956
 4501SOL    HW214403   6.031   2.141   2.045
 4502SOL     OW14404   0.922   3.535   6.858
 4502SOL    HW114405   0.943   3.462   6.793
 4502SOL    HW214406   0.852   3.595   6.820
 4503SOL     OW14407   2.914   0.054   2.045
 4503SOL    HW114408   2.960   6.991   2.058
 4503SOL    HW214409   2.882   0.060   1.950
 4504SOL     OW14410   6.737   2.167   3.486
 4504SOL    HW114411   6.743   2.090   3.423
 4504SOL    HW214412   6.644   2.172   3.524
 4505SOL     OW14413   6.577   4.852   2.623
 4505SOL    HW114414   6.638   4.773   2.633
 4505SOL    HW214415   6.535   4.850   2.532
 4506SOL     OW14416   4.933   3.009   4.329
 4506SOL    HW114417   4.919   2.990   4.231
 4506SOL    HW214418   5.007   2.952   4.364
 4507SOL     OW14419   6.599   3.194   3.182
 4507SOL    HW114420   6.508   3.153   3.188
 4507SOL    HW214421   6.595   3.290   3.208
 4508SOL     OW14422   0.560   4.401   0.551
 4508SOL    HW114423   0.491   4.338   0.586
 4508SOL    HW214424   0.650   4.358   0.555
 4509SOL     OW14425   4.785   2.202   2.687
 4509SOL    HW114426   4.761   2.131   2.753
 4509SOL    HW214427   4.702   2.245   2.652
 4510SOL     OW14428   4.258   1.642   3.937
 4510SOL    HW114429   4.209   1.592   4.008
 4510SOL    HW214430   4.356   1.625   3.947
 4511SOL     OW14431   6.619   4.006   0.927
 4511SOL    HW114432   6.710   4.046   0.939
 4511SOL    HW214433   6.550   4.070   0.960
 4512SOL     OW14434   3.495   2.167   5.702
 4512SOL    HW114435   3.528   2.104   5.631
 4512SOL    HW214436   3.403   2.198   5.680
 4513SOL     OW14437   0.573   5.972   6.730
 4513SOL    HW114438   0.647   5.982   6.796
 4513SOL    HW214439   0.514   5.896   6.757
 4514SOL     OW14440   3.512   3.239   6.565
 4514SOL    HW114441   3.428   3.294   6.565
 4514SOL    HW214442   3.551   3.238   6.657
 4515SOL     OW14443   5.711   0.708   4.537
 4515SOL    HW114444   5.767   0.721   4.618
 4515SOL    HW214445   5.752   0.637   4.479
 4516SOL     OW14446   3.073   1.446   5.690
 4516SOL    HW114447   3.061   1.347   5.699
 4516SOL    HW214448   2.991   1.486   5.648
 4517SOL     OW14449   4.451   0.155   6.541
 4517SOL    HW114450   4.507   0.210   6.603
 4517SOL    HW214451   4.499   0.071   6.517
 4518SOL     OW14452   1.596   6.543   0.758
 4518SOL    HW114453   1.572   6.640   0.761
 4518SOL    HW214454   1.513   6.489   0.746
 4519SOL     OW14455   5.093   6.872   0.431
 4519SOL    HW114456   4.993   6.883   0.437
 4519SOL    HW214457   5.136   6.920   0.507
 4520SOL     OW14458   4.098   5.777   5.349
 4520SOL    HW114459   4.184   5.750   5.392
 4520SOL    HW214460   4.116   5.849   5.282
 4521SOL     OW14461   5.019   2.104   4.830
 4521SOL    HW114462   5.024   2.203   4.820
 4521SOL    HW214463   5.073   2.075   4.909
 4522SOL     OW14464   5.567   3.730   4.011
 4522SOL    HW114465   5.587   3.647   4.063
 4522SOL    HW214466   5.626   3.733   3.930
 4523SOL     OW14467   0.867   3.633   6.549
 4523SOL    HW114468   0.771   3.618   6.528
 4523SOL    HW214469   0.920   3.638   6.464
 4524SOL     OW14470   0.464   3.817   2.987
 4524SOL    HW114471   0.550   3.789   3.030
 4524SOL    HW214472   0.474   3.813   2.887
 4525SOL     OW14473   1.944   2.999   5.665
 4525SOL    HW114474   1.962   2.911   5.620
 4525SOL    HW214475   2.030   3.040   5.694
 4526SOL     OW14476   0.601   0.516   6.734
 4526SOL    HW114477   0.622   0.612   6.715
 4526SOL    HW214478   0.588   0.503   6.832
 4527SOL     OW14479   6.692   6.970   2.615
 4527SOL    HW114480   6.697   7.016   2.704
 4527SOL    HW214481   6.597   6.968   2.584
 4528SOL     OW14482   4.185   0.587   5.860
 4528SOL    HW114483   4.119   0.580   5.934
 4528SOL    HW214484   4.216   0.496   5.833
 4529SOL     OW14485   2.937   1.244   6.062
 4529SOL    HW114486   2.855   1.214   6.111
 4529SOL    HW214487   2.915   1.323   6.005
 4530SOL     OW14488   2.192   6.332   4.877
 4530SOL    HW114489   2.129   6.300   4.806
 4530SOL    HW214490   2.233   6.418   4.848
 4531SOL     OW14491   1.008   4.358   6.781
 4531SOL    HW114492   1.023   4.429   6.850
 4531SOL    HW214493   0.914   4.362   6.749
 4532SOL     OW14494   4.845   0.799   2.869
 4532SOL    HW114495   4.786   0.735   2.820
 4532SOL    HW214496   4.931   0.809   2.820
 4533SOL     OW14497   1.569   0.890   2.998
 4533SOL    HW114498   1.566   0.989   2.979
 4533SOL    HW214499   1.662   0.863   3.022
 4534SOL     OW14500   4.521   1.722   4.600
 4534SOL    HW114501   4.546   1.634   4.560
 4534SOL    HW214502   4.512   1.790   4.527
 4535SOL     OW14503   3.479   1.833   0.695
 4535SOL    HW114504   3.571   1.870   0.690
 4535SOL    HW214505   3.480   1.745   0.743
 4536SOL     OW14506   2.197   2.150   5.618
 4536SOL    HW114507   2.267   2.151   5.547
 4536SOL    HW214508   2.115   2.196   5.586
 4537SOL     OW14509   3.435   3.836   3.405
 4537SOL    HW114510   3.466   3.903   3.473
 4537SOL    HW214511   3.336   3.829   3.408
 4538SOL     OW14512   0.791   2.645   2.060
 4538SOL    HW114513   0.753   2.731   2.096
 4538SOL    HW214514   0.805   2.654   1.962
 4539SOL     OW14515   2.677   5.149   4.847
 4539SOL    HW114516   2.583   5.131   4.816
 4539SOL    HW214517   2.678   5.232   4.902
 4540SOL     OW14518   0.468   0.796   0.539
 4540SOL    HW114519   0.432   0.703   0.545
 4540SOL    HW214520   0.563   0.794   0.509
 4541SOL     OW14521   4.142   1.442   6.926
 4541SOL    HW114522   4.228   1.406   6.890
 4541SOL    HW214523   4.067   1.382   6.897
 4542SOL     OW14524   6.893   2.648   0.863
 4542SOL    HW114525   6.881   2.745   0.881
 4542SOL    HW214526   6.959   2.610   0.928
 4543SOL     OW14527   4.420   2.169   0.799
 4543SOL    HW114528   4.502   2.197   0.750
 4543SOL    HW214529   4.426   2.071   0.822
 4544SOL     OW14530   4.872   4.312   0.779
 4544SOL    HW114531   4.910   4.373   0.849
 4544SOL    HW214532   4.772   4.320   0.779
 4545SOL     OW14533   0.914   4.538   5.032
 4545SOL    HW114534   0.855   4.593   4.973
 4545SOL    HW214535   0.888   4.442   5.025
 4546SOL     OW14536   2.846   1.446   5.934
 4546SOL    HW114537   2.901   1.529   5.946
 4546SOL    HW214538   2.794   1.451   5.849
 4547SOL     OW14539   6.419   0.863   6.927
 4547SOL    HW114540   6.382   0.770   6.928
 4547SOL    HW214541   6.415   0.899   6.833
 4548SOL     OW14542   2.489   2.602   3.156
 4548SOL    HW114543   2.446   2.690   3.179
 4548SOL    HW214544   2.477   2.584   3.058
 4549SOL     OW14545   5.070   4.219   2.782
 4549SOL    HW114546   5.077   4.271   2.697
 4549SOL    HW214547   5.079   4.281   2.860
 4550SOL     OW14548   0.561   4.701   3.425
 4550SOL    HW114549   0.632   4.680   3.492
 4550SOL    HW214550   0.514   4.616   3.399
 4551SOL     OW14551   1.336   3.794   4.980
 4551SOL    HW114552   1.396   3.715   4.964
 4551SOL    HW214553   1.389   3.878   4.970
 4552SOL     OW14554   6.324   1.473   1.510
 4552SOL    HW114555   6.268   1.502   1.588
 4552SOL    HW214556   6.289   1.386   1.475
 4553SOL     OW14557   5.180   4.732   6.409
 4553SOL    HW114558   5.100   4.782   6.441
 4553SOL    HW214559   5.250   4.733   6.480
 4554SOL     OW14560   0.287   6.443   1.242
 4554SOL    HW114561   0.323   6.443   1.335
 4554SOL    HW214562   0.305   6.531   1.199
 4555SOL     OW14563   1.349   1.436   6.747
 4555SOL    HW114564   1.290   1.479   6.678
 4555SOL    HW214565   1.325   1.340   6.756
 4556SOL     OW14566   6.269   3.131   5.780
 4556SOL    HW114567   6.176   3.098   5.795
 4556SOL    HW214568   6.306   3.090   5.696
 4557SOL     OW14569   6.103   4.984   4.571
 4557SOL    HW114570   6.037   4.958   4.642
 4557SOL    HW214571   6.062   5.053   4.512
 4558SOL     OW14572   6.553   2.886   4.944
 4558SOL    HW114573   6.465   2.867   4.900
 4558SOL    HW214574   6.583   2.805   4.994
 4559SOL     OW14575   0.411   2.640   3.087
 4559SOL    HW114576   0.380   2.733   3.109
 4559SOL    HW214577   0.485   2.645   3.021
 4560SOL     OW14578   6.468   4.353   2.053
 4560SOL    HW114579   6.477   4.283   2.124
 4560SOL    HW214580   6.452   4.309   1.965
 4561SOL     OW14581   3.132   2.127   4.360
 4561SOL    HW114582   3.180   2.192   4.419
 4561SOL    HW214583   3.191   2.100   4.284
 4562SOL     OW14584   2.230   6.370   0.350
 4562SOL    HW114585   2.298   6.383   0.423
 4562SOL    HW214586   2.260   6.418   0.268
 4563SOL     OW14587   6.900   3.227   1.959
 4563SOL    HW114588   6.914   3.213   2.057
 4563SOL    HW214589   6.907   3.139   1.911
 4564SOL     OW14590   7.008   4.412   1.909
 4564SOL    HW114591   6.923   4.381   1.866
 4564SOL    HW214592   7.024   4.508   1.886
 4565SOL     OW14593   1.763   0.215   4.714
 4565SOL    HW114594   1.825   0.176   4.645
 4565SOL    HW214595   1.817   0.249   4.791
 4566SOL     OW14596   0.270   4.194   0.964
 4566SOL    HW114597   0.360   4.209   0.922
 4566SOL    HW214598   0.210   4.271   0.942
 4567SOL     OW14599   6.723   0.202   6.346
 4567SOL    HW114600   6.821   0.221   6.335
 4567SOL    HW214601   6.709   0.143   6.425
 4568SOL     OW14602   0.973   4.186   3.815
 4568SOL    HW114603   1.027   4.102   3.819
 4568SOL    HW214604   0.998   4.246   3.890
 4569SOL     OW14605   3.365   0.894   3.214
 4569SOL    HW114606   3.449   0.945   3.234
 4569SOL    HW214607   3.289   0.958   3.207
 4570SOL     OW14608   6.141   5.564   1.565
 4570SOL    HW114609   6.084   5.513   1.502
 4570SOL    HW214610   6.223   5.511   1.586
 4571SOL     OW14611   4.644   2.933   6.451
 4571SOL    HW114612   4.645   3.021   6.498
 4571SOL    HW214613   4.713   2.872   6.490
 4572SOL     OW14614   2.455   2.473   6.592
 4572SOL    HW114615   2.545   2.490   6.632
 4572SOL    HW214616   2.427   2.379   6.610
 4573SOL     OW14617   0.867   6.222   0.742
 4573SOL    HW114618   0.871   6.169   0.657
 4573SOL    HW214619   0.826   6.311   0.723
 4574SOL     OW14620   5.664   3.889   6.968
 4574SOL    HW114621   5.662   3.831   0.024
 4574SOL    HW214622   5.593   3.859   6.904
 4575SOL     OW14623   5.950   1.121   4.449
 4575SOL    HW114624   6.016   1.074   4.509
 4575SOL    HW214625   5.881   1.056   4.418
 4576SOL     OW14626   3.087   4.871   4.983
 4576SOL    HW114627   2.987   4.864   4.976
 4576SOL    HW214628   3.120   4.810   5.054
 4577SOL     OW14629   1.413   1.993   3.076
 4577SOL    HW114630   1.494   1.999   3.134
 4577SOL    HW214631   1.357   1.915   3.104
 4578SOL     OW14632   1.158   0.655   2.822
 4578SOL    HW114633   1.149   0.600   2.905
 4578SOL    HW214634   1.197   0.599   2.749
 4579SOL     OW14635   4.573   0.366   2.101
 4579SOL    HW114636   4.643   0.329   2.162
 4579SOL    HW214637   4.536   0.451   2.140
 4580SOL     OW14638   5.640   3.703   0.145
 4580SOL    HW114639   5.707   3.633   0.170
 4580SOL    HW214640   5.636   3.773   0.217
 4581SOL     OW14641   2.864   6.747   2.373
 4581SOL    HW114642   2.918   6.668   2.344
 4581SOL    HW214643   2.822   6.728   2.462
 4582SOL     OW14644   5.267   0.538   2.788
 4582SOL    HW114645   5.349   0.579   2.747
 4582SOL    HW214646   5.239   0.459   2.734
 4583SOL     OW14647   1.913   0.784   6.419
 4583SOL    HW114648   1.960   0.741   6.343
 4583SOL    HW214649   1.815   0.788   6.399
 4584SOL     OW14650   1.571   0.098   6.059
 4584SOL    HW114651   1.651   0.048   6.094
 4584SOL    HW214652   1.507   0.115   6.134
 4585SOL     OW14653   1.836   3.471   3.176
 4585SOL    HW114654   1.810   3.433   3.265
 4585SOL    HW214655   1.935   3.474   3.168
 4586SOL     OW14656   4.976   4.097   0.570
 4586SOL    HW114657   4.971   4.191   0.603
 4586SOL    HW214658   4.884   4.065   0.546
 4587SOL     OW14659   3.044   3.646   5.062
 4587SOL    HW114660   3.015   3.611   5.151
 4587SOL    HW214661   2.994   3.730   5.042
 4588SOL     OW14662   3.211   3.527   5.864
 4588SOL    HW114663   3.124   3.502   5.821
 4588SOL    HW214664   3.194   3.566   5.954
 4589SOL     OW14665   5.284   5.764   2.092
 4589SOL    HW114666   5.288   5.791   1.996
 4589SOL    HW214667   5.302   5.666   2.101
 4590SOL     OW14668   3.435   5.600   1.795
 4590SOL    HW114669   3.388   5.619   1.709
 4590SOL    HW214670   3.414   5.673   1.861
 4591SOL     OW14671   2.463   0.252   5.819
 4591SOL    HW114672   2.506   0.262   5.730
 4591SOL    HW214673   2.529   0.216   5.885
 4592SOL     OW14674   2.611   1.762   4.299
 4592SOL    HW114675   2.523   1.804   4.280
 4592SOL    HW214676   2.679   1.796   4.234
 4593SOL     OW14677   6.953   5.805   2.991
 4593SOL    HW114678   6.997   5.734   3.047
 4593SOL    HW214679   6.879   5.847   3.044
 4594SOL     OW14680   2.638   6.839   2.899
 4594SOL    HW114681   2.561   6.897   2.874
 4594SOL    HW214682   2.691   6.816   2.817
 4595SOL     OW14683   4.803   1.984   5.921
 4595SOL    HW114684   4.766   1.892   5.908
 4595SOL    HW214685   4.812   2.030   5.833
 4596SOL     OW14686   0.620   0.602   1.780
 4596SOL    HW114687   0.669   0.593   1.867
 4596SOL    HW214688   0.525   0.627   1.798
 4597SOL     OW14689   2.648   5.214   0.180
 4597SOL    HW114690   2.591   5.289   0.215
 4597SOL    HW214691   2.624   5.194   0.085
 4598SOL     OW14692   2.341   5.337   0.161
 4598SOL    HW114693   2.304   5.311   0.072
 4598SOL    HW214694   2.396   5.420   0.152
 4599SOL     OW14695   2.107   3.529   2.559
 4599SOL    HW114696   2.045   3.499   2.487
 4599SOL    HW214697   2.132   3.450   2.616
 4600SOL     OW14698   0.081   6.745   6.103
 4600SOL    HW114699   0.130   6.693   6.174
 4600SOL    HW214700   0.004   6.690   6.070
 4601SOL     OW14701   0.789   0.982   4.343
 4601SOL    HW114702   0.871   0.986   4.399
 4601SOL    HW214703   0.756   0.888   4.337
 4602SOL     OW14704   2.323   0.407   6.510
 4602SOL    HW114705   2.253   0.453   6.456
 4602SOL    HW214706   2.391   0.474   6.540
 4603SOL     OW14707   4.128   6.121   1.363
 4603SOL    HW114708   4.156   6.189   1.296
 4603SOL    HW214709   4.030   6.103   1.352
 4604SOL     OW14710   4.989   6.923   6.194
 4604SOL    HW114711   4.908   6.948   6.140
 4604SOL    HW214712   4.981   6.961   6.286
 4605SOL     OW14713   2.500   6.883   1.750
 4605SOL    HW114714   2.544   6.801   1.786
 4605SOL    HW214715   2.430   6.856   1.683
 4606SOL     OW14716   0.416   6.804   2.723
 4606SOL    HW114717   0.391   6.798   2.820
 4606SOL    HW214718   0.481   6.731   2.701
 4607SOL     OW14719   1.922   3.703   2.884
 4607SOL    HW114720   1.848   3.769   2.896
 4607SOL    HW214721   1.887   3.610   2.895
 4608SOL     OW14722   0.401   3.299   4.967
 4608SOL    HW114723   0.402   3.251   4.879
 4608SOL    HW214724   0.403   3.398   4.952
 4609SOL     OW14725   4.148   6.088   6.281
 4609SOL    HW114726   4.208   6.098   6.360
 4609SOL    HW214727   4.183   6.143   6.205
 4610SOL     OW14728   5.379   2.456   6.805
 4610SOL    HW114729   5.434   2.503   6.736
 4610SOL    HW214730   5.409   2.361   6.814
 4611SOL     OW14731   0.388   0.926   6.149
 4611SOL    HW114732   0.443   1.006   6.128
 4611SOL    HW214733   0.335   0.899   6.069
 4612SOL     OW14734   2.340   5.957   2.350
 4612SOL    HW114735   2.250   5.951   2.306
 4612SOL    HW214736   2.330   6.006   2.437
 4613SOL     OW14737   2.234   4.581   2.560
 4613SOL    HW114738   2.277   4.623   2.479
 4613SOL    HW214739   2.151   4.534   2.532
 4614SOL     OW14740   6.193   3.349   4.043
 4614SOL    HW114741   6.249   3.422   4.003
 4614SOL    HW214742   6.121   3.390   4.099
 4615SOL     OW14743   0.921   0.992   1.243
 4615SOL    HW114744   0.915   0.967   1.339
 4615SOL    HW214745   1.001   1.050   1.228
 4616SOL     OW14746   6.474   2.532   5.259
 4616SOL    HW114747   6.384   2.493   5.279
 4616SOL    HW214748   6.545   2.471   5.293
 4617SOL     OW14749   0.576   2.476   2.106
 4617SOL    HW114750   0.658   2.529   2.126
 4617SOL    HW214751   0.546   2.494   2.012
 4618SOL     OW14752   2.750   3.655   5.459
 4618SOL    HW114753   2.719   3.722   5.392
 4618SOL    HW214754   2.830   3.691   5.508
 4619SOL     OW14755   3.689   6.102   3.754
 4619SOL    HW114756   3.652   6.090   3.662
 4619SOL    HW214757   3.618   6.083   3.822
 4620SOL     OW14758   0.683   5.605   1.348
 4620SOL    HW114759   0.706   5.669   1.275
 4620SOL    HW214760   0.592   5.626   1.384
 4621SOL     OW14761   4.732   0.247   2.299
 4621SOL    HW114762   4.719   0.300   2.383
 4621SOL    HW214763   4.704   0.153   2.314
 4622SOL     OW14764   4.377   5.486   0.644
 4622SOL    HW114765   4.317   5.411   0.671
 4622SOL    HW214766   4.466   5.448   0.617
 4623SOL     OW14767   3.790   5.252   1.310
 4623SOL    HW114768   3.836   5.228   1.224
 4623SOL    HW214769   3.708   5.196   1.320
 4624SOL     OW14770   3.701   1.513   3.448
 4624SOL    HW114771   3.614   1.493   3.404
 4624SOL    HW214772   3.758   1.431   3.448
 4625SOL     OW14773   1.782   5.461   1.917
 4625SOL    HW114774   1.695   5.472   1.965
 4625SOL    HW214775   1.770   5.486   1.821
 4626SOL     OW14776   4.026   3.854   1.934
 4626SOL    HW114777   3.964   3.797   1.880
 4626SOL    HW214778   3.992   3.860   2.028
 4627SOL     OW14779   0.418   5.873   5.018
 4627SOL    HW114780   0.441   5.809   4.944
 4627SOL    HW214781   0.499   5.926   5.043
 4628SOL     OW14782   4.756   4.840   3.473
 4628SOL    HW114783   4.723   4.792   3.554
 4628SOL    HW214784   4.750   4.779   3.393
 4629SOL     OW14785   2.295   5.886   6.492
 4629SOL    HW114786   2.243   5.806   6.461
 4629SOL    HW214787   2.369   5.904   6.428
 4630SOL     OW14788   0.881   5.596   2.204
 4630SOL    HW114789   0.800   5.619   2.259
 4630SOL    HW214790   0.961   5.644   2.241
 4631SOL     OW14791   0.748   0.668   3.967
 4631SOL    HW114792   0.742   0.649   4.065
 4631SOL    HW214793   0.675   0.731   3.941
 4632SOL     OW14794   3.012   5.370   2.607
 4632SOL    HW114795   3.081   5.384   2.536
 4632SOL    HW214796   2.998   5.272   2.621
 4633SOL     OW14797   5.231   1.443   4.130
 4633SOL    HW114798   5.147   1.477   4.089
 4633SOL    HW214799   5.276   1.381   4.066
 4634SOL     OW14800   2.912   3.856   4.970
 4634SOL    HW114801   2.956   3.903   4.894
 4634SOL    HW214802   2.826   3.902   4.992
 4635SOL     OW14803   4.406   5.244   0.886
 4635SOL    HW114804   4.455   5.307   0.946
 4635SOL    HW214805   4.310   5.241   0.914
 4636SOL     OW14806   1.558   5.399   0.853
 4636SOL    HW114807   1.562   5.484   0.800
 4636SOL    HW214808   1.505   5.331   0.803
 4637SOL     OW14809   1.734   6.890   1.154
 4637SOL    HW114810   1.765   6.822   1.220
 4637SOL    HW214811   1.809   6.911   1.091
 4638SOL     OW14812   3.953   5.441   0.249
 4638SOL    HW114813   4.003   5.475   0.329
 4638SOL    HW214814   3.934   5.344   0.261
 4639SOL     OW14815   2.541   2.368   0.240
 4639SOL    HW114816   2.581   2.277   0.227
 4639SOL    HW214817   2.515   2.405   0.151
 4640SOL     OW14818   5.883   2.998   5.303
 4640SOL    HW114819   5.853   3.093   5.309
 4640SOL    HW214820   5.812   2.943   5.258
 4641SOL     OW14821   1.510   6.763   3.683
 4641SOL    HW114822   1.482   6.673   3.648
 4641SOL    HW214823   1.433   6.805   3.732
 4642SOL     OW14824   1.867   2.041   4.006
 4642SOL    HW114825   1.786   2.059   4.062
 4642SOL    HW214826   1.875   1.943   3.990
 4643SOL     OW14827   6.661   2.232   0.317
 4643SOL    HW114828   6.721   2.301   0.278
 4643SOL    HW214829   6.654   2.154   0.254
 4644SOL     OW14830   0.650   0.896   6.306
 4644SOL    HW114831   0.735   0.852   6.276
 4644SOL    HW214832   0.576   0.872   6.244
 4645SOL     OW14833   1.774   0.944   4.039
 4645SOL    HW114834   1.843   0.875   4.060
 4645SOL    HW214835   1.690   0.898   4.008
 4646SOL     OW14836   2.518   5.272   4.468
 4646SOL    HW114837   2.587   5.233   4.406
 4646SOL    HW214838   2.440   5.304   4.416
 4647SOL     OW14839   1.751   6.370   2.820
 4647SOL    HW114840   1.808   6.443   2.857
 4647SOL    HW214841   1.665   6.408   2.785
 4648SOL     OW14842   3.051   0.823   3.953
 4648SOL    HW114843   3.122   0.761   3.985
 4648SOL    HW214844   3.059   0.911   4.001
 4649SOL     OW14845   6.137   1.266   0.765
 4649SOL    HW114846   6.190   1.196   0.718
 4649SOL    HW214847   6.113   1.233   0.856
 4650SOL     OW14848   4.840   5.964   1.459
 4650SOL    HW114849   4.741   5.971   1.443
 4650SOL    HW214850   4.882   5.914   1.383
 4651SOL     OW14851   6.362   3.713   5.986
 4651SOL    HW114852   6.425   3.637   5.973
 4651SOL    HW214853   6.272   3.679   6.013
 4652SOL     OW14854   0.070   5.547   4.354
 4652SOL    HW114855   0.047   5.458   4.394
 4652SOL    HW214856   0.109   5.533   4.263
 4653SOL     OW14857   4.817   6.043   0.262
 4653SOL    HW114858   4.734   5.992   0.244
 4653SOL    HW214859   4.849   6.024   0.355
 4654SOL     OW14860   6.712   6.933   4.950
 4654SOL    HW114861   6.771   6.858   4.920
 4654SOL    HW214862   6.711   6.936   5.050
 4655SOL     OW14863   5.308   3.033   1.664
 4655SOL    HW114864   5.293   2.970   1.740
 4655SOL    HW214865   5.228   3.094   1.655
 4656SOL     OW14866   0.456   0.335   1.363
 4656SOL    HW114867   0.511   0.399   1.309
 4656SOL    HW214868   0.471   0.351   1.460
 4657SOL     OW14869   5.319   6.768   1.769
 4657SOL    HW114870   5.377   6.730   1.698
 4657SOL    HW214871   5.348   6.734   1.858
 4658SOL     OW14872   2.592   2.930   5.623
 4658SOL    HW114873   2.509   2.986   5.620
 4658SOL    HW214874   2.634   2.938   5.714
 4659SOL     OW14875   3.426   4.232   1.210
 4659SOL    HW114876   3.475   4.169   1.271
 4659SOL    HW214877   3.464   4.224   1.117
 4660SOL     OW14878   1.674   0.019   3.691
 4660SOL    HW114879   1.585   0.023   3.737
 4660SOL    HW214880   1.696   0.109   3.654
 4661SOL     OW14881   2.394   3.925   5.603
 4661SOL    HW114882   2.474   3.967   5.645
 4661SOL    HW214883   2.372   3.839   5.650
 4662SOL     OW14884   3.140   0.159   5.278
 4662SOL    HW114885   3.054   0.209   5.278
 4662SOL    HW214886   3.164   0.134   5.371
 4663SOL     OW14887   1.003   6.877   0.241
 4663SOL    HW114888   1.058   6.940   0.296
 4663SOL    HW214889   0.908   6.880   0.272
 4664SOL     OW14890   6.232   6.783   0.848
 4664SOL    HW114891   6.247   6.825   0.938
 4664SOL    HW214892   6.144   6.736   0.847
 4665SOL     OW14893   2.024   0.952   5.851
 4665SOL    HW114894   1.928   0.924   5.847
 4665SOL    HW214895   2.030   1.047   5.879
 4666SOL     OW14896   1.919   2.602   6.907
 4666SOL    HW114897   1.995   2.557   6.859
 4666SOL    HW214898   1.844   2.537   6.917
 4667SOL     OW14899   6.454   3.855   1.599
 4667SOL    HW114900   6.545   3.845   1.638
 4667SOL    HW214901   6.385   3.835   1.669
 4668SOL     OW14902   4.242   2.121   5.025
 4668SOL    HW114903   4.156   2.071   5.020
 4668SOL    HW214904   4.229   2.212   4.986
 4669SOL     OW14905   5.129   0.327   0.459
 4669SOL    HW114906   5.068   0.402   0.481
 4669SOL    HW214907   5.221   0.362   0.439
 4670SOL     OW14908   1.549   3.516   0.300
 4670SOL    HW114909   1.465   3.569   0.315
 4670SOL    HW214910   1.526   3.421   0.280
 4671SOL     OW14911   0.772   3.258   6.992
 4671SOL    HW114912   0.865   3.238   6.961
 4671SOL    HW214913   0.772   3.345   0.018
 4672SOL     OW14914   3.748   4.637   5.433
 4672SOL    HW114915   3.803   4.593   5.504
 4672SOL    HW214916   3.699   4.715   5.473
 4673SOL     OW14917   5.246   0.398   6.993
 4673SOL    HW114918   5.217   0.404   6.898
 4673SOL    HW214919   5.172   0.360   0.024
 4674SOL     OW14920   6.921   1.161   0.638
 4674SOL    HW114921   6.935   1.252   0.597
 4674SOL    HW214922   7.005   1.131   0.682
 4675SOL     OW14923   3.427   6.373   6.532
 4675SOL    HW114924   3.476   6.435   6.471
 4675SOL    HW214925   3.487   6.296   6.555
 4676SOL     OW14926   0.840   6.476   5.057
 4676SOL    HW114927   0.743   6.490   5.076
 4676SOL    HW214928   0.893   6.553   5.093
 4677SOL     OW14929   3.052   0.145   6.747
 4677SOL    HW114930   2.987   0.203   6.697
 4677SOL    HW214931   3.066   0.182   6.838
 4678SOL     OW14932   1.928   5.368   1.560
 4678SOL    HW114933   1.917   5.286   1.617
 4678SOL    HW214934   1.945   5.341   1.465
 4679SOL     OW14935   2.754   1.364   6.332
 4679SOL    HW114936   2.810   1.424   6.274
 4679SOL    HW214937   2.784   1.373   6.427
 4680SOL     OW14938   1.967   5.286   1.276
 4680SOL    HW114939   2.040   5.220   1.261
 4680SOL    HW214940   1.879   5.241   1.266
 4681SOL     OW14941   7.023   5.678   5.169
 4681SOL    HW114942   0.070   5.714   5.228
 4681SOL    HW214943   6.980   5.754   5.119
 4682SOL     OW14944   3.904   6.125   0.021
 4682SOL    HW114945   3.881   6.057   0.090
 4682SOL    HW214946   3.898   6.217   0.061
 4683SOL     OW14947   6.003   3.791   2.393
 4683SOL    HW114948   6.006   3.891   2.391
 4683SOL    HW214949   5.908   3.761   2.383
 4684SOL     OW14950   1.389   2.450   4.070
 4684SOL    HW114951   1.329   2.379   4.107
 4684SOL    HW214952   1.482   2.437   4.106
 4685SOL     OW14953   6.336   5.454   4.453
 4685SOL    HW114954   6.286   5.389   4.511
 4685SOL    HW214955   6.385   5.404   4.382
 4686SOL     OW14956   5.116   6.150   0.185
 4686SOL    HW114957   5.029   6.104   0.169
 4686SOL    HW214958   5.138   6.207   0.107
 4687SOL     OW14959   6.497   4.064   4.343
 4687SOL    HW114960   6.499   4.062   4.243
 4687SOL    HW214961   6.586   4.095   4.377
 4688SOL     OW14962   0.602   3.525   6.401
 4688SOL    HW114963   0.666   3.449   6.390
 4688SOL    HW214964   0.541   3.506   6.478
 4689SOL     OW14965   6.818   0.217   5.671
 4689SOL    HW114966   6.753   0.154   5.713
 4689SOL    HW214967   6.872   0.261   5.742
 4690SOL     OW14968   1.462   0.982   0.234
 4690SOL    HW114969   1.510   1.069   0.231
 4690SOL    HW214970   1.492   0.925   0.157
 4691SOL     OW14971   2.521   4.257   1.123
 4691SOL    HW114972   2.471   4.344   1.122
 4691SOL    HW214973   2.544   4.233   1.217
 4692SOL     OW14974   0.077   5.166   2.938
 4692SOL    HW114975   0.066   5.106   2.859
 4692SOL    HW214976   0.173   5.191   2.947
 4693SOL     OW14977   0.354   1.095   4.464
 4693SOL    HW114978   0.410   1.164   4.417
 4693SOL    HW214979   0.276   1.140   4.508
 4694SOL     OW14980   2.935   0.744   0.287
 4694SOL    HW114981   2.999   0.797   0.232
 4694SOL    HW214982   2.944   0.647   0.264
 4695SOL     OW14983   4.278   2.922   1.641
 4695SOL    HW114984   4.217   2.867   1.585
 4695SOL    HW214985   4.372   2.889   1.632
 4696SOL     OW14986   0.975   3.617   6.272
 4696SOL    HW114987   0.921   3.544   6.228
 4696SOL    HW214988   1.072   3.601   6.254
 4697SOL     OW14989   1.901   3.494   0.661
 4697SOL    HW114990   1.840   3.434   0.713
 4697SOL    HW214991   1.849   3.540   0.589
 4698SOL     OW14992   5.478   4.751   1.598
 4698SOL    HW114993   5.456   4.799   1.513
 4698SOL    HW214994   5.468   4.814   1.675
 4699SOL     OW14995   6.966   6.636   2.181
 4699SOL    HW114996   7.004   6.678   2.264
 4699SOL    HW214997   6.867   6.646   2.181
 4700SOL     OW14998   5.472   1.801   1.384
 4700SOL    HW114999   5.521   1.769   1.465
 4700SOL    HW215000   5.380   1.830   1.410
 4701SOL     OW15001   0.780   1.231   6.748
 4701SOL    HW115002   0.791   1.279   6.661
 4701SOL    HW215003   0.864   1.180   6.768
 4702SOL     OW15004   4.495   3.562   6.700
 4702SOL    HW115005   4.530   3.522   6.785
 4702SOL    HW215006   4.449   3.648   6.720
 4703SOL     OW15007   1.417   1.680   3.454
 4703SOL    HW115008   1.513   1.661   3.473
 4703SOL    HW215009   1.396   1.775   3.479
 4704SOL     OW15010   6.699   6.125   1.154
 4704SOL    HW115011   6.653   6.209   1.125
 4704SOL    HW215012   6.632   6.051   1.160
 4705SOL     OW15013   3.717   2.902   4.520
 4705SOL    HW115014   3.705   3.002   4.520
 4705SOL    HW215015   3.719   2.868   4.613
 4706SOL     OW15016   3.604   5.806   6.527
 4706SOL    HW115017   3.639   5.883   6.474
 4706SOL    HW215018   3.589   5.835   6.621
 4707SOL     OW15019   1.713   5.662   0.961
 4707SOL    HW115020   1.696   5.615   0.874
 4707SOL    HW215021   1.707   5.596   1.036
 4708SOL     OW15022   3.308   2.455   0.434
 4708SOL    HW115023   3.354   2.459   0.346
 4708SOL    HW215024   3.288   2.548   0.466
 4709SOL     OW15025   3.858   4.919   4.968
 4709SOL    HW115026   3.811   4.916   4.879
 4709SOL    HW215027   3.839   4.835   5.019
 4710SOL     OW15028   4.816   1.741   6.573
 4710SOL    HW115029   4.801   1.648   6.539
 4710SOL    HW215030   4.887   1.739   6.643
 4711SOL     OW15031   3.353   6.939   2.505
 4711SOL    HW115032   3.416   6.863   2.524
 4711SOL    HW215033   3.306   6.965   2.589
 4712SOL     OW15034   1.802   4.795   1.331
 4712SOL    HW115035   1.783   4.748   1.245
 4712SOL    HW215036   1.721   4.794   1.389
 4713SOL     OW15037   2.957   5.104   1.389
 4713SOL    HW115038   2.911   5.027   1.344
 4713SOL    HW215039   2.895   5.181   1.394
 4714SOL     OW15040   2.314   1.353   1.244
 4714SOL    HW115041   2.299   1.369   1.342
 4714SOL    HW215042   2.292   1.258   1.222
 4715SOL     OW15043   6.868   2.946   2.789
 4715SOL    HW115044   6.901   3.040   2.787
 4715SOL    HW215045   6.826   2.927   2.878
 4716SOL     OW15046   3.776   5.064   6.563
 4716SOL    HW115047   3.756   5.160   6.584
 4716SOL    HW215048   3.745   5.043   6.470
 4717SOL     OW15049   0.872   5.941   2.225
 4717SOL    HW115050   0.793   5.907   2.176
 4717SOL    HW215051   0.937   5.982   2.161
 4718SOL     OW15052   5.569   2.026   6.548
 4718SOL    HW115053   5.568   2.002   6.645
 4718SOL    HW215054   5.504   2.100   6.531
 4719SOL     OW15055   5.477   3.611   2.944
 4719SOL    HW115056   5.415   3.554   2.997
 4719SOL    HW215057   5.506   3.562   2.862
 4720SOL     OW15058   2.474   6.825   5.481
 4720SOL    HW115059   2.382   6.809   5.445
 4720SOL    HW215060   2.477   6.914   5.526
 4721SOL     OW15061   0.876   2.019   0.857
 4721SOL    HW115062   0.883   2.010   0.757
 4721SOL    HW215063   0.782   2.046   0.881
 4722SOL     OW15064   1.799   6.646   0.540
 4722SOL    HW115065   1.872   6.577   0.540
 4722SOL    HW215066   1.728   6.619   0.605
 4723SOL     OW15067   2.500   6.382   6.126
 4723SOL    HW115068   2.440   6.302   6.122
 4723SOL    HW215069   2.593   6.355   6.101
 4724SOL     OW15070   4.115   6.664   2.422
 4724SOL    HW115071   4.163   6.580   2.447
 4724SOL    HW215072   4.020   6.658   2.451
 4725SOL     OW15073   5.168   6.542   3.184
 4725SOL    HW115074   5.222   6.495   3.254
 4725SOL    HW215075   5.169   6.641   3.203
 4726SOL     OW15076   1.079   3.923   6.607
 4726SOL    HW115077   0.991   3.903   6.563
 4726SOL    HW215078   1.106   4.017   6.585
 4727SOL     OW15079   6.580   5.803   0.294
 4727SOL    HW115080   6.637   5.789   0.213
 4727SOL    HW215081   6.600   5.732   0.361
 4728SOL     OW15082   6.222   1.494   0.419
 4728SOL    HW115083   6.194   1.406   0.379
 4728SOL    HW215084   6.146   1.559   0.413
 4729SOL     OW15085   1.919   0.440   2.700
 4729SOL    HW115086   1.980   0.506   2.656
 4729SOL    HW215087   1.903   0.363   2.638
 4730SOL     OW15088   2.510   5.924   5.414
 4730SOL    HW115089   2.563   5.855   5.365
 4730SOL    HW215090   2.537   6.015   5.383
 4731SOL     OW15091   5.769   0.865   5.316
 4731SOL    HW115092   5.865   0.854   5.342
 4731SOL    HW215093   5.764   0.914   5.229
 4732SOL     OW15094   6.694   3.905   6.662
 4732SOL    HW115095   6.781   3.879   6.621
 4732SOL    HW215096   6.709   3.938   6.755
 4733SOL     OW15097   0.217   3.428   2.803
 4733SOL    HW115098   0.198   3.500   2.736
 4733SOL    HW215099   0.150   3.354   2.791
 4734SOL     OW15100   5.163   3.152   6.841
 4734SOL    HW115101   5.066   3.163   6.820
 4734SOL    HW215102   5.180   3.060   6.875
 4735SOL     OW15103   0.891   4.035   4.281
 4735SOL    HW115104   0.890   4.135   4.286
 4735SOL    HW215105   0.957   4.006   4.211
 4736SOL     OW15106   6.971   0.992   6.563
 4736SOL    HW115107   6.964   1.089   6.539
 4736SOL    HW215108   6.945   0.937   6.484
 4737SOL     OW15109   2.554   4.635   1.848
 4737SOL    HW115110   2.639   4.637   1.900
 4737SOL    HW215111   2.482   4.595   1.905
 4738SOL     OW15112   6.576   6.394   1.504
 4738SOL    HW115113   6.515   6.470   1.481
 4738SOL    HW215114   6.670   6.427   1.510
 4739SOL     OW15115   4.083   0.712   2.209
 4739SOL    HW115116   3.987   0.720   2.182
 4739SOL    HW215117   4.101   0.771   2.287
 4740SOL     OW15118   0.993   1.932   2.633
 4740SOL    HW115119   0.948   1.941   2.723
 4740SOL    HW215120   0.939   1.982   2.565
 4741SOL     OW15121   4.103   2.388   1.719
 4741SOL    HW115122   4.084   2.468   1.662
 4741SOL    HW215123   4.185   2.404   1.774
 4742SOL     OW15124   2.763   6.802   0.330
 4742SOL    HW115125   2.684   6.797   0.268
 4742SOL    HW215126   2.776   6.898   0.358
 4743SOL     OW15127   1.771   4.015   2.143
 4743SOL    HW115128   1.857   3.982   2.104
 4743SOL    HW215129   1.706   3.940   2.148
 4744SOL     OW15130   1.969   6.205   0.750
 4744SOL    HW115131   2.022   6.136   0.702
 4744SOL    HW215132   1.962   6.288   0.694
 4745SOL     OW15133   2.483   3.944   0.592
 4745SOL    HW115134   2.451   3.850   0.607
 4745SOL    HW215135   2.407   4.007   0.602
 4746SOL     OW15136   4.550   5.177   4.470
 4746SOL    HW115137   4.559   5.078   4.480
 4746SOL    HW215138   4.511   5.216   4.554
 4747SOL     OW15139   1.798   3.129   1.116
 4747SOL    HW115140   1.702   3.121   1.145
 4747SOL    HW215141   1.828   3.042   1.078
 4748SOL     OW15142   1.750   6.264   2.207
 4748SOL    HW115143   1.747   6.216   2.295
 4748SOL    HW215144   1.682   6.338   2.208
 4749SOL     OW15145   2.195   6.713   0.240
 4749SOL    HW115146   2.112   6.766   0.222
 4749SOL    HW215147   2.199   6.634   0.179
 4750SOL     OW15148   6.295   3.181   4.882
 4750SOL    HW115149   6.276   3.272   4.919
 4750SOL    HW215150   6.392   3.160   4.893
 4751SOL     OW15151   4.382   1.476   2.363
 4751SOL    HW115152   4.459   1.535   2.341
 4751SOL    HW215153   4.387   1.449   2.459
 4752SOL     OW15154   4.808   1.934   0.185
 4752SOL    HW115155   4.789   1.984   0.270
 4752SOL    HW215156   4.772   1.986   0.107
 4753SOL     OW15157   1.899   6.694   5.024
 4753SOL    HW115158   1.862   6.604   5.049
 4753SOL    HW215159   1.825   6.762   5.025
 4754SOL     OW15160   4.103   3.869   6.449
 4754SOL    HW115161   4.096   3.966   6.469
 4754SOL    HW215162   4.119   3.856   6.351
 4755SOL     OW15163   1.328   0.540   1.824
 4755SOL    HW115164   1.250   0.569   1.769
 4755SOL    HW215165   1.413   0.567   1.780
 4756SOL     OW15166   6.013   4.554   0.071
 4756SOL    HW115167   5.960   4.632   0.037
 4756SOL    HW215168   5.987   4.536   0.166
 4757SOL     OW15169   1.540   3.233   1.712
 4757SOL    HW115170   1.632   3.206   1.741
 4757SOL    HW215171   1.539   3.248   1.613
 4758SOL     OW15172   1.833   6.945   3.235
 4758SOL    HW115173   1.791   6.854   3.237
 4758SOL    HW215174   1.933   6.934   3.232
 4759SOL     OW15175   0.772   5.062   0.613
 4759SOL    HW115176   0.817   4.976   0.639
 4759SOL    HW215177   0.840   5.135   0.606
 4760SOL     OW15178   1.362   6.952   0.483
 4760SOL    HW115179   1.459   6.967   0.503
 4760SOL    HW215180   1.332   6.866   0.525
 4761SOL     OW15181   0.447   6.836   0.619
 4761SOL    HW115182   0.412   6.744   0.639
 4761SOL    HW215183   0.402   6.871   0.537
 4762SOL     OW15184   1.739   5.235   2.753
 4762SOL    HW115185   1.803   5.223   2.829
 4762SOL    HW215186   1.777   5.192   2.671
 4763SOL     OW15187   4.677   5.663   1.725
 4763SOL    HW115188   4.655   5.587   1.786
 4763SOL    HW215189   4.748   5.635   1.661
 4764SOL     OW15190   4.751   3.835   5.709
 4764SOL    HW115191   4.840   3.858   5.749
 4764SOL    HW215192   4.758   3.836   5.610
 4765SOL     OW15193   3.552   1.846   5.060
 4765SOL    HW115194   3.647   1.851   5.029
 4765SOL    HW215195   3.519   1.752   5.052
 4766SOL     OW15196   6.560   6.655   4.254
 4766SOL    HW115197   6.643   6.649   4.198
 4766SOL    HW215198   6.479   6.654   4.194
 4767SOL     OW15199   2.441   5.149   4.709
 4767SOL    HW115200   2.481   5.199   4.632
 4767SOL    HW215201   2.455   5.051   4.695
 4768SOL     OW15202   4.862   2.807   6.618
 4768SOL    HW115203   4.922   2.864   6.674
 4768SOL    HW215204   4.788   2.771   6.675
 4769SOL     OW15205   3.525   5.787   1.471
 4769SOL    HW115206   3.456   5.754   1.535
 4769SOL    HW215207   3.484   5.854   1.409
 4770SOL     OW15208   6.720   1.961   5.501
 4770SOL    HW115209   6.781   2.037   5.523
 4770SOL    HW215210   6.737   1.931   5.407
 4771SOL     OW15211   2.856   6.961   5.495
 4771SOL    HW115212   2.767   6.947   5.452
 4771SOL    HW215213   2.892   0.025   5.469
 4772SOL     OW15214   2.760   5.424   0.811
 4772SOL    HW115215   2.853   5.442   0.780
 4772SOL    HW215216   2.697   5.431   0.733
 4773SOL     OW15217   2.519   5.680   4.754
 4773SOL    HW115218   2.588   5.685   4.682
 4773SOL    HW215219   2.460   5.601   4.739
 4774SOL     OW15220   1.561   4.016   0.368
 4774SOL    HW115221   1.578   3.964   0.284
 4774SOL    HW215222   1.611   3.974   0.444
 4775SOL     OW15223   5.644   6.384   4.781
 4775SOL    HW115224   5.692   6.347   4.701
 4775SOL    HW215225   5.674   6.478   4.797
 4776SOL     OW15226   1.325   0.968   5.866
 4776SOL    HW115227   1.362   0.874   5.864
 4776SOL    HW215228   1.396   1.032   5.835
 4777SOL     OW15229   0.980   5.807   0.596
 4777SOL    HW115230   0.933   5.742   0.656
 4777SOL    HW215231   0.940   5.898   0.607
 4778SOL     OW15232   0.641   2.220   4.767
 4778SOL    HW115233   0.662   2.145   4.830
 4778SOL    HW215234   0.694   2.209   4.683
 4779SOL     OW15235   6.549   1.173   3.405
 4779SOL    HW115236   6.492   1.094   3.381
 4779SOL    HW215237   6.616   1.190   3.333
 4780SOL     OW15238   5.302   2.589   5.724
 4780SOL    HW115239   5.329   2.678   5.762
 4780SOL    HW215240   5.256   2.536   5.795
 4781SOL     OW15241   1.314   5.622   2.097
 4781SOL    HW115242   1.343   5.716   2.077
 4781SOL    HW215243   1.219   5.622   2.127
 4782SOL     OW15244   5.790   5.444   5.390
 4782SOL    HW115245   5.706   5.410   5.350
 4782SOL    HW215246   5.853   5.470   5.316
 4783SOL     OW15247   6.228   3.669   0.784
 4783SOL    HW115248   6.159   3.628   0.843
 4783SOL    HW215249   6.266   3.750   0.829
 4784SOL     OW15250   5.670   3.127   6.606
 4784SOL    HW115251   5.658   3.081   6.694
 4784SOL    HW215252   5.608   3.086   6.539
 4785SOL     OW15253   0.682   5.925   3.744
 4785SOL    HW115254   0.637   6.010   3.717
 4785SOL    HW215255   0.629   5.847   3.711
 4786SOL     OW15256   2.661   6.948   0.784
 4786SOL    HW115257   2.608   6.952   0.868
 4786SOL    HW215258   2.740   6.888   0.797
 4787SOL     OW15259   4.036   1.801   4.343
 4787SOL    HW115260   3.977   1.835   4.417
 4787SOL    HW215261   4.035   1.865   4.267
 4788SOL     OW15262   6.434   6.300   0.273
 4788SOL    HW115263   6.341   6.324   0.300
 4788SOL    HW215264   6.458   6.211   0.313
 4789SOL     OW15265   5.051   1.054   2.183
 4789SOL    HW115266   5.046   1.126   2.252
 4789SOL    HW215267   4.985   0.982   2.205
 4790SOL     OW15268   5.604   1.757   5.174
 4790SOL    HW115269   5.570   1.667   5.202
 4790SOL    HW215270   5.537   1.802   5.115
 4791SOL     OW15271   0.252   2.803   0.944
 4791SOL    HW115272   0.202   2.834   0.864
 4791SOL    HW215273   0.207   2.837   1.027
 4792SOL     OW15274   1.992   3.847   4.241
 4792SOL    HW115275   1.946   3.838   4.153
 4792SOL    HW215276   2.046   3.765   4.260
 4793SOL     OW15277   1.315   3.920   6.479
 4793SOL    HW115278   1.244   3.874   6.533
 4793SOL    HW215279   1.385   3.956   6.541
 4794SOL     OW15280   5.117   1.088   4.233
 4794SOL    HW115281   5.211   1.056   4.245
 4794SOL    HW215282   5.059   1.049   4.305
 4795SOL     OW15283   0.625   0.668   4.237
 4795SOL    HW115284   0.562   0.594   4.260
 4795SOL    HW215285   0.578   0.756   4.242
 4796SOL     OW15286   3.715   1.345   5.854
 4796SOL    HW115287   3.809   1.332   5.824
 4796SOL    HW215288   3.658   1.375   5.777
 4797SOL     OW15289   0.889   5.302   4.882
 4797SOL    HW115290   0.918   5.396   4.902
 4797SOL    HW215291   0.960   5.256   4.829
 4798SOL     OW15292   5.285   5.135   6.243
 4798SOL    HW115293   5.198   5.099   6.210
 4798SOL    HW215294   5.268   5.214   6.302
 4799SOL     OW15295   3.528   2.397   6.696
 4799SOL    HW115296   3.563   2.327   6.758
 4799SOL    HW215297   3.541   2.488   6.737
 4800SOL     OW15298   1.855   4.835   0.025
 4800SOL    HW115299   1.806   4.815   6.966
 4800SOL    HW215300   1.877   4.750   0.072
 4801SOL     OW15301   5.047   2.485   1.852
 4801SOL    HW115302   5.006   2.395   1.835
 4801SOL    HW215303   5.028   2.546   1.775
 4802SOL     OW15304   0.204   6.204   2.501
 4802SOL    HW115305   0.257   6.151   2.434
 4802SOL    HW215306   0.144   6.267   2.452
 4803SOL     OW15307   5.110   4.211   7.014
 4803SOL    HW115308   5.115   4.181   0.084
 4803SOL    HW215309   5.198   4.250   6.986
 4804SOL     OW15310   5.100   2.014   0.216
 4804SOL    HW115311   5.043   2.009   0.133
 4804SOL    HW215312   5.067   1.947   0.282
 4805SOL     OW15313   6.400   2.463   1.127
 4805SOL    HW115314   6.471   2.394   1.140
 4805SOL    HW215315   6.437   2.554   1.148
 4806SOL     OW15316   1.402   2.948   3.223
 4806SOL    HW115317   1.431   2.958   3.318
 4806SOL    HW215318   1.457   2.876   3.180
 4807SOL     OW15319   1.088   2.942   6.770
 4807SOL    HW115320   1.004   2.941   6.823
 4807SOL    HW215321   1.163   2.978   6.826
 4808SOL     OW15322   3.913   5.935   0.938
 4808SOL    HW115323   3.817   5.939   0.909
 4808SOL    HW215324   3.917   5.914   1.036
 4809SOL     OW15325   3.322   4.805   1.661
 4809SOL    HW115326   3.311   4.872   1.587
 4809SOL    HW215327   3.233   4.772   1.691
 4810SOL     OW15328   1.308   4.181   3.817
 4810SOL    HW115329   1.324   4.248   3.745
 4810SOL    HW215330   1.274   4.096   3.777
 4811SOL     OW15331   3.394   4.035   4.829
 4811SOL    HW115332   3.423   3.994   4.742
 4811SOL    HW215333   3.384   3.962   4.897
 4812SOL     OW15334   0.549   6.633   2.094
 4812SOL    HW115335   0.519   6.651   2.001
 4812SOL    HW215336   0.483   6.671   2.159
 4813SOL     OW15337   6.299   1.745   0.205
 4813SOL    HW115338   6.349   1.662   0.182
 4813SOL    HW215339   6.237   1.727   0.281
 4814SOL     OW15340   6.862   4.276   1.711
 4814SOL    HW115341   6.820   4.189   1.736
 4814SOL    HW215342   6.867   4.284   1.612
 4815SOL     OW15343   5.540   5.237   2.235
 4815SOL    HW115344   5.449   5.197   2.226
 4815SOL    HW215345   5.608   5.175   2.197
 4816SOL     OW15346   1.283   6.644   2.253
 4816SOL    HW115347   1.216   6.717   2.246
 4816SOL    HW215348   1.294   6.618   2.350
 4817SOL     OW15349   3.631   1.363   1.623
 4817SOL    HW115350   3.551   1.327   1.671
 4817SOL    HW215351   3.636   1.462   1.636
 4818SOL     OW15352   2.773   0.457   4.803
 4818SOL    HW115353   2.851   0.480   4.744
 4818SOL    HW215354   2.714   0.392   4.756
 4819SOL     OW15355   2.918   1.585   1.306
 4819SOL    HW115356   2.852   1.543   1.244
 4819SOL    HW215357   3.011   1.560   1.278
 4820SOL     OW15358   0.276   4.018   2.700
 4820SOL    HW115359   0.340   3.943   2.684
 4820SOL    HW215360   0.220   3.997   2.780
 4821SOL     OW15361   6.598   5.545   1.616
 4821SOL    HW115362   6.678   5.582   1.569
 4821SOL    HW215363   6.622   5.522   1.710
 4822SOL     OW15364   2.225   4.046   3.843
 4822SOL    HW115365   2.172   4.117   3.795
 4822SOL    HW215366   2.273   4.087   3.920
 4823SOL     OW15367   0.995   0.308   4.423
 4823SOL    HW115368   0.974   0.257   4.339
 4823SOL    HW215369   1.058   0.255   4.479
 4824SOL     OW15370   5.424   2.246   2.723
 4824SOL    HW115371   5.411   2.301   2.640
 4824SOL    HW215372   5.522   2.238   2.743
 4825SOL     OW15373   1.795   3.468   4.329
 4825SOL    HW115374   1.801   3.546   4.267
 4825SOL    HW215375   1.860   3.479   4.404
 4826SOL     OW15376   0.340   6.579   0.680
 4826SOL    HW115377   0.370   6.517   0.607
 4826SOL    HW215378   0.264   6.536   0.730
 4827SOL     OW15379   4.517   1.049   1.268
 4827SOL    HW115380   4.611   1.019   1.281
 4827SOL    HW215381   4.459   1.008   1.338
 4828SOL     OW15382   5.572   3.386   1.787
 4828SOL    HW115383   5.598   3.459   1.724
 4828SOL    HW215384   5.593   3.414   1.881
 4829SOL     OW15385   3.166   0.809   6.195
 4829SOL    HW115386   3.150   0.749   6.117
 4829SOL    HW215387   3.104   0.783   6.270
 4830SOL     OW15388   4.871   6.262   3.389
 4830SOL    HW115389   4.814   6.201   3.335
 4830SOL    HW215390   4.825   6.350   3.399
 4831SOL     OW15391   6.731   4.479   5.369
 4831SOL    HW115392   6.691   4.570   5.358
 4831SOL    HW215393   6.759   4.465   5.464
 4832SOL     OW15394   3.340   2.887   6.028
 4832SOL    HW115395   3.292   2.918   5.945
 4832SOL    HW215396   3.364   2.790   6.018
 4833SOL     OW15397   4.180   1.414   3.363
 4833SOL    HW115398   4.157   1.450   3.453
 4833SOL    HW215399   4.134   1.468   3.293
 4834SOL     OW15400   4.186   0.802   0.815
 4834SOL    HW115401   4.143   0.743   0.747
 4834SOL    HW215402   4.142   0.789   0.903
 4835SOL     OW15403   1.777   0.008   6.194
 4835SOL    HW115404   1.792   0.070   6.271
 4835SOL    HW215405   1.865   6.996   6.164
 4836SOL     OW15406   5.078   1.497   4.341
 4836SOL    HW115407   5.110   1.551   4.419
 4836SOL    HW215408   5.153   1.487   4.275
 4837SOL     OW15409   2.954   3.009   1.434
 4837SOL    HW115410   2.901   3.004   1.519
 4837SOL    HW215411   3.049   2.984   1.453
 4838SOL     OW15412   3.790   4.889   2.053
 4838SOL    HW115413   3.707   4.859   2.006
 4838SOL    HW215414   3.866   4.889   1.989
 4839SOL     OW15415   0.338   5.095   5.712
 4839SOL    HW115416   0.289   5.168   5.761
 4839SOL    HW215417   0.425   5.131   5.679
 4840SOL     OW15418   5.841   6.418   0.749
 4840SOL    HW115419   5.834   6.319   0.754
 4840SOL    HW215420   5.759   6.455   0.706
 4841SOL     OW15421   3.277   5.730   1.590
 4841SOL    HW115422   3.209   5.663   1.621
 4841SOL    HW215423   3.231   5.816   1.569
 4842SOL     OW15424   3.697   5.603   1.817
 4842SOL    HW115425   3.597   5.594   1.813
 4842SOL    HW215426   3.736   5.522   1.862
 4843SOL     OW15427   0.215   3.821   0.240
 4843SOL    HW115428   0.204   3.749   0.309
 4843SOL    HW215429   0.126   3.865   0.224
 4844SOL     OW15430   6.418   3.918   0.021
 4844SOL    HW115431   6.495   3.971   0.056
 4844SOL    HW215432   6.410   3.833   0.074
 4845SOL     OW15433   6.299   5.550   4.055
 4845SOL    HW115434   6.218   5.604   4.077
 4845SOL    HW215435   6.375   5.579   4.114
 4846SOL     OW15436   0.816   2.916   0.577
 4846SOL    HW115437   0.733   2.942   0.626
 4846SOL    HW215438   0.791   2.884   0.486
 4847SOL     OW15439   4.001   2.175   4.897
 4847SOL    HW115440   3.911   2.133   4.900
 4847SOL    HW215441   4.003   2.255   4.958
 4848SOL     OW15442   2.177   1.275   3.625
 4848SOL    HW115443   2.218   1.197   3.671
 4848SOL    HW215444   2.086   1.251   3.594
 4849SOL     OW15445   1.414   7.017   0.014
 4849SOL    HW115446   1.345   0.055   0.049
 4849SOL    HW215447   1.425   0.005   6.941
 4850SOL     OW15448   3.509   0.416   2.293
 4850SOL    HW115449   3.558   0.376   2.215
 4850SOL    HW215450   3.566   0.488   2.334
 4851SOL     OW15451   4.480   5.855   5.703
 4851SOL    HW115452   4.574   5.858   5.736
 4851SOL    HW215453   4.448   5.948   5.684
 4852SOL     OW15454   1.610   0.848   0.053
 4852SOL    HW115455   1.569   0.776   7.022
 4852SOL    HW215456   1.660   0.807   0.129
 4853SOL     OW15457   3.529   1.569   2.570
 4853SOL    HW115458   3.513   1.476   2.603
 4853SOL    HW215459   3.618   1.573   2.525
 4854SOL     OW15460   4.508   5.339   2.131
 4854SOL    HW115461   4.511   5.360   2.229
 4854SOL    HW215462   4.568   5.402   2.081
 4855SOL     OW15463   6.030   1.743   2.137
 4855SOL    HW115464   5.947   1.752   2.192
 4855SOL    HW215465   6.082   1.828   2.141
 4856SOL     OW15466   3.023   4.823   3.658
 4856SOL    HW115467   2.972   4.764   3.596
 4856SOL    HW215468   2.982   4.819   3.749
 4857SOL     OW15469   0.834   1.898   5.798
 4857SOL    HW115470   0.796   1.890   5.890
 4857SOL    HW215471   0.909   1.832   5.786
 4858SOL     OW15472   2.329   1.687   4.450
 4858SOL    HW115473   2.407   1.663   4.507
 4858SOL    HW215474   2.354   1.762   4.389
 4859SOL     OW15475   1.479   5.822   4.836
 4859SOL    HW115476   1.526   5.736   4.814
 4859SOL    HW215477   1.449   5.820   4.931
 4860SOL     OW15478   4.292   5.227   1.757
 4860SOL    HW115479   4.211   5.195   1.709
 4860SOL    HW215480   4.279   5.218   1.855
 4861SOL     OW15481   5.420   5.532   7.024
 4861SOL    HW115482   5.511   5.523   0.038
 4861SOL    HW215483   5.361   5.459   0.033
 4862SOL     OW15484   1.388   5.197   3.390
 4862SOL    HW115485   1.346   5.287   3.377
 4862SOL    HW215486   1.472   5.207   3.444
 4863SOL     OW15487   5.739   4.302   0.608
 4863SOL    HW115488   5.721   4.211   0.571
 4863SOL    HW215489   5.806   4.296   0.682
 4864SOL     OW15490   3.127   0.789   3.499
 4864SOL    HW115491   3.214   0.795   3.549
 4864SOL    HW215492   3.144   0.751   3.408
 4865SOL     OW15493   2.445   0.047   4.814
 4865SOL    HW115494   2.345   0.051   4.811
 4865SOL    HW215495   2.481   0.072   4.724
 4866SOL     OW15496   6.851   3.715   1.403
 4866SOL    HW115497   6.899   3.766   1.331
 4866SOL    HW215498   6.837   3.773   1.482
 4867SOL     OW15499   4.527   5.683   2.074
 4867SOL    HW115500   4.602   5.619   2.057
 4867SOL    HW215501   4.507   5.686   2.172
 4868SOL     OW15502   6.562   4.728   2.179
 4868SOL    HW115503   6.641   4.787   2.163
 4868SOL    HW215504   6.511   4.762   2.259
 4869SOL     OW15505   1.470   1.486   0.821
 4869SOL    HW115506   1.435   1.393   0.833
 4869SOL    HW215507   1.404   1.540   0.770
 4870SOL     OW15508   0.497   6.601   1.827
 4870SOL    HW115509   0.566   6.668   1.800
 4870SOL    HW215510   0.513   6.515   1.780
 4871SOL     OW15511   1.356   0.821   4.800
 4871SOL    HW115512   1.323   0.827   4.706
 4871SOL    HW215513   1.286   0.854   4.863
 4872SOL     OW15514   6.808   6.522   3.038
 4872SOL    HW115515   6.774   6.615   3.046
 4872SOL    HW215516   6.865   6.500   3.117
 4873SOL     OW15517   6.952   5.360   4.898
 4873SOL    HW115518   6.964   5.281   4.838
 4873SOL    HW215519   7.017   5.431   4.872
 4874SOL     OW15520   4.983   2.436   3.037
 4874SOL    HW115521   4.894   2.394   3.052
 4874SOL    HW215522   4.984   2.481   2.948
 4875SOL     OW15523   4.918   6.978   0.159
 4875SOL    HW115524   4.866   7.010   0.239
 4875SOL    HW215525   5.014   7.002   0.170
 4876SOL     OW15526   0.531   1.546   3.321
 4876SOL    HW115527   0.514   1.473   3.387
 4876SOL    HW215528   0.629   1.560   3.311
 4877SOL     OW15529   0.456   2.201   5.252
 4877SOL    HW115530   0.394   2.276   5.231
 4877SOL    HW215531   0.549   2.237   5.262
 4878SOL     OW15532   0.001   1.552   1.960
 4878SOL    HW115533   7.018   1.483   1.888
 4878SOL    HW215534   6.936   1.566   2.003
 4879SOL     OW15535   5.031   2.100   2.614
 4879SOL    HW115536   4.948   2.112   2.668
 4879SOL    HW215537   5.111   2.098   2.675
 4880SOL     OW15538   6.636   3.387   0.242
 4880SOL    HW115539   6.576   3.438   0.181
 4880SOL    HW215540   6.610   3.290   0.243
 4881SOL     OW15541   1.630   2.366   1.167
 4881SOL    HW115542   1.651   2.286   1.111
 4881SOL    HW215543   1.712   2.394   1.217
 4882SOL     OW15544   4.454   2.320   5.195
 4882SOL    HW115545   4.485   2.376   5.119
 4882SOL    HW215546   4.514   2.240   5.203
 4883SOL     OW15547   5.101   4.029   1.752
 4883SOL    HW115548   5.106   4.095   1.677
 4883SOL    HW215549   5.154   4.064   1.830
 4884SOL     OW15550   2.517   5.526   1.022
 4884SOL    HW115551   2.522   5.546   0.924
 4884SOL    HW215552   2.507   5.611   1.073
 4885SOL     OW15553   2.349   4.507   1.989
 4885SOL    HW115554   2.362   4.497   2.088
 4885SOL    HW215555   2.256   4.479   1.965
 4886SOL     OW15556   2.870   6.847   1.540
 4886SOL    HW115557   2.828   6.757   1.527
 4886SOL    HW215558   2.798   6.916   1.548
 4887SOL     OW15559   1.151   6.426   1.242
 4887SOL    HW115560   1.076   6.392   1.185
 4887SOL    HW215561   1.206   6.491   1.189
 4888SOL     OW15562   2.563   6.293   2.794
 4888SOL    HW115563   2.633   6.261   2.858
 4888SOL    HW215564   2.527   6.381   2.824
 4889SOL     OW15565   6.946   1.923   4.835
 4889SOL    HW115566   6.873   1.940   4.769
 4889SOL    HW215567   6.982   1.831   4.822
 4890SOL     OW15568   0.857   1.943   5.255
 4890SOL    HW115569   0.851   1.846   5.280
 4890SOL    HW215570   0.950   1.963   5.224
 4891SOL     OW15571   2.250   5.135   6.577
 4891SOL    HW115572   2.229   5.213   6.636
 4891SOL    HW215573   2.336   5.094   6.606
 4892SOL     OW15574   5.646   6.486   1.976
 4892SOL    HW115575   5.645   6.580   2.010
 4892SOL    HW215576   5.727   6.439   2.010
 4893SOL     OW15577   0.295   3.312   2.038
 4893SOL    HW115578   0.227   3.384   2.032
 4893SOL    HW215579   0.376   3.337   1.985
 4894SOL     OW15580   3.416   7.010   2.074
 4894SOL    HW115581   3.450   7.001   1.981
 4894SOL    HW215582   3.396   6.919   2.112
 4895SOL     OW15583   0.778   4.654   3.565
 4895SOL    HW115584   0.763   4.743   3.608
 4895SOL    HW215585   0.758   4.581   3.631
 4896SOL     OW15586   2.199   4.661   3.306
 4896SOL    HW115587   2.237   4.681   3.216
 4896SOL    HW215588   2.099   4.665   3.302
 4897SOL     OW15589   1.562   5.784   5.330
 4897SOL    HW115590   1.572   5.707   5.267
 4897SOL    HW215591   1.602   5.760   5.419
 4898SOL     OW15592   4.244   1.013   4.894
 4898SOL    HW115593   4.231   1.015   4.795
 4898SOL    HW215594   4.295   0.931   4.920
 4899SOL     OW15595   5.824   5.409   2.511
 4899SOL    HW115596   5.863   5.345   2.445
 4899SOL    HW215597   5.726   5.417   2.497
 4900SOL     OW15598   4.754   5.920   5.728
 4900SOL    HW115599   4.747   5.916   5.628
 4900SOL    HW215600   4.805   5.840   5.761
 4901SOL     OW15601   1.574   2.053   5.327
 4901SOL    HW115602   1.552   2.026   5.421
 4901SOL    HW215603   1.526   1.992   5.263
 4902SOL     OW15604   1.758   0.515   6.525
 4902SOL    HW115605   1.667   0.538   6.561
 4902SOL    HW215606   1.759   0.529   6.426
 4903SOL     OW15607   4.269   5.599   1.065
 4903SOL    HW115608   4.354   5.546   1.074
 4903SOL    HW215609   4.287   5.681   1.012
 4904SOL     OW15610   2.324   0.679   5.678
 4904SOL    HW115611   2.291   0.654   5.769
 4904SOL    HW215612   2.307   0.777   5.663
 4905SOL     OW15613   2.737   0.142   2.970
 4905SOL    HW115614   2.671   0.108   3.037
 4905SOL    HW215615   2.689   0.188   2.896
 4906SOL     OW15616   4.845   3.155   5.115
 4906SOL    HW115617   4.752   3.166   5.149
 4906SOL    HW215618   4.886   3.073   5.156
 4907SOL     OW15619   4.804   1.259   0.602
 4907SOL    HW115620   4.850   1.313   0.672
 4907SOL    HW215621   4.806   1.308   0.515
 4908SOL     OW15622   4.667   0.468   1.047
 4908SOL    HW115623   4.754   0.460   0.998
 4908SOL    HW215624   4.685   0.493   1.142
 4909SOL     OW15625   6.448   4.287   3.539
 4909SOL    HW115626   6.475   4.191   3.526
 4909SOL    HW215627   6.515   4.332   3.598
 4910SOL     OW15628   5.768   1.323   4.349
 4910SOL    HW115629   5.848   1.285   4.395
 4910SOL    HW215630   5.764   1.422   4.365
 4911SOL     OW15631   1.979   2.846   2.925
 4911SOL    HW115632   1.911   2.898   2.977
 4911SOL    HW215633   1.941   2.822   2.836
 4912SOL     OW15634   4.933   2.129   5.702
 4912SOL    HW115635   4.993   2.071   5.757
 4912SOL    HW215636   4.915   2.083   5.614
 4913SOL     OW15637   5.668   3.099   6.011
 4913SOL    HW115638   5.614   3.058   6.084
 4913SOL    HW215639   5.687   3.194   6.033
 4914SOL     OW15640   4.419   0.290   5.507
 4914SOL    HW115641   4.454   0.293   5.414
 4914SOL    HW215642   4.436   0.377   5.552
 4915SOL     OW15643   3.054   5.599   5.504
 4915SOL    HW115644   3.107   5.520   5.473
 4915SOL    HW215645   2.971   5.568   5.550
 4916SOL     OW15646   0.033   0.448   4.219
 4916SOL    HW115647   0.090   0.507   4.276
 4916SOL    HW215648   0.029   0.486   4.126
 4917SOL     OW15649   3.630   5.866   1.030
 4917SOL    HW115650   3.643   5.796   1.100
 4917SOL    HW215651   3.650   5.827   0.940
 4918SOL     OW15652   6.409   5.666   1.888
 4918SOL    HW115653   6.407   5.666   1.988
 4918SOL    HW215654   6.354   5.742   1.853
 4919SOL     OW15655   3.604   2.853   2.245
 4919SOL    HW115656   3.616   2.756   2.265
 4919SOL    HW215657   3.520   2.886   2.289
 4920SOL     OW15658   5.764   0.176   5.174
 4920SOL    HW115659   5.812   0.262   5.158
 4920SOL    HW215660   5.727   0.175   5.267
 4921SOL     OW15661   0.834   5.545   0.334
 4921SOL    HW115662   0.905   5.569   0.400
 4921SOL    HW215663   0.835   5.446   0.319
 4922SOL     OW15664   3.297   2.133   5.246
 4922SOL    HW115665   3.241   2.099   5.322
 4922SOL    HW215666   3.261   2.221   5.216
 4923SOL     OW15667   2.711   1.978   2.829
 4923SOL    HW115668   2.806   1.996   2.803
 4923SOL    HW215669   2.655   2.059   2.808
 4924SOL     OW15670   2.381   1.750   5.758
 4924SOL    HW115671   2.379   1.769   5.660
 4924SOL    HW215672   2.349   1.830   5.808
 4925SOL     OW15673   4.277   0.560   2.726
 4925SOL    HW115674   4.344   0.497   2.766
 4925SOL    HW215675   4.318   0.607   2.648
 4926SOL     OW15676   5.620   1.535   1.833
 4926SOL    HW115677   5.600   1.439   1.818
 4926SOL    HW215678   5.718   1.548   1.847
 4927SOL     OW15679   3.327   2.672   6.291
 4927SOL    HW115680   3.275   2.711   6.367
 4927SOL    HW215681   3.269   2.663   6.210
 4928SOL     OW15682   1.150   0.896   0.589
 4928SOL    HW115683   1.063   0.924   0.548
 4928SOL    HW215684   1.224   0.954   0.553
 4929SOL     OW15685   6.992   6.980   3.286
 4929SOL    HW115686   0.026   0.034   3.267
 4929SOL    HW215687   0.008   6.898   3.246
 4930SOL     OW15688   6.123   0.001   2.035
 4930SOL    HW115689   6.032   6.995   2.061
 4930SOL    HW215690   6.191   6.991   2.099
 4931SOL     OW15691   6.034   6.034   2.056
 4931SOL    HW115692   6.047   5.935   2.062
 4931SOL    HW215693   5.962   6.062   2.120
 4932SOL     OW15694   3.519   3.715   3.681
 4932SOL    HW115695   3.487   3.650   3.612
 4932SOL    HW215696   3.555   3.796   3.636
 4933SOL     OW15697   2.436   6.266   4.326
 4933SOL    HW115698   2.469   6.280   4.419
 4933SOL    HW215699   2.351   6.213   4.328
 4934SOL     OW15700   3.754   6.022   2.721
 4934SOL    HW115701   3.731   6.013   2.624
 4934SOL    HW215702   3.805   5.941   2.751
 4935SOL     OW15703   1.423   2.111   6.743
 4935SOL    HW115704   1.327   2.084   6.732
 4935SOL    HW215705   1.471   2.103   6.656
 4936SOL     OW15706   2.595   4.923   0.742
 4936SOL    HW115707   2.627   4.971   0.823
 4936SOL    HW215708   2.663   4.855   0.715
 4937SOL     OW15709   5.272   3.202   5.259
 4937SOL    HW115710   5.234   3.281   5.306
 4937SOL    HW215711   5.329   3.232   5.183
 4938SOL     OW15712   3.513   5.544   5.185
 4938SOL    HW115713   3.449   5.480   5.143
 4938SOL    HW215714   3.586   5.565   5.121
 4939SOL     OW15715   4.876   2.827   5.218
 4939SOL    HW115716   4.797   2.796   5.164
 4939SOL    HW215717   4.853   2.824   5.315
 4940SOL     OW15718   1.726   0.739   4.819
 4940SOL    HW115719   1.672   0.823   4.825
 4940SOL    HW215720   1.665   0.660   4.820
 4941SOL     OW15721   4.285   1.695   0.073
 4941SOL    HW115722   4.261   1.603   0.040
 4941SOL    HW215723   4.278   1.760   7.023
 4942SOL     OW15724   4.849   3.643   5.345
 4942SOL    HW115725   4.879   3.579   5.415
 4942SOL    HW215726   4.767   3.607   5.299
 4943SOL     OW15727   4.659   2.284   0.687
 4943SOL    HW115728   4.656   2.320   0.594
 4943SOL    HW215729   4.663   2.360   0.753
 4944SOL     OW15730   2.242   3.944   2.820
 4944SOL    HW115731   2.169   3.910   2.761
 4944SOL    HW215732   2.215   3.935   2.916
 4945SOL     OW15733   1.285   0.260   3.939
 4945SOL    HW115734   1.310   0.196   3.867
 4945SOL    HW215735   1.308   0.221   4.028
 4946SOL     OW15736   1.243   2.771   2.058
 4946SOL    HW115737   1.334   2.737   2.033
 4946SOL    HW215738   1.175   2.700   2.039
 4947SOL     OW15739   0.734   7.017   0.516
 4947SOL    HW115740   0.742   6.947   0.446
 4947SOL    HW215741   0.646   7.007   0.563
 4948SOL     OW15742   2.298   0.744   2.651
 4948SOL    HW115743   2.317   0.671   2.587
 4948SOL    HW215744   2.213   0.725   2.699
 4949SOL     OW15745   4.873   0.767   5.418
 4949SOL    HW115746   4.881   0.856   5.373
 4949SOL    HW215747   4.963   0.739   5.451
 4950SOL     OW15748   2.769   6.335   4.187
 4950SOL    HW115749   2.727   6.263   4.243
 4950SOL    HW215750   2.759   6.311   4.090
 4951SOL     OW15751   4.521   1.589   4.187
 4951SOL    HW115752   4.521   1.636   4.099
 4951SOL    HW215753   4.440   1.614   4.239
 4952SOL     OW15754   0.151   5.934   5.018
 4952SOL    HW115755   0.144   5.895   4.926
 4952SOL    HW215756   0.243   5.968   5.032
 4953SOL     OW15757   2.363   5.263   1.012
 4953SOL    HW115758   2.377   5.257   1.111
 4953SOL    HW215759   2.442   5.307   0.970
 4954SOL     OW15760   5.127   4.671   0.156
 4954SOL    HW115761   5.150   4.598   0.220
 4954SOL    HW215762   5.118   4.635   0.064
 4955SOL     OW15763   1.431   6.223   0.459
 4955SOL    HW115764   1.451   6.236   0.361
 4955SOL    HW215765   1.333   6.233   0.474
 4956SOL     OW15766   3.785   6.913   5.802
 4956SOL    HW115767   3.706   6.907   5.862
 4956SOL    HW215768   3.784   7.001   5.755
 4957SOL     OW15769   0.253   1.488   3.898
 4957SOL    HW115770   0.305   1.413   3.941
 4957SOL    HW215771   0.155   1.470   3.907
 4958SOL     OW15772   0.667   6.423   6.362
 4958SOL    HW115773   0.708   6.398   6.274
 4958SOL    HW215774   0.679   6.520   6.379
 4959SOL     OW15775   1.064   0.762   6.939
 4959SOL    HW115776   1.063   0.663   6.921
 4959SOL    HW215777   1.107   0.779   0.002
 4960SOL     OW15778   3.978   6.711   4.148
 4960SOL    HW115779   3.883   6.705   4.117
 4960SOL    HW215780   4.035   6.743   4.073
 4961SOL     OW15781   5.925   0.385   4.659
 4961SOL    HW115782   5.861   0.391   4.582
 4961SOL    HW215783   6.017   0.369   4.623
 4962SOL     OW15784   5.647   2.581   1.881
 4962SOL    HW115785   5.618   2.608   1.973
 4962SOL    HW215786   5.567   2.549   1.830
 4963SOL     OW15787   0.414   5.658   1.333
 4963SOL    HW115788   0.416   5.704   1.244
 4963SOL    HW215789   0.342   5.589   1.333
 4964SOL     OW15790   3.460   5.754   3.609
 4964SOL    HW115791   3.428   5.746   3.515
 4964SOL    HW215792   3.444   5.667   3.657
 4965SOL     OW15793   0.283   6.831   4.930
 4965SOL    HW115794   0.247   6.923   4.918
 4965SOL    HW215795   0.298   6.813   5.027
 4966SOL     OW15796   2.950   6.152   4.644
 4966SOL    HW115797   3.000   6.225   4.598
 4966SOL    HW215798   3.014   6.088   4.685
 4967SOL     OW15799   4.051   2.834   6.808
 4967SOL    HW115800   3.961   2.857   6.844
 4967SOL    HW215801   4.115   2.821   6.884
 4968SOL     OW15802   4.962   2.807   3.606
 4968SOL    HW115803   4.988   2.769   3.517
 4968SOL    HW215804   4.988   2.904   3.609
 4969SOL     OW15805   1.629   1.004   1.642
 4969SOL    HW115806   1.630   1.101   1.665
 4969SOL    HW215807   1.636   0.993   1.542
 4970SOL     OW15808   1.154   2.033   4.892
 4970SOL    HW115809   1.232   2.076   4.847
 4970SOL    HW215810   1.141   1.940   4.855
 4971SOL     OW15811   6.581   5.951   2.929
 4971SOL    HW115812   6.523   5.985   2.854
 4971SOL    HW215813   6.636   5.875   2.895
 4972SOL     OW15814   2.145   3.543   1.042
 4972SOL    HW115815   2.210   3.469   1.059
 4972SOL    HW215816   2.157   3.576   0.948
 4973SOL     OW15817   6.188   5.768   2.204
 4973SOL    HW115818   6.247   5.848   2.208
 4973SOL    HW215819   6.119   5.780   2.133
 4974SOL     OW15820   5.690   6.091   2.437
 4974SOL    HW115821   5.603   6.051   2.463
 4974SOL    HW215822   5.708   6.172   2.494
 4975SOL     OW15823   5.796   6.055   0.556
 4975SOL    HW115824   5.741   5.972   0.544
 4975SOL    HW215825   5.770   6.099   0.642
 4976SOL     OW15826   3.493   0.238   4.671
 4976SOL    HW115827   3.484   0.225   4.769
 4976SOL    HW215828   3.403   0.252   4.630
 4977SOL     OW15829   4.366   3.615   0.655
 4977SOL    HW115830   4.432   3.687   0.677
 4977SOL    HW215831   4.375   3.588   0.559
 4978SOL     OW15832   5.834   3.852   5.435
 4978SOL    HW115833   5.896   3.846   5.513
 4978SOL    HW215834   5.798   3.945   5.428
 4979SOL     OW15835   0.587   0.876   5.518
 4979SOL    HW115836   0.638   0.901   5.436
 4979SOL    HW215837   0.490   0.897   5.503
 4980SOL     OW15838   3.658   5.222   2.641
 4980SOL    HW115839   3.627   5.290   2.574
 4980SOL    HW215840   3.683   5.138   2.594
 4981SOL     OW15841   4.547   6.884   5.897
 4981SOL    HW115842   4.470   6.869   5.959
 4981SOL    HW215843   4.623   6.923   5.948
 4982SOL     OW15844   2.240   2.081   0.093
 4982SOL    HW115845   2.237   2.136   0.010
 4982SOL    HW215846   2.169   2.011   0.089
 4983SOL     OW15847   5.303   3.036   3.844
 4983SOL    HW115848   5.300   2.951   3.897
 4983SOL    HW215849   5.390   3.040   3.794
 4984SOL     OW15850   4.930   3.751   4.575
 4984SOL    HW115851   4.909   3.655   4.557
 4984SOL    HW215852   4.900   3.807   4.497
 4985SOL     OW15853   5.422   5.641   3.539
 4985SOL    HW115854   5.364   5.721   3.528
 4985SOL    HW215855   5.506   5.653   3.486
 4986SOL     OW15856   6.240   4.648   2.538
 4986SOL    HW115857   6.180   4.569   2.526
 4986SOL    HW215858   6.277   4.647   2.631
 4987SOL     OW15859   0.048   3.305   1.018
 4987SOL    HW115860   0.125   3.338   1.072
 4987SOL    HW215861   0.045   3.354   0.931
 4988SOL     OW15862   0.337   1.414   4.363
 4988SOL    HW115863   0.335   1.494   4.423
 4988SOL    HW215864   0.261   1.419   4.298
 4989SOL     OW15865   6.456   1.163   0.880
 4989SOL    HW115866   6.528   1.133   0.943
 4989SOL    HW215867   6.422   1.253   0.909
 4990SOL     OW15868   0.949   2.819   5.331
 4990SOL    HW115869   1.003   2.863   5.259
 4990SOL    HW215870   0.999   2.823   5.417
 4991SOL     OW15871   0.825   3.349   4.027
 4991SOL    HW115872   0.918   3.376   4.002
 4991SOL    HW215873   0.773   3.429   4.056
 4992SOL     OW15874   3.443   0.849   5.054
 4992SOL    HW115875   3.493   0.763   5.059
 4992SOL    HW215876   3.494   0.921   5.100
 4993SOL     OW15877   3.037   5.709   3.585
 4993SOL    HW115878   3.113   5.687   3.523
 4993SOL    HW215879   3.026   5.634   3.650
 4994SOL     OW15880   0.858   6.664   2.768
 4994SOL    HW115881   0.925   6.719   2.717
 4994SOL    HW215882   0.785   6.636   2.706
 4995SOL     OW15883   6.886   3.034   6.252
 4995SOL    HW115884   6.838   3.095   6.315
 4995SOL    HW215885   6.855   2.940   6.267
 4996SOL     OW15886   0.815   2.272   2.149
 4996SOL    HW115887   0.861   2.300   2.233
 4996SOL    HW215888   0.719   2.300   2.152
 4997SOL     OW15889   6.778   1.959   2.856
 4997SOL    HW115890   6.691   2.006   2.838
 4997SOL    HW215891   6.825   1.942   2.769
 4998SOL     OW15892   1.901   4.840   4.587
 4998SOL    HW115893   1.904   4.906   4.512
 4998SOL    HW215894   1.955   4.874   4.664
 4999SOL     OW15895   4.860   5.761   0.769
 4999SOL    HW115896   4.895   5.673   0.737
 4999SOL    HW215897   4.913   5.835   0.726
 5000SOL     OW15898   0.866   0.134   5.158
 5000SOL    HW115899   0.850   0.226   5.122
 5000SOL    HW215900   0.806   0.118   5.236
 5001SOL     OW15901   2.424   4.015   5.901
 5001SOL    HW115902   2.325   4.024   5.895
 5001SOL    HW215903   2.462   4.093   5.950
 5002SOL     OW15904   2.183   1.439   2.607
 5002SOL    HW115905   2.266   1.479   2.647
 5002SOL    HW215906   2.206   1.400   2.518
 5003SOL     OW15907   0.075   6.329   2.724
 5003SOL    HW115908   0.051   6.423   2.700
 5003SOL    HW215909   0.126   6.287   2.649
 5004SOL     OW15910   2.454   5.847   6.278
 5004SOL    HW115911   2.518   5.771   6.267
 5004SOL    HW215912   2.405   5.863   6.192
 5005SOL     OW15913   4.375   2.967   0.439
 5005SOL    HW115914   4.343   3.061   0.444
 5005SOL    HW215915   4.302   2.905   0.470
 5006SOL     OW15916   5.443   6.902   5.110
 5006SOL    HW115917   5.406   6.840   5.042
 5006SOL    HW215918   5.509   6.964   5.067
 5007SOL     OW15919   4.231   0.977   6.052
 5007SOL    HW115920   4.266   1.014   5.965
 5007SOL    HW215921   4.241   1.047   6.123
 5008SOL     OW15922   5.859   0.846   3.399
 5008SOL    HW115923   5.801   0.925   3.379
 5008SOL    HW215924   5.805   0.762   3.391
 5009SOL     OW15925   0.724   6.193   1.637
 5009SOL    HW115926   0.710   6.102   1.599
 5009SOL    HW215927   0.805   6.193   1.696
 5010SOL     OW15928   3.467   4.071   3.913
 5010SOL    HW115929   3.475   4.137   3.987
 5010SOL    HW215930   3.555   4.060   3.867
 5011SOL     OW15931   1.017   3.097   2.032
 5011SOL    HW115932   1.048   3.092   2.127
 5011SOL    HW215933   0.975   3.186   2.014
 5012SOL     OW15934   6.885   3.107   5.988
 5012SOL    HW115935   6.882   3.053   6.072
 5012SOL    HW215936   6.956   3.178   5.997
 5013SOL     OW15937   3.995   0.823   6.436
 5013SOL    HW115938   4.009   0.797   6.532
 5013SOL    HW215939   4.011   0.744   6.377
 5014SOL     OW15940   6.194   5.800   0.486
 5014SOL    HW115941   6.147   5.875   0.531
 5014SOL    HW215942   6.250   5.751   0.553
 5015SOL     OW15943   4.250   2.198   3.583
 5015SOL    HW115944   4.175   2.168   3.642
 5015SOL    HW215945   4.216   2.215   3.491
 5016SOL     OW15946   1.825   0.254   2.991
 5016SOL    HW115947   1.754   0.325   2.983
 5016SOL    HW215948   1.803   0.178   2.931
 5017SOL     OW15949   2.608   1.987   0.632
 5017SOL    HW115950   2.636   2.052   0.703
 5017SOL    HW215951   2.516   2.011   0.600
 5018SOL     OW15952   6.883   4.158   2.888
 5018SOL    HW115953   6.936   4.131   2.808
 5018SOL    HW215954   6.836   4.245   2.870
 5019SOL     OW15955   2.397   4.140   0.914
 5019SOL    HW115956   2.458   4.176   0.985
 5019SOL    HW215957   2.358   4.053   0.945
 5020SOL     OW15958   4.783   5.387   6.246
 5020SOL    HW115959   4.726   5.467   6.225
 5020SOL    HW215960   4.755   5.349   6.335
 5021SOL     OW15961   1.898   4.768   5.872
 5021SOL    HW115962   1.950   4.708   5.811
 5021SOL    HW215963   1.951   4.851   5.890
 5022SOL     OW15964   2.012   6.401   0.517
 5022SOL    HW115965   2.104   6.371   0.493
 5022SOL    HW215966   1.956   6.407   0.434
 5023SOL     OW15967   6.409   2.966   0.664
 5023SOL    HW115968   6.354   3.041   0.701
 5023SOL    HW215969   6.349   2.903   0.614
 5024SOL     OW15970   6.574   4.193   3.229
 5024SOL    HW115971   6.494   4.189   3.169
 5024SOL    HW215972   6.557   4.137   3.310
 5025SOL     OW15973   5.444   1.226   3.298
 5025SOL    HW115974   5.400   1.198   3.213
 5025SOL    HW215975   5.391   1.300   3.340
 5026SOL     OW15976   5.934   5.551   4.606
 5026SOL    HW115977   5.951   5.549   4.705
 5026SOL    HW215978   5.911   5.458   4.575
 5027SOL     OW15979   0.253   6.642   2.995
 5027SOL    HW115980   0.226   6.589   3.076
 5027SOL    HW215981   0.309   6.585   2.936
 5028SOL     OW15982   0.386   6.392   2.076
 5028SOL    HW115983   0.468   6.336   2.061
 5028SOL    HW215984   0.413   6.484   2.102
 5029SOL     OW15985   0.300   2.766   1.501
 5029SOL    HW115986   0.210   2.747   1.540
 5029SOL    HW215987   0.333   2.686   1.452
 5030SOL     OW15988   6.464   0.411   6.720
 5030SOL    HW115989   6.554   0.456   6.718
 5030SOL    HW215990   6.475   0.317   6.753
 5031SOL     OW15991   5.961   0.845   4.098
 5031SOL    HW115992   5.987   0.838   4.195
 5031SOL    HW215993   5.873   0.892   4.090
 5032SOL     OW15994   1.774   5.246   0.626
 5032SOL    HW115995   1.799   5.337   0.657
 5032SOL    HW215996   1.856   5.190   0.617
 5033SOL     OW15997   2.644   4.791   5.558
 5033SOL    HW115998   2.639   4.809   5.656
 5033SOL    HW215999   2.671   4.696   5.542
 5034SOL     OW16000   6.348   2.212   2.261
 5034SOL    HW116001   6.298   2.298   2.256
 5034SOL    HW216002   6.379   2.185   2.170
 5035SOL     OW16003   4.498   5.327   0.441
 5035SOL    HW116004   4.556   5.259   0.486
 5035SOL    HW216005   4.555   5.400   0.404
 5036SOL     OW16006   0.927   6.121   0.484
 5036SOL    HW116007   0.972   6.114   0.395
 5036SOL    HW216008   0.829   6.106   0.473
 5037SOL     OW16009   4.077   1.549   3.580
 5037SOL    HW116010   4.095   1.647   3.591
 5037SOL    HW216011   4.017   1.517   3.652
 5038SOL     OW16012   1.501   5.978   5.813
 5038SOL    HW116013   1.573   5.945   5.752
 5038SOL    HW216014   1.413   5.973   5.766
 5039SOL     OW16015   2.307   2.957   5.404
 5039SOL    HW116016   2.307   3.028   5.475
 5039SOL    HW216017   2.364   2.986   5.327
 5040SOL     OW16018   2.961   3.522   6.592
 5040SOL    HW116019   3.031   3.514   6.663
 5040SOL    HW216020   2.885   3.577   6.625
 5041SOL     OW16021   0.977   3.611   1.514
 5041SOL    HW116022   0.967   3.608   1.613
 5041SOL    HW216023   1.072   3.631   1.491
 5042SOL     OW16024   5.756   3.807   6.501
 5042SOL    HW116025   5.790   3.714   6.494
 5042SOL    HW216026   5.747   3.832   6.597
 5043SOL     OW16027   3.519   0.688   3.894
 5043SOL    HW116028   3.536   0.609   3.834
 5043SOL    HW216029   3.593   0.755   3.882
 5044SOL     OW16030   6.316   5.779   3.841
 5044SOL    HW116031   6.220   5.805   3.839
 5044SOL    HW216032   6.329   5.704   3.906
 5045SOL     OW16033   6.108   3.612   0.172
 5045SOL    HW116034   6.014   3.621   0.206
 5045SOL    HW216035   6.165   3.682   0.216
 5046SOL     OW16036   3.484   3.016   5.267
 5046SOL    HW116037   3.580   3.021   5.242
 5046SOL    HW216038   3.474   2.964   5.352
 5047SOL     OW16039   6.149   0.271   2.707
 5047SOL    HW116040   6.152   0.256   2.805
 5047SOL    HW216041   6.206   0.204   2.661
 5048SOL     OW16042   0.053   2.397   1.895
 5048SOL    HW116043   0.133   2.375   1.950
 5048SOL    HW216044   6.999   2.408   1.954
 5049SOL     OW16045   1.240   1.795   2.022
 5049SOL    HW116046   1.234   1.714   1.964
 5049SOL    HW216047   1.290   1.772   2.106
 5050SOL     OW16048   0.607   2.254   1.569
 5050SOL    HW116049   0.620   2.194   1.489
 5050SOL    HW216050   0.521   2.229   1.615
 5051SOL     OW16051   2.722   4.094   1.007
 5051SOL    HW116052   2.738   4.003   1.045
 5051SOL    HW216053   2.662   4.146   1.067
 5052SOL     OW16054   4.150   5.053   0.801
 5052SOL    HW116055   4.229   5.013   0.847
 5052SOL    HW216056   4.070   4.993   0.811
 5053SOL     OW16057   2.649   4.163   1.738
 5053SOL    HW116058   2.562   4.130   1.773
 5053SOL    HW216059   2.641   4.259   1.711
 5054SOL     OW16060   3.333   6.207   4.730
 5054SOL    HW116061   3.416   6.259   4.710
 5054SOL    HW216062   3.325   6.131   4.666
 5055SOL     OW16063   0.933   2.167   4.883
 5055SOL    HW116064   0.863   2.105   4.918
 5055SOL    HW216065   1.022   2.122   4.885
 5056SOL     OW16066   0.178   3.819   5.877
 5056SOL    HW116067   0.215   3.893   5.821
 5056SOL    HW216068   0.253   3.768   5.919
 5057SOL     OW16069   0.848   6.114   3.842
 5057SOL    HW116070   0.785   6.191   3.849
 5057SOL    HW216071   0.797   6.029   3.829
 5058SOL     OW16072   4.205   3.936   6.685
 5058SOL    HW116073   4.145   3.892   6.619
 5058SOL    HW216074   4.162   4.019   6.720
 5059SOL     OW16075   3.808   2.121   5.163
 5059SOL    HW116076   3.769   2.146   5.074
 5059SOL    HW216077   3.818   2.022   5.168
 5060SOL     OW16078   0.443   3.593   5.105
 5060SOL    HW116079   0.423   3.605   5.008
 5060SOL    HW216080   0.541   3.574   5.117
 5061SOL     OW16081   3.570   3.614   4.496
 5061SOL    HW116082   3.589   3.617   4.594
 5061SOL    HW216083   3.598   3.700   4.454
 5062SOL     OW16084   4.808   1.075   2.946
 5062SOL    HW116085   4.831   1.080   3.043
 5062SOL    HW216086   4.804   0.979   2.918
 5063SOL     OW16087   1.337   6.290   2.222
 5063SOL    HW116088   1.264   6.322   2.161
 5063SOL    HW216089   1.303   6.289   2.316
 5064SOL     OW16090   4.604   5.687   0.602
 5064SOL    HW116091   4.694   5.686   0.646
 5064SOL    HW216092   4.534   5.675   0.672
 5065SOL     OW16093   2.386   6.749   3.252
 5065SOL    HW116094   2.371   6.678   3.184
 5065SOL    HW216095   2.472   6.796   3.233
 5066SOL     OW16096   1.972   4.725   1.950
 5066SOL    HW116097   1.904   4.691   2.016
 5066SOL    HW216098   2.058   4.742   1.998
 5067SOL     OW16099   4.155   2.132   1.626
 5067SOL    HW116100   4.124   2.222   1.658
 5067SOL    HW216101   4.117   2.061   1.685
 5068SOL     OW16102   3.668   6.093   0.720
 5068SOL    HW116103   3.641   6.012   0.772
 5068SOL    HW216104   3.721   6.065   0.640
 5069SOL     OW16105   2.882   4.181   6.420
 5069SOL    HW116106   2.918   4.253   6.360
 5069SOL    HW216107   2.951   4.157   6.488
 5070SOL     OW16108   5.615   3.189   4.081
 5070SOL    HW116109   5.597   3.093   4.061
 5070SOL    HW216110   5.712   3.208   4.064
 5071SOL     OW16111   3.698   1.222   3.736
 5071SOL    HW116112   3.691   1.268   3.648
 5071SOL    HW216113   3.785   1.173   3.741
 5072SOL     OW16114   1.374   0.926   1.337
 5072SOL    HW116115   1.337   0.912   1.246
 5072SOL    HW216116   1.420   0.843   1.368
 5073SOL     OW16117   2.754   6.535   2.569
 5073SOL    HW116118   2.670   6.483   2.584
 5073SOL    HW216119   2.826   6.474   2.536
 5074SOL     OW16120   3.816   1.848   1.645
 5074SOL    HW116121   3.861   1.759   1.634
 5074SOL    HW216122   3.858   1.898   1.721
 5075SOL     OW16123   1.772   3.378   6.882
 5075SOL    HW116124   1.814   3.294   6.847
 5075SOL    HW216125   1.809   3.400   6.972
 5076SOL     OW16126   5.266   1.101   0.495
 5076SOL    HW116127   5.286   1.100   0.593
 5076SOL    HW216128   5.212   1.182   0.473
 5077SOL     OW16129   1.309   4.600   4.443
 5077SOL    HW116130   1.378   4.541   4.485
 5077SOL    HW216131   1.353   4.686   4.415
 5078SOL     OW16132   0.720   1.148   3.838
 5078SOL    HW116133   0.807   1.179   3.876
 5078SOL    HW216134   0.664   1.228   3.812
 5079SOL     OW16135   1.921   2.562   5.873
 5079SOL    HW116136   1.889   2.481   5.921
 5079SOL    HW216137   1.960   2.534   5.785
 5080SOL     OW16138   6.182   5.496   5.888
 5080SOL    HW116139   6.100   5.439   5.899
 5080SOL    HW216140   6.264   5.438   5.893
 5081SOL     OW16141   3.606   6.250   5.058
 5081SOL    HW116142   3.507   6.244   5.045
 5081SOL    HW216143   3.626   6.264   5.155
 5082SOL     OW16144   4.944   6.443   0.861
 5082SOL    HW116145   5.016   6.374   0.872
 5082SOL    HW216146   4.856   6.405   0.889
 5083SOL     OW16147   2.714   0.574   2.452
 5083SOL    HW116148   2.691   0.634   2.529
 5083SOL    HW216149   2.757   0.490   2.487
 5084SOL     OW16150   0.748   5.097   5.350
 5084SOL    HW116151   0.831   5.094   5.294
 5084SOL    HW216152   0.669   5.080   5.292
 5085SOL     OW16153   1.541   3.702   6.081
 5085SOL    HW116154   1.441   3.704   6.078
 5085SOL    HW216155   1.578   3.733   5.994
 5086SOL     OW16156   0.788   4.752   2.439
 5086SOL    HW116157   0.788   4.723   2.534
 5086SOL    HW216158   0.790   4.672   2.379
 5087SOL     OW16159   6.817   5.658   2.413
 5087SOL    HW116160   6.833   5.564   2.444
 5087SOL    HW216161   6.752   5.702   2.474
 5088SOL     OW16162   4.279   6.088   2.177
 5088SOL    HW116163   4.229   6.115   2.094
 5088SOL    HW216164   4.356   6.029   2.152
 5089SOL     OW16165   5.228   3.759   4.646
 5089SOL    HW116166   5.251   3.749   4.549
 5089SOL    HW216167   5.149   3.701   4.667
 5090SOL     OW16168   1.729   0.270   3.374
 5090SOL    HW116169   1.639   0.310   3.392
 5090SOL    HW216170   1.726   0.218   3.289
 5091SOL     OW16171   6.587   6.917   0.148
 5091SOL    HW116172   6.575   6.981   0.225
 5091SOL    HW216173   6.635   6.836   0.180
 5092SOL     OW16174   3.658   3.861   4.381
 5092SOL    HW116175   3.643   3.950   4.424
 5092SOL    HW216176   3.756   3.840   4.378
 5093SOL     OW16177   1.965   1.271   2.617
 5093SOL    HW116178   1.882   1.309   2.578
 5093SOL    HW216179   2.040   1.336   2.606
 5094SOL     OW16180   2.590   5.605   6.269
 5094SOL    HW116181   2.677   5.610   6.317
 5094SOL    HW216182   2.544   5.519   6.292
 5095SOL     OW16183   0.508   1.328   3.493
 5095SOL    HW116184   0.448   1.249   3.508
 5095SOL    HW216185   0.519   1.378   3.578
 5096SOL     OW16186   5.199   4.147   5.932
 5096SOL    HW116187   5.162   4.233   5.966
 5096SOL    HW216188   5.222   4.088   6.009
 5097SOL     OW16189   6.388   0.043   6.218
 5097SOL    HW116190   6.461   0.066   6.154
 5097SOL    HW216191   6.420   6.998   6.282
 5098SOL     OW16192   3.737   1.928   2.006
 5098SOL    HW116193   3.721   1.892   2.098
 5098SOL    HW216194   3.703   2.022   2.001
 5099SOL     OW16195   0.532   5.929   1.339
 5099SOL    HW116196   0.519   6.021   1.302
 5099SOL    HW216197   0.485   5.922   1.427
 5100SOL     OW16198   4.947   4.634   2.809
 5100SOL    HW116199   4.927   4.658   2.904
 5100SOL    HW216200   4.867   4.591   2.768
 5101SOL     OW16201   3.788   0.149   5.687
 5101SOL    HW116202   3.709   0.210   5.679
 5101SOL    HW216203   3.810   0.112   5.597
 5102SOL     OW16204   4.884   5.390   4.044
 5102SOL    HW116205   4.797   5.370   4.089
 5102SOL    HW216206   4.950   5.317   4.065
 5103SOL     OW16207   0.870   0.802   5.292
 5103SOL    HW116208   0.886   0.898   5.316
 5103SOL    HW216209   0.784   0.795   5.241
 5104SOL     OW16210   3.513   6.010   2.046
 5104SOL    HW116211   3.455   6.087   2.073
 5104SOL    HW216212   3.608   6.042   2.037
 5105SOL     OW16213   3.385   3.515   6.853
 5105SOL    HW116214   3.326   3.486   6.928
 5105SOL    HW216215   3.331   3.524   6.769
 5106SOL     OW16216   4.101   2.379   0.831
 5106SOL    HW116217   4.018   2.324   0.831
 5106SOL    HW216218   4.096   2.447   0.758
 5107SOL     OW16219   5.202   2.518   1.565
 5107SOL    HW116220   5.170   2.601   1.520
 5107SOL    HW216221   5.126   2.454   1.576
 5108SOL     OW16222   4.630   4.261   6.093
 5108SOL    HW116223   4.651   4.202   6.171
 5108SOL    HW216224   4.533   4.284   6.095
 5109SOL     OW16225   1.894   3.125   1.497
 5109SOL    HW116226   1.883   3.199   1.431
 5109SOL    HW216227   1.989   3.095   1.498
 5110SOL     OW16228   5.943   6.894   6.257
 5110SOL    HW116229   6.030   6.903   6.207
 5110SOL    HW216230   5.876   6.851   6.197
 5111SOL     OW16231   1.373   6.196   4.785
 5111SOL    HW116232   1.339   6.104   4.767
 5111SOL    HW216233   1.336   6.229   4.872
 5112SOL     OW16234   0.763   0.198   3.016
 5112SOL    HW116235   0.734   0.292   2.999
 5112SOL    HW216236   0.720   0.165   3.101
 5113SOL     OW16237   1.996   5.091   0.712
 5113SOL    HW116238   1.910   5.040   0.717
 5113SOL    HW216239   2.044   5.086   0.800
 5114SOL     OW16240   3.918   0.214   0.579
 5114SOL    HW116241   3.886   0.195   0.672
 5114SOL    HW216242   4.000   0.271   0.584
 5115SOL     OW16243   2.108   3.923   1.798
 5115SOL    HW116244   2.197   3.965   1.778
 5115SOL    HW216245   2.101   3.836   1.750
 5116SOL     OW16246   2.850   6.802   6.461
 5116SOL    HW116247   2.907   6.761   6.533
 5116SOL    HW216248   2.756   6.768   6.470
 5117SOL     OW16249   0.840   2.975   4.289
 5117SOL    HW116250   0.935   2.995   4.314
 5117SOL    HW216251   0.838   2.922   4.205
 5118SOL     OW16252   6.134   0.567   0.256
 5118SOL    HW116253   6.085   0.497   0.309
 5118SOL    HW216254   6.228   0.537   0.239
 5119SOL     OW16255   5.376   1.960   0.300
 5119SOL    HW116256   5.298   1.939   0.242
 5119SOL    HW216257   5.366   2.052   0.338
 5120SOL     OW16258   5.353   0.590   4.911
 5120SOL    HW116259   5.430   0.653   4.919
 5120SOL    HW216260   5.345   0.537   4.996
 5121SOL     OW16261   3.180   3.807   6.820
 5121SOL    HW116262   3.225   3.889   6.785
 5121SOL    HW216263   3.190   3.804   6.920
 5122SOL     OW16264   4.171   5.464   3.154
 5122SOL    HW116265   4.115   5.493   3.077
 5122SOL    HW216266   4.118   5.401   3.212
 5123SOL     OW16267   5.392   1.971   2.299
 5123SOL    HW116268   5.327   1.901   2.268
 5123SOL    HW216269   5.347   2.061   2.294
 5124SOL     OW16270   1.776   6.506   3.987
 5124SOL    HW116271   1.705   6.576   3.996
 5124SOL    HW216272   1.848   6.523   4.055
 5125SOL     OW16273   0.465   1.877   4.006
 5125SOL    HW116274   0.412   1.849   4.087
 5125SOL    HW216275   0.410   1.938   3.950
 5126SOL     OW16276   1.612   0.022   0.432
 5126SOL    HW116277   1.650   6.987   0.362
 5126SOL    HW216278   1.618   7.003   0.521
 5127SOL     OW16279   2.100   5.627   0.426
 5127SOL    HW116280   2.054   5.573   0.356
 5127SOL    HW216281   2.115   5.720   0.392
 5128SOL     OW16282   0.134   5.998   1.334
 5128SOL    HW116283   0.035   6.013   1.336
 5128SOL    HW216284   0.160   5.939   1.411
 5129SOL     OW16285   4.333   5.935   1.250
 5129SOL    HW116286   4.310   5.972   1.160
 5129SOL    HW216287   4.292   5.993   1.321
 5130SOL     OW16288   6.458   4.902   2.880
 5130SOL    HW116289   6.361   4.921   2.894
 5130SOL    HW216290   6.473   4.871   2.787
 5131SOL     OW16291   0.615   3.089   3.277
 5131SOL    HW116292   0.635   3.068   3.181
 5131SOL    HW216293   0.583   3.007   3.324
 5132SOL     OW16294   3.557   4.379   6.407
 5132SOL    HW116295   3.628   4.429   6.357
 5132SOL    HW216296   3.572   4.388   6.505
 5133SOL     OW16297   3.473   5.511   7.000
 5133SOL    HW116298   3.508   5.604   7.007
 5133SOL    HW216299   3.544   5.446   0.002
 5134SOL     OW16300   0.517   3.185   1.278
 5134SOL    HW116301   0.593   3.123   1.261
 5134SOL    HW216302   0.541   3.277   1.248
 5135SOL     OW16303   6.871   2.213   5.523
 5135SOL    HW116304   6.906   2.145   5.588
 5135SOL    HW216305   6.942   2.280   5.504
 5136SOL     OW16306   5.314   0.529   4.650
 5136SOL    HW116307   5.330   0.573   4.738
 5136SOL    HW216308   5.395   0.476   4.624
 5137SOL     OW16309   5.423   3.768   6.313
 5137SOL    HW116310   5.508   3.804   6.351
 5137SOL    HW216311   5.424   3.776   6.214
 5138SOL     OW16312   3.880   3.229   6.467
 5138SOL    HW116313   3.791   3.198   6.435
 5138SOL    HW216314   3.929   3.153   6.509
 5139SOL     OW16315   1.916   6.995   4.088
 5139SOL    HW116316   1.850   6.932   4.129
 5139SOL    HW216317   2.003   6.948   4.074
 5140SOL     OW16318   2.863   1.905   0.621
 5140SOL    HW116319   2.769   1.933   0.642
 5140SOL    HW216320   2.923   1.985   0.618
 5141SOL     OW16321   5.552   3.891   1.347
 5141SOL    HW116322   5.553   3.972   1.405
 5141SOL    HW216323   5.465   3.843   1.357
 5142SOL     OW16324   6.144   3.015   4.509
 5142SOL    HW116325   6.206   2.966   4.448
 5142SOL    HW216326   6.072   2.953   4.539
 5143SOL     OW16327   1.246   4.928   4.304
 5143SOL    HW116328   1.170   4.953   4.363
 5143SOL    HW216329   1.327   4.908   4.360
 5144SOL     OW16330   1.630   6.832   6.334
 5144SOL    HW116331   1.659   6.825   6.429
 5144SOL    HW216332   1.688   6.898   6.286
 5145SOL     OW16333   2.154   5.680   6.384
 5145SOL    HW116334   2.081   5.669   6.316
 5145SOL    HW216335   2.207   5.595   6.389
 5146SOL     OW16336   3.784   4.106   6.463
 5146SOL    HW116337   3.727   4.047   6.406
 5146SOL    HW216338   3.726   4.166   6.518
 5147SOL     OW16339   6.888   4.619   1.164
 5147SOL    HW116340   6.866   4.603   1.260
 5147SOL    HW216341   6.969   4.676   1.157
 5148SOL     OW16342   0.319   6.051   1.112
 5148SOL    HW116343   0.270   6.054   1.199
 5148SOL    HW216344   0.410   6.090   1.123
 5149SOL     OW16345   6.547   0.368   3.228
 5149SOL    HW116346   6.563   0.302   3.154
 5149SOL    HW216347   6.485   0.439   3.195
 5150SOL     OW16348   2.128   5.697   3.958
 5150SOL    HW116349   2.153   5.690   4.055
 5150SOL    HW216350   2.151   5.787   3.923
 5151SOL     OW16351   5.313   1.409   6.556
 5151SOL    HW116352   5.368   1.335   6.595
 5151SOL    HW216353   5.372   1.471   6.503
 5152SOL     OW16354   1.904   4.795   0.313
 5152SOL    HW116355   1.906   4.882   0.264
 5152SOL    HW216356   1.811   4.777   0.344
 5153SOL     OW16357   1.950   2.557   0.545
 5153SOL    HW116358   2.033   2.518   0.505
 5153SOL    HW216359   1.908   2.488   0.605
 5154SOL     OW16360   2.122   3.606   6.148
 5154SOL    HW116361   2.051   3.591   6.079
 5154SOL    HW216362   2.112   3.539   6.221
 5155SOL     OW16363   3.984   5.896   1.999
 5155SOL    HW116364   4.008   5.879   1.904
 5155SOL    HW216365   4.010   5.817   2.055
 5156SOL     OW16366   6.581   2.318   6.425
 5156SOL    HW116367   6.556   2.405   6.383
 5156SOL    HW216368   6.623   2.259   6.356
 5157SOL     OW16369   4.765   2.913   3.785
 5157SOL    HW116370   4.806   2.888   3.697
 5157SOL    HW216371   4.719   2.833   3.824
 5158SOL     OW16372   3.288   1.994   1.239
 5158SOL    HW116373   3.199   2.032   1.265
 5158SOL    HW216374   3.324   1.940   1.315
 5159SOL     OW16375   0.374   3.185   4.023
 5159SOL    HW116376   0.472   3.185   4.042
 5159SOL    HW216377   0.355   3.245   3.946
 5160SOL     OW16378   1.523   3.454   4.250
 5160SOL    HW116379   1.486   3.497   4.167
 5160SOL    HW216380   1.622   3.464   4.251
 5161SOL     OW16381   1.377   4.370   5.668
 5161SOL    HW116382   1.288   4.417   5.668
 5161SOL    HW216383   1.399   4.342   5.762
 5162SOL     OW16384   6.809   5.013   4.248
 5162SOL    HW116385   6.819   5.112   4.245
 5162SOL    HW216386   6.895   4.970   4.219
 5163SOL     OW16387   4.747   5.050   1.189
 5163SOL    HW116388   4.666   5.092   1.230
 5163SOL    HW216389   4.766   4.962   1.233
 5164SOL     OW16390   5.391   2.663   5.347
 5164SOL    HW116391   5.428   2.669   5.439
 5164SOL    HW216392   5.346   2.749   5.323
 5165SOL     OW16393   6.043   4.616   5.106
 5165SOL    HW116394   6.049   4.527   5.060
 5165SOL    HW216395   6.100   4.682   5.057
 5166SOL     OW16396   1.577   4.817   1.906
 5166SOL    HW116397   1.652   4.877   1.878
 5166SOL    HW216398   1.496   4.837   1.851
 5167SOL     OW16399   6.242   6.566   5.439
 5167SOL    HW116400   6.293   6.625   5.377
 5167SOL    HW216401   6.254   6.471   5.412
 5168SOL     OW16402   4.291   2.388   3.181
 5168SOL    HW116403   4.362   2.369   3.249
 5168SOL    HW216404   4.327   2.373   3.089
 5169SOL     OW16405   3.311   4.062   6.332
 5169SOL    HW116406   3.299   4.149   6.284
 5169SOL    HW216407   3.322   4.079   6.430
 5170SOL     OW16408   6.753   4.294   5.118
 5170SOL    HW116409   6.752   4.348   5.203
 5170SOL    HW216410   6.723   4.352   5.042
 5171SOL     OW16411   2.369   4.428   4.454
 5171SOL    HW116412   2.290   4.457   4.509
 5171SOL    HW216413   2.447   4.412   4.514
 5172SOL     OW16414   0.375   3.092   1.849
 5172SOL    HW116415   0.471   3.108   1.872
 5172SOL    HW216416   0.319   3.110   1.930
 5173SOL     OW16417   5.641   4.557   6.071
 5173SOL    HW116418   5.631   4.458   6.073
 5173SOL    HW216419   5.703   4.587   6.144
 5174SOL     OW16420   2.047   4.946   4.765
 5174SOL    HW116421   2.075   5.036   4.730
 5174SOL    HW216422   2.089   4.932   4.855
 5175SOL     OW16423   2.073   4.124   6.984
 5175SOL    HW116424   2.007   4.156   6.917
 5175SOL    HW216425   2.119   4.042   6.950
 5176SOL     OW16426   4.279   3.247   0.451
 5176SOL    HW116427   4.233   3.333   0.472
 5176SOL    HW216428   4.370   3.266   0.413
 5177SOL     OW16429   4.802   6.941   5.512
 5177SOL    HW116430   4.813   6.846   5.541
 5177SOL    HW216431   4.722   6.948   5.451
 5178SOL     OW16432   2.315   2.647   1.556
 5178SOL    HW116433   2.388   2.583   1.532
 5178SOL    HW216434   2.353   2.739   1.564
 5179SOL     OW16435   4.583   6.699   5.127
 5179SOL    HW116436   4.601   6.792   5.160
 5179SOL    HW216437   4.563   6.640   5.206
 5180SOL     OW16438   3.423   2.506   0.188
 5180SOL    HW116439   3.453   2.601   0.194
 5180SOL    HW216440   3.492   2.452   0.139
 5181SOL     OW16441   3.492   0.326   2.788
 5181SOL    HW116442   3.470   0.311   2.691
 5181SOL    HW216443   3.481   0.240   2.838
 5182SOL     OW16444   5.755   4.892   1.685
 5182SOL    HW116445   5.677   4.862   1.630
 5182SOL    HW216446   5.751   4.849   1.775
 5183SOL     OW16447   4.329   7.006   1.827
 5183SOL    HW116448   4.397   6.949   1.781
 5183SOL    HW216449   4.375   0.055   1.875
 5184SOL     OW16450   1.025   1.220   3.220
 5184SOL    HW116451   0.989   1.130   3.243
 5184SOL    HW216452   0.963   1.291   3.253
 5185SOL     OW16453   3.845   6.771   2.498
 5185SOL    HW116454   3.920   6.790   2.562
 5185SOL    HW216455   3.850   6.834   2.421
 5186SOL     OW16456   6.275   3.400   1.090
 5186SOL    HW116457   6.367   3.433   1.109
 5186SOL    HW216458   6.252   3.416   0.994
 5187SOL     OW16459   6.763   1.794   3.142
 5187SOL    HW116460   6.703   1.783   3.062
 5187SOL    HW216461   6.854   1.821   3.112
 5188SOL     OW16462   0.348   5.270   6.934
 5188SOL    HW116463   0.271   5.214   6.902
 5188SOL    HW216464   0.392   5.225   7.012
 5189SOL     OW16465   5.220   5.022   6.596
 5189SOL    HW116466   5.304   5.021   6.649
 5189SOL    HW216467   5.216   5.105   6.540
 5190SOL     OW16468   0.689   2.163   4.138
 5190SOL    HW116469   0.755   2.092   4.115
 5190SOL    HW216470   0.609   2.121   4.181
 5191SOL     OW16471   3.202   1.540   2.309
 5191SOL    HW116472   3.151   1.455   2.304
 5191SOL    HW216473   3.254   1.552   2.224
 5192SOL     OW16474   5.349   5.831   2.787
 5192SOL    HW116475   5.327   5.924   2.816
 5192SOL    HW216476   5.423   5.795   2.843
 5193SOL     OW16477   4.596   4.391   3.734
 5193SOL    HW116478   4.537   4.447   3.676
 5193SOL    HW216479   4.689   4.428   3.732
 5194SOL     OW16480   4.933   0.938   5.951
 5194SOL    HW116481   4.856   0.951   5.889
 5194SOL    HW216482   4.921   0.853   6.003
 5195SOL     OW16483   6.450   6.936   4.878
 5195SOL    HW116484   6.439   6.847   4.834
 5195SOL    HW216485   6.542   6.942   4.918
 5196SOL     OW16486   0.885   4.336   1.784
 5196SOL    HW116487   0.882   4.304   1.879
 5196SOL    HW216488   0.977   4.371   1.764
 5197SOL     OW16489   1.739   6.464   4.831
 5197SOL    HW116490   1.764   6.453   4.927
 5197SOL    HW216491   1.711   6.376   4.793
 5198SOL     OW16492   2.997   6.448   5.151
 5198SOL    HW116493   2.931   6.397   5.095
 5198SOL    HW216494   3.000   6.543   5.121
 5199SOL     OW16495   1.888   5.716   1.418
 5199SOL    HW116496   1.802   5.735   1.464
 5199SOL    HW216497   1.946   5.659   1.476
 5200SOL     OW16498   0.864   1.774   4.925
 5200SOL    HW116499   0.952   1.787   4.972
 5200SOL    HW216500   0.879   1.769   4.827
 5201SOL     OW16501   5.648   4.927   3.858
 5201SOL    HW116502   5.695   4.887   3.938
 5201SOL    HW216503   5.595   4.855   3.813
 5202SOL     OW16504   4.866   3.362   6.846
 5202SOL    HW116505   4.774   3.400   6.847
 5202SOL    HW216506   4.932   3.433   6.821
 5203SOL     OW16507   1.493   0.436   0.227
 5203SOL    HW116508   1.411   0.484   0.258
 5203SOL    HW216509   1.480   0.408   0.132
 5204SOL     OW16510   3.461   6.960   6.590
 5204SOL    HW116511   3.455   6.906   6.673
 5204SOL    HW216512   3.389   0.005   6.590
 5205SOL     OW16513   6.539   5.849   0.987
 5205SOL    HW116514   6.488   5.907   1.051
 5205SOL    HW216515   6.543   5.756   1.023
 5206SOL     OW16516   0.386   4.411   4.827
 5206SOL    HW116517   0.396   4.316   4.855
 5206SOL    HW216518   0.302   4.449   4.866
 5207SOL     OW16519   0.249   0.008   4.467
 5207SOL    HW116520   0.276   0.094   4.511
 5207SOL    HW216521   0.154   7.012   4.491
 5208SOL     OW16522   4.997   2.448   0.397
 5208SOL    HW116523   5.046   2.394   0.465
 5208SOL    HW216524   5.009   2.406   0.307
 5209SOL     OW16525   5.028   6.758   3.318
 5209SOL    HW116526   4.963   6.831   3.341
 5209SOL    HW216527   5.029   6.689   3.390
 5210SOL     OW16528   5.311   4.508   1.039
 5210SOL    HW116529   5.275   4.582   0.983
 5210SOL    HW216530   5.392   4.469   0.996
 5211SOL     OW16531   4.958   2.117   4.150
 5211SOL    HW116532   4.921   2.158   4.233
 5211SOL    HW216533   4.930   2.171   4.071
 5212SOL     OW16534   1.261   2.594   0.720
 5212SOL    HW116535   1.318   2.581   0.802
 5212SOL    HW216536   1.251   2.692   0.703
 5213SOL     OW16537   4.088   3.177   2.791
 5213SOL    HW116538   4.053   3.192   2.698
 5213SOL    HW216539   4.015   3.137   2.847
 5214SOL     OW16540   5.339   4.508   6.421
 5214SOL    HW116541   5.343   4.569   6.500
 5214SOL    HW216542   5.293   4.555   6.346
 5215SOL     OW16543   6.798   3.344   4.538
 5215SOL    HW116544   6.873   3.398   4.502
 5215SOL    HW216545   6.821   3.310   4.629
 5216SOL     OW16546   5.587   4.671   1.165
 5216SOL    HW116547   5.655   4.744   1.175
 5216SOL    HW216548   5.497   4.711   1.150
 5217SOL     OW16549   4.180   5.763   3.848
 5217SOL    HW116550   4.219   5.844   3.804
 5217SOL    HW216551   4.164   5.781   3.945
 5218SOL     OW16552   0.748   0.381   0.721
 5218SOL    HW116553   0.775   0.432   0.639
 5218SOL    HW216554   0.651   0.357   0.715
 5219SOL     OW16555   2.349   2.342   5.126
 5219SOL    HW116556   2.411   2.304   5.194
 5219SOL    HW216557   2.396   2.412   5.072
 5220SOL     OW16558   2.503   5.054   3.035
 5220SOL    HW116559   2.578   5.117   3.052
 5220SOL    HW216560   2.421   5.106   3.012
 5221SOL     OW16561   6.784   0.186   1.570
 5221SOL    HW116562   6.849   0.246   1.523
 5221SOL    HW216563   6.832   0.106   1.605
 5222SOL     OW16564   4.146   4.664   1.351
 5222SOL    HW116565   4.167   4.736   1.417
 5222SOL    HW216566   4.221   4.655   1.286
 5223SOL     OW16567   0.547   2.951   0.842
 5223SOL    HW116568   0.552   2.865   0.893
 5223SOL    HW216569   0.509   2.934   0.751
 5224SOL     OW16570   0.640   1.675   4.481
 5224SOL    HW116571   0.556   1.622   4.468
 5224SOL    HW216572   0.617   1.770   4.502
 5225SOL     OW16573   6.564   1.258   4.798
 5225SOL    HW116574   6.626   1.285   4.723
 5225SOL    HW216575   6.475   1.235   4.760
 5226SOL     OW16576   0.509   5.717   3.668
 5226SOL    HW116577   0.464   5.639   3.712
 5226SOL    HW216578   0.521   5.698   3.571
 5227SOL     OW16579   6.927   3.155   5.220
 5227SOL    HW116580   6.898   3.200   5.136
 5227SOL    HW216581   6.952   3.224   5.288
 5228SOL     OW16582   1.556   2.777   5.591
 5228SOL    HW116583   1.593   2.787   5.498
 5228SOL    HW216584   1.628   2.795   5.658
 5229SOL     OW16585   3.115   0.258   6.431
 5229SOL    HW116586   3.037   0.196   6.420
 5229SOL    HW216587   3.193   0.208   6.469
 5230SOL     OW16588   6.523   0.259   1.657
 5230SOL    HW116589   6.622   0.244   1.656
 5230SOL    HW216590   6.480   0.199   1.725
 5231SOL     OW16591   5.777   1.978   2.835
 5231SOL    HW116592   5.858   1.924   2.809
 5231SOL    HW216593   5.703   1.916   2.859
 5232SOL     OW16594   2.135   3.986   5.888
 5232SOL    HW116595   2.086   3.958   5.806
 5232SOL    HW216596   2.100   4.074   5.919
 5233SOL     OW16597   2.854   0.376   2.615
 5233SOL    HW116598   2.849   0.285   2.575
 5233SOL    HW216599   2.948   0.411   2.609
 5234SOL     OW16600   1.841   2.396   0.741
 5234SOL    HW116601   1.797   2.307   0.729
 5234SOL    HW216602   1.771   2.466   0.755
 5235SOL     OW16603   2.358   1.541   1.020
 5235SOL    HW116604   2.347   1.485   1.102
 5235SOL    HW216605   2.455   1.560   1.005
 5236SOL     OW16606   3.670   5.287   2.137
 5236SOL    HW116607   3.631   5.367   2.182
 5236SOL    HW216608   3.613   5.263   2.058
 5237SOL     OW16609   2.010   2.476   4.509
 5237SOL    HW116610   2.102   2.482   4.546
 5237SOL    HW216611   1.943   2.497   4.581
 5238SOL     OW16612   1.110   5.299   2.820
 5238SOL    HW116613   1.066   5.313   2.732
 5238SOL    HW216614   1.045   5.319   2.894
 5239SOL     OW16615   2.889   3.849   1.633
 5239SOL    HW116616   2.985   3.820   1.630
 5239SOL    HW216617   2.883   3.944   1.661
 5240SOL     OW16618   2.945   3.011   6.104
 5240SOL    HW116619   2.866   3.046   6.054
 5240SOL    HW216620   3.017   2.986   6.039
 5241SOL     OW16621   0.956   5.988   2.493
 5241SOL    HW116622   0.951   5.892   2.522
 5241SOL    HW216623   0.903   6.000   2.409
 5242SOL     OW16624   4.715   0.806   0.598
 5242SOL    HW116625   4.674   0.836   0.511
 5242SOL    HW216626   4.762   0.883   0.640
 5243SOL     OW16627   1.891   6.025   1.581
 5243SOL    HW116628   1.876   5.929   1.606
 5243SOL    HW216629   1.971   6.032   1.522
 5244SOL     OW16630   4.790   3.796   0.558
 5244SOL    HW116631   4.713   3.805   0.621
 5244SOL    HW216632   4.875   3.785   0.609
 5245SOL     OW16633   4.104   4.209   6.779
 5245SOL    HW116634   4.192   4.255   6.788
 5245SOL    HW216635   4.048   4.226   6.861
 5246SOL     OW16636   6.909   2.734   1.335
 5246SOL    HW116637   6.844   2.691   1.397
 5246SOL    HW216638   6.885   2.829   1.321
 5247SOL     OW16639   3.772   1.698   5.888
 5247SOL    HW116640   3.727   1.629   5.944
 5247SOL    HW216641   3.776   1.668   5.793
 5248SOL     OW16642   6.457   1.704   2.617
 5248SOL    HW116643   6.541   1.717   2.564
 5248SOL    HW216644   6.393   1.779   2.599
 5249SOL     OW16645   0.700   4.637   0.193
 5249SOL    HW116646   0.704   4.693   0.276
 5249SOL    HW216647   0.791   4.602   0.173
 5250SOL     OW16648   2.041   5.696   0.095
 5250SOL    HW116649   2.079   5.764   0.157
 5250SOL    HW216650   1.981   5.633   0.146
 5251SOL     OW16651   0.728   3.959   1.023
 5251SOL    HW116652   0.800   3.973   0.955
 5251SOL    HW216653   0.656   3.902   0.984
 5252SOL     OW16654   3.376   6.550   2.223
 5252SOL    HW116655   3.380   6.458   2.263
 5252SOL    HW216656   3.297   6.556   2.161
 5253SOL     OW16657   5.629   4.816   4.620
 5253SOL    HW116658   5.605   4.823   4.717
 5253SOL    HW216659   5.687   4.736   4.606
 5254SOL     OW16660   5.979   0.031   2.922
 5254SOL    HW116661   5.954   0.052   2.828
 5254SOL    HW216662   6.007   6.960   2.929
 5255SOL     OW16663   5.747   1.950   4.890
 5255SOL    HW116664   5.676   1.998   4.942
 5255SOL    HW216665   5.812   2.016   4.854
 5256SOL     OW16666   5.083   0.578   3.093
 5256SOL    HW116667   5.106   0.592   3.189
 5256SOL    HW216668   5.123   0.652   3.038
 5257SOL     OW16669   4.023   0.735   6.708
 5257SOL    HW116670   3.936   0.707   6.749
 5257SOL    HW216671   4.075   0.654   6.682
 5258SOL     OW16672   5.301   1.208   2.573
 5258SOL    HW116673   5.339   1.142   2.637
 5258SOL    HW216674   5.326   1.301   2.602
 5259SOL     OW16675   5.185   5.057   2.929
 5259SOL    HW116676   5.104   5.075   2.984
 5259SOL    HW216677   5.158   5.019   2.841
 5260SOL     OW16678   2.742   6.301   0.243
 5260SOL    HW116679   2.808   6.277   0.172
 5260SOL    HW216680   2.709   6.394   0.226
 5261SOL     OW16681   6.823   4.875   0.613
 5261SOL    HW116682   6.770   4.790   0.610
 5261SOL    HW216683   6.763   4.951   0.639
 5262SOL     OW16684   2.209   6.892   2.485
 5262SOL    HW116685   2.188   6.977   2.532
 5262SOL    HW216686   2.305   6.869   2.499
 5263SOL     OW16687   1.905   1.209   3.601
 5263SOL    HW116688   1.854   1.294   3.589
 5263SOL    HW216689   1.884   1.147   3.525
 5264SOL     OW16690   0.112   1.937   1.586
 5264SOL    HW116691   0.012   1.939   1.585
 5264SOL    HW216692   0.144   1.845   1.562
 5265SOL     OW16693   5.330   2.725   4.627
 5265SOL    HW116694   5.373   2.809   4.595
 5265SOL    HW216695   5.390   2.647   4.610
 5266SOL     OW16696   2.382   6.389   0.583
 5266SOL    HW116697   2.359   6.403   0.679
 5266SOL    HW216698   2.459   6.449   0.559
 5267SOL     OW16699   4.476   2.473   4.311
 5267SOL    HW116700   4.499   2.568   4.286
 5267SOL    HW216701   4.446   2.470   4.406
 5268SOL     OW16702   5.564   1.270   6.564
 5268SOL    HW116703   5.621   1.198   6.604
 5268SOL    HW216704   5.598   1.292   6.472
 5269SOL     OW16705   0.294   6.528   2.438
 5269SOL    HW116706   0.343   6.605   2.397
 5269SOL    HW216707   0.269   6.552   2.532
 5270SOL     OW16708   6.681   2.024   0.144
 5270SOL    HW116709   6.723   2.007   0.055
 5270SOL    HW216710   6.649   1.938   0.183
 5271SOL     OW16711   6.136   5.641   4.431
 5271SOL    HW116712   6.222   5.610   4.472
 5271SOL    HW216713   6.060   5.615   4.490
 5272SOL     OW16714   3.847   0.067   0.272
 5272SOL    HW116715   3.837   0.105   0.364
 5272SOL    HW216716   3.943   0.066   0.246
 5273SOL     OW16717   1.111   3.248   3.074
 5273SOL    HW116718   1.041   3.178   3.055
 5273SOL    HW216719   1.200   3.213   3.047
 5274SOL     OW16720   4.800   6.230   2.484
 5274SOL    HW116721   4.768   6.309   2.432
 5274SOL    HW216722   4.725   6.195   2.541
 5275SOL     OW16723   3.104   0.647   0.768
 5275SOL    HW116724   3.075   0.741   0.751
 5275SOL    HW216725   3.113   0.598   0.681
 5276SOL     OW16726   2.803   6.518   1.731
 5276SOL    HW116727   2.723   6.563   1.771
 5276SOL    HW216728   2.787   6.420   1.728
 5277SOL     OW16729   2.064   1.051   2.484
 5277SOL    HW116730   2.032   1.127   2.540
 5277SOL    HW216731   2.158   1.028   2.508
 5278SOL     OW16732   4.070   4.980   2.255
 5278SOL    HW116733   4.090   5.059   2.313
 5278SOL    HW216734   4.007   4.919   2.303
 5279SOL     OW16735   2.397   5.681   1.246
 5279SOL    HW116736   2.392   5.601   1.307
 5279SOL    HW216737   2.322   5.677   1.180
 5280SOL     OW16738   3.344   6.213   5.069
 5280SOL    HW116739   3.314   6.128   5.026
 5280SOL    HW216740   3.282   6.235   5.145
 5281SOL     OW16741   0.508   1.901   2.546
 5281SOL    HW116742   0.518   1.931   2.641
 5281SOL    HW216743   0.589   1.850   2.518
 5282SOL     OW16744   2.602   1.997   3.286
 5282SOL    HW116745   2.508   2.032   3.296
 5282SOL    HW216746   2.667   2.072   3.301
 5283SOL     OW16747   5.281   5.779   0.534
 5283SOL    HW116748   5.257   5.804   0.628
 5283SOL    HW216749   5.197   5.774   0.479
 5284SOL     OW16750   5.314   3.811   3.294
 5284SOL    HW116751   5.264   3.850   3.372
 5284SOL    HW216752   5.310   3.711   3.299
 5285SOL     OW16753   3.015   5.168   4.098
 5285SOL    HW116754   3.110   5.195   4.085
 5285SOL    HW216755   2.980   5.207   4.183
 5286SOL     OW16756   1.505   4.237   1.533
 5286SOL    HW116757   1.528   4.333   1.515
 5286SOL    HW216758   1.407   4.224   1.522
 5287SOL     OW16759   2.506   1.328   0.399
 5287SOL    HW116760   2.605   1.342   0.395
 5287SOL    HW216761   2.487   1.232   0.418
 5288SOL     OW16762   2.835   0.322   1.059
 5288SOL    HW116763   2.754   0.281   1.016
 5288SOL    HW216764   2.899   0.349   0.987
 5289SOL     OW16765   1.053   5.310   1.033
 5289SOL    HW116766   1.050   5.211   1.047
 5289SOL    HW216767   0.961   5.343   1.012
 5290SOL     OW16768   3.550   5.600   0.329
 5290SOL    HW116769   3.507   5.511   0.343
 5290SOL    HW216770   3.551   5.651   0.415
 5291SOL     OW16771   2.269   4.910   5.528
 5291SOL    HW116772   2.178   4.893   5.564
 5291SOL    HW216773   2.263   4.970   5.448
 5292SOL     OW16774   5.157   3.291   6.292
 5292SOL    HW116775   5.210   3.225   6.346
 5292SOL    HW216776   5.200   3.381   6.299
 5293SOL     OW16777   0.589   0.280   4.041
 5293SOL    HW116778   0.578   0.210   4.111
 5293SOL    HW216779   0.510   0.340   4.042
 5294SOL     OW16780   6.142   3.086   6.180
 5294SOL    HW116781   6.174   3.025   6.253
 5294SOL    HW216782   6.219   3.138   6.145
 5295SOL     OW16783   5.942   0.610   2.855
 5295SOL    HW116784   6.030   0.610   2.808
 5295SOL    HW216785   5.953   0.571   2.947
 5296SOL     OW16786   1.149   4.507   0.801
 5296SOL    HW116787   1.131   4.579   0.734
 5296SOL    HW216788   1.115   4.536   0.891
 5297SOL     OW16789   1.918   1.320   1.412
 5297SOL    HW116790   1.908   1.221   1.413
 5297SOL    HW216791   1.917   1.354   1.506
 5298SOL     OW16792   6.885   5.025   1.249
 5298SOL    HW116793   6.790   4.993   1.255
 5298SOL    HW216794   6.943   4.964   1.303
 5299SOL     OW16795   3.023   0.679   2.007
 5299SOL    HW116796   3.053   0.602   1.951
 5299SOL    HW216797   2.928   0.665   2.034
 5300SOL     OW16798   0.089   5.779   3.678
 5300SOL    HW116799   0.178   5.809   3.712
 5300SOL    HW216800   0.093   5.770   3.579
 5301SOL     OW16801   4.383   1.336   6.776
 5301SOL    HW116802   4.339   1.359   6.689
 5301SOL    HW216803   4.418   1.242   6.773
 5302SOL     OW16804   6.327   4.565   2.801
 5302SOL    HW116805   6.254   4.577   2.867
 5302SOL    HW216806   6.416   4.567   2.848
 5303SOL     OW16807   5.926   4.161   3.610
 5303SOL    HW116808   5.883   4.251   3.602
 5303SOL    HW216809   5.902   4.120   3.699
 5304SOL     OW16810   4.900   1.522   5.486
 5304SOL    HW116811   4.997   1.537   5.506
 5304SOL    HW216812   4.891   1.451   5.416
 5305SOL     OW16813   2.612   0.658   3.316
 5305SOL    HW116814   2.703   0.699   3.324
 5305SOL    HW216815   2.605   0.580   3.378
 5306SOL     OW16816   3.287   6.688   5.868
 5306SOL    HW116817   3.337   6.650   5.947
 5306SOL    HW216818   3.258   6.614   5.808
 5307SOL     OW16819   4.558   6.887   6.559
 5307SOL    HW116820   4.551   6.872   6.658
 5307SOL    HW216821   4.566   6.800   6.512
 5308SOL     OW16822   6.988   1.335   3.392
 5308SOL    HW116823   6.975   1.372   3.300
 5308SOL    HW216824   0.035   1.265   3.389
 5309SOL     OW16825   3.493   4.141   3.455
 5309SOL    HW116826   3.425   4.174   3.521
 5309SOL    HW216827   3.563   4.088   3.503
 5310SOL     OW16828   5.428   2.138   1.422
 5310SOL    HW116829   5.335   2.141   1.385
 5310SOL    HW216830   5.450   2.226   1.464
 5311SOL     OW16831   2.029   5.461   6.920
 5311SOL    HW116832   1.933   5.443   6.898
 5311SOL    HW216833   2.034   5.533   6.989
 5312SOL     OW16834   0.612   4.113   3.269
 5312SOL    HW116835   0.593   4.077   3.177
 5312SOL    HW216836   0.661   4.200   3.260
 5313SOL     OW16837   0.915   5.706   6.522
 5313SOL    HW116838   0.958   5.738   6.438
 5313SOL    HW216839   0.845   5.771   6.552
 5314SOL     OW16840   3.931   5.158   0.146
 5314SOL    HW116841   3.992   5.212   0.087
 5314SOL    HW216842   3.949   5.060   0.130
 5315SOL     OW16843   5.804   2.868   1.926
 5315SOL    HW116844   5.743   2.817   1.866
 5315SOL    HW216845   5.823   2.958   1.887
 5316SOL     OW16846   6.615   4.440   3.692
 5316SOL    HW116847   6.607   4.351   3.737
 5316SOL    HW216848   6.542   4.500   3.723
 5317SOL     OW16849   5.390   6.654   2.699
 5317SOL    HW116850   5.303   6.643   2.747
 5317SOL    HW216851   5.393   6.744   2.656
 5318SOL     OW16852   0.557   2.657   4.286
 5318SOL    HW116853   0.612   2.575   4.303
 5318SOL    HW216854   0.592   2.732   4.342
 5319SOL     OW16855   4.970   0.573   0.489
 5319SOL    HW116856   4.928   0.598   0.402
 5319SOL    HW216857   4.898   0.558   0.557
 5320SOL     OW16858   5.844   3.565   6.389
 5320SOL    HW116859   5.940   3.559   6.362
 5320SOL    HW216860   5.788   3.591   6.310
 5321SOL     OW16861   1.725   5.510   5.968
 5321SOL    HW116862   1.735   5.411   5.964
 5321SOL    HW216863   1.637   5.537   5.928
 5322SOL     OW16864   3.147   5.696   6.867
 5322SOL    HW116865   3.110   5.605   6.845
 5322SOL    HW216866   3.236   5.686   6.910
 5323SOL     OW16867   5.080   2.048   0.843
 5323SOL    HW116868   5.046   1.989   0.916
 5323SOL    HW216869   5.180   2.038   0.836
 5324SOL     OW16870   3.910   2.795   1.677
 5324SOL    HW116871   3.857   2.835   1.602
 5324SOL    HW216872   3.961   2.866   1.725
 5325SOL     OW16873   5.758   6.244   2.643
 5325SOL    HW116874   5.684   6.282   2.698
 5325SOL    HW216875   5.833   6.215   2.702
 5326SOL     OW16876   6.870   6.056   1.347
 5326SOL    HW116877   6.809   6.106   1.287
 5326SOL    HW216878   6.836   5.962   1.359
 5327SOL     OW16879   6.401   0.090   4.171
 5327SOL    HW116880   6.384   0.038   4.087
 5327SOL    HW216881   6.424   0.184   4.147
 5328SOL     OW16882   3.855   4.436   0.245
 5328SOL    HW116883   3.894   4.433   0.153
 5328SOL    HW216884   3.914   4.386   0.308
 5329SOL     OW16885   0.236   4.435   0.198
 5329SOL    HW116886   0.283   4.511   0.244
 5329SOL    HW216887   0.285   4.350   0.215
 5330SOL     OW16888   4.272   3.995   1.350
 5330SOL    HW116889   4.177   3.981   1.320
 5330SOL    HW216890   4.283   4.089   1.382
 5331SOL     OW16891   4.588   2.866   0.297
 5331SOL    HW116892   4.535   2.914   0.367
 5331SOL    HW216893   4.624   2.932   0.231
 5332SOL     OW16894   6.008   3.862   0.641
 5332SOL    HW116895   5.983   3.883   0.735
 5332SOL    HW216896   6.091   3.912   0.617
 5333SOL     OW16897   2.291   1.044   3.748
 5333SOL    HW116898   2.390   1.038   3.760
 5333SOL    HW216899   2.246   1.023   3.835
 5334SOL     OW16900   4.384   4.706   2.486
 5334SOL    HW116901   4.319   4.682   2.413
 5334SOL    HW216902   4.476   4.715   2.448
 5335SOL     OW16903   0.018   4.665   1.825
 5335SOL    HW116904   0.083   4.726   1.869
 5335SOL    HW216905   0.036   4.663   1.726
 5336SOL     OW16906   1.665   2.242   4.365
 5336SOL    HW116907   1.638   2.246   4.461
 5336SOL    HW216908   1.628   2.322   4.316
 5337SOL     OW16909   6.555   4.634   1.189
 5337SOL    HW116910   6.647   4.610   1.220
 5337SOL    HW216911   6.488   4.580   1.241
 5338SOL     OW16912   6.906   3.499   0.803
 5338SOL    HW116913   6.922   3.558   0.723
 5338SOL    HW216914   6.924   3.404   0.778
 5339SOL     OW16915   5.855   2.797   2.683
 5339SOL    HW116916   5.794   2.751   2.618
 5339SOL    HW216917   5.860   2.743   2.767
 5340SOL     OW16918   5.535   2.607   2.585
 5340SOL    HW116919   5.497   2.544   2.517
 5340SOL    HW216920   5.624   2.573   2.617
 5341SOL     OW16921   4.645   5.292   3.189
 5341SOL    HW116922   4.549   5.317   3.177
 5341SOL    HW216923   4.653   5.230   3.267
 5342SOL     OW16924   5.994   6.637   4.360
 5342SOL    HW116925   6.062   6.599   4.298
 5342SOL    HW216926   5.981   6.576   4.437
 5343SOL     OW16927   4.059   3.633   5.657
 5343SOL    HW116928   4.101   3.723   5.655
 5343SOL    HW216929   4.072   3.587   5.570
 5344SOL     OW16930   0.802   1.730   6.291
 5344SOL    HW116931   0.891   1.703   6.326
 5344SOL    HW216932   0.732   1.667   6.324
 5345SOL     OW16933   5.626   2.009   6.956
 5345SOL    HW116934   5.668   1.931   6.910
 5345SOL    HW216935   5.603   1.985   0.024
 5346SOL     OW16936   3.009   5.461   3.757
 5346SOL    HW116937   3.082   5.393   3.747
 5346SOL    HW216938   2.921   5.419   3.735
 5347SOL     OW16939   6.300   1.920   4.196
 5347SOL    HW116940   6.370   1.935   4.126
 5347SOL    HW216941   6.210   1.938   4.156
 5348SOL     OW16942   5.369   1.754   3.652
 5348SOL    HW116943   5.442   1.799   3.600
 5348SOL    HW216944   5.408   1.683   3.709
 5349SOL     OW16945   0.217   3.556   2.531
 5349SOL    HW116946   0.130   3.606   2.534
 5349SOL    HW216947   0.284   3.608   2.478
 5350SOL     OW16948   2.110   6.354   6.355
 5350SOL    HW116949   2.128   6.417   6.430
 5350SOL    HW216950   2.099   6.261   6.391
 5351SOL     OW16951   0.137   5.235   1.879
 5351SOL    HW116952   0.222   5.267   1.839
 5351SOL    HW216953   0.158   5.173   1.955
 5352SOL     OW16954   2.131   3.607   4.273
 5352SOL    HW116955   2.186   3.541   4.222
 5352SOL    HW216956   2.095   3.563   4.356
 5353SOL     OW16957   4.460   5.853   3.183
 5353SOL    HW116958   4.476   5.787   3.110
 5353SOL    HW216959   4.373   5.832   3.228
 5354SOL     OW16960   3.878   5.748   0.571
 5354SOL    HW116961   3.954   5.685   0.589
 5354SOL    HW216962   3.911   5.825   0.516
 5355SOL     OW16963   5.031   5.016   5.096
 5355SOL    HW116964   5.040   5.077   5.018
 5355SOL    HW216965   5.053   5.065   5.180
 5356SOL     OW16966   6.991   5.074   1.710
 5356SOL    HW116967   6.915   5.130   1.678
 5356SOL    HW216968   0.036   5.133   1.750
 5357SOL     OW16969   5.272   4.204   2.348
 5357SOL    HW116970   5.176   4.178   2.361
 5357SOL    HW216971   5.323   4.181   2.431
 5358SOL     OW16972   4.800   2.059   0.770
 5358SOL    HW116973   4.746   2.135   0.734
 5358SOL    HW216974   4.881   2.094   0.816
 5359SOL     OW16975   2.459   2.076   6.388
 5359SOL    HW116976   2.542   2.024   6.409
 5359SOL    HW216977   2.459   2.101   6.291
 5360SOL     OW16978   4.920   4.713   3.072
 5360SOL    HW116979   4.879   4.628   3.106
 5360SOL    HW216980   4.867   4.791   3.104
 5361SOL     OW16981   2.584   5.809   2.474
 5361SOL    HW116982   2.642   5.797   2.394
 5361SOL    HW216983   2.505   5.866   2.450
 5362SOL     OW16984   5.980   0.603   1.904
 5362SOL    HW116985   6.037   0.581   1.825
 5362SOL    HW216986   6.027   0.668   1.963
 5363SOL     OW16987   5.854   5.280   4.613
 5363SOL    HW116988   5.763   5.238   4.612
 5363SOL    HW216989   5.900   5.257   4.698
 5364SOL     OW16990   4.836   1.366   2.542
 5364SOL    HW116991   4.800   1.288   2.594
 5364SOL    HW216992   4.842   1.446   2.603
 5365SOL     OW16993   3.401   2.917   4.556
 5365SOL    HW116994   3.366   3.010   4.543
 5365SOL    HW216995   3.401   2.869   4.468
 5366SOL     OW16996   6.236   6.216   2.071
 5366SOL    HW116997   6.157   6.156   2.081
 5366SOL    HW216998   6.320   6.161   2.069
 5367SOL     OW16999   6.072   6.105   1.601
 5367SOL    HW117000   6.162   6.071   1.574
 5367SOL    HW217001   6.001   6.059   1.547
 5368SOL     OW17002   6.761   5.747   3.913
 5368SOL    HW117003   6.858   5.724   3.921
 5368SOL    HW217004   6.740   5.773   3.818
 5369SOL     OW17005   2.538   6.098   1.871
 5369SOL    HW117006   2.441   6.082   1.852
 5369SOL    HW217007   2.566   6.042   1.949
 5370SOL     OW17008   2.626   3.774   1.670
 5370SOL    HW117009   2.707   3.821   1.635
 5370SOL    HW217010   2.641   3.676   1.670
 5371SOL     OW17011   6.008   5.233   4.860
 5371SOL    HW117012   5.982   5.152   4.912
 5371SOL    HW217013   5.964   5.314   4.899
 5372SOL     OW17014   0.631   0.437   2.966
 5372SOL    HW117015   0.688   0.486   3.032
 5372SOL    HW217016   0.624   0.490   2.882
 5373SOL     OW17017   3.081   0.567   6.793
 5373SOL    HW117018   3.175   0.597   6.778
 5373SOL    HW217019   3.023   0.646   6.814
 5374SOL     OW17020   2.795   4.969   1.946
 5374SOL    HW117021   2.853   4.887   1.952
 5374SOL    HW217022   2.807   5.011   1.856
 5375SOL     OW17023   1.298   5.069   4.689
 5375SOL    HW117024   1.280   5.133   4.763
 5375SOL    HW217025   1.396   5.064   4.672
 5376SOL     OW17026   6.899   1.272   6.408
 5376SOL    HW117027   6.996   1.288   6.393
 5376SOL    HW217028   6.852   1.271   6.320
 5377SOL     OW17029   2.504   0.355   3.123
 5377SOL    HW117030   2.552   0.429   3.077
 5377SOL    HW217031   2.489   0.279   3.060
 5378SOL     OW17032   5.896   0.793   2.166
 5378SOL    HW117033   5.829   0.741   2.219
 5378SOL    HW217034   5.979   0.807   2.221
 5379SOL     OW17035   1.592   2.703   5.946
 5379SOL    HW117036   1.627   2.749   5.864
 5379SOL    HW217037   1.667   2.692   6.012
 5380SOL     OW17038   4.644   6.784   1.162
 5380SOL    HW117039   4.648   6.684   1.166
 5380SOL    HW217040   4.639   6.820   1.255
 5381SOL     OW17041   4.485   6.347   3.748
 5381SOL    HW117042   4.556   6.308   3.806
 5381SOL    HW217043   4.396   6.334   3.791
 5382SOL     OW17044   4.273   1.915   1.816
 5382SOL    HW117045   4.183   1.927   1.857
 5382SOL    HW217046   4.309   2.004   1.787
 5383SOL     OW17047   2.509   2.588   4.500
 5383SOL    HW117048   2.553   2.660   4.446
 5383SOL    HW217049   2.444   2.629   4.564
 5384SOL     OW17050   5.616   5.402   4.838
 5384SOL    HW117051   5.579   5.337   4.773
 5384SOL    HW217052   5.634   5.356   4.925
 5385SOL     OW17053   4.623   2.769   5.959
 5385SOL    HW117054   4.654   2.786   5.865
 5385SOL    HW217055   4.702   2.764   6.020
 5386SOL     OW17056   6.057   4.241   4.025
 5386SOL    HW117057   6.099   4.167   4.077
 5386SOL    HW217058   6.016   4.308   4.087
 5387SOL     OW17059   1.470   1.225   2.665
 5387SOL    HW117060   1.421   1.162   2.605
 5387SOL    HW217061   1.406   1.293   2.702
 5388SOL     OW17062   0.942   6.816   1.891
 5388SOL    HW117063   1.013   6.746   1.897
 5388SOL    HW217064   0.942   6.856   1.799
 5389SOL     OW17065   4.082   1.482   4.098
 5389SOL    HW117066   4.074   1.453   4.193
 5389SOL    HW217067   4.047   1.410   4.038
 5390SOL     OW17068   6.978   2.707   4.108
 5390SOL    HW117069   6.944   2.760   4.186
 5390SOL    HW217070   0.044   2.739   4.083
 5391SOL     OW17071   2.327   3.346   0.743
 5391SOL    HW117072   2.266   3.272   0.773
 5391SOL    HW217073   2.358   3.328   0.650
 5392SOL     OW17074   5.840   2.244   3.541
 5392SOL    HW117075   5.911   2.177   3.564
 5392SOL    HW217076   5.783   2.207   3.467
 5393SOL     OW17077   3.612   1.964   5.565
 5393SOL    HW117078   3.559   1.966   5.480
 5393SOL    HW217079   3.631   1.869   5.590
 5394SOL     OW17080   1.374   1.156   1.090
 5394SOL    HW117081   1.450   1.091   1.100
 5394SOL    HW217082   1.295   1.122   1.141
 5395SOL     OW17083   6.402   1.398   0.983
 5395SOL    HW117084   6.347   1.449   0.917
 5395SOL    HW217085   6.467   1.460   1.026
 5396SOL     OW17086   5.196   5.586   2.789
 5396SOL    HW117087   5.261   5.661   2.805
 5396SOL    HW217088   5.235   5.500   2.823
 5397SOL     OW17089   0.050   1.188   2.502
 5397SOL    HW117090   0.005   1.225   2.420
 5397SOL    HW217091   0.146   1.213   2.502
 5398SOL     OW17092   5.134   1.684   3.534
 5398SOL    HW117093   5.083   1.759   3.492
 5398SOL    HW217094   5.212   1.721   3.584
 5399SOL     OW17095   2.599   0.428   6.101
 5399SOL    HW117096   2.531   0.488   6.142
 5399SOL    HW217097   2.595   0.434   6.002
 5400SOL     OW17098   4.110   3.228   1.531
 5400SOL    HW117099   4.045   3.303   1.543
 5400SOL    HW217100   4.145   3.200   1.620
 5401SOL     OW17101   5.727   4.089   1.624
 5401SOL    HW117102   5.729   3.998   1.666
 5401SOL    HW217103   5.642   4.100   1.573
 5402SOL     OW17104   1.303   6.757   1.268
 5402SOL    HW117105   1.249   6.835   1.236
 5402SOL    HW217106   1.386   6.749   1.214
 5403SOL     OW17107   5.262   2.885   6.993
 5403SOL    HW117108   5.284   2.788   6.998
 5403SOL    HW217109   5.175   2.903   0.014
 5404SOL     OW17110   6.834   0.871   0.881
 5404SOL    HW117111   6.769   0.836   0.814
 5404SOL    HW217112   6.807   0.963   0.910
 5405SOL     OW17113   5.347   6.112   6.742
 5405SOL    HW117114   5.384   6.074   6.657
 5405SOL    HW217115   5.396   6.196   6.765
 5406SOL     OW17116   3.087   0.170   3.876
 5406SOL    HW117117   2.990   0.148   3.874
 5406SOL    HW217118   3.137   0.107   3.816
 5407SOL     OW17119   1.818   6.726   2.263
 5407SOL    HW117120   1.878   6.806   2.268
 5407SOL    HW217121   1.844   6.670   2.185
 5408SOL     OW17122   3.456   1.825   4.457
 5408SOL    HW117123   3.410   1.754   4.404
 5408SOL    HW217124   3.480   1.789   4.547
 5409SOL     OW17125   1.297   2.882   0.768
 5409SOL    HW117126   1.237   2.923   0.699
 5409SOL    HW217127   1.386   2.927   0.765
 5410SOL     OW17128   1.091   2.300   0.184
 5410SOL    HW117129   1.146   2.226   0.147
 5410SOL    HW217130   1.150   2.379   0.204
 5411SOL     OW17131   3.533   4.931   6.673
 5411SOL    HW117132   3.465   4.984   6.724
 5411SOL    HW217133   3.613   4.988   6.653
 5412SOL     OW17134   6.894   2.221   5.920
 5412SOL    HW117135   6.994   2.226   5.914
 5412SOL    HW217136   6.867   2.208   6.015
 5413SOL     OW17137   0.299   6.805   4.673
 5413SOL    HW117138   0.293   6.811   4.772
 5413SOL    HW217139   0.241   6.875   4.631
 5414SOL     OW17140   5.725   3.560   5.071
 5414SOL    HW117141   5.751   3.587   5.163
 5414SOL    HW217142   5.677   3.472   5.074
 5415SOL     OW17143   3.566   0.268   6.752
 5415SOL    HW117144   3.662   0.283   6.730
 5415SOL    HW217145   3.540   0.175   6.725
 5416SOL     OW17146   3.138   5.476   6.523
 5416SOL    HW117147   3.202   5.403   6.546
 5416SOL    HW217148   3.189   5.554   6.486
 5417SOL     OW17149   4.901   6.056   3.586
 5417SOL    HW117150   4.894   6.136   3.526
 5417SOL    HW217151   4.958   6.079   3.666
 5418SOL     OW17152   6.512   3.764   4.399
 5418SOL    HW117153   6.582   3.696   4.376
 5418SOL    HW217154   6.555   3.845   4.438
 5419SOL     OW17155   4.319   6.808   6.354
 5419SOL    HW117156   4.387   6.737   6.375
 5419SOL    HW217157   4.357   6.898   6.375
 5420SOL     OW17158   0.832   1.039   1.808
 5420SOL    HW117159   0.817   0.982   1.889
 5420SOL    HW217160   0.792   0.993   1.728
 5421SOL     OW17161   3.620   5.019   2.217
 5421SOL    HW117162   3.615   5.119   2.209
 5421SOL    HW217163   3.674   4.982   2.142
 5422SOL     OW17164   2.456   5.856   3.888
 5422SOL    HW117165   2.463   5.756   3.879
 5422SOL    HW217166   2.530   5.899   3.836
 5423SOL     OW17167   5.742   5.744   2.025
 5423SOL    HW117168   5.683   5.693   2.087
 5423SOL    HW217169   5.699   5.831   2.000
 5424SOL     OW17170   4.397   3.794   5.575
 5424SOL    HW117171   4.451   3.794   5.492
 5424SOL    HW217172   4.454   3.770   5.653
 5425SOL     OW17173   1.143   3.931   6.016
 5425SOL    HW117174   1.056   3.958   6.057
 5425SOL    HW217175   1.137   3.937   5.917
 5426SOL     OW17176   5.250   5.244   1.905
 5426SOL    HW117177   5.345   5.238   1.875
 5426SOL    HW217178   5.242   5.206   1.997
 5427SOL     OW17179   4.846   2.664   6.364
 5427SOL    HW117180   4.770   2.599   6.366
 5427SOL    HW217181   4.876   2.682   6.458
 5428SOL     OW17182   6.232   5.494   3.400
 5428SOL    HW117183   6.305   5.512   3.335
 5428SOL    HW217184   6.238   5.559   3.476
 5429SOL     OW17185   3.387   0.090   4.308
 5429SOL    HW117186   3.458   0.038   4.260
 5429SOL    HW217187   3.306   0.098   4.250
 5430SOL     OW17188   2.903   4.009   5.762
 5430SOL    HW117189   2.928   3.912   5.768
 5430SOL    HW217190   2.918   4.041   5.669
 5431SOL     OW17191   3.404   4.763   6.274
 5431SOL    HW117192   3.359   4.761   6.364
 5431SOL    HW217193   3.501   4.784   6.286
 5432SOL     OW17194   5.460   5.197   0.155
 5432SOL    HW117195   5.379   5.256   0.161
 5432SOL    HW217196   5.516   5.225   0.077
 5433SOL     OW17197   1.908   0.294   1.227
 5433SOL    HW117198   1.844   0.298   1.304
 5433SOL    HW217199   1.864   0.333   1.146
 5434SOL     OW17200   5.594   0.431   4.689
 5434SOL    HW117201   5.658   0.451   4.615
 5434SOL    HW217202   5.633   0.462   4.776
 5435SOL     OW17203   6.925   4.136   0.900
 5435SOL    HW117204   6.960   4.043   0.906
 5435SOL    HW217205   6.956   4.189   0.979
 5436SOL     OW17206   1.031   4.605   2.961
 5436SOL    HW117207   1.032   4.599   3.061
 5436SOL    HW217208   0.997   4.520   2.923
 5437SOL     OW17209   3.728   6.082   1.727
 5437SOL    HW117210   3.733   6.094   1.826
 5437SOL    HW217211   3.727   6.172   1.682
 5438SOL     OW17212   5.158   4.808   2.392
 5438SOL    HW117213   5.138   4.781   2.298
 5438SOL    HW217214   5.094   4.764   2.455
 5439SOL     OW17215   1.242   5.210   1.671
 5439SOL    HW117216   1.144   5.232   1.677
 5439SOL    HW217217   1.293   5.275   1.727
 5440SOL     OW17218   6.301   6.102   3.473
 5440SOL    HW117219   6.339   6.025   3.422
 5440SOL    HW217220   6.275   6.174   3.409
 5441SOL     OW17221   4.919   3.089   3.328
 5441SOL    HW117222   4.879   3.000   3.309
 5441SOL    HW217223   4.883   3.157   3.264
 5442SOL     OW17224   4.511   6.527   5.351
 5442SOL    HW117225   4.417   6.503   5.374
 5442SOL    HW217226   4.555   6.570   5.430
 5443SOL     OW17227   4.270   0.546   4.219
 5443SOL    HW117228   4.339   0.523   4.287
 5443SOL    HW217229   4.286   0.639   4.185
 5444SOL     OW17230   5.763   1.515   4.926
 5444SOL    HW117231   5.783   1.471   4.838
 5444SOL    HW217232   5.839   1.575   4.950
 5445SOL     OW17233   5.872   5.183   5.662
 5445SOL    HW117234   5.790   5.195   5.606
 5445SOL    HW217235   5.897   5.086   5.662
 5446SOL     OW17236   0.436   4.562   6.100
 5446SOL    HW117237   0.428   4.550   6.199
 5446SOL    HW217238   0.392   4.648   6.073
 5447SOL     OW17239   1.285   1.644   0.667
 5447SOL    HW117240   1.197   1.690   0.676
 5447SOL    HW217241   1.333   1.679   0.586
 5448SOL     OW17242   4.408   5.332   3.078
 5448SOL    HW117243   4.331   5.387   3.111
 5448SOL    HW217244   4.447   5.375   2.996
 5449SOL     OW17245   2.738   1.822   1.347
 5449SOL    HW117246   2.754   1.838   1.444
 5449SOL    HW217247   2.787   1.740   1.318
 5450SOL     OW17248   4.218   5.563   1.653
 5450SOL    HW117249   4.279   5.636   1.622
 5450SOL    HW217250   4.190   5.508   1.575
 5451SOL     OW17251   0.466   6.981   3.449
 5451SOL    HW117252   0.534   6.966   3.521
 5451SOL    HW217253   0.484   6.919   3.373
 5452SOL     OW17254   2.200   4.440   2.254
 5452SOL    HW117255   2.279   4.395   2.295
 5452SOL    HW217256   2.140   4.475   2.326
 5453SOL     OW17257   5.711   3.975   2.980
 5453SOL    HW117258   5.670   4.029   2.906
 5453SOL    HW217259   5.742   3.888   2.944
 5454SOL     OW17260   5.328   5.436   3.145
 5454SOL    HW117261   5.413   5.469   3.185
 5454SOL    HW217262   5.251   5.461   3.203
 5455SOL     OW17263   1.233   1.506   3.500
 5455SOL    HW117264   1.309   1.568   3.480
 5455SOL    HW217265   1.162   1.555   3.550
 5456SOL     OW17266   6.166   1.094   6.896
 5456SOL    HW117267   6.235   1.155   6.858
 5456SOL    HW217268   6.176   1.003   6.854
 5457SOL     OW17269   6.106   2.716   6.871
 5457SOL    HW117270   6.025   2.666   6.901
 5457SOL    HW217271   6.101   2.731   6.772
 5458SOL     OW17272   6.131   4.247   0.564
 5458SOL    HW117273   6.106   4.274   0.657
 5458SOL    HW217274   6.155   4.327   0.510
 5459SOL     OW17275   2.286   3.653   5.668
 5459SOL    HW117276   2.304   3.605   5.753
 5459SOL    HW217277   2.189   3.643   5.644
 5460SOL     OW17278   1.729   0.403   0.692
 5460SOL    HW117279   1.647   0.432   0.742
 5460SOL    HW217280   1.703   0.371   0.601
 5461SOL     OW17281   6.510   1.081   5.710
 5461SOL    HW117282   6.608   1.060   5.707
 5461SOL    HW217283   6.495   1.158   5.772
 5462SOL     OW17284   5.262   5.505   6.661
 5462SOL    HW117285   5.222   5.524   6.750
 5462SOL    HW217286   5.304   5.588   6.624
 5463SOL     OW17287   0.739   3.232   6.554
 5463SOL    HW117288   0.684   3.215   6.472
 5463SOL    HW217289   0.680   3.227   6.634
 5464SOL     OW17290   6.912   6.313   5.101
 5464SOL    HW117291   6.859   6.265   5.171
 5464SOL    HW217292   6.853   6.377   5.053
 5465SOL     OW17293   6.957   6.009   3.733
 5465SOL    HW117294   7.015   5.928   3.727
 5465SOL    HW217295   6.861   5.980   3.740
 5466SOL     OW17296   6.152   2.749   6.029
 5466SOL    HW117297   6.159   2.813   5.953
 5466SOL    HW217298   6.058   2.716   6.036
 5467SOL     OW17299   5.388   3.322   4.049
 5467SOL    HW117300   5.313   3.298   4.111
 5467SOL    HW217301   5.462   3.255   4.061
 5468SOL     OW17302   0.511   1.213   1.797
 5468SOL    HW117303   0.603   1.240   1.826
 5468SOL    HW217304   0.448   1.290   1.808
 5469SOL     OW17305   2.472   0.485   5.261
 5469SOL    HW117306   2.481   0.531   5.349
 5469SOL    HW217307   2.478   0.386   5.274
 5470SOL     OW17308   4.020   5.460   3.978
 5470SOL    HW117309   3.990   5.369   4.006
 5470SOL    HW217310   3.983   5.480   3.887
 5471SOL     OW17311   4.800   0.726   3.116
 5471SOL    HW117312   4.828   0.747   3.023
 5471SOL    HW217313   4.882   0.713   3.173
 5472SOL     OW17314   2.489   1.812   6.598
 5472SOL    HW117315   2.567   1.762   6.635
 5472SOL    HW217316   2.418   1.748   6.571
 5473SOL     OW17317   2.517   3.857   1.150
 5473SOL    HW117318   2.549   3.887   1.240
 5473SOL    HW217319   2.595   3.842   1.090
 5474SOL     OW17320   0.772   5.520   3.666
 5474SOL    HW117321   0.699   5.452   3.658
 5474SOL    HW217322   0.758   5.574   3.749
 5475SOL     OW17323   6.714   2.358   5.345
 5475SOL    HW117324   6.780   2.295   5.386
 5475SOL    HW217325   6.744   2.382   5.253
 5476SOL     OW17326   2.427   6.760   5.941
 5476SOL    HW117327   2.508   6.807   5.906
 5476SOL    HW217328   2.344   6.808   5.910
 5477SOL     OW17329   2.133   5.048   4.034
 5477SOL    HW117330   2.132   5.027   3.936
 5477SOL    HW217331   2.226   5.067   4.063
 5478SOL     OW17332   5.522   5.091   5.852
 5478SOL    HW117333   5.563   5.123   5.766
 5478SOL    HW217334   5.548   5.153   5.926
 5479SOL     OW17335   3.715   2.093   4.875
 5479SOL    HW117336   3.655   2.138   4.810
 5479SOL    HW217337   3.748   2.007   4.836
 5480SOL     OW17338   6.591   3.976   4.641
 5480SOL    HW117339   6.587   3.955   4.739
 5480SOL    HW217340   6.506   4.020   4.613
 5481SOL     OW17341   4.684   1.111   6.660
 5481SOL    HW117342   4.756   1.082   6.723
 5481SOL    HW217343   4.599   1.064   6.683
 5482SOL     OW17344   4.361   3.224   1.778
 5482SOL    HW117345   4.438   3.253   1.721
 5482SOL    HW217346   4.390   3.149   1.837
 5483SOL     OW17347   6.714   3.853   6.113
 5483SOL    HW117348   6.683   3.776   6.169
 5483SOL    HW217349   6.811   3.842   6.092
 5484SOL     OW17350   6.926   6.545   4.384
 5484SOL    HW117351   6.901   6.481   4.456
 5484SOL    HW217352   6.857   6.543   4.311
 5485SOL     OW17353   3.668   6.760   5.586
 5485SOL    HW117354   3.581   6.807   5.603
 5485SOL    HW217355   3.742   6.811   5.629
 5486SOL     OW17356   1.327   1.140   3.106
 5486SOL    HW117357   1.336   1.089   3.020
 5486SOL    HW217358   1.306   1.078   3.180
 5487SOL     OW17359   6.399   4.686   0.407
 5487SOL    HW117360   6.438   4.633   0.482
 5487SOL    HW217361   6.472   4.727   0.353
 5488SOL     OW17362   5.168   1.915   6.322
 5488SOL    HW117363   5.150   1.862   6.405
 5488SOL    HW217364   5.265   1.907   6.298
 5489SOL     OW17365   1.648   4.684   2.863
 5489SOL    HW117366   1.625   4.708   2.768
 5489SOL    HW217367   1.643   4.585   2.875
 5490SOL     OW17368   2.764   1.223   0.601
 5490SOL    HW117369   2.711   1.139   0.586
 5490SOL    HW217370   2.750   1.285   0.523
 5491SOL     OW17371   1.608   4.829   0.405
 5491SOL    HW117372   1.612   4.820   0.505
 5491SOL    HW217373   1.547   4.904   0.380
 5492SOL     OW17374   0.745   2.307   6.202
 5492SOL    HW117375   0.838   2.320   6.168
 5492SOL    HW217376   0.733   2.358   6.287
 5493SOL     OW17377   3.861   3.025   6.172
 5493SOL    HW117378   3.806   3.020   6.089
 5493SOL    HW217379   3.856   3.117   6.210
 5494SOL     OW17380   6.271   3.639   1.503
 5494SOL    HW117381   6.301   3.556   1.455
 5494SOL    HW217382   6.348   3.701   1.514
 5495SOL     OW17383   4.114   3.353   3.013
 5495SOL    HW117384   4.158   3.329   2.926
 5495SOL    HW217385   4.078   3.270   3.056
 5496SOL     OW17386   3.336   5.839   1.895
 5496SOL    HW117387   3.254   5.888   1.863
 5496SOL    HW217388   3.385   5.897   1.960
 5497SOL     OW17389   0.117   1.487   3.112
 5497SOL    HW117390   0.131   1.542   3.195
 5497SOL    HW217391   0.187   1.415   3.108
 5498SOL     OW17392   4.349   1.772   5.660
 5498SOL    HW117393   4.280   1.777   5.733
 5498SOL    HW217394   4.310   1.727   5.580
 5499SOL     OW17395   7.014   1.877   3.092
 5499SOL    HW117396   0.002   1.974   3.074
 5499SOL    HW217397   0.053   1.847   3.163
 5500SOL     OW17398   1.728   5.975   0.574
 5500SOL    HW117399   1.783   5.947   0.652
 5500SOL    HW217400   1.727   6.075   0.567
 5501SOL     OW17401   2.911   0.246   2.280
 5501SOL    HW117402   2.879   0.196   2.360
 5501SOL    HW217403   2.882   0.200   2.197
 5502SOL     OW17404   6.375   4.223   5.856
 5502SOL    HW117405   6.377   4.134   5.902
 5502SOL    HW217406   6.291   4.232   5.804
 5503SOL     OW17407   1.179   4.546   3.202
 5503SOL    HW117408   1.195   4.455   3.239
 5503SOL    HW217409   1.264   4.599   3.204
 5504SOL     OW17410   3.500   1.792   4.736
 5504SOL    HW117411   3.459   1.832   4.818
 5504SOL    HW217412   3.599   1.786   4.749
 5505SOL     OW17413   3.203   5.484   5.277
 5505SOL    HW117414   3.130   5.456   5.215
 5505SOL    HW217415   3.217   5.583   5.270
 5506SOL     OW17416   6.451   0.708   5.300
 5506SOL    HW117417   6.545   0.715   5.264
 5506SOL    HW217418   6.389   0.757   5.239
 5507SOL     OW17419   2.636   6.829   4.066
 5507SOL    HW117420   2.694   6.876   4.000
 5507SOL    HW217421   2.681   6.745   4.096
 5508SOL     OW17422   2.357   0.259   6.269
 5508SOL    HW117423   2.377   0.345   6.315
 5508SOL    HW217424   2.308   0.198   6.331
 5509SOL     OW17425   5.973   0.076   0.719
 5509SOL    HW117426   5.912   0.145   0.681
 5509SOL    HW217427   6.034   0.042   0.647
 5510SOL     OW17428   4.596   0.417   5.798
 5510SOL    HW117429   4.695   0.405   5.805
 5510SOL    HW217430   4.550   0.336   5.833
 5511SOL     OW17431   0.182   0.509   2.081
 5511SOL    HW117432   0.244   0.431   2.075
 5511SOL    HW217433   0.097   0.487   2.034
 5512SOL     OW17434   0.814   1.414   6.552
 5512SOL    HW117435   0.823   1.355   6.472
 5512SOL    HW217436   0.903   1.452   6.576
 5513SOL     OW17437   4.643   4.332   4.448
 5513SOL    HW117438   4.742   4.326   4.464
 5513SOL    HW217439   4.595   4.288   4.524
 5514SOL     OW17440   5.308   4.928   2.623
 5514SOL    HW117441   5.291   4.894   2.530
 5514SOL    HW217442   5.258   4.872   2.689
 5515SOL     OW17443   6.897   2.442   2.108
 5515SOL    HW117444   6.798   2.447   2.095
 5515SOL    HW217445   6.921   2.356   2.152
 5516SOL     OW17446   1.497   3.333   6.832
 5516SOL    HW117447   1.466   3.385   6.752
 5516SOL    HW217448   1.589   3.365   6.858
 5517SOL     OW17449   3.118   1.968   0.923
 5517SOL    HW117450   3.212   2.003   0.934
 5517SOL    HW217451   3.053   2.042   0.941
 5518SOL     OW17452   5.880   5.424   5.840
 5518SOL    HW117453   5.885   5.497   5.771
 5518SOL    HW217454   5.883   5.335   5.794
 5519SOL     OW17455   5.555   3.433   3.729
 5519SOL    HW117456   5.573   3.448   3.632
 5519SOL    HW217457   5.638   3.399   3.774
 5520SOL     OW17458   1.330   3.843   2.349
 5520SOL    HW117459   1.274   3.911   2.301
 5520SOL    HW217460   1.301   3.838   2.444
 5521SOL     OW17461   5.690   6.250   1.769
 5521SOL    HW117462   5.598   6.264   1.804
 5521SOL    HW217463   5.728   6.338   1.740
 5522SOL     OW17464   2.440   3.326   1.691
 5522SOL    HW117465   2.411   3.384   1.766
 5522SOL    HW217466   2.509   3.374   1.636
 5523SOL     OW17467   3.058   6.813   2.579
 5523SOL    HW117468   3.061   6.912   2.570
 5523SOL    HW217469   3.066   6.771   2.488
 5524SOL     OW17470   1.266   4.747   5.316
 5524SOL    HW117471   1.266   4.847   5.308
 5524SOL    HW217472   1.252   4.706   5.226
 5525SOL     OW17473   6.695   5.212   6.790
 5525SOL    HW117474   6.619   5.228   6.853
 5525SOL    HW217475   6.780   5.239   6.834
 5526SOL     OW17476   6.059   3.318   3.279
 5526SOL    HW117477   6.052   3.220   3.260
 5526SOL    HW217478   6.103   3.363   3.201
 5527SOL     OW17479   1.451   2.860   1.670
 5527SOL    HW117480   1.547   2.835   1.652
 5527SOL    HW217481   1.398   2.776   1.686
 5528SOL     OW17482   0.362   2.590   4.830
 5528SOL    HW117483   0.441   2.648   4.808
 5528SOL    HW217484   0.386   2.494   4.816
 5529SOL     OW17485   2.228   0.624   4.550
 5529SOL    HW117486   2.142   0.580   4.574
 5529SOL    HW217487   2.296   0.605   4.621
 5530SOL     OW17488   0.385   2.039   0.326
 5530SOL    HW117489   0.457   1.979   0.293
 5530SOL    HW217490   0.332   1.992   0.397
 5531SOL     OW17491   4.136   3.341   5.089
 5531SOL    HW117492   4.072   3.336   5.012
 5531SOL    HW217493   4.092   3.304   5.171
 5532SOL     OW17494   1.592   1.357   0.493
 5532SOL    HW117495   1.568   1.383   0.399
 5532SOL    HW217496   1.508   1.335   0.544
 5533SOL     OW17497   3.266   0.592   2.695
 5533SOL    HW117498   3.366   0.588   2.685
 5533SOL    HW217499   3.243   0.650   2.773
 5534SOL     OW17500   1.411   3.533   6.673
 5534SOL    HW117501   1.477   3.577   6.613
 5534SOL    HW217502   1.367   3.602   6.731
 5535SOL     OW17503   6.421   3.025   3.361
 5535SOL    HW117504   6.346   2.970   3.398
 5535SOL    HW217505   6.397   3.057   3.270
 5536SOL     OW17506   2.219   0.648   4.279
 5536SOL    HW117507   2.161   0.586   4.226
 5536SOL    HW217508   2.235   0.609   4.369
 5537SOL     OW17509   3.799   0.440   5.003
 5537SOL    HW117510   3.879   0.499   4.991
 5537SOL    HW217511   3.810   0.388   5.088
 5538SOL     OW17512   4.065   1.028   5.754
 5538SOL    HW117513   4.161   1.045   5.776
 5538SOL    HW217514   4.055   0.936   5.714
 5539SOL     OW17515   1.145   0.842   1.974
 5539SOL    HW117516   1.052   0.875   1.993
 5539SOL    HW217517   1.177   0.883   1.889
 5540SOL     OW17518   5.386   3.271   0.667
 5540SOL    HW117519   5.340   3.215   0.736
 5540SOL    HW217520   5.351   3.364   0.671
 5541SOL     OW17521   5.253   3.668   5.668
 5541SOL    HW117522   5.168   3.709   5.701
 5541SOL    HW217523   5.295   3.729   5.600
 5542SOL     OW17524   5.571   5.070   6.299
 5542SOL    HW117525   5.476   5.060   6.268
 5542SOL    HW217526   5.627   4.997   6.259
 5543SOL     OW17527   1.867   6.099   0.049
 5543SOL    HW117528   1.781   6.058   0.078
 5543SOL    HW217529   1.927   6.027   0.013
 5544SOL     OW17530   4.536   5.369   5.940
 5544SOL    HW117531   4.454   5.414   5.907
 5544SOL    HW217532   4.604   5.365   5.867
 5545SOL     OW17533   4.190   1.385   2.804
 5545SOL    HW117534   4.205   1.484   2.814
 5545SOL    HW217535   4.095   1.368   2.779
 5546SOL     OW17536   1.096   5.801   4.764
 5546SOL    HW117537   1.060   5.840   4.849
 5546SOL    HW217538   1.121   5.876   4.702
 5547SOL     OW17539   4.476   2.087   5.512
 5547SOL    HW117540   4.551   2.057   5.571
 5547SOL    HW217541   4.433   2.168   5.551
 5548SOL     OW17542   6.955   3.825   5.972
 5548SOL    HW117543   6.889   3.866   5.909
 5548SOL    HW217544   0.019   3.818   5.928
 5549SOL     OW17545   4.150   3.393   1.859
 5549SOL    HW117546   4.214   3.345   1.799
 5549SOL    HW217547   4.179   3.489   1.868
 5550SOL     OW17548   2.326   4.195   2.768
 5550SOL    HW117549   2.315   4.096   2.779
 5550SOL    HW217550   2.266   4.242   2.833
 5551SOL     OW17551   1.512   5.274   2.986
 5551SOL    HW117552   1.544   5.237   3.073
 5551SOL    HW217553   1.587   5.275   2.920
 5552SOL     OW17554   6.113   0.017   5.853
 5552SOL    HW117555   6.097   6.999   5.942
 5552SOL    HW217556   6.103   6.974   5.781
 5553SOL     OW17557   4.570   0.261   6.780
 5553SOL    HW117558   4.633   0.189   6.751
 5553SOL    HW217559   4.536   0.240   6.872
 5554SOL     OW17560   5.145   3.262   1.638
 5554SOL    HW117561   5.111   3.234   1.549
 5554SOL    HW217562   5.070   3.296   1.694
 5555SOL     OW17563   0.843   3.618   2.955
 5555SOL    HW117564   0.786   3.674   3.016
 5555SOL    HW217565   0.842   3.657   2.863
 5556SOL     OW17566   6.143   1.221   4.265
 5556SOL    HW117567   6.213   1.261   4.323
 5556SOL    HW217568   6.073   1.179   4.321
 5557SOL     OW17569   3.049   5.926   1.599
 5557SOL    HW117570   2.967   5.966   1.641
 5557SOL    HW217571   3.025   5.838   1.558
 5558SOL     OW17572   3.437   3.972   0.631
 5558SOL    HW117573   3.522   3.929   0.660
 5558SOL    HW217574   3.418   4.050   0.690
 5559SOL     OW17575   1.277   0.111   2.593
 5559SOL    HW117576   1.309   0.185   2.534
 5559SOL    HW217577   1.177   0.113   2.597
 5560SOL     OW17578   6.625   5.812   2.543
 5560SOL    HW117579   6.569   5.882   2.500
 5560SOL    HW217580   6.648   5.840   2.636
 5561SOL     OW17581   3.148   0.490   4.998
 5561SOL    HW117582   3.085   0.414   5.011
 5561SOL    HW217583   3.213   0.468   4.926
 5562SOL     OW17584   4.361   4.335   6.842
 5562SOL    HW117585   4.411   4.393   6.777
 5562SOL    HW217586   4.419   4.318   6.922
 5563SOL     OW17587   3.054   5.208   2.935
 5563SOL    HW117588   2.970   5.248   2.971
 5563SOL    HW217589   3.046   5.109   2.934
 5564SOL     OW17590   4.818   6.950   6.911
 5564SOL    HW117591   4.722   6.934   6.935
 5564SOL    HW217592   4.870   6.967   6.995
 5565SOL     OW17593   4.266   2.801   6.998
 5565SOL    HW117594   4.327   2.825   6.923
 5565SOL    HW217595   4.290   2.855   0.053
 5566SOL     OW17596   1.899   4.197   0.716
 5566SOL    HW117597   1.805   4.224   0.695
 5566SOL    HW217598   1.954   4.279   0.729
 5567SOL     OW17599   0.148   3.773   2.059
 5567SOL    HW117600   0.089   3.843   2.018
 5567SOL    HW217601   0.140   3.688   2.007
 5568SOL     OW17602   4.276   0.332   3.130
 5568SOL    HW117603   4.241   0.420   3.097
 5568SOL    HW217604   4.275   0.332   3.230
 5569SOL     OW17605   2.386   1.864   2.880
 5569SOL    HW117606   2.403   1.907   2.792
 5569SOL    HW217607   2.469   1.866   2.935
 5570SOL     OW17608   6.400   3.398   3.077
 5570SOL    HW117609   6.309   3.425   3.044
 5570SOL    HW217610   6.418   3.444   3.164
 5571SOL     OW17611   6.851   5.081   1.981
 5571SOL    HW117612   6.910   5.052   1.906
 5571SOL    HW217613   6.907   5.109   2.059
 5572SOL     OW17614   1.705   4.071   4.711
 5572SOL    HW117615   1.754   4.102   4.629
 5572SOL    HW217616   1.770   4.051   4.784
 5573SOL     OW17617   1.386   5.327   5.172
 5573SOL    HW117618   1.290   5.343   5.148
 5573SOL    HW217619   1.439   5.310   5.088
 5574SOL     OW17620   0.343   2.995   6.836
 5574SOL    HW117621   0.392   2.943   6.906
 5574SOL    HW217622   0.272   3.050   6.880
 5575SOL     OW17623   0.044   6.941   0.838
 5575SOL    HW117624   0.035   6.842   0.832
 5575SOL    HW217625   0.137   6.966   0.864
 5576SOL     OW17626   1.314   4.011   2.899
 5576SOL    HW117627   1.318   4.104   2.936
 5576SOL    HW217628   1.395   3.994   2.843
 5577SOL     OW17629   2.344   3.175   0.501
 5577SOL    HW117630   2.418   3.109   0.492
 5577SOL    HW217631   2.265   3.144   0.448
 5578SOL     OW17632   3.640   4.051   2.676
 5578SOL    HW117633   3.616   4.097   2.762
 5578SOL    HW217634   3.628   3.952   2.688
 5579SOL     OW17635   0.884   3.620   1.010
 5579SOL    HW117636   0.921   3.541   1.059
 5579SOL    HW217637   0.815   3.666   1.067
 5580SOL     OW17638   4.388   2.224   6.128
 5580SOL    HW117639   4.354   2.172   6.206
 5580SOL    HW217640   4.342   2.313   6.124
 5581SOL     OW17641   1.083   1.192   1.248
 5581SOL    HW117642   1.020   1.218   1.321
 5581SOL    HW217643   1.162   1.255   1.247
 5582SOL     OW17644   2.853   3.977   0.204
 5582SOL    HW117645   2.820   3.940   0.290
 5582SOL    HW217646   2.785   3.961   0.132
 5583SOL     OW17647   4.105   0.865   2.447
 5583SOL    HW117648   4.049   0.838   2.526
 5583SOL    HW217649   4.118   0.964   2.448
 5584SOL     OW17650   6.301   3.700   4.189
 5584SOL    HW117651   6.361   3.728   4.264
 5584SOL    HW217652   6.339   3.619   4.143
 5585SOL     OW17653   5.138   5.150   3.427
 5585SOL    HW117654   5.094   5.066   3.394
 5585SOL    HW217655   5.206   5.128   3.496
 5586SOL     OW17656   0.163   3.504   5.813
 5586SOL    HW117657   0.074   3.520   5.772
 5586SOL    HW217658   0.205   3.592   5.837
 5587SOL     OW17659   4.114   0.381   0.648
 5587SOL    HW117660   4.129   0.479   0.656
 5587SOL    HW217661   4.198   0.336   0.618
 5588SOL     OW17662   2.504   6.364   2.533
 5588SOL    HW117663   2.409   6.393   2.524
 5588SOL    HW217664   2.517   6.319   2.622
 5589SOL     OW17665   5.995   4.615   6.789
 5589SOL    HW117666   6.068   4.560   6.830
 5589SOL    HW217667   5.913   4.559   6.779
 5590SOL     OW17668   6.314   6.387   3.718
 5590SOL    HW117669   6.350   6.451   3.650
 5590SOL    HW217670   6.245   6.328   3.674
 5591SOL     OW17671   0.465   2.152   1.233
 5591SOL    HW117672   0.564   2.162   1.249
 5591SOL    HW217673   0.425   2.243   1.222
 5592SOL     OW17674   1.882   5.315   3.788
 5592SOL    HW117675   1.897   5.369   3.706
 5592SOL    HW217676   1.897   5.219   3.768
 5593SOL     OW17677   0.213   2.780   6.718
 5593SOL    HW117678   0.161   2.821   6.642
 5593SOL    HW217679   0.257   2.853   6.770
 5594SOL     OW17680   5.024   0.917   4.701
 5594SOL    HW117681   4.996   0.981   4.629
 5594SOL    HW217682   4.972   0.832   4.693
 5595SOL     OW17683   0.970   1.373   4.629
 5595SOL    HW117684   1.015   1.371   4.718
 5595SOL    HW217685   0.979   1.464   4.589
 5596SOL     OW17686   4.584   6.385   2.374
 5596SOL    HW117687   4.576   6.373   2.473
 5596SOL    HW217688   4.572   6.482   2.351
 5597SOL     OW17689   4.881   2.402   4.321
 5597SOL    HW117690   4.914   2.495   4.337
 5597SOL    HW217691   4.826   2.373   4.399
 5598SOL     OW17692   5.201   3.440   4.574
 5598SOL    HW117693   5.278   3.498   4.605
 5598SOL    HW217694   5.207   3.351   4.619
 5599SOL     OW17695   1.168   1.370   4.310
 5599SOL    HW117696   1.186   1.432   4.233
 5599SOL    HW217697   1.086   1.316   4.291
 5600SOL     OW17698   0.608   1.345   2.226
 5600SOL    HW117699   0.660   1.285   2.288
 5600SOL    HW217700   0.511   1.340   2.249
 5601SOL     OW17701   2.816   0.153   5.952
 5601SOL    HW117702   2.865   0.120   5.871
 5601SOL    HW217703   2.832   0.251   5.963
 5602SOL     OW17704   0.161   1.383   0.385
 5602SOL    HW117705   0.130   1.291   0.362
 5602SOL    HW217706   0.121   1.412   0.472
 5603SOL     OW17707   5.696   2.527   6.534
 5603SOL    HW117708   5.702   2.460   6.459
 5603SOL    HW217709   5.636   2.602   6.506
 5604SOL     OW17710   6.564   2.135   5.212
 5604SOL    HW117711   6.473   2.105   5.243
 5604SOL    HW217712   6.619   2.158   5.292
 5605SOL     OW17713   0.959   0.811   4.721
 5605SOL    HW117714   0.921   0.725   4.688
 5605SOL    HW217715   0.892   0.885   4.707
 5606SOL     OW17716   4.842   6.882   0.672
 5606SOL    HW117717   4.912   6.812   0.685
 5606SOL    HW217718   4.777   6.879   0.748
 5607SOL     OW17719   5.433   0.408   2.473
 5607SOL    HW117720   5.461   0.478   2.539
 5607SOL    HW217721   5.498   0.405   2.398
 5608SOL     OW17722   4.721   0.258   4.921
 5608SOL    HW117723   4.793   0.189   4.927
 5608SOL    HW217724   4.755   0.345   4.956
 5609SOL     OW17725   2.181   5.110   1.273
 5609SOL    HW117726   2.187   5.065   1.184
 5609SOL    HW217727   2.267   5.157   1.293
 5610SOL     OW17728   4.675   6.863   0.883
 5610SOL    HW117729   4.688   6.807   0.965
 5610SOL    HW217730   4.594   6.921   0.895
 5611SOL     OW17731   0.997   5.404   2.573
 5611SOL    HW117732   0.926   5.334   2.568
 5611SOL    HW217733   1.064   5.389   2.500
 5612SOL     OW17734   3.691   2.215   6.832
 5612SOL    HW117735   3.666   2.236   6.927
 5612SOL    HW217736   3.739   2.127   6.829
 5613SOL     OW17737   5.295   3.983   3.592
 5613SOL    HW117738   5.390   4.005   3.570
 5613SOL    HW217739   5.285   3.884   3.605
 5614SOL     OW17740   4.639   2.719   4.189
 5614SOL    HW117741   4.701   2.646   4.162
 5614SOL    HW217742   4.654   2.741   4.285
 5615SOL     OW17743   0.621   0.934   5.260
 5615SOL    HW117744   0.600   0.842   5.226
 5615SOL    HW217745   0.592   1.002   5.192
 5616SOL     OW17746   2.197   1.275   4.928
 5616SOL    HW117747   2.104   1.312   4.921
 5616SOL    HW217748   2.195   1.176   4.913
 5617SOL     OW17749   2.335   6.666   6.432
 5617SOL    HW117750   2.241   6.652   6.462
 5617SOL    HW217751   2.337   6.685   6.334
 5618SOL     OW17752   6.157   3.669   3.687
 5618SOL    HW117753   6.228   3.737   3.703
 5618SOL    HW217754   6.198   3.577   3.686
 5619SOL     OW17755   3.200   3.872   6.194
 5619SOL    HW117756   3.247   3.936   6.256
 5619SOL    HW217757   3.122   3.918   6.152
 5620SOL     OW17758   3.709   3.373   0.879
 5620SOL    HW117759   3.701   3.299   0.946
 5620SOL    HW217760   3.691   3.337   0.787
 5621SOL     OW17761   1.008   2.376   6.144
 5621SOL    HW117762   1.078   2.408   6.207
 5621SOL    HW217763   0.955   2.453   6.110
 5622SOL     OW17764   4.469   0.207   5.969
 5622SOL    HW117765   4.433   0.265   6.042
 5622SOL    HW217766   4.533   0.141   6.007
 5623SOL     OW17767   2.115   6.089   6.167
 5623SOL    HW117768   2.088   6.099   6.263
 5623SOL    HW217769   2.098   6.174   6.118
 5624SOL     OW17770   0.890   4.628   3.231
 5624SOL    HW117771   0.864   4.712   3.278
 5624SOL    HW217772   0.989   4.615   3.238
 5625SOL     OW17773   6.145   1.683   4.271
 5625SOL    HW117774   6.196   1.749   4.217
 5625SOL    HW217775   6.205   1.641   4.338
 5626SOL     OW17776   2.895   6.806   4.636
 5626SOL    HW117777   2.875   6.759   4.549
 5626SOL    HW217778   2.953   6.748   4.692
 5627SOL     OW17779   0.878   6.048   0.180
 5627SOL    HW117780   0.968   6.090   0.188
 5627SOL    HW217781   0.886   5.949   0.181
 5628SOL     OW17782   1.254   2.691   5.882
 5628SOL    HW117783   1.181   2.664   5.944
 5628SOL    HW217784   1.340   2.696   5.933
 5629SOL     OW17785   3.514   3.630   2.483
 5629SOL    HW117786   3.537   3.668   2.394
 5629SOL    HW217787   3.426   3.582   2.477
 5630SOL     OW17788   1.424   5.041   0.355
 5630SOL    HW117789   1.430   5.042   0.255
 5630SOL    HW217790   1.459   5.127   0.392
 5631SOL     OW17791   4.622   1.798   6.796
 5631SOL    HW117792   4.572   1.712   6.806
 5631SOL    HW217793   4.709   1.780   6.750
 5632SOL     OW17794   4.009   2.582   5.936
 5632SOL    HW117795   3.948   2.580   6.016
 5632SOL    HW217796   3.956   2.569   5.853
 5633SOL     OW17797   5.841   2.779   4.023
 5633SOL    HW117798   5.893   2.837   4.085
 5633SOL    HW217799   5.873   2.685   4.030
 5634SOL     OW17800   2.230   5.934   5.388
 5634SOL    HW117801   2.194   5.956   5.298
 5634SOL    HW217802   2.330   5.942   5.386
 5635SOL     OW17803   2.215   3.814   5.267
 5635SOL    HW117804   2.260   3.727   5.285
 5635SOL    HW217805   2.279   3.877   5.223
 5636SOL     OW17806   3.332   6.303   2.359
 5636SOL    HW117807   3.244   6.288   2.404
 5636SOL    HW217808   3.397   6.340   2.425
 5637SOL     OW17809   5.049   6.935   3.797
 5637SOL    HW117810   5.101   6.931   3.882
 5637SOL    HW217811   4.957   6.969   3.815
 5638SOL     OW17812   5.623   3.596   1.579
 5638SOL    HW117813   5.563   3.658   1.629
 5638SOL    HW217814   5.715   3.634   1.576
 5639SOL     OW17815   0.108   0.661   0.229
 5639SOL    HW117816   0.075   0.601   0.156
 5639SOL    HW217817   0.159   0.737   0.188
 5640SOL     OW17818   2.723   0.626   3.721
 5640SOL    HW117819   2.810   0.674   3.712
 5640SOL    HW217820   2.648   0.689   3.702
 5641SOL     OW17821   0.964   4.842   5.469
 5641SOL    HW117822   1.030   4.910   5.501
 5641SOL    HW217823   0.979   4.823   5.372
 5642SOL     OW17824   1.958   6.749   6.866
 5642SOL    HW117825   2.051   6.716   6.884
 5642SOL    HW217826   1.893   6.674   6.878
 5643SOL     OW17827   4.442   1.233   4.896
 5643SOL    HW117828   4.383   1.156   4.873
 5643SOL    HW217829   4.493   1.261   4.814
 5644SOL     OW17830   3.174   0.101   5.534
 5644SOL    HW117831   3.189   0.157   5.616
 5644SOL    HW217832   3.183   0.004   5.558
 5645SOL     OW17833   6.149   3.980   3.698
 5645SOL    HW117834   6.182   3.957   3.790
 5645SOL    HW217835   6.050   3.963   3.693
 5646SOL     OW17836   1.902   5.224   2.986
 5646SOL    HW117837   1.831   5.208   3.056
 5646SOL    HW217838   1.948   5.311   3.004
 5647SOL     OW17839   5.404   6.263   1.592
 5647SOL    HW117840   5.403   6.349   1.540
 5647SOL    HW217841   5.318   6.214   1.576
 5648SOL     OW17842   2.224   5.700   2.938
 5648SOL    HW117843   2.256   5.698   3.032
 5648SOL    HW217844   2.167   5.781   2.924
 5649SOL     OW17845   1.162   6.563   3.828
 5649SOL    HW117846   1.070   6.543   3.860
 5649SOL    HW217847   1.219   6.482   3.837
 5650SOL     OW17848   0.927   4.853   0.710
 5650SOL    HW117849   1.024   4.857   0.734
 5650SOL    HW217850   0.877   4.804   0.781
 5651SOL     OW17851   1.505   0.539   0.509
 5651SOL    HW117852   1.537   0.618   0.458
 5651SOL    HW217853   1.468   0.568   0.597
 5652SOL     OW17854   6.945   5.389   1.835
 5652SOL    HW117855   6.909   5.347   1.752
 5652SOL    HW217856   0.000   5.337   1.866
 5653SOL     OW17857   0.258   5.786   0.282
 5653SOL    HW117858   0.224   5.692   0.287
 5653SOL    HW217859   0.337   5.790   0.221
 5654SOL     OW17860   1.603   5.598   4.441
 5654SOL    HW117861   1.586   5.687   4.400
 5654SOL    HW217862   1.519   5.544   4.441
 5655SOL     OW17863   6.515   2.862   3.921
 5655SOL    HW117864   6.560   2.773   3.930
 5655SOL    HW217865   6.478   2.872   3.829
 5656SOL     OW17866   6.556   4.025   6.232
 5656SOL    HW117867   6.611   4.106   6.215
 5656SOL    HW217868   6.608   3.943   6.208
 5657SOL     OW17869   4.625   4.361   4.971
 5657SOL    HW117870   4.546   4.300   4.962
 5657SOL    HW217871   4.674   4.365   4.884
 5658SOL     OW17872   3.114   3.346   6.150
 5658SOL    HW117873   3.018   3.371   6.158
 5658SOL    HW217874   3.169   3.427   6.130
 5659SOL     OW17875   3.492   3.892   5.873
 5659SOL    HW117876   3.397   3.913   5.848
 5659SOL    HW217877   3.508   3.794   5.861
 5660SOL     OW17878   4.853   0.329   6.657
 5660SOL    HW117879   4.883   0.351   6.564
 5660SOL    HW217880   4.801   0.244   6.656
 5661SOL     OW17881   1.255   5.167   5.893
 5661SOL    HW117882   1.171   5.188   5.842
 5661SOL    HW217883   1.323   5.128   5.831
 5662SOL     OW17884   2.334   6.609   2.631
 5662SOL    HW117885   2.373   6.664   2.557
 5662SOL    HW217886   2.275   6.667   2.688
 5663SOL     OW17887   1.311   2.452   0.221
 5663SOL    HW117888   1.274   2.484   0.308
 5663SOL    HW217889   1.409   2.471   0.217
 5664SOL     OW17890   5.685   3.855   4.604
 5664SOL    HW117891   5.695   3.798   4.523
 5664SOL    HW217892   5.601   3.828   4.652
 5665SOL     OW17893   1.140   5.845   0.028
 5665SOL    HW117894   1.068   5.803   0.085
 5665SOL    HW217895   1.175   5.777   6.989
 5666SOL     OW17896   6.318   0.996   3.864
 5666SOL    HW117897   6.234   0.944   3.847
 5666SOL    HW217898   6.386   0.936   3.907
 5667SOL     OW17899   1.806   4.861   4.124
 5667SOL    HW117900   1.765   4.924   4.190
 5667SOL    HW217901   1.905   4.855   4.141
 5668SOL     OW17902   6.243   2.862   2.786
 5668SOL    HW117903   6.187   2.860   2.702
 5668SOL    HW217904   6.334   2.898   2.764
 5669SOL     OW17905   6.606   4.753   0.268
 5669SOL    HW117906   6.545   4.803   0.206
 5669SOL    HW217907   6.674   4.817   0.305
 5670SOL     OW17908   1.766   3.019   2.995
 5670SOL    HW117909   1.749   3.062   2.906
 5670SOL    HW217910   1.856   3.047   3.029
 5671SOL     OW17911   6.533   5.771   5.221
 5671SOL    HW117912   6.467   5.801   5.152
 5671SOL    HW217913   6.499   5.689   5.267
 5672SOL     OW17914   4.722   3.972   5.358
 5672SOL    HW117915   4.655   3.910   5.316
 5672SOL    HW217916   4.715   4.062   5.315
 5673SOL     OW17917   1.064   6.761   1.463
 5673SOL    HW117918   1.077   6.820   1.384
 5673SOL    HW217919   1.122   6.679   1.453
 5674SOL     OW17920   2.264   4.688   4.361
 5674SOL    HW117921   2.327   4.610   4.363
 5674SOL    HW217922   2.275   4.741   4.446
 5675SOL     OW17923   3.953   1.570   0.048
 5675SOL    HW117924   4.044   1.537   0.023
 5675SOL    HW217925   3.903   1.498   0.095
 5676SOL     OW17926   2.762   2.108   1.704
 5676SOL    HW117927   2.699   2.156   1.765
 5676SOL    HW217928   2.807   2.174   1.644
 5677SOL     OW17929   6.755   0.715   0.629
 5677SOL    HW117930   6.788   0.664   0.550
 5677SOL    HW217931   6.694   0.788   0.598
 5678SOL     OW17932   4.134   1.129   2.442
 5678SOL    HW117933   4.213   1.153   2.386
 5678SOL    HW217934   4.049   1.153   2.394
 5679SOL     OW17935   5.937   2.154   4.872
 5679SOL    HW117936   6.028   2.190   4.851
 5679SOL    HW217937   5.868   2.225   4.858
 5680SOL     OW17938   1.657   4.664   5.969
 5680SOL    HW117939   1.755   4.675   5.952
 5680SOL    HW217940   1.633   4.567   5.963
 5681SOL     OW17941   0.506   4.133   2.997
 5681SOL    HW117942   0.437   4.118   2.926
 5681SOL    HW217943   0.583   4.071   2.982
 5682SOL     OW17944   2.860   5.561   2.717
 5682SOL    HW117945   2.926   5.499   2.675
 5682SOL    HW217946   2.858   5.546   2.816
 5683SOL     OW17947   4.131   2.539   6.530
 5683SOL    HW117948   4.079   2.506   6.608
 5683SOL    HW217949   4.100   2.492   6.447
 5684SOL     OW17950   2.496   3.849   6.387
 5684SOL    HW117951   2.413   3.794   6.378
 5684SOL    HW217952   2.545   3.850   6.300
 5685SOL     OW17953   1.742   2.093   3.701
 5685SOL    HW117954   1.812   2.096   3.773
 5685SOL    HW217955   1.652   2.108   3.741
 5686SOL     OW17956   3.190   0.982   5.578
 5686SOL    HW117957   3.163   0.914   5.646
 5686SOL    HW217958   3.271   0.951   5.529
 5687SOL     OW17959   0.175   6.293   5.971
 5687SOL    HW117960   0.142   6.315   5.879
 5687SOL    HW217961   0.121   6.343   6.039
 5688SOL     OW17962   2.293   2.724   3.404
 5688SOL    HW117963   2.262   2.767   3.489
 5688SOL    HW217964   2.289   2.791   3.330
 5689SOL     OW17965   2.140   0.569   1.914
 5689SOL    HW117966   2.180   0.590   1.825
 5689SOL    HW217967   2.212   0.544   1.978
 5690SOL     OW17968   0.932   5.126   6.845
 5690SOL    HW117969   0.950   5.042   6.897
 5690SOL    HW217970   0.833   5.136   6.830
 5691SOL     OW17971   3.479   0.858   2.400
 5691SOL    HW117972   3.415   0.795   2.356
 5691SOL    HW217973   3.572   0.838   2.368
 5692SOL     OW17974   4.501   5.013   0.736
 5692SOL    HW117975   4.571   5.067   0.689
 5692SOL    HW217976   4.449   5.072   0.798
 5693SOL     OW17977   4.007   0.515   1.374
 5693SOL    HW117978   3.976   0.516   1.279
 5693SOL    HW217979   3.984   0.427   1.416
 5694SOL     OW17980   0.431   6.984   2.439
 5694SOL    HW117981   0.386   0.003   2.516
 5694SOL    HW217982   0.522   6.954   2.465
 5695SOL     OW17983   0.963   0.767   2.373
 5695SOL    HW117984   0.947   0.722   2.461
 5695SOL    HW217985   0.971   0.699   2.301
 5696SOL     OW17986   1.697   0.915   4.384
 5696SOL    HW117987   1.733   0.902   4.476
 5696SOL    HW217988   1.672   0.827   4.345
 5697SOL     OW17989   6.436   2.161   1.681
 5697SOL    HW117990   6.437   2.201   1.589
 5697SOL    HW217991   6.522   2.182   1.727
 5698SOL     OW17992   1.663   3.653   3.487
 5698SOL    HW117993   1.751   3.663   3.533
 5698SOL    HW217994   1.593   3.707   3.534
 5699SOL     OW17995   2.271   2.207   2.988
 5699SOL    HW117996   2.279   2.199   3.087
 5699SOL    HW217997   2.174   2.217   2.964
 5700SOL     OW17998   6.807   0.029   2.375
 5700SOL    HW117999   6.745   7.013   2.308
 5700SOL    HW218000   6.776   0.008   2.467
 5701SOL     OW18001   7.013   1.555   0.838
 5701SOL    HW118002   7.012   1.612   0.920
 5701SOL    HW218003   0.060   1.485   0.846
 5702SOL     OW18004   2.005   6.489   4.623
 5702SOL    HW118005   1.911   6.524   4.622
 5702SOL    HW218006   2.067   6.561   4.592
 5703SOL     OW18007   0.075   4.284   6.187
 5703SOL    HW118008   0.166   4.241   6.184
 5703SOL    HW218009   0.066   4.336   6.272
 5704SOL     OW18010   5.372   4.456   3.755
 5704SOL    HW118011   5.461   4.413   3.763
 5704SOL    HW218012   5.360   4.493   3.662
 5705SOL     OW18013   6.064   5.976   6.452
 5705SOL    HW118014   6.147   5.935   6.414
 5705SOL    HW218015   6.008   6.012   6.377
 5706SOL     OW18016   5.521   2.965   0.917
 5706SOL    HW118017   5.620   2.970   0.903
 5706SOL    HW218018   5.496   3.006   1.004
 5707SOL     OW18019   5.128   0.185   1.544
 5707SOL    HW118020   5.222   0.217   1.556
 5707SOL    HW218021   5.067   0.263   1.531
 5708SOL     OW18022   5.315   6.020   3.115
 5708SOL    HW118023   5.362   6.085   3.175
 5708SOL    HW218024   5.226   6.057   3.090
 5709SOL     OW18025   0.163   0.767   2.540
 5709SOL    HW118026   0.190   0.744   2.446
 5709SOL    HW218027   0.064   0.770   2.546
 5710SOL     OW18028   3.003   2.799   0.939
 5710SOL    HW118029   3.056   2.866   0.886
 5710SOL    HW218030   2.988   2.718   0.883
 5711SOL     OW18031   4.872   0.836   1.810
 5711SOL    HW118032   4.886   0.774   1.887
 5711SOL    HW218033   4.889   0.930   1.839
 5712SOL     OW18034   6.353   6.036   1.144
 5712SOL    HW118035   6.361   6.129   1.178
 5712SOL    HW218036   6.288   6.034   1.068
 5713SOL     OW18037   2.965   5.206   0.560
 5713SOL    HW118038   3.010   5.188   0.472
 5713SOL    HW218039   2.921   5.296   0.557
 5714SOL     OW18040   6.385   6.478   1.761
 5714SOL    HW118041   6.387   6.533   1.677
 5714SOL    HW218042   6.448   6.518   1.828
 5715SOL     OW18043   0.585   6.477   1.084
 5715SOL    HW118044   0.571   6.448   1.178
 5715SOL    HW218045   0.548   6.409   1.021
 5716SOL     OW18046   1.156   5.193   6.177
 5716SOL    HW118047   1.098   5.112   6.189
 5716SOL    HW218048   1.191   5.195   6.083
 5717SOL     OW18049   2.154   4.953   2.511
 5717SOL    HW118050   2.225   4.899   2.556
 5717SOL    HW218051   2.193   5.003   2.434
 5718SOL     OW18052   0.793   2.832   0.307
 5718SOL    HW118053   0.864   2.786   0.254
 5718SOL    HW218054   0.774   2.921   0.266
 5719SOL     OW18055   2.691   3.300   1.243
 5719SOL    HW118056   2.608   3.329   1.290
 5719SOL    HW218057   2.765   3.289   1.309
 5720SOL     OW18058   2.078   6.163   5.484
 5720SOL    HW118059   2.129   6.210   5.556
 5720SOL    HW218060   2.123   6.076   5.463
 5721SOL     OW18061   5.595   4.484   0.983
 5721SOL    HW118062   5.657   4.409   1.006
 5721SOL    HW218063   5.594   4.550   1.058
 5722SOL     OW18064   0.371   1.217   5.035
 5722SOL    HW118065   0.390   1.290   4.970
 5722SOL    HW218066   0.370   1.255   5.128
 5723SOL     OW18067   3.676   3.512   6.879
 5723SOL    HW118068   3.675   3.601   6.832
 5723SOL    HW218069   3.582   3.478   6.887
 5724SOL     OW18070   6.104   2.645   3.206
 5724SOL    HW118071   6.158   2.571   3.166
 5724SOL    HW218072   6.138   2.733   3.174
 5725SOL     OW18073   5.708   5.280   2.938
 5725SOL    HW118074   5.679   5.355   2.879
 5725SOL    HW218075   5.711   5.311   3.033
 5726SOL     OW18076   5.464   4.260   3.462
 5726SOL    HW118077   5.431   4.293   3.373
 5726SOL    HW218078   5.532   4.188   3.447
 5727SOL     OW18079   0.209   2.493   4.564
 5727SOL    HW118080   0.291   2.470   4.512
 5727SOL    HW218081   0.232   2.562   4.633
 5728SOL     OW18082   5.022   5.825   5.569
 5728SOL    HW118083   4.992   5.744   5.620
 5728SOL    HW218084   5.118   5.845   5.590
 5729SOL     OW18085   2.108   2.433   6.055
 5729SOL    HW118086   2.063   2.393   6.135
 5729SOL    HW218087   2.095   2.532   6.055
 5730SOL     OW18088   6.959   4.478   5.727
 5730SOL    HW118089   6.871   4.511   5.759
 5730SOL    HW218090   6.987   4.399   5.782
 5731SOL     OW18091   6.545   0.031   1.456
 5731SOL    HW118092   6.560   6.969   1.503
 5731SOL    HW218093   6.622   0.092   1.473
 5732SOL     OW18094   1.301   6.331   4.070
 5732SOL    HW118095   1.287   6.317   3.972
 5732SOL    HW218096   1.219   6.304   4.120
 5733SOL     OW18097   4.077   6.600   5.199
 5733SOL    HW118098   4.148   6.633   5.137
 5733SOL    HW218099   3.990   6.643   5.175
 5734SOL     OW18100   1.768   6.146   4.888
 5734SOL    HW118101   1.855   6.171   4.845
 5734SOL    HW218102   1.697   6.139   4.817
 5735SOL     OW18103   2.741   1.876   2.003
 5735SOL    HW118104   2.780   1.786   2.024
 5735SOL    HW218105   2.816   1.941   1.987
 5736SOL     OW18106   0.521   4.858   0.001
 5736SOL    HW118107   0.497   4.766   0.031
 5736SOL    HW218108   0.478   4.877   6.938
 5737SOL     OW18109   5.781   6.189   6.519
 5737SOL    HW118110   5.796   6.090   6.512
 5737SOL    HW218111   5.806   6.220   6.611
 5738SOL     OW18112   1.925   3.472   6.612
 5738SOL    HW118113   2.007   3.527   6.626
 5738SOL    HW218114   1.856   3.499   6.679
 5739SOL     OW18115   1.327   1.093   0.567
 5739SOL    HW118116   1.277   1.128   0.647
 5739SOL    HW218117   1.425   1.097   0.586
 5740SOL     OW18118   4.195   6.184   0.074
 5740SOL    HW118119   4.110   6.171   0.023
 5740SOL    HW218120   4.174   6.217   0.166
 5741SOL     OW18121   6.628   5.711   4.884
 5741SOL    HW118122   6.650   5.802   4.848
 5741SOL    HW218123   6.589   5.655   4.811
 5742SOL     OW18124   6.097   6.449   2.511
 5742SOL    HW118125   6.040   6.467   2.431
 5742SOL    HW218126   6.057   6.492   2.591
 5743SOL     OW18127   2.613   0.045   5.022
 5743SOL    HW118128   2.688   0.027   4.958
 5743SOL    HW218129   2.531   0.069   4.971
 5744SOL     OW18130   5.245   1.523   0.218
 5744SOL    HW118131   5.208   1.468   0.143
 5744SOL    HW218132   5.284   1.462   0.287
 5745SOL     OW18133   1.589   1.714   4.668
 5745SOL    HW118134   1.533   1.754   4.595
 5745SOL    HW218135   1.622   1.625   4.639
 5746SOL     OW18136   5.421   1.735   6.745
 5746SOL    HW118137   5.483   1.701   6.815
 5746SOL    HW218138   5.334   1.687   6.751
 5747SOL     OW18139   0.059   5.474   2.890
 5747SOL    HW118140   0.149   5.502   2.924
 5747SOL    HW218141   0.059   5.376   2.870
 5748SOL     OW18142   2.295   4.774   1.762
 5748SOL    HW118143   2.354   4.715   1.817
 5748SOL    HW218144   2.233   4.717   1.708
 5749SOL     OW18145   2.293   1.899   3.326
 5749SOL    HW118146   2.257   1.844   3.401
 5749SOL    HW218147   2.291   1.846   3.241
 5750SOL     OW18148   6.291   4.783   4.576
 5750SOL    HW118149   6.375   4.821   4.613
 5750SOL    HW218150   6.217   4.850   4.584
 5751SOL     OW18151   2.151   3.464   5.091
 5751SOL    HW118152   2.239   3.481   5.135
 5751SOL    HW218153   2.140   3.366   5.074
 5752SOL     OW18154   6.564   6.727   5.906
 5752SOL    HW118155   6.656   6.713   5.868
 5752SOL    HW218156   6.505   6.651   5.881
 5753SOL     OW18157   3.541   2.984   6.758
 5753SOL    HW118158   3.591   3.070   6.763
 5753SOL    HW218159   3.505   2.971   6.666
 5754SOL     OW18160   5.321   5.454   2.097
 5754SOL    HW118161   5.332   5.410   2.186
 5754SOL    HW218162   5.332   5.386   2.025
 5755SOL     OW18163   3.499   3.769   6.896
 5755SOL    HW118164   3.468   3.676   6.877
 5755SOL    HW218165   3.480   3.828   6.818
 5756SOL     OW18166   6.780   5.213   3.649
 5756SOL    HW118167   6.761   5.125   3.606
 5756SOL    HW218168   6.829   5.272   3.585
 5757SOL     OW18169   6.479   5.594   1.070
 5757SOL    HW118170   6.453   5.524   1.004
 5757SOL    HW218171   6.437   5.574   1.159
 5758SOL     OW18172   2.166   2.056   5.160
 5758SOL    HW118173   2.086   2.036   5.103
 5758SOL    HW218174   2.220   2.128   5.118
 5759SOL     OW18175   5.035   1.431   6.180
 5759SOL    HW118176   5.039   1.376   6.096
 5759SOL    HW218177   4.958   1.495   6.175
 5760SOL     OW18178   1.204   5.102   2.351
 5760SOL    HW118179   1.189   5.125   2.254
 5760SOL    HW218180   1.238   5.009   2.358
 5761SOL     OW18181   4.792   6.689   4.690
 5761SOL    HW118182   4.774   6.638   4.774
 5761SOL    HW218183   4.706   6.710   4.645
 5762SOL     OW18184   5.521   6.507   1.451
 5762SOL    HW118185   5.495   6.599   1.480
 5762SOL    HW218186   5.598   6.475   1.506
 5763SOL     OW18187   1.273   0.286   0.810
 5763SOL    HW118188   1.351   0.320   0.758
 5763SOL    HW218189   1.278   0.186   0.816
 5764SOL     OW18190   5.655   4.204   5.178
 5764SOL    HW118191   5.703   4.277   5.130
 5764SOL    HW218192   5.633   4.131   5.114
 5765SOL     OW18193   6.153   4.361   6.738
 5765SOL    HW118194   6.193   4.373   6.647
 5765SOL    HW218195   6.154   4.264   6.762
 5766SOL     OW18196   3.019   1.784   2.230
 5766SOL    HW118197   3.064   1.826   2.151
 5766SOL    HW218198   3.070   1.807   2.313
 5767SOL     OW18199   0.143   6.446   0.804
 5767SOL    HW118200   0.212   6.404   0.863
 5767SOL    HW218201   0.077   6.376   0.775
 5768SOL     OW18202   6.535   1.115   2.913
 5768SOL    HW118203   6.467   1.175   2.955
 5768SOL    HW218204   6.503   1.087   2.822
 5769SOL     OW18205   2.714   6.274   3.720
 5769SOL    HW118206   2.617   6.289   3.737
 5769SOL    HW218207   2.734   6.292   3.624
 5770SOL     OW18208   6.356   0.073   1.271
 5770SOL    HW118209   6.335   0.171   1.267
 5770SOL    HW218210   6.438   0.059   1.327
 5771SOL     OW18211   1.177   0.536   1.387
 5771SOL    HW118212   1.270   0.511   1.360
 5771SOL    HW218213   1.113   0.504   1.317
 5772SOL     OW18214   6.007   3.539   0.912
 5772SOL    HW118215   5.972   3.471   0.976
 5772SOL    HW218216   5.950   3.540   0.830
 5773SOL     OW18217   5.311   6.405   3.878
 5773SOL    HW118218   5.219   6.377   3.849
 5773SOL    HW218219   5.316   6.505   3.881
 5774SOL     OW18220   2.097   4.900   3.772
 5774SOL    HW118221   2.034   4.829   3.739
 5774SOL    HW218222   2.132   4.953   3.695
 5775SOL     OW18223   6.711   0.033   6.560
 5775SOL    HW118224   6.713   6.958   6.568
 5775SOL    HW218225   6.722   0.074   6.651
 5776SOL     OW18226   4.723   0.242   6.127
 5776SOL    HW118227   4.792   0.252   6.199
 5776SOL    HW218228   4.698   0.332   6.091
 5777SOL     OW18229   6.979   1.019   4.173
 5777SOL    HW118230   0.041   1.066   4.186
 5777SOL    HW218231   6.932   1.010   4.262
 5778SOL     OW18232   1.305   6.527   3.100
 5778SOL    HW118233   1.279   6.534   3.003
 5778SOL    HW218234   1.263   6.601   3.151
 5779SOL     OW18235   4.110   1.080   1.546
 5779SOL    HW118236   4.048   1.013   1.585
 5779SOL    HW218237   4.057   1.156   1.507
 5780SOL     OW18238   0.125   4.144   1.557
 5780SOL    HW118239   0.124   4.198   1.473
 5780SOL    HW218240   0.165   4.199   1.631
 5781SOL     OW18241   2.039   4.811   5.013
 5781SOL    HW118242   1.939   4.802   5.007
 5781SOL    HW218243   2.066   4.824   5.108
 5782SOL     OW18244   2.147   0.931   1.499
 5782SOL    HW118245   2.086   1.004   1.470
 5782SOL    HW218246   2.092   0.851   1.526
 5783SOL     OW18247   1.282   0.039   1.062
 5783SOL    HW118248   1.377   0.054   1.088
 5783SOL    HW218249   1.227   0.119   1.087
 5784SOL     OW18250   0.538   5.918   0.378
 5784SOL    HW118251   0.446   5.954   0.394
 5784SOL    HW218252   0.590   5.983   0.323
 5785SOL     OW18253   1.861   1.673   0.166
 5785SOL    HW118254   1.841   1.633   0.077
 5785SOL    HW218255   1.912   1.608   0.222
 5786SOL     OW18256   1.804   3.220   1.764
 5786SOL    HW118257   1.830   3.295   1.825
 5786SOL    HW218258   1.859   3.225   1.680
 5787SOL     OW18259   5.961   2.498   4.993
 5787SOL    HW118260   6.020   2.564   5.039
 5787SOL    HW218261   6.016   2.436   4.938
 5788SOL     OW18262   2.753   1.083   2.316
 5788SOL    HW118263   2.698   1.166   2.311
 5788SOL    HW218264   2.840   1.103   2.363
 5789SOL     OW18265   4.424   3.822   6.771
 5789SOL    HW118266   4.503   3.880   6.752
 5789SOL    HW218267   4.341   3.865   6.735
 5790SOL     OW18268   5.573   5.750   4.520
 5790SOL    HW118269   5.530   5.834   4.487
 5790SOL    HW218270   5.621   5.705   4.445
 5791SOL     OW18271   3.952   0.847   2.707
 5791SOL    HW118272   3.918   0.941   2.708
 5791SOL    HW218273   4.041   0.843   2.754
 5792SOL     OW18274   4.928   3.968   3.088
 5792SOL    HW118275   4.901   3.891   3.147
 5792SOL    HW218276   4.978   3.933   3.009
 5793SOL     OW18277   5.015   2.347   5.260
 5793SOL    HW118278   5.019   2.444   5.236
 5793SOL    HW218279   5.108   2.310   5.265
 5794SOL     OW18280   3.506   6.546   6.333
 5794SOL    HW118281   3.415   6.555   6.292
 5794SOL    HW218282   3.574   6.535   6.262
 5795SOL     OW18283   1.052   5.222   1.913
 5795SOL    HW118284   0.959   5.244   1.883
 5795SOL    HW218285   1.093   5.302   1.956
 5796SOL     OW18286   4.259   1.832   6.864
 5796SOL    HW118287   4.315   1.880   6.797
 5796SOL    HW218288   4.173   1.803   6.822
 5797SOL     OW18289   5.297   2.450   0.196
 5797SOL    HW118290   5.210   2.493   0.223
 5797SOL    HW218291   5.279   2.371   0.138
 5798SOL     OW18292   1.579   3.955   5.565
 5798SOL    HW118293   1.549   3.965   5.470
 5798SOL    HW218294   1.500   3.958   5.626
 5799SOL     OW18295   1.568   6.715   3.017
 5799SOL    HW118296   1.486   6.658   3.009
 5799SOL    HW218297   1.593   6.751   2.928
 5800SOL     OW18298   0.672   6.415   0.669
 5800SOL    HW118299   0.613   6.402   0.589
 5800SOL    HW218300   0.687   6.513   0.683
 5801SOL     OW18301   2.155   2.013   2.361
 5801SOL    HW118302   2.225   2.049   2.299
 5801SOL    HW218303   2.199   1.974   2.442
 5802SOL     OW18304   0.121   1.464   2.251
 5802SOL    HW118305   0.115   1.530   2.176
 5802SOL    HW218306   0.201   1.406   2.238
 5803SOL     OW18307   1.080   5.095   4.019
 5803SOL    HW118308   1.018   5.157   3.971
 5803SOL    HW218309   1.109   5.136   4.105
 5804SOL     OW18310   6.604   0.745   3.696
 5804SOL    HW118311   6.543   0.723   3.772
 5804SOL    HW218312   6.558   0.724   3.609
 5805SOL     OW18313   2.224   2.825   1.346
 5805SOL    HW118314   2.145   2.859   1.295
 5805SOL    HW218315   2.200   2.815   1.442
 5806SOL     OW18316   0.324   3.198   3.011
 5806SOL    HW118317   0.368   3.205   3.101
 5806SOL    HW218318   0.294   3.289   2.981
 5807SOL     OW18319   1.042   6.985   0.677
 5807SOL    HW118320   0.965   7.001   0.615
 5807SOL    HW218321   1.009   6.987   0.771
 5808SOL     OW18322   6.008   0.625   4.809
 5808SOL    HW118323   5.925   0.677   4.791
 5808SOL    HW218324   5.986   0.527   4.811
 5809SOL     OW18325   0.563   2.163   5.949
 5809SOL    HW118326   0.555   2.263   5.959
 5809SOL    HW218327   0.589   2.123   6.036
 5810SOL     OW18328   4.002   6.935   5.227
 5810SOL    HW118329   3.973   6.971   5.138
 5810SOL    HW218330   4.099   6.911   5.222
 5811SOL     OW18331   3.040   3.770   5.791
 5811SOL    HW118332   3.103   3.705   5.832
 5811SOL    HW218333   3.042   3.760   5.691
 5812SOL     OW18334   5.810   2.466   0.569
 5812SOL    HW118335   5.714   2.489   0.586
 5812SOL    HW218336   5.820   2.430   0.477
 5813SOL     OW18337   4.364   6.475   1.377
 5813SOL    HW118338   4.327   6.564   1.403
 5813SOL    HW218339   4.457   6.465   1.413
 5814SOL     OW18340   5.797   1.799   2.235
 5814SOL    HW118341   5.757   1.772   2.148
 5814SOL    HW218342   5.743   1.873   2.275
 5815SOL     OW18343   6.526   1.776   3.530
 5815SOL    HW118344   6.549   1.679   3.522
 5815SOL    HW218345   6.466   1.802   3.454
 5816SOL     OW18346   6.791   4.074   3.130
 5816SOL    HW118347   6.726   4.145   3.156
 5816SOL    HW218348   6.844   4.105   3.051
 5817SOL     OW18349   5.853   4.325   3.255
 5817SOL    HW118350   5.892   4.256   3.316
 5817SOL    HW218351   5.759   4.300   3.231
 5818SOL     OW18352   2.084   0.321   5.727
 5818SOL    HW118353   2.157   0.296   5.663
 5818SOL    HW218354   2.115   0.397   5.784
 5819SOL     OW18355   4.378   4.950   7.001
 5819SOL    HW118356   4.353   4.976   0.069
 5819SOL    HW218357   4.295   4.935   6.947
 5820SOL     OW18358   5.915   5.253   2.301
 5820SOL    HW118359   5.864   5.198   2.235
 5820SOL    HW218360   6.012   5.254   2.276
 5821SOL     OW18361   6.250   0.800   1.207
 5821SOL    HW118362   6.302   0.719   1.176
 5821SOL    HW218363   6.305   0.882   1.193
 5822SOL     OW18364   2.130   3.256   2.672
 5822SOL    HW118365   2.132   3.170   2.723
 5822SOL    HW218366   2.099   3.238   2.578
 5823SOL     OW18367   1.977   6.571   4.175
 5823SOL    HW118368   2.058   6.616   4.213
 5823SOL    HW218369   1.990   6.472   4.176
 5824SOL     OW18370   0.660   6.962   1.408
 5824SOL    HW118371   0.668   6.879   1.353
 5824SOL    HW218372   0.572   7.006   1.388
 5825SOL     OW18373   6.229   0.589   4.411
 5825SOL    HW118374   6.316   0.578   4.363
 5825SOL    HW218375   6.246   0.596   4.509
 5826SOL     OW18376   0.540   6.934   4.812
 5826SOL    HW118377   0.443   6.943   4.834
 5826SOL    HW218378   0.595   6.954   4.893
 5827SOL     OW18379   2.380   4.582   5.116
 5827SOL    HW118380   2.344   4.635   5.193
 5827SOL    HW218381   2.315   4.510   5.092
 5828SOL     OW18382   4.169   6.781   4.592
 5828SOL    HW118383   4.236   6.855   4.581
 5828SOL    HW218384   4.088   6.801   4.538
 5829SOL     OW18385   2.639   1.143   3.747
 5829SOL    HW118386   2.610   1.238   3.751
 5829SOL    HW218387   2.735   1.138   3.721
 5830SOL     OW18388   3.753   5.550   4.697
 5830SOL    HW118389   3.726   5.644   4.672
 5830SOL    HW218390   3.829   5.521   4.639
 5831SOL     OW18391   1.763   1.598   5.278
 5831SOL    HW118392   1.777   1.661   5.355
 5831SOL    HW218393   1.803   1.638   5.195
 5832SOL     OW18394   2.762   5.272   1.036
 5832SOL    HW118395   2.855   5.282   1.072
 5832SOL    HW218396   2.756   5.318   0.947
 5833SOL     OW18397   4.439   3.601   6.253
 5833SOL    HW118398   4.426   3.640   6.162
 5833SOL    HW218399   4.350   3.585   6.296
 5834SOL     OW18400   5.600   4.005   6.371
 5834SOL    HW118401   5.653   3.943   6.428
 5834SOL    HW218402   5.613   4.099   6.403
 5835SOL     OW18403   5.330   0.857   2.518
 5835SOL    HW118404   5.260   0.928   2.522
 5835SOL    HW218405   5.414   0.895   2.480
 5836SOL     OW18406   4.062   6.815   2.201
 5836SOL    HW118407   4.042   6.766   2.115
 5836SOL    HW218408   4.088   6.749   2.271
 5837SOL     OW18409   3.309   4.445   6.898
 5837SOL    HW118410   3.349   4.507   6.831
 5837SOL    HW218411   3.382   4.396   6.945
 5838SOL     OW18412   3.089   1.762   0.752
 5838SOL    HW118413   3.107   1.838   0.815
 5838SOL    HW218414   3.055   1.797   0.666
 5839SOL     OW18415   1.387   1.981   1.271
 5839SOL    HW118416   1.428   2.072   1.275
 5839SOL    HW218417   1.453   1.915   1.234
 5840SOL     OW18418   1.154   3.542   3.085
 5840SOL    HW118419   1.063   3.575   3.110
 5840SOL    HW218420   1.159   3.443   3.099
 5841SOL     OW18421   5.450   2.286   0.645
 5841SOL    HW118422   5.447   2.213   0.714
 5841SOL    HW218423   5.387   2.264   0.571
 5842SOL     OW18424   2.879   1.581   0.736
 5842SOL    HW118425   2.930   1.662   0.763
 5842SOL    HW218426   2.942   1.505   0.718
 5843SOL     OW18427   1.906   3.320   1.290
 5843SOL    HW118428   1.857   3.281   1.212
 5843SOL    HW218429   2.002   3.332   1.266
 5844SOL     OW18430   0.871   0.678   4.960
 5844SOL    HW118431   0.899   0.731   4.880
 5844SOL    HW218432   0.953   0.647   5.009
 5845SOL     OW18433   1.152   6.320   1.598
 5845SOL    HW118434   1.181   6.397   1.541
 5845SOL    HW218435   1.222   6.302   1.667
 5846SOL     OW18436   6.391   3.995   5.991
 5846SOL    HW118437   6.349   3.904   5.988
 5846SOL    HW218438   6.464   3.997   6.059
 5847SOL     OW18439   2.917   3.309   0.768
 5847SOL    HW118440   2.835   3.297   0.712
 5847SOL    HW218441   2.911   3.251   0.849
 5848SOL     OW18442   2.469   5.399   2.936
 5848SOL    HW118443   2.465   5.435   3.029
 5848SOL    HW218444   2.456   5.473   2.871
 5849SOL     OW18445   2.853   6.105   5.488
 5849SOL    HW118446   2.929   6.063   5.440
 5849SOL    HW218447   2.886   6.183   5.542
 5850SOL     OW18448   1.062   1.541   1.844
 5850SOL    HW118449   1.004   1.620   1.821
 5850SOL    HW218450   1.075   1.537   1.943
 5851SOL     OW18451   6.292   3.457   4.911
 5851SOL    HW118452   6.383   3.492   4.887
 5851SOL    HW218453   6.262   3.498   4.998
 5852SOL     OW18454   5.036   4.916   2.731
 5852SOL    HW118455   4.936   4.912   2.738
 5852SOL    HW218456   5.075   4.834   2.773
 5853SOL     OW18457   3.568   4.459   5.271
 5853SOL    HW118458   3.644   4.506   5.316
 5853SOL    HW218459   3.490   4.521   5.261
 5854SOL     OW18460   3.155   5.170   6.128
 5854SOL    HW118461   3.207   5.186   6.212
 5854SOL    HW218462   3.063   5.140   6.151
 5855SOL     OW18463   2.232   2.882   3.959
 5855SOL    HW118464   2.316   2.836   3.989
 5855SOL    HW218465   2.179   2.909   4.039
 5856SOL     OW18466   1.587   6.974   3.117
 5856SOL    HW118467   1.669   6.975   3.173
 5856SOL    HW218468   1.559   6.879   3.101
 5857SOL     OW18469   6.888   4.103   6.224
 5857SOL    HW118470   6.961   4.041   6.254
 5857SOL    HW218471   6.929   4.189   6.194
 5858SOL     OW18472   2.369   0.474   3.657
 5858SOL    HW118473   2.366   0.562   3.610
 5858SOL    HW218474   2.286   0.463   3.711
 5859SOL     OW18475   5.513   0.056   2.357
 5859SOL    HW118476   5.474   0.104   2.435
 5859SOL    HW218477   5.510   0.115   2.276
 5860SOL     OW18478   0.163   2.990   4.052
 5860SOL    HW118479   0.183   2.892   4.051
 5860SOL    HW218480   0.248   3.041   4.035
 5861SOL     OW18481   4.731   0.874   4.844
 5861SOL    HW118482   4.749   0.969   4.867
 5861SOL    HW218483   4.635   0.864   4.818
 5862SOL     OW18484   7.009   5.115   3.324
 5862SOL    HW118485   0.046   5.088   3.398
 5862SOL    HW218486   0.027   5.095   3.236
 5863SOL     OW18487   3.839   0.066   5.436
 5863SOL    HW118488   3.745   0.040   5.412
 5863SOL    HW218489   3.902   7.020   5.405
 5864SOL     OW18490   2.940   3.691   2.605
 5864SOL    HW118491   2.943   3.652   2.513
 5864SOL    HW218492   2.846   3.716   2.627
 5865SOL     OW18493   5.985   1.258   5.442
 5865SOL    HW118494   5.921   1.317   5.393
 5865SOL    HW218495   5.999   1.293   5.535
 5866SOL     OW18496   3.682   2.885   2.613
 5866SOL    HW118497   3.677   2.801   2.666
 5866SOL    HW218498   3.739   2.871   2.532
 5867SOL     OW18499   2.900   2.288   1.542
 5867SOL    HW118500   2.930   2.375   1.503
 5867SOL    HW218501   2.974   2.248   1.596
 5868SOL     OW18502   0.846   1.206   6.377
 5868SOL    HW118503   0.851   1.118   6.424
 5868SOL    HW218504   0.937   1.233   6.347
 5869SOL     OW18505   1.459   4.845   4.420
 5869SOL    HW118506   1.507   4.903   4.354
 5869SOL    HW218507   1.520   4.827   4.498
 5870SOL     OW18508   4.449   4.609   4.759
 5870SOL    HW118509   4.535   4.643   4.795
 5870SOL    HW218510   4.401   4.556   4.829
 5871SOL     OW18511   3.180   3.361   3.095
 5871SOL    HW118512   3.088   3.349   3.059
 5871SOL    HW218513   3.244   3.308   3.041
 5872SOL     OW18514   3.403   6.015   2.361
 5872SOL    HW118515   3.317   5.966   2.343
 5872SOL    HW218516   3.388   6.113   2.348
 5873SOL     OW18517   3.879   4.789   2.304
 5873SOL    HW118518   3.824   4.706   2.309
 5873SOL    HW218519   3.852   4.842   2.224
 5874SOL     OW18520   2.955   4.990   5.736
 5874SOL    HW118521   2.935   4.915   5.799
 5874SOL    HW218522   2.950   5.077   5.785
 5875SOL     OW18523   3.047   0.990   0.495
 5875SOL    HW118524   2.960   0.943   0.510
 5875SOL    HW218525   3.122   0.934   0.531
 5876SOL     OW18526   3.809   3.358   2.281
 5876SOL    HW118527   3.790   3.278   2.225
 5876SOL    HW218528   3.833   3.435   2.222
 5877SOL     OW18529   5.765   4.519   1.639
 5877SOL    HW118530   5.809   4.433   1.613
 5877SOL    HW218531   5.784   4.589   1.570
 5878SOL     OW18532   2.341   4.689   2.318
 5878SOL    HW118533   2.353   4.788   2.310
 5878SOL    HW218534   2.414   4.650   2.373
 5879SOL     OW18535   6.972   4.212   6.778
 5879SOL    HW118536   6.908   4.214   6.854
 5879SOL    HW218537   6.922   4.221   6.692
 5880SOL     OW18538   2.634   6.260   1.440
 5880SOL    HW118539   2.592   6.170   1.427
 5880SOL    HW218540   2.704   6.274   1.370
 5881SOL     OW18541   0.471   5.128   4.032
 5881SOL    HW118542   0.562   5.106   4.067
 5881SOL    HW218543   0.435   5.049   3.982
 5882SOL     OW18544   4.986   0.403   1.488
 5882SOL    HW118545   4.956   0.498   1.485
 5882SOL    HW218546   5.068   0.393   1.432
 5883SOL     OW18547   0.160   3.115   7.016
 5883SOL    HW118548   0.114   3.028   0.010
 5883SOL    HW218549   0.092   3.183   6.988
 5884SOL     OW18550   0.799   1.300   2.444
 5884SOL    HW118551   0.849   1.289   2.530
 5884SOL    HW218552   0.810   1.393   2.410
 5885SOL     OW18553   5.792   6.368   1.399
 5885SOL    HW118554   5.782   6.361   1.300
 5885SOL    HW218555   5.859   6.439   1.421
 5886SOL     OW18556   0.347   1.952   5.558
 5886SOL    HW118557   0.432   1.962   5.609
 5886SOL    HW218558   0.304   2.041   5.546
 5887SOL     OW18559   3.098   1.050   4.131
 5887SOL    HW118560   3.126   1.122   4.068
 5887SOL    HW218561   3.179   1.006   4.170
 5888SOL     OW18562   1.948   6.318   3.639
 5888SOL    HW118563   1.939   6.412   3.606
 5888SOL    HW218564   1.861   6.287   3.678
 5889SOL     OW18565   2.405   0.328   1.160
 5889SOL    HW118566   2.321   0.291   1.202
 5889SOL    HW218567   2.400   0.317   1.061
 5890SOL     OW18568   2.069   5.487   5.608
 5890SOL    HW118569   2.133   5.547   5.560
 5890SOL    HW218570   2.057   5.519   5.702
 5891SOL     OW18571   3.766   3.080   0.496
 5891SOL    HW118572   3.685   3.079   0.438
 5891SOL    HW218573   3.847   3.061   0.440
 5892SOL     OW18574   0.561   6.173   1.171
 5892SOL    HW118575   0.647   6.150   1.126
 5892SOL    HW218576   0.577   6.248   1.236
 5893SOL     OW18577   1.362   1.869   3.863
 5893SOL    HW118578   1.272   1.904   3.837
 5893SOL    HW218579   1.384   1.788   3.807
 5894SOL     OW18580   1.457   3.771   3.277
 5894SOL    HW118581   1.520   3.713   3.330
 5894SOL    HW218582   1.363   3.750   3.303
 5895SOL     OW18583   5.481   3.174   4.599
 5895SOL    HW118584   5.382   3.189   4.603
 5895SOL    HW218585   5.514   3.193   4.506
 5896SOL     OW18586   4.106   2.178   0.025
 5896SOL    HW118587   4.074   2.264   7.009
 5896SOL    HW218588   4.077   2.175   0.121
 5897SOL     OW18589   3.785   1.152   0.570
 5897SOL    HW118590   3.698   1.199   0.583
 5897SOL    HW218591   3.846   1.173   0.646
 5898SOL     OW18592   1.987   6.933   2.291
 5898SOL    HW118593   2.018   6.967   2.203
 5898SOL    HW218594   2.066   6.914   2.349
 5899SOL     OW18595   5.966   6.492   4.587
 5899SOL    HW118596   5.867   6.473   4.589
 5899SOL    HW218597   6.014   6.423   4.642
 5900SOL     OW18598   4.787   4.947   3.156
 5900SOL    HW118599   4.694   4.921   3.131
 5900SOL    HW218600   4.828   5.000   3.082
 5901SOL     OW18601   2.354   6.446   6.810
 5901SOL    HW118602   2.443   6.440   6.764
 5901SOL    HW218603   2.333   6.358   6.853
 5902SOL     OW18604   0.005   2.449   0.396
 5902SOL    HW118605   7.014   2.426   0.492
 5902SOL    HW218606   6.948   2.429   0.342
 5903SOL     OW18607   5.678   4.185   6.807
 5903SOL    HW118608   5.710   4.092   6.790
 5903SOL    HW218609   5.752   4.238   6.848
 5904SOL     OW18610   0.363   3.802   2.242
 5904SOL    HW118611   0.315   3.858   2.308
 5904SOL    HW218612   0.298   3.767   2.174
 5905SOL     OW18613   6.881   6.260   2.439
 5905SOL    HW118614   6.880   6.246   2.538
 5905SOL    HW218615   6.967   6.303   2.412
 5906SOL     OW18616   6.166   1.279   3.500
 5906SOL    HW118617   6.225   1.346   3.457
 5906SOL    HW218618   6.219   1.226   3.567
 5907SOL     OW18619   0.408   6.490   1.461
 5907SOL    HW118620   0.432   6.453   1.550
 5907SOL    HW218621   0.438   6.585   1.455
 5908SOL     OW18622   0.533   2.596   5.134
 5908SOL    HW118623   0.607   2.662   5.126
 5908SOL    HW218624   0.563   2.507   5.099
 5909SOL     OW18625   0.400   6.054   0.769
 5909SOL    HW118626   0.459   6.117   0.819
 5909SOL    HW218627   0.337   6.106   0.711
 5910SOL     OW18628   1.912   2.469   3.446
 5910SOL    HW118629   2.010   2.474   3.425
 5910SOL    HW218630   1.881   2.557   3.481
 5911SOL     OW18631   6.663   5.450   6.639
 5911SOL    HW118632   6.585   5.494   6.595
 5911SOL    HW218633   6.640   5.355   6.660
 5912SOL     OW18634   6.505   1.707   4.706
 5912SOL    HW118635   6.583   1.769   4.718
 5912SOL    HW218636   6.501   1.645   4.785
 5913SOL     OW18637   5.634   2.736   0.262
 5913SOL    HW118638   5.554   2.796   0.254
 5913SOL    HW218639   5.605   2.646   0.297
 5914SOL     OW18640   1.160   6.562   6.542
 5914SOL    HW118641   1.238   6.524   6.492
 5914SOL    HW218642   1.144   6.656   6.513
 5915SOL     OW18643   3.306   0.178   6.607
 5915SOL    HW118644   3.376   0.238   6.645
 5915SOL    HW218645   3.224   0.182   6.664
 5916SOL     OW18646   1.902   6.611   2.006
 5916SOL    HW118647   1.964   6.535   2.028
 5916SOL    HW218648   1.821   6.575   1.960
 5917SOL     OW18649   3.047   4.330   0.008
 5917SOL    HW118650   3.038   4.262   0.082
 5917SOL    HW218651   3.073   4.283   6.949
 5918SOL     OW18652   2.966   6.570   5.972
 5918SOL    HW118653   2.907   6.607   5.900
 5918SOL    HW218654   2.938   6.607   6.060
 5919SOL     OW18655   3.534   2.900   3.377
 5919SOL    HW118656   3.454   2.885   3.436
 5919SOL    HW218657   3.526   2.990   3.333
 5920SOL     OW18658   6.456   0.313   6.015
 5920SOL    HW118659   6.452   0.307   6.115
 5920SOL    HW218660   6.466   0.222   5.976
 5921SOL     OW18661   3.295   4.688   6.526
 5921SOL    HW118662   3.223   4.624   6.498
 5921SOL    HW218663   3.267   4.735   6.610
 5922SOL     OW18664   6.156   3.512   3.014
 5922SOL    HW118665   6.108   3.544   2.932
 5922SOL    HW218666   6.197   3.590   3.061
 5923SOL     OW18667   6.210   0.736   1.471
 5923SOL    HW118668   6.287   0.673   1.454
 5923SOL    HW218669   6.190   0.787   1.388
 5924SOL     OW18670   5.756   0.036   2.499
 5924SOL    HW118671   5.686   0.020   2.430
 5924SOL    HW218672   5.712   0.054   2.587
 5925SOL     OW18673   4.510   5.445   1.065
 5925SOL    HW118674   4.573   5.489   1.002
 5925SOL    HW218675   4.533   5.472   1.159
 5926SOL     OW18676   3.985   4.790   2.569
 5926SOL    HW118677   3.902   4.817   2.617
 5926SOL    HW218678   3.967   4.785   2.470
 5927SOL     OW18679   1.361   3.959   1.588
 5927SOL    HW118680   1.393   3.958   1.493
 5927SOL    HW218681   1.298   3.882   1.602
 5928SOL     OW18682   4.087   0.665   1.050
 5928SOL    HW118683   4.128   0.574   1.050
 5928SOL    HW218684   4.006   0.666   0.991
 5929SOL     OW18685   0.071   0.669   5.801
 5929SOL    HW118686   0.077   0.657   5.702
 5929SOL    HW218687   0.011   0.745   5.823
 5930SOL     OW18688   1.495   3.473   1.870
 5930SOL    HW118689   1.507   3.377   1.843
 5930SOL    HW218690   1.578   3.505   1.916
 5931SOL     OW18691   5.870   5.900   3.070
 5931SOL    HW118692   5.894   5.905   2.973
 5931SOL    HW218693   5.803   5.971   3.091
 5932SOL     OW18694   2.845   0.581   6.153
 5932SOL    HW118695   2.761   0.527   6.140
 5932SOL    HW218696   2.872   0.579   6.249
 5933SOL     OW18697   6.505   5.167   4.506
 5933SOL    HW118698   6.508   5.209   4.415
 5933SOL    HW218699   6.488   5.069   4.497
 5934SOL     OW18700   3.364   3.640   5.668
 5934SOL    HW118701   3.455   3.603   5.688
 5934SOL    HW218702   3.303   3.623   5.745
 5935SOL     OW18703   0.680   6.217   4.939
 5935SOL    HW118704   0.651   6.211   4.844
 5935SOL    HW218705   0.738   6.297   4.951
 5936SOL     OW18706   3.730   3.496   3.481
 5936SOL    HW118707   3.711   3.399   3.461
 5936SOL    HW218708   3.704   3.551   3.401
 5937SOL     OW18709   6.968   3.122   2.261
 5937SOL    HW118710   6.956   3.200   2.322
 5937SOL    HW218711   0.036   3.123   2.224
 5938SOL     OW18712   6.173   4.898   5.439
 5938SOL    HW118713   6.244   4.958   5.401
 5938SOL    HW218714   6.212   4.844   5.514
 5939SOL     OW18715   3.708   6.803   4.487
 5939SOL    HW118716   3.670   6.790   4.395
 5939SOL    HW218717   3.662   6.879   4.532
 5940SOL     OW18718   4.963   5.546   2.627
 5940SOL    HW118719   5.047   5.575   2.673
 5940SOL    HW218720   4.980   5.539   2.529
 5941SOL     OW18721   6.503   1.872   2.015
 5941SOL    HW118722   6.586   1.929   2.014
 5941SOL    HW218723   6.506   1.808   1.939
 5942SOL     OW18724   6.357   3.594   6.267
 5942SOL    HW118725   6.402   3.651   6.198
 5942SOL    HW218726   6.426   3.554   6.327
 5943SOL     OW18727   3.737   3.585   0.593
 5943SOL    HW118728   3.770   3.504   0.546
 5943SOL    HW218729   3.658   3.623   0.544
 5944SOL     OW18730   0.966   3.312   6.668
 5944SOL    HW118731   0.879   3.285   6.626
 5944SOL    HW218732   1.024   3.357   6.600
 5945SOL     OW18733   0.706   5.592   5.537
 5945SOL    HW118734   0.657   5.507   5.558
 5945SOL    HW218735   0.782   5.603   5.600
 5946SOL     OW18736   3.688   4.657   6.923
 5946SOL    HW118737   3.751   4.616   6.857
 5946SOL    HW218738   3.691   4.757   6.913
 5947SOL     OW18739   3.239   3.359   4.742
 5947SOL    HW118740   3.247   3.403   4.653
 5947SOL    HW218741   3.160   3.297   4.742
 5948SOL     OW18742   5.185   3.832   2.221
 5948SOL    HW118743   5.281   3.849   2.241
 5948SOL    HW218744   5.172   3.830   2.122
 5949SOL     OW18745   6.179   5.854   1.222
 5949SOL    HW118746   6.260   5.910   1.202
 5949SOL    HW218747   6.190   5.764   1.182
 5950SOL     OW18748   5.576   2.710   5.991
 5950SOL    HW118749   5.486   2.711   5.949
 5950SOL    HW218750   5.566   2.699   6.090
 5951SOL     OW18751   1.106   4.480   5.655
 5951SOL    HW118752   1.055   4.493   5.740
 5951SOL    HW218753   1.044   4.492   5.577
 5952SOL     OW18754   4.000   4.824   1.741
 5952SOL    HW118755   3.922   4.762   1.736
 5952SOL    HW218756   4.026   4.838   1.837
 5953SOL     OW18757   6.184   2.581   5.409
 5953SOL    HW118758   6.204   2.676   5.432
 5953SOL    HW218759   6.089   2.573   5.379
 5954SOL     OW18760   0.502   5.716   4.819
 5954SOL    HW118761   0.553   5.679   4.897
 5954SOL    HW218762   0.425   5.656   4.798
 5955SOL     OW18763   5.170   4.649   1.274
 5955SOL    HW118764   5.260   4.639   1.232
 5955SOL    HW218765   5.136   4.742   1.259
 5956SOL     OW18766   4.964   2.639   4.400
 5956SOL    HW118767   5.006   2.647   4.490
 5956SOL    HW218768   4.872   2.677   4.402
 5957SOL     OW18769   1.117   1.054   2.876
 5957SOL    HW118770   1.166   0.985   2.930
 5957SOL    HW218771   1.109   1.022   2.782
 5958SOL     OW18772   4.071   6.899   2.626
 5958SOL    HW118773   4.155   6.911   2.572
 5958SOL    HW218774   4.018   6.983   2.623
 5959SOL     OW18775   5.122   2.356   4.799
 5959SOL    HW118776   5.206   2.325   4.754
 5959SOL    HW218777   5.141   2.379   4.894
 5960SOL     OW18778   3.597   6.480   5.548
 5960SOL    HW118779   3.541   6.429   5.614
 5960SOL    HW218780   3.606   6.575   5.580
 5961SOL     OW18781   3.812   1.913   2.731
 5961SOL    HW118782   3.732   1.969   2.752
 5961SOL    HW218783   3.807   1.827   2.782
 5962SOL     OW18784   5.545   6.311   0.206
 5962SOL    HW118785   5.484   6.389   0.193
 5962SOL    HW218786   5.493   6.226   0.195
 5963SOL     OW18787   4.112   4.749   6.692
 5963SOL    HW118788   4.114   4.727   6.790
 5963SOL    HW218789   4.106   4.664   6.640
 5964SOL     OW18790   1.915   6.482   2.440
 5964SOL    HW118791   1.881   6.390   2.460
 5964SOL    HW218792   1.847   6.531   2.386
 5965SOL     OW18793   1.776   0.020   6.648
 5965SOL    HW118794   1.822   6.965   6.610
 5965SOL    HW218795   1.824   0.050   6.731
 5966SOL     OW18796   1.937   0.388   5.457
 5966SOL    HW118797   1.918   0.405   5.553
 5966SOL    HW218798   2.023   0.337   5.448
 5967SOL     OW18799   2.549   2.130   4.905
 5967SOL    HW118800   2.543   2.207   4.841
 5967SOL    HW218801   2.481   2.061   4.881
 5968SOL     OW18802   5.661   2.270   0.260
 5968SOL    HW118803   5.672   2.270   0.160
 5968SOL    HW218804   5.593   2.339   0.285
 5969SOL     OW18805   5.309   1.027   6.433
 5969SOL    HW118806   5.252   0.952   6.466
 5969SOL    HW218807   5.271   1.061   6.347
 5970SOL     OW18808   0.705   3.136   0.722
 5970SOL    HW118809   0.660   3.092   0.800
 5970SOL    HW218810   0.744   3.224   0.751
 5971SOL     OW18811   6.424   6.826   3.199
 5971SOL    HW118812   6.413   6.727   3.183
 5971SOL    HW218813   6.461   6.841   3.290
 5972SOL     OW18814   5.003   5.179   0.632
 5972SOL    HW118815   5.085   5.181   0.575
 5972SOL    HW218816   4.981   5.084   0.654
 5973SOL     OW18817   1.669   3.135   2.497
 5973SOL    HW118818   1.595   3.070   2.517
 5973SOL    HW218819   1.714   3.108   2.411
 5974SOL     OW18820   3.653   0.580   6.542
 5974SOL    HW118821   3.596   0.658   6.515
 5974SOL    HW218822   3.643   0.507   6.475
 5975SOL     OW18823   5.303   4.481   0.267
 5975SOL    HW118824   5.289   4.413   0.195
 5975SOL    HW218825   5.329   4.434   0.352
 5976SOL     OW18826   3.603   3.631   5.823
 5976SOL    HW118827   3.610   3.603   5.919
 5976SOL    HW218828   3.692   3.621   5.779
 5977SOL     OW18829   0.307   4.991   0.314
 5977SOL    HW118830   0.214   5.015   0.340
 5977SOL    HW218831   0.342   5.059   0.249
 5978SOL     OW18832   3.209   5.450   0.017
 5978SOL    HW118833   3.208   5.373   0.080
 5978SOL    HW218834   3.304   5.473   7.019
 5979SOL     OW18835   6.424   0.499   1.679
 5979SOL    HW118836   6.413   0.511   1.581
 5979SOL    HW218837   6.482   0.419   1.697
 5980SOL     OW18838   3.680   2.727   1.813
 5980SOL    HW118839   3.760   2.766   1.768
 5980SOL    HW218840   3.675   2.629   1.794
 5981SOL     OW18841   4.731   2.733   0.674
 5981SOL    HW118842   4.694   2.664   0.612
 5981SOL    HW218843   4.657   2.769   0.731
 5982SOL     OW18844   6.293   1.927   2.580
 5982SOL    HW118845   6.251   1.844   2.618
 5982SOL    HW218846   6.236   2.006   2.601
 5983SOL     OW18847   7.019   0.939   4.765
 5983SOL    HW118848   6.973   1.027   4.778
 5983SOL    HW218849   0.093   0.953   4.773
 5984SOL     OW18850   6.376   6.559   3.489
 5984SOL    HW118851   6.426   6.569   3.403
 5984SOL    HW218852   6.432   6.592   3.565
 5985SOL     OW18853   6.115   1.852   3.506
 5985SOL    HW118854   6.195   1.893   3.461
 5985SOL    HW218855   6.137   1.758   3.531
 5986SOL     OW18856   4.274   3.850   5.283
 5986SOL    HW118857   4.257   3.947   5.298
 5986SOL    HW218858   4.200   3.797   5.325
 5987SOL     OW18859   0.085   0.685   4.694
 5987SOL    HW118860   0.065   0.675   4.597
 5987SOL    HW218861   0.040   0.767   4.729
 5988SOL     OW18862   2.911   1.572   0.038
 5988SOL    HW118863   2.953   1.511   0.105
 5988SOL    HW218864   2.976   1.645   0.013
 5989SOL     OW18865   0.797   5.982   6.892
 5989SOL    HW118866   0.863   5.935   6.951
 5989SOL    HW218867   0.846   6.044   6.831
 5990SOL     OW18868   3.745   4.471   1.292
 5990SOL    HW118869   3.789   4.560   1.289
 5990SOL    HW218870   3.807   4.404   1.334
 5991SOL     OW18871   4.982   6.044   0.934
 5991SOL    HW118872   4.977   5.992   0.849
 5991SOL    HW218873   4.891   6.050   0.975
 5992SOL     OW18874   3.143   0.178   1.646
 5992SOL    HW118875   3.063   0.202   1.592
 5992SOL    HW218876   3.186   0.261   1.682
 5993SOL     OW18877   6.143   3.134   0.635
 5993SOL    HW118878   6.170   3.114   0.729
 5993SOL    HW218879   6.088   3.058   0.600
 5994SOL     OW18880   0.108   2.857   1.178
 5994SOL    HW118881   0.032   2.823   1.233
 5994SOL    HW218882   0.171   2.908   1.235
 5995SOL     OW18883   4.997   3.442   1.445
 5995SOL    HW118884   4.930   3.437   1.371
 5995SOL    HW218885   4.950   3.444   1.533
 5996SOL     OW18886   2.743   5.609   1.421
 5996SOL    HW118887   2.736   5.702   1.458
 5996SOL    HW218888   2.733   5.612   1.322
 5997SOL     OW18889   6.582   6.705   2.963
 5997SOL    HW118890   6.546   6.797   2.982
 5997SOL    HW218891   6.596   6.695   2.865
 5998SOL     OW18892   6.121   0.931   2.248
 5998SOL    HW118893   6.152   0.967   2.336
 5998SOL    HW218894   6.198   0.892   2.199
 5999SOL     OW18895   3.909   3.924   0.779
 5999SOL    HW118896   3.969   3.895   0.854
 5999SOL    HW218897   3.961   3.923   0.693
 6000SOL     OW18898   0.220   5.460   0.603
 6000SOL    HW118899   0.269   5.423   0.523
 6000SOL    HW218900   0.140   5.510   0.571
 6001SOL     OW18901   4.972   6.315   5.601
 6001SOL    HW118902   5.061   6.312   5.554
 6001SOL    HW218903   4.907   6.365   5.544
 6002SOL     OW18904   6.966   0.005   4.870
 6002SOL    HW118905   7.006   6.939   4.883
 6002SOL    HW218906   6.867   0.001   4.884
 6003SOL     OW18907   6.294   2.858   4.341
 6003SOL    HW118908   6.281   2.854   4.242
 6003SOL    HW218909   6.392   2.860   4.362
 6004SOL     OW18910   5.235   2.453   3.498
 6004SOL    HW118911   5.331   2.424   3.504
 6004SOL    HW218912   5.192   2.409   3.419
 6005SOL     OW18913   4.679   4.227   5.245
 6005SOL    HW118914   4.611   4.299   5.232
 6005SOL    HW218915   4.757   4.243   5.184
 6006SOL     OW18916   3.406   6.828   5.341
 6006SOL    HW118917   3.470   6.901   5.316
 6006SOL    HW218918   3.449   6.739   5.324
 6007SOL     OW18919   0.236   4.250   5.570
 6007SOL    HW118920   0.297   4.242   5.492
 6007SOL    HW218921   0.249   4.339   5.614
 6008SOL     OW18922   2.248   4.370   5.309
 6008SOL    HW118923   2.253   4.356   5.210
 6008SOL    HW218924   2.289   4.292   5.355
 6009SOL     OW18925   4.622   5.555   3.089
 6009SOL    HW118926   4.593   5.565   2.994
 6009SOL    HW218927   4.658   5.462   3.103
 6010SOL     OW18928   0.264   4.287   4.593
 6010SOL    HW118929   0.180   4.264   4.642
 6010SOL    HW218930   0.330   4.325   4.657
 6011SOL     OW18931   5.194   1.581   3.114
 6011SOL    HW118932   5.269   1.591   3.181
 6011SOL    HW218933   5.109   1.560   3.162
 6012SOL     OW18934   5.944   0.540   0.052
 6012SOL    HW118935   6.027   0.552   0.106
 6012SOL    HW218936   5.917   0.628   0.012
 6013SOL     OW18937   5.104   0.999   2.571
 6013SOL    HW118938   5.145   1.090   2.584
 6013SOL    HW218939   5.006   1.004   2.588
 6014SOL     OW18940   3.068   3.123   4.671
 6014SOL    HW118941   3.129   3.052   4.638
 6014SOL    HW218942   3.018   3.162   4.593
 6015SOL     OW18943   6.295   2.393   4.336
 6015SOL    HW118944   6.290   2.389   4.436
 6015SOL    HW218945   6.357   2.467   4.308
 6016SOL     OW18946   4.855   1.723   4.754
 6016SOL    HW118947   4.819   1.693   4.842
 6016SOL    HW218948   4.945   1.683   4.739
 6017SOL     OW18949   6.791   3.327   5.037
 6017SOL    HW118950   6.758   3.408   5.086
 6017SOL    HW218951   6.715   3.286   4.986
 6018SOL     OW18952   3.277   1.278   4.924
 6018SOL    HW118953   3.260   1.376   4.937
 6018SOL    HW218954   3.376   1.261   4.925
 6019SOL     OW18955   0.454   4.074   5.986
 6019SOL    HW118956   0.479   4.089   5.891
 6019SOL    HW218957   0.463   3.977   6.008
 6020SOL     OW18958   1.254   5.131   0.584
 6020SOL    HW118959   1.266   5.107   0.487
 6020SOL    HW218960   1.320   5.201   0.609
 6021SOL     OW18961   3.852   0.369   2.447
 6021SOL    HW118962   3.917   0.378   2.523
 6021SOL    HW218963   3.790   0.293   2.466
 6022SOL     OW18964   6.139   0.976   2.926
 6022SOL    HW118965   6.138   0.911   3.001
 6022SOL    HW218966   6.098   1.062   2.956
 6023SOL     OW18967   4.818   0.641   1.651
 6023SOL    HW118968   4.755   0.695   1.595
 6023SOL    HW218969   4.866   0.701   1.715
 6024SOL     OW18970   0.317   4.550   1.287
 6024SOL    HW118971   0.274   4.558   1.197
 6024SOL    HW218972   0.416   4.543   1.276
 6025SOL     OW18973   2.861   1.489   4.044
 6025SOL    HW118974   2.921   1.555   3.999
 6025SOL    HW218975   2.912   1.404   4.060
 6026SOL     OW18976   6.288   4.181   3.890
 6026SOL    HW118977   6.217   4.204   3.824
 6026SOL    HW218978   6.261   4.212   3.981
 6027SOL     OW18979   5.683   4.002   6.108
 6027SOL    HW118980   5.765   3.948   6.086
 6027SOL    HW218981   5.660   3.989   6.204
 6028SOL     OW18982   5.119   4.903   0.382
 6028SOL    HW118983   5.204   4.919   0.333
 6028SOL    HW218984   5.042   4.908   0.318
 6029SOL     OW18985   2.673   0.110   3.234
 6029SOL    HW118986   2.736   0.187   3.232
 6029SOL    HW218987   2.644   0.092   3.328
 6030SOL     OW18988   4.913   3.820   4.819
 6030SOL    HW118989   4.910   3.785   4.726
 6030SOL    HW218990   4.882   3.750   4.883
 6031SOL     OW18991   0.910   5.818   4.168
 6031SOL    HW118992   0.825   5.803   4.218
 6031SOL    HW218993   0.983   5.765   4.210
 6032SOL     OW18994   3.355   6.276   3.933
 6032SOL    HW118995   3.296   6.316   4.003
 6032SOL    HW218996   3.343   6.325   3.847
 6033SOL     OW18997   2.433   2.438   2.453
 6033SOL    HW118998   2.497   2.440   2.376
 6033SOL    HW218999   2.339   2.433   2.418
 6034SOL     OW19000   1.422   0.072   6.544
 6034SOL    HW119001   1.481   0.034   6.615
 6034SOL    HW219002   1.346   0.121   6.586
 6035SOL     OW19003   0.931   0.814   2.721
 6035SOL    HW119004   0.997   0.745   2.751
 6035SOL    HW219005   0.972   0.870   2.649
 6036SOL     OW19006   6.034   4.811   1.149
 6036SOL    HW119007   6.096   4.876   1.193
 6036SOL    HW219008   6.084   4.756   1.083
 6037SOL     OW19009   4.194   1.275   0.946
 6037SOL    HW119010   4.224   1.191   0.991
 6037SOL    HW219011   4.260   1.347   0.962
 6038SOL     OW19012   1.121   2.235   6.583
 6038SOL    HW119013   1.124   2.166   6.656
 6038SOL    HW219014   1.052   2.304   6.606
 6039SOL     OW19015   3.751   4.042   3.852
 6039SOL    HW119016   3.772   3.952   3.891
 6039SOL    HW219017   3.727   4.105   3.927
 6040SOL     OW19018   1.647   1.788   0.037
 6040SOL    HW119019   1.674   1.884   0.046
 6040SOL    HW219020   1.708   1.731   0.093
 6041SOL     OW19021   2.943   2.679   5.604
 6041SOL    HW119022   2.895   2.666   5.517
 6041SOL    HW219023   3.038   2.649   5.594
 6042SOL     OW19024   4.012   6.405   3.370
 6042SOL    HW119025   3.939   6.348   3.407
 6042SOL    HW219026   3.972   6.489   3.332
 6043SOL     OW19027   2.061   0.856   3.795
 6043SOL    HW119028   2.105   0.896   3.714
 6043SOL    HW219029   2.102   0.767   3.814
 6044SOL     OW19030   1.838   1.751   1.599
 6044SOL    HW119031   1.773   1.765   1.673
 6044SOL    HW219032   1.909   1.822   1.603
 6045SOL     OW19033   5.161   3.314   3.465
 6045SOL    HW119034   5.132   3.220   3.447
 6045SOL    HW219035   5.210   3.319   3.552
 6046SOL     OW19036   3.679   2.471   1.723
 6046SOL    HW119037   3.727   2.474   1.635
 6046SOL    HW219038   3.711   2.393   1.776
 6047SOL     OW19039   5.811   1.893   0.577
 6047SOL    HW119040   5.770   1.802   0.583
 6047SOL    HW219041   5.738   1.962   0.574
 6048SOL     OW19042   5.401   5.078   4.796
 6048SOL    HW119043   5.384   5.163   4.747
 6048SOL    HW219044   5.484   5.035   4.761
 6049SOL     OW19045   5.276   5.020   5.950
 6049SOL    HW119046   5.272   4.922   5.967
 6049SOL    HW219047   5.362   5.043   5.905
 6050SOL     OW19048   3.057   5.505   0.806
 6050SOL    HW119049   3.121   5.429   0.797
 6050SOL    HW219050   3.100   5.589   0.773
 6051SOL     OW19051   0.761   1.604   2.687
 6051SOL    HW119052   0.728   1.530   2.745
 6051SOL    HW219053   0.860   1.613   2.697
 6052SOL     OW19054   5.190   0.375   1.292
 6052SOL    HW119055   5.237   0.456   1.256
 6052SOL    HW219056   5.195   0.301   1.225
 6053SOL     OW19057   4.512   1.180   6.002
 6053SOL    HW119058   4.584   1.156   5.937
 6053SOL    HW219059   4.429   1.206   5.951
 6054SOL     OW19060   3.768   5.497   0.622
 6054SOL    HW119061   3.799   5.574   0.567
 6054SOL    HW219062   3.830   5.419   0.610
 6055SOL     OW19063   3.255   5.169   6.383
 6055SOL    HW119064   3.336   5.195   6.436
 6055SOL    HW219065   3.206   5.095   6.430
 6056SOL     OW19066   5.812   2.921   5.033
 6056SOL    HW119067   5.900   2.966   5.019
 6056SOL    HW219068   5.745   2.989   5.065
 6057SOL     OW19069   4.755   0.284   2.723
 6057SOL    HW119070   4.785   0.367   2.770
 6057SOL    HW219071   4.825   0.256   2.657
 6058SOL     OW19072   6.208   3.498   0.550
 6058SOL    HW119073   6.211   3.547   0.637
 6058SOL    HW219074   6.236   3.403   0.565
 6059SOL     OW19075   5.240   4.330   5.550
 6059SOL    HW119076   5.156   4.315   5.498
 6059SOL    HW219077   5.219   4.375   5.637
 6060SOL     OW19078   3.564   3.172   0.333
 6060SOL    HW119079   3.501   3.118   0.389
 6060SOL    HW219080   3.533   3.170   0.238
 6061SOL     OW19081   3.928   4.840   0.620
 6061SOL    HW119082   3.887   4.926   0.589
 6061SOL    HW219083   3.890   4.764   0.567
 6062SOL     OW19084   2.725   1.995   6.938
 6062SOL    HW119085   2.671   1.921   6.979
 6062SOL    HW219086   2.770   2.047   7.010
 6063SOL     OW19087   4.067   4.153   5.755
 6063SOL    HW119088   3.991   4.111   5.705
 6063SOL    HW219089   4.105   4.227   5.700
 6064SOL     OW19090   7.013   0.388   0.356
 6064SOL    HW119091   0.002   0.360   0.262
 6064SOL    HW219092   0.075   0.385   0.406
 6065SOL     OW19093   1.209   5.374   2.056
 6065SOL    HW119094   1.282   5.306   2.054
 6065SOL    HW219095   1.246   5.465   2.038
 6066SOL     OW19096   5.714   1.081   3.376
 6066SOL    HW119097   5.729   1.157   3.439
 6066SOL    HW219098   5.635   1.100   3.319
 6067SOL     OW19099   6.054   0.164   5.263
 6067SOL    HW119100   6.127   0.118   5.212
 6067SOL    HW219101   5.965   0.138   5.225
 6068SOL     OW19102   5.060   1.556   4.739
 6068SOL    HW119103   5.013   1.505   4.811
 6068SOL    HW219104   5.122   1.496   4.689
 6069SOL     OW19105   0.225   3.099   5.531
 6069SOL    HW119106   0.279   3.178   5.561
 6069SOL    HW219107   0.286   3.029   5.493
 6070SOL     OW19108   3.595   2.054   1.782
 6070SOL    HW119109   3.636   2.140   1.811
 6070SOL    HW219110   3.667   1.985   1.770
 6071SOL     OW19111   0.203   6.329   4.627
 6071SOL    HW119112   0.264   6.403   4.654
 6071SOL    HW219113   0.245   6.241   4.647
 6072SOL     OW19114   0.618   1.651   0.756
 6072SOL    HW119115   0.522   1.634   0.777
 6072SOL    HW219116   0.627   1.738   0.709
 6073SOL     OW19117   4.971   3.086   1.147
 6073SOL    HW119118   5.017   3.145   1.080
 6073SOL    HW219119   4.879   3.121   1.164
 6074SOL     OW19120   1.170   6.328   2.476
 6074SOL    HW119121   1.126   6.386   2.408
 6074SOL    HW219122   1.102   6.297   2.542
 6075SOL     OW19123   4.533   6.644   6.406
 6075SOL    HW119124   4.542   6.608   6.313
 6075SOL    HW219125   4.523   6.568   6.470
 6076SOL     OW19126   2.655   4.949   3.999
 6076SOL    HW119127   2.577   4.973   3.941
 6076SOL    HW219128   2.621   4.918   4.088
 6077SOL     OW19129   5.429   6.460   1.190
 6077SOL    HW119130   5.488   6.457   1.271
 6077SOL    HW219131   5.348   6.515   1.209
 6078SOL     OW19132   4.215   4.503   0.456
 6078SOL    HW119133   4.226   4.601   0.440
 6078SOL    HW219134   4.299   4.467   0.497
 6079SOL     OW19135   4.509   4.393   6.336
 6079SOL    HW119136   4.579   4.461   6.357
 6079SOL    HW219137   4.527   4.310   6.389
 6080SOL     OW19138   1.288   4.896   1.438
 6080SOL    HW119139   1.192   4.927   1.434
 6080SOL    HW219140   1.295   4.804   1.400
 6081SOL     OW19141   0.723   4.148   5.514
 6081SOL    HW119142   0.763   4.057   5.511
 6081SOL    HW219143   0.624   4.142   5.508
 6082SOL     OW19144   4.237   0.685   1.813
 6082SOL    HW119145   4.304   0.618   1.846
 6082SOL    HW219146   4.149   0.640   1.796
 6083SOL     OW19147   5.447   6.942   0.163
 6083SOL    HW119148   5.537   6.979   0.140
 6083SOL    HW219149   5.454   6.889   0.248
 6084SOL     OW19150   0.800   6.465   1.876
 6084SOL    HW119151   0.801   6.534   1.803
 6084SOL    HW219152   0.831   6.377   1.839
 6085SOL     OW19153   6.211   6.435   6.636
 6085SOL    HW119154   6.204   6.422   6.735
 6085SOL    HW219155   6.307   6.432   6.609
 6086SOL     OW19156   3.831   2.960   6.900
 6086SOL    HW119157   3.848   2.892   6.972
 6086SOL    HW219158   3.761   2.925   6.838
 6087SOL     OW19159   4.833   6.431   0.249
 6087SOL    HW119160   4.900   6.378   0.301
 6087SOL    HW219161   4.751   6.443   0.305
 6088SOL     OW19162   5.178   6.522   5.277
 6088SOL    HW119163   5.225   6.508   5.363
 6088SOL    HW219164   5.223   6.470   5.205
 6089SOL     OW19165   6.809   2.076   2.407
 6089SOL    HW119166   6.719   2.119   2.404
 6089SOL    HW219167   6.808   1.993   2.351
 6090SOL     OW19168   2.972   5.473   4.258
 6090SOL    HW119169   2.997   5.514   4.170
 6090SOL    HW219170   2.883   5.429   4.249
 6091SOL     OW19171   2.691   0.934   1.488
 6091SOL    HW119172   2.627   0.962   1.416
 6091SOL    HW219173   2.784   0.959   1.462
 6092SOL     OW19174   3.934   0.364   2.051
 6092SOL    HW119175   3.986   0.290   2.009
 6092SOL    HW219176   3.993   0.415   2.113
 6093SOL     OW19177   1.764   1.743   2.180
 6093SOL    HW119178   1.786   1.781   2.090
 6093SOL    HW219179   1.696   1.671   2.169
 6094SOL     OW19180   0.743   7.010   4.434
 6094SOL    HW119181   0.834   6.978   4.407
 6094SOL    HW219182   0.691   6.935   4.474
 6095SOL     OW19183   4.401   5.609   0.015
 6095SOL    HW119184   4.379   5.638   6.947
 6095SOL    HW219185   4.460   5.677   0.058
 6096SOL     OW19186   5.848   6.140   2.222
 6096SOL    HW119187   5.773   6.106   2.279
 6096SOL    HW219188   5.821   6.226   2.179
 6097SOL     OW19189   1.274   6.056   1.887
 6097SOL    HW119190   1.352   6.003   1.920
 6097SOL    HW219191   1.257   6.033   1.791
 6098SOL     OW19192   6.825   0.793   5.533
 6098SOL    HW119193   6.829   0.842   5.446
 6098SOL    HW219194   6.731   0.762   5.549
 6099SOL     OW19195   5.362   6.254   5.738
 6099SOL    HW119196   5.358   6.165   5.784
 6099SOL    HW219197   5.456   6.287   5.739
 6100SOL     OW19198   0.937   5.745   2.837
 6100SOL    HW119199   0.999   5.823   2.847
 6100SOL    HW219200   0.855   5.761   2.892
 6101SOL     OW19201   6.649   2.241   1.832
 6101SOL    HW119202   6.712   2.174   1.873
 6101SOL    HW219203   6.628   2.312   1.900
 6102SOL     OW19204   4.509   6.316   2.618
 6102SOL    HW119205   4.476   6.232   2.574
 6102SOL    HW219206   4.508   6.304   2.717
 6103SOL     OW19207   0.011   1.709   1.072
 6103SOL    HW119208   7.019   1.658   1.156
 6103SOL    HW219209   6.948   1.734   1.030
 6104SOL     OW19210   6.162   1.503   5.161
 6104SOL    HW119211   6.220   1.562   5.217
 6104SOL    HW219212   6.216   1.429   5.123
 6105SOL     OW19213   2.848   5.378   5.820
 6105SOL    HW119214   2.930   5.322   5.837
 6105SOL    HW219215   2.806   5.351   5.734
 6106SOL     OW19216   0.627   3.656   0.358
 6106SOL    HW119217   0.558   3.694   0.420
 6106SOL    HW219218   0.719   3.677   0.393
 6107SOL     OW19219   5.145   5.213   4.584
 6107SOL    HW119220   5.057   5.261   4.582
 6107SOL    HW219221   5.166   5.178   4.492
 6108SOL     OW19222   1.478   1.550   1.847
 6108SOL    HW119223   1.517   1.620   1.787
 6108SOL    HW219224   1.526   1.551   1.935
 6109SOL     OW19225   5.298   0.540   3.721
 6109SOL    HW119226   5.296   0.600   3.801
 6109SOL    HW219227   5.387   0.494   3.716
 6110SOL     OW19228   0.587   2.418   6.025
 6110SOL    HW119229   0.622   2.500   5.980
 6110SOL    HW219230   0.661   2.376   6.079
 6111SOL     OW19231   1.168   3.601   2.264
 6111SOL    HW119232   1.083   3.593   2.212
 6111SOL    HW219233   1.214   3.686   2.239
 6112SOL     OW19234   3.318   0.702   2.235
 6112SOL    HW119235   3.317   0.603   2.220
 6112SOL    HW219236   3.234   0.742   2.198
 6113SOL     OW19237   2.658   4.096   6.789
 6113SOL    HW119238   2.707   4.162   6.846
 6113SOL    HW219239   2.633   4.140   6.702
 6114SOL     OW19240   4.723   1.981   1.986
 6114SOL    HW119241   4.649   1.914   1.978
 6114SOL    HW219242   4.702   2.062   1.931
 6115SOL     OW19243   0.512   1.201   5.289
 6115SOL    HW119244   0.465   1.149   5.361
 6115SOL    HW219245   0.481   1.296   5.292
 6116SOL     OW19246   4.032   2.212   5.289
 6116SOL    HW119247   4.009   2.161   5.372
 6116SOL    HW219248   3.959   2.202   5.222
 6117SOL     OW19249   1.011   1.529   2.788
 6117SOL    HW119250   1.081   1.583   2.835
 6117SOL    HW219251   0.987   1.450   2.844
 6118SOL     OW19252   6.305   1.243   1.206
 6118SOL    HW119253   6.328   1.311   1.136
 6118SOL    HW219254   6.386   1.190   1.229
 6119SOL     OW19255   0.228   2.526   0.293
 6119SOL    HW119256   0.272   2.452   0.241
 6119SOL    HW219257   0.147   2.490   0.339
 6120SOL     OW19258   2.125   7.007   5.553
 6120SOL    HW119259   2.032   7.020   5.519
 6120SOL    HW219260   2.159   6.918   5.522
 6121SOL     OW19261   0.449   3.873   5.472
 6121SOL    HW119262   0.529   3.846   5.418
 6121SOL    HW219263   0.367   3.867   5.416
 6122SOL     OW19264   5.300   6.001   5.821
 6122SOL    HW119265   5.200   6.006   5.817
 6122SOL    HW219266   5.332   5.931   5.757
 6123SOL     OW19267   4.872   1.271   5.378
 6123SOL    HW119268   4.925   1.314   5.305
 6123SOL    HW219269   4.921   1.192   5.413
 6124SOL     OW19270   1.956   6.894   5.233
 6124SOL    HW119271   1.911   6.977   5.198
 6124SOL    HW219272   1.998   6.845   5.157
 6125SOL     OW19273   2.744   3.920   0.448
 6125SOL    HW119274   2.778   3.995   0.504
 6125SOL    HW219275   2.645   3.914   0.456
 6126SOL     OW19276   0.586   2.351   5.052
 6126SOL    HW119277   0.650   2.276   5.069
 6126SOL    HW219278   0.523   2.325   4.979
 6127SOL     OW19279   4.348   1.208   1.587
 6127SOL    HW119280   4.304   1.277   1.643
 6127SOL    HW219281   4.288   1.128   1.577
 6128SOL     OW19282   5.530   5.582   1.031
 6128SOL    HW119283   5.458   5.605   1.096
 6128SOL    HW219284   5.559   5.664   0.982
 6129SOL     OW19285   2.248   4.219   3.237
 6129SOL    HW119286   2.205   4.150   3.178
 6129SOL    HW219287   2.279   4.295   3.181
 6130SOL     OW19288   5.775   2.681   2.409
 6130SOL    HW119289   5.679   2.668   2.384
 6130SOL    HW219290   5.808   2.768   2.371
 6131SOL     OW19291   0.624   2.017   2.251
 6131SOL    HW119292   0.581   2.097   2.209
 6131SOL    HW219293   0.558   1.942   2.257
 6132SOL     OW19294   3.656   1.843   6.607
 6132SOL    HW119295   3.624   1.814   6.697
 6132SOL    HW219296   3.623   1.778   6.538
 6133SOL     OW19297   1.287   2.200   3.716
 6133SOL    HW119298   1.188   2.208   3.702
 6133SOL    HW219299   1.333   2.206   3.628
 6134SOL     OW19300   5.121   6.487   6.780
 6134SOL    HW119301   5.124   6.571   6.832
 6134SOL    HW219302   5.163   6.501   6.690
 6135SOL     OW19303   6.335   6.851   0.100
 6135SOL    HW119304   6.431   6.872   0.120
 6135SOL    HW219305   6.276   6.918   0.144
 6136SOL     OW19306   1.544   3.097   1.262
 6136SOL    HW119307   1.545   3.162   1.338
 6136SOL    HW219308   1.459   3.109   1.209
 6137SOL     OW19309   0.718   4.432   3.123
 6137SOL    HW119310   0.780   4.505   3.152
 6137SOL    HW219311   0.671   4.460   3.039
 6138SOL     OW19312   3.672   0.261   2.141
 6138SOL    HW119313   3.662   0.168   2.107
 6138SOL    HW219314   3.763   0.296   2.119
 6139SOL     OW19315   0.704   6.567   6.054
 6139SOL    HW119316   0.757   6.489   6.089
 6139SOL    HW219317   0.763   6.625   5.999
 6140SOL     OW19318   1.409   0.481   3.047
 6140SOL    HW119319   1.387   0.436   2.960
 6140SOL    HW219320   1.325   0.510   3.091
 6141SOL     OW19321   0.538   0.320   6.543
 6141SOL    HW119322   0.443   0.290   6.545
 6141SOL    HW219323   0.553   0.390   6.613
 6142SOL     OW19324   0.912   1.021   6.928
 6142SOL    HW119325   0.983   0.960   6.893
 6142SOL    HW219326   0.822   0.988   6.897
 6143SOL     OW19327   0.150   4.128   0.447
 6143SOL    HW119328   0.064   4.129   0.498
 6143SOL    HW219329   0.203   4.047   0.472
 6144SOL     OW19330   4.632   4.633   3.303
 6144SOL    HW119331   4.551   4.623   3.246
 6144SOL    HW219332   4.701   4.566   3.277
 6145SOL     OW19333   5.775   4.258   3.961
 6145SOL    HW119334   5.875   4.259   3.964
 6145SOL    HW219335   5.739   4.332   4.017
 6146SOL     OW19336   3.829   0.118   3.871
 6146SOL    HW119337   3.760   0.185   3.845
 6146SOL    HW219338   3.825   0.102   3.970
 6147SOL     OW19339   1.823   3.023   4.858
 6147SOL    HW119340   1.792   3.118   4.858
 6147SOL    HW219341   1.848   2.997   4.951
 6148SOL     OW19342   4.246   5.022   6.557
 6148SOL    HW119343   4.224   4.973   6.472
 6148SOL    HW219344   4.266   4.956   6.629
 6149SOL     OW19345   2.231   6.976   2.166
 6149SOL    HW119346   2.301   6.905   2.154
 6149SOL    HW219347   2.242   7.018   2.256
 6150SOL     OW19348   6.394   4.180   6.657
 6150SOL    HW119349   6.474   4.206   6.711
 6150SOL    HW219350   6.400   4.083   6.632
 6151SOL     OW19351   5.345   5.365   4.410
 6151SOL    HW119352   5.383   5.347   4.501
 6151SOL    HW219353   5.405   5.325   4.341
 6152SOL     OW19354   1.307   5.460   4.416
 6152SOL    HW119355   1.278   5.532   4.353
 6152SOL    HW219356   1.292   5.491   4.510
 6153SOL     OW19357   4.597   5.703   0.918
 6153SOL    HW119358   4.675   5.738   0.866
 6153SOL    HW219359   4.618   5.704   1.015
 6154SOL     OW19360   4.910   3.607   3.074
 6154SOL    HW119361   4.900   3.632   3.170
 6154SOL    HW219362   4.963   3.677   3.026
 6155SOL     OW19363   2.817   1.020   2.809
 6155SOL    HW119364   2.799   0.992   2.714
 6155SOL    HW219365   2.730   1.024   2.859
 6156SOL     OW19366   5.244   3.876   1.499
 6156SOL    HW119367   5.166   3.935   1.519
 6156SOL    HW219368   5.217   3.806   1.434
 6157SOL     OW19369   0.775   2.141   3.556
 6157SOL    HW119370   0.720   2.214   3.516
 6157SOL    HW219371   0.719   2.058   3.565
 6158SOL     OW19372   3.330   2.244   6.194
 6158SOL    HW119373   3.346   2.333   6.151
 6158SOL    HW219374   3.416   2.206   6.226
 6159SOL     OW19375   5.441   3.065   0.087
 6159SOL    HW119376   5.415   3.023   0.175
 6159SOL    HW219377   5.388   3.023   0.014
 6160SOL     OW19378   6.794   0.261   5.961
 6160SOL    HW119379   6.731   0.336   5.983
 6160SOL    HW219380   6.868   0.258   6.029
 6161SOL     OW19381   5.276   2.541   6.384
 6161SOL    HW119382   5.192   2.502   6.346
 6161SOL    HW219383   5.252   2.601   6.461
 6162SOL     OW19384   5.939   6.782   3.592
 6162SOL    HW119385   5.843   6.758   3.607
 6162SOL    HW219386   5.983   6.714   3.533
 6163SOL     OW19387   5.455   5.979   2.521
 6163SOL    HW119388   5.430   5.921   2.443
 6163SOL    HW219389   5.402   5.951   2.601
 6164SOL     OW19390   3.729   4.116   4.128
 6164SOL    HW119391   3.659   4.149   4.191
 6164SOL    HW219392   3.817   4.110   4.176
 6165SOL     OW19393   4.364   2.408   6.846
 6165SOL    HW119394   4.316   2.400   6.758
 6165SOL    HW219395   4.459   2.378   6.835
 6166SOL     OW19396   6.860   2.045   6.962
 6166SOL    HW119397   6.802   2.123   6.938
 6166SOL    HW219398   6.910   2.014   6.881
 6167SOL     OW19399   1.550   4.792   3.077
 6167SOL    HW119400   1.584   4.745   2.996
 6167SOL    HW219401   1.481   4.860   3.050
 6168SOL     OW19402   6.368   2.493   3.487
 6168SOL    HW119403   6.449   2.486   3.546
 6168SOL    HW219404   6.287   2.464   3.537
 6169SOL     OW19405   1.126   1.079   6.010
 6169SOL    HW119406   1.085   1.136   5.939
 6169SOL    HW219407   1.183   1.008   5.968
 6170SOL     OW19408   3.555   4.353   6.676
 6170SOL    HW119409   3.542   4.310   6.766
 6170SOL    HW219410   3.565   4.452   6.688
 6171SOL     OW19411   1.192   3.779   2.581
 6171SOL    HW119412   1.253   3.724   2.637
 6171SOL    HW219413   1.122   3.721   2.539
 6172SOL     OW19414   0.334   0.708   2.294
 6172SOL    HW119415   0.248   0.668   2.262
 6172SOL    HW219416   0.410   0.651   2.263
 6173SOL     OW19417   0.568   4.927   2.534
 6173SOL    HW119418   0.636   4.862   2.502
 6173SOL    HW219419   0.606   4.981   2.610
 6174SOL     OW19420   5.814   4.573   2.572
 6174SOL    HW119421   5.781   4.478   2.566
 6174SOL    HW219422   5.806   4.605   2.666
 6175SOL     OW19423   5.723   6.447   2.426
 6175SOL    HW119424   5.717   6.382   2.502
 6175SOL    HW219425   5.632   6.472   2.395
 6176SOL     OW19426   6.333   3.797   6.810
 6176SOL    HW119427   6.380   3.842   6.885
 6176SOL    HW219428   6.287   3.715   6.843
 6177SOL     OW19429   5.570   1.193   1.510
 6177SOL    HW119430   5.595   1.284   1.477
 6177SOL    HW219431   5.608   1.124   1.448
 6178SOL     OW19432   4.508   4.951   1.812
 6178SOL    HW119433   4.510   5.044   1.846
 6178SOL    HW219434   4.602   4.916   1.804
 6179SOL     OW19435   0.022   3.429   5.099
 6179SOL    HW119436   0.062   3.519   5.081
 6179SOL    HW219437   6.982   3.406   5.027
 6180SOL     OW19438   3.493   0.010   6.897
 6180SOL    HW119439   3.483   0.075   6.972
 6180SOL    HW219440   3.590   7.025   6.874
 6181SOL     OW19441   4.824   6.385   0.600
 6181SOL    HW119442   4.824   6.399   0.699
 6181SOL    HW219443   4.918   6.374   0.567
 6182SOL     OW19444   5.039   5.497   5.283
 6182SOL    HW119445   5.009   5.590   5.261
 6182SOL    HW219446   5.104   5.500   5.359
 6183SOL     OW19447   2.238   0.224   3.136
 6183SOL    HW119448   2.331   0.261   3.126
 6183SOL    HW219449   2.179   0.293   3.178
 6184SOL     OW19450   1.534   6.968   6.741
 6184SOL    HW119451   1.624   7.003   6.716
 6184SOL    HW219452   1.543   6.876   6.778
 6185SOL     OW19453   0.944   3.502   0.103
 6185SOL    HW119454   1.008   3.427   0.120
 6185SOL    HW219455   0.934   3.515   0.004
 6186SOL     OW19456   5.825   7.003   4.067
 6186SOL    HW119457   5.898   0.029   4.112
 6186SOL    HW219458   5.861   6.960   3.984
 6187SOL     OW19459   5.161   4.803   3.726
 6187SOL    HW119460   5.091   4.740   3.691
 6187SOL    HW219461   5.126   4.852   3.805
 6188SOL     OW19462   2.042   5.914   1.342
 6188SOL    HW119463   1.987   5.833   1.359
 6188SOL    HW219464   2.073   5.915   1.247
 6189SOL     OW19465   5.011   4.953   3.307
 6189SOL    HW119466   5.045   4.861   3.328
 6189SOL    HW219467   4.915   4.947   3.278
 6190SOL     OW19468   5.559   4.228   6.023
 6190SOL    HW119469   5.606   4.150   6.063
 6190SOL    HW219470   5.596   4.248   5.932
 6191SOL     OW19471   5.276   2.555   0.981
 6191SOL    HW119472   5.336   2.477   1.000
 6191SOL    HW219473   5.241   2.591   1.067
 6192SOL     OW19474   3.081   3.553   0.689
 6192SOL    HW119475   3.041   3.491   0.757
 6192SOL    HW219476   3.071   3.647   0.719
 6193SOL     OW19477   4.152   0.469   2.174
 6193SOL    HW119478   4.133   0.567   2.168
 6193SOL    HW219479   4.151   0.441   2.270
 6194SOL     OW19480   1.909   0.230   0.429
 6194SOL    HW119481   1.941   0.196   0.517
 6194SOL    HW219482   1.813   0.256   0.435
 6195SOL     OW19483   4.056   5.200   5.508
 6195SOL    HW119484   3.981   5.137   5.491
 6195SOL    HW219485   4.087   5.240   5.422
 6196SOL     OW19486   0.078   2.574   6.388
 6196SOL    HW119487   0.036   2.561   6.298
 6196SOL    HW219488   0.133   2.494   6.411
 6197SOL     OW19489   3.794   4.159   0.804
 6197SOL    HW119490   3.814   4.061   0.798
 6197SOL    HW219491   3.764   4.192   0.715
 6198SOL     OW19492   3.936   5.852   2.867
 6198SOL    HW119493   3.902   5.758   2.872
 6198SOL    HW219494   3.925   5.896   2.956
 6199SOL     OW19495   0.143   0.153   0.464
 6199SOL    HW119496   0.065   0.117   0.515
 6199SOL    HW219497   0.191   0.221   0.519
 6200SOL     OW19498   2.777   1.347   6.604
 6200SOL    HW119499   2.740   1.423   6.658
 6200SOL    HW219500   2.865   1.319   6.644
 6201SOL     OW19501   2.437   5.272   5.819
 6201SOL    HW119502   2.443   5.339   5.745
 6201SOL    HW219503   2.488   5.305   5.898
 6202SOL     OW19504   3.806   1.599   1.388
 6202SOL    HW119505   3.728   1.604   1.451
 6202SOL    HW219506   3.890   1.585   1.440
 6203SOL     OW19507   5.279   0.169   3.447
 6203SOL    HW119508   5.295   0.095   3.512
 6203SOL    HW219509   5.246   0.131   3.361
 6204SOL     OW19510   0.354   4.628   5.487
 6204SOL    HW119511   0.417   4.697   5.522
 6204SOL    HW219512   0.403   4.542   5.472
 6205SOL     OW19513   5.336   5.768   6.595
 6205SOL    HW119514   5.351   5.835   6.522
 6205SOL    HW219515   5.399   5.785   6.670
 6206SOL     OW19516   6.627   0.317   2.270
 6206SOL    HW119517   6.723   0.335   2.249
 6206SOL    HW219518   6.575   0.312   2.185
 6207SOL     OW19519   1.730   3.287   4.835
 6207SOL    HW119520   1.646   3.269   4.886
 6207SOL    HW219521   1.733   3.383   4.808
 6208SOL     OW19522   5.985   0.491   5.659
 6208SOL    HW119523   5.988   0.520   5.754
 6208SOL    HW219524   6.061   0.533   5.609
 6209SOL     OW19525   3.876   6.371   0.097
 6209SOL    HW119526   3.867   6.453   0.041
 6209SOL    HW219527   3.849   6.392   0.191
 6210SOL     OW19528   5.336   4.537   3.076
 6210SOL    HW119529   5.283   4.595   3.137
 6210SOL    HW219530   5.431   4.532   3.108
 6211SOL     OW19531   2.705   0.244   6.272
 6211SOL    HW119532   2.760   0.309   6.324
 6211SOL    HW219533   2.645   0.293   6.209
 6212SOL     OW19534   0.288   5.530   3.023
 6212SOL    HW119535   0.352   5.606   3.008
 6212SOL    HW219536   0.334   5.459   3.077
 6213SOL     OW19537   5.627   6.659   6.410
 6213SOL    HW119538   5.568   6.717   6.354
 6213SOL    HW219539   5.691   6.717   6.462
 6214SOL     OW19540   6.078   5.235   2.968
 6214SOL    HW119541   6.030   5.259   3.053
 6214SOL    HW219542   6.011   5.208   2.899
 6215SOL     OW19543   3.515   1.958   6.950
 6215SOL    HW119544   3.430   1.983   6.997
 6215SOL    HW219545   3.541   1.865   6.977
 6216SOL     OW19546   6.586   1.882   1.736
 6216SOL    HW119547   6.674   1.924   1.714
 6216SOL    HW219548   6.512   1.942   1.704
 6217SOL     OW19549   5.304   2.586   2.006
 6217SOL    HW119550   5.344   2.649   2.072
 6217SOL    HW219551   5.211   2.563   2.034
 6218SOL     OW19552   3.742   4.981   3.695
 6218SOL    HW119553   3.775   5.075   3.707
 6218SOL    HW219554   3.819   4.920   3.684
 6219SOL     OW19555   1.250   1.624   4.945
 6219SOL    HW119556   1.197   1.654   5.024
 6219SOL    HW219557   1.336   1.585   4.976
 6220SOL     OW19558   2.019   4.590   5.731
 6220SOL    HW119559   2.044   4.552   5.642
 6220SOL    HW219560   2.099   4.589   5.791
 6221SOL     OW19561   5.232   5.410   5.027
 6221SOL    HW119562   5.166   5.455   5.088
 6221SOL    HW219563   5.188   5.331   4.984
 6222SOL     OW19564   0.803   6.630   1.119
 6222SOL    HW119565   0.877   6.564   1.132
 6222SOL    HW219566   0.717   6.581   1.101
 6223SOL     OW19567   6.552   3.040   4.594
 6223SOL    HW119568   6.496   2.968   4.635
 6223SOL    HW219569   6.496   3.092   4.528
 6224SOL     OW19570   1.793   1.570   6.106
 6224SOL    HW119571   1.713   1.598   6.053
 6224SOL    HW219572   1.848   1.505   6.053
 6225SOL     OW19573   3.063   3.531   1.525
 6225SOL    HW119574   3.158   3.537   1.497
 6225SOL    HW219575   3.008   3.595   1.471
 6226SOL     OW19576   5.987   2.005   3.691
 6226SOL    HW119577   6.040   1.935   3.643
 6226SOL    HW219578   5.895   1.971   3.710
 6227SOL     OW19579   3.123   4.822   6.324
 6227SOL    HW119580   3.125   4.876   6.408
 6227SOL    HW219581   3.118   4.883   6.245
 6228SOL     OW19582   0.278   2.202   3.021
 6228SOL    HW119583   0.306   2.241   2.933
 6228SOL    HW219584   0.188   2.161   3.012
 6229SOL     OW19585   2.019   1.955   3.167
 6229SOL    HW119586   2.072   2.025   3.215
 6229SOL    HW219587   1.945   1.922   3.227
 6230SOL     OW19588   1.152   1.382   4.828
 6230SOL    HW119589   1.186   1.473   4.851
 6230SOL    HW219590   1.108   1.342   4.908
 6231SOL     OW19591   6.800   5.257   1.622
 6231SOL    HW119592   6.706   5.230   1.599
 6231SOL    HW219593   6.840   5.308   1.545
 6232SOL     OW19594   6.512   1.526   6.872
 6232SOL    HW119595   6.588   1.462   6.873
 6232SOL    HW219596   6.430   1.482   6.908
 6233SOL     OW19597   5.720   1.752   6.837
 6233SOL    HW119598   5.649   1.709   6.892
 6233SOL    HW219599   5.714   1.719   6.742
 6234SOL     OW19600   0.722   1.215   5.142
 6234SOL    HW119601   0.745   1.310   5.123
 6234SOL    HW219602   0.657   1.211   5.218
 6235SOL     OW19603   1.668   0.076   2.836
 6235SOL    HW119604   1.679   0.021   2.919
 6235SOL    HW219605   1.586   0.046   2.786
 6236SOL     OW19606   0.598   5.205   0.729
 6236SOL    HW119607   0.660   5.137   0.690
 6236SOL    HW219608   0.625   5.225   0.823
 6237SOL     OW19609   4.713   5.964   0.580
 6237SOL    HW119610   4.676   5.872   0.566
 6237SOL    HW219611   4.643   6.032   0.560
 6238SOL     OW19612   4.595   4.908   2.980
 6238SOL    HW119613   4.630   4.952   2.897
 6238SOL    HW219614   4.517   4.959   3.016
 6239SOL     OW19615   2.766   6.691   2.057
 6239SOL    HW119616   2.779   6.763   2.125
 6239SOL    HW219617   2.846   6.687   1.997
 6240SOL     OW19618   2.772   2.191   0.770
 6240SOL    HW119619   2.824   2.191   0.685
 6240SOL    HW219620   2.832   2.166   0.846
 6241SOL     OW19621   2.348   1.212   2.797
 6241SOL    HW119622   2.330   1.149   2.721
 6241SOL    HW219623   2.367   1.303   2.761
 6242SOL     OW19624   5.957   1.365   3.365
 6242SOL    HW119625   6.037   1.312   3.392
 6242SOL    HW219626   5.891   1.366   3.441
 6243SOL     OW19627   6.104   6.782   3.218
 6243SOL    HW119628   6.060   6.723   3.286
 6243SOL    HW219629   6.192   6.814   3.254
 6244SOL     OW19630   1.439   2.300   1.934
 6244SOL    HW119631   1.498   2.237   1.883
 6244SOL    HW219632   1.427   2.268   2.027
 6245SOL     OW19633   2.941   4.366   1.573
 6245SOL    HW119634   2.998   4.415   1.506
 6245SOL    HW219635   2.950   4.409   1.663
 6246SOL     OW19636   2.983   2.702   6.491
 6246SOL    HW119637   2.994   2.608   6.457
 6246SOL    HW219638   3.011   2.706   6.587
 6247SOL     OW19639   0.393   6.442   3.638
 6247SOL    HW119640   0.454   6.434   3.716
 6247SOL    HW219641   0.381   6.352   3.596
 6248SOL     OW19642   0.821   3.768   1.318
 6248SOL    HW119643   0.865   3.704   1.380
 6248SOL    HW219644   0.888   3.803   1.253
 6249SOL     OW19645   0.538   4.634   0.698
 6249SOL    HW119646   0.442   4.638   0.671
 6249SOL    HW219647   0.581   4.553   0.658
 6250SOL     OW19648   6.523   6.054   0.347
 6250SOL    HW119649   6.562   5.965   0.322
 6250SOL    HW219650   6.507   6.056   0.445
 6251SOL     OW19651   3.820   6.879   0.899
 6251SOL    HW119652   3.823   6.906   0.996
 6251SOL    HW219653   3.912   6.884   0.861
 6252SOL     OW19654   1.994   6.230   4.706
 6252SOL    HW119655   1.996   6.325   4.675
 6252SOL    HW219656   1.982   6.170   4.628
 6253SOL     OW19657   2.443   4.430   2.671
 6253SOL    HW119658   2.422   4.345   2.718
 6253SOL    HW219659   2.359   4.472   2.638
 6254SOL     OW19660   5.050   1.150   6.630
 6254SOL    HW119661   5.072   1.216   6.558
 6254SOL    HW219662   5.133   1.121   6.676
 6255SOL     OW19663   1.320   1.192   1.502
 6255SOL    HW119664   1.234   1.169   1.547
 6255SOL    HW219665   1.357   1.110   1.458
 6256SOL     OW19666   4.355   5.012   2.792
 6256SOL    HW119667   4.381   5.048   2.882
 6256SOL    HW219668   4.326   4.917   2.801
 6257SOL     OW19669   5.592   2.539   1.208
 6257SOL    HW119670   5.643   2.499   1.285
 6257SOL    HW219671   5.498   2.505   1.210
 6258SOL     OW19672   4.631   0.755   3.323
 6258SOL    HW119673   4.570   0.677   3.339
 6258SOL    HW219674   4.685   0.738   3.240
 6259SOL     OW19675   3.033   1.203   1.190
 6259SOL    HW119676   3.093   1.132   1.153
 6259SOL    HW219677   3.085   1.262   1.252
 6260SOL     OW19678   3.345   4.250   0.268
 6260SOL    HW119679   3.322   4.230   0.172
 6260SOL    HW219680   3.443   4.271   0.275
 6261SOL     OW19681   3.338   6.650   6.539
 6261SOL    HW119682   3.427   6.640   6.493
 6261SOL    HW219683   3.347   6.714   6.615
 6262SOL     OW19684   2.239   4.090   0.618
 6262SOL    HW119685   2.238   4.167   0.682
 6262SOL    HW219686   2.237   4.004   0.669
 6263SOL     OW19687   0.222   6.556   6.303
 6263SOL    HW119688   0.297   6.607   6.346
 6263SOL    HW219689   0.219   6.464   6.342
 6264SOL     OW19690   1.935   0.110   0.698
 6264SOL    HW119691   2.003   0.170   0.740
 6264SOL    HW219692   1.966   0.015   0.706
 6265SOL     OW19693   3.003   4.071   1.190
 6265SOL    HW119694   3.038   4.004   1.124
 6265SOL    HW219695   3.036   4.162   1.166
 6266SOL     OW19696   4.197   0.764   4.559
 6266SOL    HW119697   4.105   0.801   4.542
 6266SOL    HW219698   4.265   0.836   4.544
 6267SOL     OW19699   3.211   6.919   0.035
 6267SOL    HW119700   3.134   6.899   0.096
 6267SOL    HW219701   3.243   7.013   0.052
 6268SOL     OW19702   2.725   6.114   3.130
 6268SOL    HW119703   2.749   6.205   3.095
 6268SOL    HW219704   2.645   6.079   3.082
 6269SOL     OW19705   6.715   5.926   2.222
 6269SOL    HW119706   6.674   5.928   2.131
 6269SOL    HW219707   6.808   5.962   2.218
 6270SOL     OW19708   1.605   0.379   6.095
 6270SOL    HW119709   1.583   0.281   6.095
 6270SOL    HW219710   1.697   0.392   6.131
 6271SOL     OW19711   6.643   2.885   6.012
 6271SOL    HW119712   6.557   2.935   6.018
 6271SOL    HW219713   6.715   2.946   5.979
 6272SOL     OW19714   0.806   2.827   4.882
 6272SOL    HW119715   0.869   2.903   4.896
 6272SOL    HW219716   0.806   2.768   4.963
 6273SOL     OW19717   1.475   0.557   2.079
 6273SOL    HW119718   1.406   0.567   2.008
 6273SOL    HW219719   1.559   0.605   2.052
 6274SOL     OW19720   2.422   5.468   5.612
 6274SOL    HW119721   2.470   5.459   5.525
 6274SOL    HW219722   2.349   5.536   5.604
 6275SOL     OW19723   2.913   6.455   5.423
 6275SOL    HW119724   2.970   6.441   5.342
 6275SOL    HW219725   2.853   6.533   5.408
 6276SOL     OW19726   1.686   4.971   3.225
 6276SOL    HW119727   1.676   4.964   3.324
 6276SOL    HW219728   1.629   4.902   3.181
 6277SOL     OW19729   4.634   2.480   2.833
 6277SOL    HW119730   4.681   2.568   2.826
 6277SOL    HW219731   4.598   2.455   2.743
 6278SOL     OW19732   5.105   0.478   4.911
 6278SOL    HW119733   5.189   0.532   4.910
 6278SOL    HW219734   5.035   0.526   4.964
 6279SOL     OW19735   3.857   1.347   0.205
 6279SOL    HW119736   3.900   1.257   0.198
 6279SOL    HW219737   3.838   1.367   0.302
 6280SOL     OW19738   0.390   2.915   5.428
 6280SOL    HW119739   0.452   2.861   5.484
 6280SOL    HW219740   0.364   2.862   5.347
 6281SOL     OW19741   2.537   6.427   5.341
 6281SOL    HW119742   2.567   6.481   5.419
 6281SOL    HW219743   2.438   6.429   5.334
 6282SOL     OW19744   1.352   0.275   4.703
 6282SOL    HW119745   1.265   0.227   4.710
 6282SOL    HW219746   1.349   0.340   4.628
 6283SOL     OW19747   6.555   2.332   4.982
 6283SOL    HW119748   6.562   2.281   5.068
 6283SOL    HW219749   6.631   2.397   4.975
 6284SOL     OW19750   2.094   5.725   5.092
 6284SOL    HW119751   2.173   5.690   5.142
 6284SOL    HW219752   2.011   5.682   5.125
 6285SOL     OW19753   1.096   2.873   3.852
 6285SOL    HW119754   1.160   2.922   3.792
 6285SOL    HW219755   1.109   2.903   3.946
 6286SOL     OW19756   6.410   1.675   3.950
 6286SOL    HW119757   6.445   1.596   3.899
 6286SOL    HW219758   6.344   1.643   4.018
 6287SOL     OW19759   4.953   4.479   2.349
 6287SOL    HW119760   4.977   4.393   2.304
 6287SOL    HW219761   4.867   4.513   2.311
 6288SOL     OW19762   5.502   3.987   1.875
 6288SOL    HW119763   5.496   4.067   1.815
 6288SOL    HW219764   5.544   4.014   1.962
 6289SOL     OW19765   1.401   2.798   2.768
 6289SOL    HW119766   1.313   2.754   2.782
 6289SOL    HW219767   1.451   2.800   2.855
 6290SOL     OW19768   5.709   3.673   4.398
 6290SOL    HW119769   5.773   3.597   4.407
 6290SOL    HW219770   5.630   3.644   4.344
 6291SOL     OW19771   4.159   3.508   4.231
 6291SOL    HW119772   4.063   3.520   4.258
 6291SOL    HW219773   4.211   3.473   4.308
 6292SOL     OW19774   0.326   3.392   3.278
 6292SOL    HW119775   0.327   3.351   3.369
 6292SOL    HW219776   0.231   3.413   3.253
 6293SOL     OW19777   4.206   6.716   0.118
 6293SOL    HW119778   4.166   6.631   0.083
 6293SOL    HW219779   4.162   6.794   0.074
 6294SOL     OW19780   3.855   4.852   3.280
 6294SOL    HW119781   3.889   4.867   3.187
 6294SOL    HW219782   3.804   4.767   3.285
 6295SOL     OW19783   5.211   5.490   5.484
 6295SOL    HW119784   5.305   5.485   5.449
 6295SOL    HW219785   5.200   5.426   5.560
 6296SOL     OW19786   6.911   0.176   4.135
 6296SOL    HW119787   6.879   0.091   4.177
 6296SOL    HW219788   6.923   0.246   4.206
 6297SOL     OW19789   4.793   0.027   5.105
 6297SOL    HW119790   4.865   0.096   5.114
 6297SOL    HW219791   4.793   7.016   5.011
 6298SOL     OW19792   1.846   3.932   6.493
 6298SOL    HW119793   1.923   3.892   6.543
 6298SOL    HW219794   1.852   3.906   6.397
 6299SOL     OW19795   5.974   2.222   6.568
 6299SOL    HW119796   6.067   2.220   6.530
 6299SOL    HW219797   5.979   2.238   6.667
 6300SOL     OW19798   5.561   0.783   4.922
 6300SOL    HW119799   5.523   0.829   4.841
 6300SOL    HW219800   5.627   0.843   4.966
 6301SOL     OW19801   2.631   0.442   1.255
 6301SOL    HW119802   2.551   0.396   1.215
 6301SOL    HW219803   2.711   0.425   1.198
 6302SOL     OW19804   1.182   1.537   4.088
 6302SOL    HW119805   1.279   1.562   4.084
 6302SOL    HW219806   1.150   1.512   3.997
 6303SOL     OW19807   2.549   0.817   4.851
 6303SOL    HW119808   2.518   0.912   4.856
 6303SOL    HW219809   2.638   0.813   4.806
 6304SOL     OW19810   2.404   0.961   1.368
 6304SOL    HW119811   2.393   1.019   1.288
 6304SOL    HW219812   2.315   0.946   1.411
 6305SOL     OW19813   5.742   6.408   1.137
 6305SOL    HW119814   5.691   6.418   1.052
 6305SOL    HW219815   5.839   6.425   1.120
 6306SOL     OW19816   0.013   3.528   4.349
 6306SOL    HW119817   0.085   3.509   4.416
 6306SOL    HW219818   0.030   3.616   4.305
 6307SOL     OW19819   3.758   4.711   6.023
 6307SOL    HW119820   3.725   4.805   6.017
 6307SOL    HW219821   3.844   4.702   5.973
 6308SOL     OW19822   1.376   1.702   5.331
 6308SOL    HW119823   1.421   1.771   5.273
 6308SOL    HW219824   1.418   1.702   5.421
 6309SOL     OW19825   4.836   4.001   4.419
 6309SOL    HW119826   4.869   4.049   4.500
 6309SOL    HW219827   4.825   4.066   4.344
 6310SOL     OW19828   2.267   4.591   3.834
 6310SOL    HW119829   2.185   4.578   3.890
 6310SOL    HW219830   2.267   4.684   3.796
 6311SOL     OW19831   6.237   0.890   5.234
 6311SOL    HW119832   6.202   0.983   5.230
 6311SOL    HW219833   6.201   0.837   5.157
 6312SOL     OW19834   4.474   4.967   5.764
 6312SOL    HW119835   4.506   4.924   5.680
 6312SOL    HW219836   4.393   5.022   5.744
 6313SOL     OW19837   1.767   5.974   3.257
 6313SOL    HW119838   1.716   5.893   3.287
 6313SOL    HW219839   1.739   5.999   3.164
 6314SOL     OW19840   3.559   6.687   1.803
 6314SOL    HW119841   3.590   6.592   1.810
 6314SOL    HW219842   3.580   6.735   1.888
 6315SOL     OW19843   4.091   2.415   6.939
 6315SOL    HW119844   4.186   2.440   6.919
 6315SOL    HW219845   4.029   2.483   6.900
 6316SOL     OW19846   4.659   2.471   6.326
 6316SOL    HW119847   4.582   2.498   6.267
 6316SOL    HW219848   4.641   2.381   6.366
 6317SOL     OW19849   5.425   6.521   3.404
 6317SOL    HW119850   5.486   6.569   3.342
 6317SOL    HW219851   5.435   6.422   3.391
 6318SOL     OW19852   2.869   2.599   5.349
 6318SOL    HW119853   2.887   2.527   5.282
 6318SOL    HW219854   2.776   2.635   5.336
 6319SOL     OW19855   0.262   2.985   3.620
 6319SOL    HW119856   0.219   3.042   3.691
 6319SOL    HW219857   0.191   2.948   3.560
 6320SOL     OW19858   5.724   4.585   3.654
 6320SOL    HW119859   5.726   4.486   3.667
 6320SOL    HW219860   5.722   4.605   3.556
 6321SOL     OW19861   3.053   5.622   1.069
 6321SOL    HW119862   3.144   5.664   1.072
 6321SOL    HW219863   3.044   5.567   0.986
 6322SOL     OW19864   1.689   1.911   6.306
 6322SOL    HW119865   1.594   1.890   6.283
 6322SOL    HW219866   1.726   1.840   6.366
 6323SOL     OW19867   3.582   2.404   1.425
 6323SOL    HW119868   3.680   2.420   1.429
 6323SOL    HW219869   3.538   2.447   1.504
 6324SOL     OW19870   4.506   0.841   6.048
 6324SOL    HW119871   4.509   0.893   6.133
 6324SOL    HW219872   4.599   0.826   6.014
 6325SOL     OW19873   1.233   2.367   1.735
 6325SOL    HW119874   1.238   2.325   1.825
 6325SOL    HW219875   1.242   2.296   1.665
 6326SOL     OW19876   5.335   5.643   1.257
 6326SOL    HW119877   5.337   5.556   1.306
 6326SOL    HW219878   5.415   5.698   1.283
 6327SOL     OW19879   6.842   0.399   4.959
 6327SOL    HW119880   6.868   0.386   4.863
 6327SOL    HW219881   6.878   0.323   5.014
 6328SOL     OW19882   2.622   3.806   0.126
 6328SOL    HW119883   2.587   3.780   0.215
 6328SOL    HW219884   2.681   3.734   0.091
 6329SOL     OW19885   1.063   1.658   3.661
 6329SOL    HW119886   0.964   1.668   3.655
 6329SOL    HW219887   1.103   1.746   3.688
 6330SOL     OW19888   4.807   1.004   1.017
 6330SOL    HW119889   4.797   1.009   0.918
 6330SOL    HW219890   4.840   1.091   1.052
 6331SOL     OW19891   6.500   3.039   0.937
 6331SOL    HW119892   6.485   3.129   0.896
 6331SOL    HW219893   6.437   2.973   0.897
 6332SOL     OW19894   6.154   5.099   2.004
 6332SOL    HW119895   6.211   5.039   2.061
 6332SOL    HW219896   6.207   5.131   1.926
 6333SOL     OW19897   4.012   5.181   3.582
 6333SOL    HW119898   4.054   5.263   3.542
 6333SOL    HW219899   3.953   5.208   3.659
 6334SOL     OW19900   2.006   6.757   2.611
 6334SOL    HW119901   1.938   6.830   2.613
 6334SOL    HW219902   2.091   6.791   2.571
 6335SOL     OW19903   5.629   1.608   0.340
 6335SOL    HW119904   5.724   1.578   0.353
 6335SOL    HW219905   5.569   1.557   0.401
 6336SOL     OW19906   0.141   2.271   4.938
 6336SOL    HW119907   0.107   2.253   4.845
 6336SOL    HW219908   0.158   2.369   4.948
 6337SOL     OW19909   4.733   3.501   6.152
 6337SOL    HW119910   4.679   3.449   6.086
 6337SOL    HW219911   4.682   3.583   6.180
 6338SOL     OW19912   2.671   2.335   2.554
 6338SOL    HW119913   2.716   2.338   2.465
 6338SOL    HW219914   2.572   2.340   2.541
 6339SOL     OW19915   0.304   2.642   3.812
 6339SOL    HW119916   0.338   2.718   3.756
 6339SOL    HW219917   0.354   2.640   3.898
 6340SOL     OW19918   2.382   5.389   3.234
 6340SOL    HW119919   2.338   5.407   3.323
 6340SOL    HW219920   2.444   5.312   3.243
 6341SOL     OW19921   6.855   4.878   3.852
 6341SOL    HW119922   6.806   4.867   3.766
 6341SOL    HW219923   6.830   4.802   3.914
 6342SOL     OW19924   2.447   2.041   1.649
 6342SOL    HW119925   2.517   2.038   1.577
 6342SOL    HW219926   2.488   2.016   1.736
 6343SOL     OW19927   4.930   2.596   6.935
 6343SOL    HW119928   4.838   2.573   6.902
 6343SOL    HW219929   4.997   2.572   6.864
 6344SOL     OW19930   6.928   3.528   5.768
 6344SOL    HW119931   6.891   3.436   5.762
 6344SOL    HW219932   6.867   3.586   5.822
 6345SOL     OW19933   4.294   1.207   2.236
 6345SOL    HW119934   4.280   1.201   2.138
 6345SOL    HW219935   4.312   1.302   2.262
 6346SOL     OW19936   6.530   3.589   3.643
 6346SOL    HW119937   6.496   3.495   3.634
 6346SOL    HW219938   6.600   3.606   3.573
 6347SOL     OW19939   3.246   0.823   1.872
 6347SOL    HW119940   3.303   0.872   1.937
 6347SOL    HW219941   3.177   0.771   1.922
 6348SOL     OW19942   0.783   4.031   5.183
 6348SOL    HW119943   0.786   4.049   5.084
 6348SOL    HW219944   0.697   4.067   5.220
 6349SOL     OW19945   2.544   0.875   1.935
 6349SOL    HW119946   2.635   0.845   1.962
 6349SOL    HW219947   2.550   0.932   1.854
 6350SOL     OW19948   1.740   4.971   3.523
 6350SOL    HW119949   1.827   4.965   3.474
 6350SOL    HW219950   1.757   4.960   3.621
 6351SOL     OW19951   6.692   2.571   1.748
 6351SOL    HW119952   6.631   2.631   1.800
 6351SOL    HW219953   6.700   2.483   1.795
 6352SOL     OW19954   1.633   5.115   4.024
 6352SOL    HW119955   1.543   5.132   3.984
 6352SOL    HW219956   1.679   5.202   4.040
 6353SOL     OW19957   6.471   0.349   6.334
 6353SOL    HW119958   6.480   0.383   6.427
 6353SOL    HW219959   6.546   0.285   6.315
 6354SOL     OW19960   0.963   6.878   2.655
 6354SOL    HW119961   0.924   6.947   2.717
 6354SOL    HW219962   0.911   6.877   2.570
 6355SOL     OW19963   0.569   4.398   5.095
 6355SOL    HW119964   0.629   4.382   5.173
 6355SOL    HW219965   0.568   4.496   5.073
 6356SOL     OW19966   5.239   4.897   2.035
 6356SOL    HW119967   5.207   4.808   2.069
 6356SOL    HW219968   5.169   4.938   1.977
 6357SOL     OW19969   4.959   2.851   1.023
 6357SOL    HW119970   4.962   2.936   1.076
 6357SOL    HW219971   4.901   2.785   1.071
 6358SOL     OW19972   0.405   2.326   4.828
 6358SOL    HW119973   0.495   2.293   4.799
 6358SOL    HW219974   0.355   2.252   4.873
 6359SOL     OW19975   6.577   0.687   5.592
 6359SOL    HW119976   6.577   0.587   5.584
 6359SOL    HW219977   6.504   0.725   5.534
 6360SOL     OW19978   2.357   4.356   3.724
 6360SOL    HW119979   2.315   4.437   3.766
 6360SOL    HW219980   2.387   4.293   3.795
 6361SOL     OW19981   5.165   6.672   6.956
 6361SOL    HW119982   5.089   6.666   7.022
 6361SOL    HW219983   5.220   6.753   6.977
 6362SOL     OW19984   6.174   5.020   0.212
 6362SOL    HW119985   6.237   5.045   0.285
 6362SOL    HW219986   6.176   4.921   0.199
 6363SOL     OW19987   2.203   5.305   3.696
 6363SOL    HW119988   2.167   5.381   3.642
 6363SOL    HW219989   2.274   5.338   3.757
 6364SOL     OW19990   3.123   1.770   6.111
 6364SOL    HW119991   3.221   1.759   6.126
 6364SOL    HW219992   3.101   1.750   6.015
 6365SOL     OW19993   4.686   6.966   4.425
 6365SOL    HW119994   4.698   7.022   4.342
 6365SOL    HW219995   4.725   7.016   4.503
 6366SOL     OW19996   0.954   5.880   5.513
 6366SOL    HW119997   0.930   5.794   5.559
 6366SOL    HW219998   1.042   5.870   5.467
 6367SOL     OW19999   4.694   0.377   4.031
 6367SOL    HW120000   4.708   0.356   3.935
 6367SOL    HW220001   4.665   0.294   4.080
 6368SOL     OW20002   2.936   0.237   4.204
 6368SOL    HW120003   3.025   0.270   4.174
 6368SOL    HW220004   2.910   0.283   4.289
 6369SOL     OW20005   3.661   4.911   3.945
 6369SOL    HW120006   3.681   4.957   3.859
 6369SOL    HW220007   3.569   4.935   3.975
 6370SOL     OW20008   1.024   2.649   2.525
 6370SOL    HW120009   1.057   2.667   2.618
 6370SOL    HW220010   1.097   2.667   2.460
 6371SOL     OW20011   4.843   3.187   3.791
 6371SOL    HW120012   4.865   3.212   3.885
 6371SOL    HW220013   4.806   3.094   3.789
 6372SOL     OW20014   3.090   6.738   1.640
 6372SOL    HW120015   3.150   6.817   1.628
 6372SOL    HW220016   2.999   6.759   1.606
 6373SOL     OW20017   6.322   4.362   4.354
 6373SOL    HW120018   6.292   4.436   4.413
 6373SOL    HW220019   6.419   4.374   4.332
 6374SOL     OW20020   2.951   3.699   3.995
 6374SOL    HW120021   2.930   3.722   4.090
 6374SOL    HW220022   2.993   3.778   3.950
 6375SOL     OW20023   1.258   1.391   3.184
 6375SOL    HW120024   1.310   1.317   3.142
 6375SOL    HW220025   1.183   1.352   3.238
 6376SOL     OW20026   6.823   1.682   5.062
 6376SOL    HW120027   6.744   1.658   5.006
 6376SOL    HW220028   6.899   1.707   5.002
 6377SOL     OW20029   6.722   0.879   6.111
 6377SOL    HW120030   6.671   0.814   6.168
 6377SOL    HW220031   6.664   0.957   6.090
 6378SOL     OW20032   5.179   4.765   3.154
 6378SOL    HW120033   5.085   4.753   3.122
 6378SOL    HW220034   5.238   4.784   3.076
 6379SOL     OW20035   2.324   4.808   4.594
 6379SOL    HW120036   2.286   4.777   4.682
 6379SOL    HW220037   2.418   4.838   4.608
 6380SOL     OW20038   0.906   1.628   5.585
 6380SOL    HW120039   0.899   1.536   5.624
 6380SOL    HW220040   0.983   1.676   5.627
 6381SOL     OW20041   3.290   3.081   2.614
 6381SOL    HW120042   3.203   3.130   2.614
 6381SOL    HW220043   3.295   3.021   2.695
 6382SOL     OW20044   1.522   2.671   6.993
 6382SOL    HW120045   1.477   2.759   6.979
 6382SOL    HW220046   1.560   2.639   6.907
 6383SOL     OW20047   2.193   2.047   3.773
 6383SOL    HW120048   2.191   2.135   3.725
 6383SOL    HW220049   2.273   2.043   3.833
 6384SOL     OW20050   6.228   4.631   1.755
 6384SOL    HW120051   6.191   4.543   1.786
 6384SOL    HW220052   6.321   4.641   1.789
 6385SOL     OW20053   5.976   4.743   4.334
 6385SOL    HW120054   5.956   4.781   4.244
 6385SOL    HW220055   6.052   4.793   4.376
 6386SOL     OW20056   2.279   4.619   0.463
 6386SOL    HW120057   2.248   4.685   0.395
 6386SOL    HW220058   2.337   4.551   0.419
 6387SOL     OW20059   0.958   2.055   6.167
 6387SOL    HW120060   0.864   2.023   6.157
 6387SOL    HW220061   0.984   2.108   6.086
 6388SOL     OW20062   4.007   4.258   1.240
 6388SOL    HW120063   3.931   4.221   1.292
 6388SOL    HW220064   4.093   4.225   1.279
 6389SOL     OW20065   0.634   6.286   2.035
 6389SOL    HW120066   0.686   6.273   2.119
 6389SOL    HW220067   0.683   6.351   1.975
 6390SOL     OW20068   0.063   2.853   3.456
 6390SOL    HW120069   0.069   2.832   3.359
 6390SOL    HW220070   0.098   2.776   3.509
 6391SOL     OW20071   3.164   1.051   0.097
 6391SOL    HW120072   3.136   1.064   0.002
 6391SOL    HW220073   3.210   0.963   0.108
 6392SOL     OW20074   2.226   6.679   4.263
 6392SOL    HW120075   2.238   6.778   4.254
 6392SOL    HW220076   2.305   6.632   4.224
 6393SOL     OW20077   5.684   6.580   1.742
 6393SOL    HW120078   5.680   6.546   1.836
 6393SOL    HW220079   5.770   6.629   1.728
 6394SOL     OW20080   2.662   5.032   0.981
 6394SOL    HW120081   2.712   5.116   0.999
 6394SOL    HW220082   2.612   5.004   1.063
 6395SOL     OW20083   6.152   1.848   1.672
 6395SOL    HW120084   6.129   1.944   1.687
 6395SOL    HW220085   6.194   1.837   1.582
 6396SOL     OW20086   5.852   2.784   6.330
 6396SOL    HW120087   5.876   2.853   6.398
 6396SOL    HW220088   5.775   2.729   6.364
 6397SOL     OW20089   6.387   2.021   0.036
 6397SOL    HW120090   6.452   2.002   0.110
 6397SOL    HW220091   6.383   1.943   7.000
 6398SOL     OW20092   3.600   1.188   1.096
 6398SOL    HW120093   3.575   1.093   1.116
 6398SOL    HW220094   3.698   1.200   1.110
 6399SOL     OW20095   1.821   5.259   6.057
 6399SOL    HW120096   1.847   5.342   6.107
 6399SOL    HW220097   1.739   5.220   6.098
 6400SOL     OW20098   2.343   5.678   3.227
 6400SOL    HW120099   2.315   5.711   3.317
 6400SOL    HW220100   2.359   5.579   3.232
 6401SOL     OW20101   6.994   4.889   3.561
 6401SOL    HW120102   6.906   4.927   3.531
 6401SOL    HW220103   6.990   4.789   3.557
 6402SOL     OW20104   2.826   0.736   2.921
 6402SOL    HW120105   2.735   0.753   2.884
 6402SOL    HW220106   2.893   0.793   2.874
 6403SOL     OW20107   0.801   5.441   6.568
 6403SOL    HW120108   0.783   5.442   6.666
 6403SOL    HW220109   0.858   5.519   6.543
 6404SOL     OW20110   3.845   1.293   3.432
 6404SOL    HW120111   3.935   1.306   3.473
 6404SOL    HW220112   3.851   1.220   3.363
 6405SOL     OW20113   1.729   1.445   2.883
 6405SOL    HW120114   1.662   1.371   2.886
 6405SOL    HW220115   1.691   1.523   2.833
 6406SOL     OW20116   1.140   1.917   3.683
 6406SOL    HW120117   1.193   1.980   3.626
 6406SOL    HW220118   1.079   1.968   3.743
 6407SOL     OW20119   3.048   6.614   3.994
 6407SOL    HW120120   3.081   6.540   4.053
 6407SOL    HW220121   3.020   6.576   3.906
 6408SOL     OW20122   6.211   2.465   0.065
 6408SOL    HW120123   6.219   2.544   0.004
 6408SOL    HW220124   6.163   2.491   0.148
 6409SOL     OW20125   6.383   4.177   3.030
 6409SOL    HW120126   6.341   4.112   2.966
 6409SOL    HW220127   6.454   4.230   2.982
 6410SOL     OW20128   1.552   1.775   0.537
 6410SOL    HW120129   1.582   1.862   0.574
 6410SOL    HW220130   1.570   1.702   0.604
 6411SOL     OW20131   0.478   2.488   3.297
 6411SOL    HW120132   0.473   2.533   3.208
 6411SOL    HW220133   0.416   2.409   3.297
 6412SOL     OW20134   0.049   3.279   5.421
 6412SOL    HW120135   0.098   3.194   5.442
 6412SOL    HW220136   0.110   3.341   5.372
 6413SOL     OW20137   5.761   4.509   2.085
 6413SOL    HW120138   5.776   4.567   2.165
 6413SOL    HW220139   5.671   4.466   2.092
 6414SOL     OW20140   5.611   0.557   1.811
 6414SOL    HW120141   5.679   0.529   1.878
 6414SOL    HW220142   5.563   0.638   1.843
 6415SOL     OW20143   3.079   2.198   2.778
 6415SOL    HW120144   3.156   2.252   2.744
 6415SOL    HW220145   2.994   2.234   2.741
 6416SOL     OW20146   0.907   0.808   6.239
 6416SOL    HW120147   0.992   0.784   6.191
 6416SOL    HW220148   0.845   0.730   6.238
 6417SOL     OW20149   0.708   5.561   3.075
 6417SOL    HW120150   0.788   5.507   3.049
 6417SOL    HW220151   0.702   5.641   3.015
 6418SOL     OW20152   6.815   5.068   2.370
 6418SOL    HW120153   6.838   4.983   2.417
 6418SOL    HW220154   6.858   5.069   2.279
 6419SOL     OW20155   3.202   5.549   1.943
 6419SOL    HW120156   3.294   5.534   1.907
 6419SOL    HW220157   3.136   5.536   1.869
 6420SOL     OW20158   3.427   3.443   6.284
 6420SOL    HW120159   3.398   3.355   6.322
 6420SOL    HW220160   3.367   3.516   6.318
 6421SOL     OW20161   6.614   1.591   1.170
 6421SOL    HW120162   6.607   1.517   1.237
 6421SOL    HW220163   6.539   1.655   1.184
 6422SOL     OW20164   6.845   6.967   3.729
 6422SOL    HW120165   6.792   6.941   3.810
 6422SOL    HW220166   6.943   6.955   3.747
 6423SOL     OW20167   4.855   4.623   1.523
 6423SOL    HW120168   4.799   4.584   1.596
 6423SOL    HW220169   4.949   4.632   1.555
 6424SOL     OW20170   6.627   4.326   5.856
 6424SOL    HW120171   6.694   4.260   5.890
 6424SOL    HW220172   6.535   4.286   5.860
 6425SOL     OW20173   6.997   5.120   3.790
 6425SOL    HW120174   6.912   5.160   3.756
 6425SOL    HW220175   6.982   5.025   3.817
 6426SOL     OW20176   0.474   3.605   3.782
 6426SOL    HW120177   0.558   3.650   3.811
 6426SOL    HW220178   0.487   3.561   3.693
 6427SOL     OW20179   1.722   3.629   6.771
 6427SOL    HW120180   1.814   3.666   6.786
 6427SOL    HW220181   1.711   3.545   6.823
 6428SOL     OW20182   6.579   3.607   1.475
 6428SOL    HW120183   6.632   3.587   1.392
 6428SOL    HW220184   6.624   3.680   1.526
 6429SOL     OW20185   1.173   1.094   5.108
 6429SOL    HW120186   1.257   1.137   5.142
 6429SOL    HW220187   1.192   0.999   5.083
 6430SOL     OW20188   4.621   1.214   1.968
 6430SOL    HW120189   4.563   1.209   2.049
 6430SOL    HW220190   4.582   1.159   1.894
 6431SOL     OW20191   5.930   0.049   3.749
 6431SOL    HW120192   5.967   6.984   3.725
 6431SOL    HW220193   6.002   0.118   3.743
 6432SOL     OW20194   4.517   4.464   0.061
 6432SOL    HW120195   4.539   4.446   0.157
 6432SOL    HW220196   4.601   4.490   0.012
 6433SOL     OW20197   3.112   4.704   1.020
 6433SOL    HW120198   3.121   4.719   0.921
 6433SOL    HW220199   3.099   4.791   1.066
 6434SOL     OW20200   1.128   3.788   1.269
 6434SOL    HW120201   1.169   3.820   1.184
 6434SOL    HW220202   1.200   3.755   1.330
 6435SOL     OW20203   3.513   5.028   6.985
 6435SOL    HW120204   3.497   5.104   6.921
 6435SOL    HW220205   3.608   4.998   6.979
 6436SOL     OW20206   2.207   3.128   3.818
 6436SOL    HW120207   2.187   3.188   3.896
 6436SOL    HW220208   2.241   3.040   3.851
 6437SOL     OW20209   1.575   1.218   0.065
 6437SOL    HW120210   1.654   1.278   0.078
 6437SOL    HW220211   1.576   1.179   6.998
 6438SOL     OW20212   0.073   4.289   5.081
 6438SOL    HW120213   0.061   4.190   5.084
 6438SOL    HW220214   0.031   4.331   5.162
 6439SOL     OW20215   0.677   6.793   0.756
 6439SOL    HW120216   0.760   6.748   0.724
 6439SOL    HW220217   0.612   6.801   0.680
 6440SOL     OW20218   2.167   1.489   1.755
 6440SOL    HW120219   2.120   1.524   1.836
 6440SOL    HW220220   2.238   1.425   1.783
 6441SOL     OW20221   1.011   0.289   2.649
 6441SOL    HW120222   0.929   0.249   2.609
 6441SOL    HW220223   1.023   0.254   2.742
 6442SOL     OW20224   2.499   1.859   3.737
 6442SOL    HW120225   2.447   1.778   3.711
 6442SOL    HW220226   2.458   1.940   3.695
 6443SOL     OW20227   3.783   2.670   0.851
 6443SOL    HW120228   3.732   2.665   0.937
 6443SOL    HW220229   3.776   2.763   0.814
 6444SOL     OW20230   0.534   2.357   3.548
 6444SOL    HW120231   0.580   2.425   3.606
 6444SOL    HW220232   0.552   2.378   3.452
 6445SOL     OW20233   4.679   2.554   5.405
 6445SOL    HW120234   4.588   2.595   5.409
 6445SOL    HW220235   4.731   2.579   5.487
 6446SOL     OW20236   0.141   1.483   6.162
 6446SOL    HW120237   0.135   1.429   6.246
 6446SOL    HW220238   0.066   1.457   6.101
 6447SOL     OW20239   0.503   6.365   2.427
 6447SOL    HW120240   0.505   6.280   2.374
 6447SOL    HW220241   0.413   6.407   2.420
 6448SOL     OW20242   6.386   4.024   2.334
 6448SOL    HW120243   6.441   4.105   2.355
 6448SOL    HW220244   6.313   4.015   2.402
 6449SOL     OW20245   3.786   4.233   1.668
 6449SOL    HW120246   3.701   4.252   1.718
 6449SOL    HW220247   3.864   4.264   1.722
 6450SOL     OW20248   6.929   2.918   1.693
 6450SOL    HW120249   6.974   2.910   1.782
 6450SOL    HW220250   6.830   2.912   1.705
 6451SOL     OW20251   3.120   6.234   5.572
 6451SOL    HW120252   3.112   6.330   5.601
 6451SOL    HW220253   3.114   6.174   5.651
 6452SOL     OW20254   3.822   6.676   5.129
 6452SOL    HW120255   3.785   6.609   5.065
 6452SOL    HW220256   3.801   6.768   5.098
 6453SOL     OW20257   1.929   6.827   6.579
 6453SOL    HW120258   1.867   6.753   6.554
 6453SOL    HW220259   1.949   6.823   6.676
 6454SOL     OW20260   2.911   1.193   3.570
 6454SOL    HW120261   2.921   1.290   3.591
 6454SOL    HW220262   2.965   1.139   3.633
 6455SOL     OW20263   0.880   2.493   4.501
 6455SOL    HW120264   0.934   2.424   4.549
 6455SOL    HW220265   0.924   2.582   4.509
 6456SOL     OW20266   1.446   0.718   3.432
 6456SOL    HW120267   1.493   0.784   3.490
 6456SOL    HW220268   1.513   0.667   3.378
 6457SOL     OW20269   5.578   1.433   0.860
 6457SOL    HW120270   5.504   1.496   0.886
 6457SOL    HW220271   5.641   1.423   0.937
 6458SOL     OW20272   0.914   6.240   2.638
 6458SOL    HW120273   0.919   6.146   2.604
 6458SOL    HW220274   0.819   6.269   2.646
 6459SOL     OW20275   5.475   5.649   0.748
 6459SOL    HW120276   5.387   5.691   0.724
 6459SOL    HW220277   5.533   5.716   0.792
 6460SOL     OW20278   4.196   5.102   5.935
 6460SOL    HW120279   4.205   5.140   6.027
 6460SOL    HW220280   4.151   5.013   5.941
 6461SOL     OW20281   3.223   5.576   4.962
 6461SOL    HW120282   3.133   5.545   4.992
 6461SOL    HW220283   3.293   5.514   4.995
 6462SOL     OW20284   2.143   3.176   5.139
 6462SOL    HW120285   2.217   3.128   5.090
 6462SOL    HW220286   2.132   3.137   5.230
 6463SOL     OW20287   2.411   4.728   6.566
 6463SOL    HW120288   2.330   4.673   6.544
 6463SOL    HW220289   2.409   4.813   6.513
 6464SOL     OW20290   1.084   4.699   4.264
 6464SOL    HW120291   1.148   4.665   4.332
 6464SOL    HW220292   1.110   4.792   4.237
 6465SOL     OW20293   5.713   2.793   3.778
 6465SOL    HW120294   5.626   2.750   3.804
 6465SOL    HW220295   5.765   2.815   3.860
 6466SOL     OW20296   0.152   2.546   4.996
 6466SOL    HW120297   0.243   2.571   4.963
 6466SOL    HW220298   0.090   2.623   4.986
 6467SOL     OW20299   2.396   1.233   6.643
 6467SOL    HW120300   2.377   1.291   6.722
 6467SOL    HW220301   2.343   1.266   6.565
 6468SOL     OW20302   3.915   5.877   1.196
 6468SOL    HW120303   3.833   5.820   1.205
 6468SOL    HW220304   3.995   5.826   1.228
 6469SOL     OW20305   5.596   1.022   5.473
 6469SOL    HW120306   5.650   0.956   5.423
 6469SOL    HW220307   5.506   0.984   5.493
 6470SOL     OW20308   6.347   5.377   6.313
 6470SOL    HW120309   6.249   5.376   6.297
 6470SOL    HW220310   6.387   5.293   6.277
 6471SOL     OW20311   6.593   5.590   6.155
 6471SOL    HW120312   6.599   5.498   6.117
 6471SOL    HW220313   6.512   5.597   6.212
 6472SOL     OW20314   0.589   5.203   1.039
 6472SOL    HW120315   0.501   5.249   1.048
 6472SOL    HW220316   0.596   5.131   1.107
 6473SOL     OW20317   2.425   1.491   5.749
 6473SOL    HW120318   2.392   1.584   5.760
 6473SOL    HW220319   2.470   1.462   5.833
 6474SOL     OW20320   1.679   3.997   6.047
 6474SOL    HW120321   1.589   4.036   6.025
 6474SOL    HW220322   1.741   4.013   5.970
 6475SOL     OW20323   6.248   6.066   4.310
 6475SOL    HW120324   6.312   6.050   4.234
 6475SOL    HW220325   6.180   5.993   4.312
 6476SOL     OW20326   4.804   3.947   2.374
 6476SOL    HW120327   4.842   3.855   2.368
 6476SOL    HW220328   4.795   3.986   2.282
 6477SOL     OW20329   6.606   4.921   1.277
 6477SOL    HW120330   6.577   4.836   1.231
 6477SOL    HW220331   6.642   4.899   1.368
 6478SOL     OW20332   2.954   5.642   2.319
 6478SOL    HW120333   2.878   5.577   2.329
 6478SOL    HW220334   2.980   5.677   2.409
 6479SOL     OW20335   4.119   5.175   2.446
 6479SOL    HW120336   4.199   5.126   2.479
 6479SOL    HW220337   4.044   5.166   2.512
 6480SOL     OW20338   4.064   2.851   5.870
 6480SOL    HW120339   4.084   2.755   5.851
 6480SOL    HW220340   4.060   2.866   5.969
 6481SOL     OW20341   3.377   1.864   1.877
 6481SOL    HW120342   3.292   1.917   1.878
 6481SOL    HW220343   3.448   1.916   1.831
 6482SOL     OW20344   6.893   0.658   6.661
 6482SOL    HW120345   6.926   0.730   6.721
 6482SOL    HW220346   6.972   0.610   6.621
 6483SOL     OW20347   2.556   6.344   2.056
 6483SOL    HW120348   2.578   6.301   1.969
 6483SOL    HW220349   2.520   6.275   2.119
 6484SOL     OW20350   3.683   0.165   2.494
 6484SOL    HW120351   3.638   0.131   2.411
 6484SOL    HW220352   3.613   0.197   2.558
 6485SOL     OW20353   1.994   3.225   3.415
 6485SOL    HW120354   2.068   3.289   3.433
 6485SOL    HW220355   1.906   3.272   3.429
 6486SOL     OW20356   1.398   4.379   3.629
 6486SOL    HW120357   1.378   4.461   3.575
 6486SOL    HW220358   1.495   4.378   3.653
 6487SOL     OW20359   6.389   5.879   4.992
 6487SOL    HW120360   6.365   5.975   5.010
 6487SOL    HW220361   6.421   5.870   4.897
 6488SOL     OW20362   3.064   5.993   5.363
 6488SOL    HW120363   3.093   6.059   5.294
 6488SOL    HW220364   3.081   5.900   5.331
 6489SOL     OW20365   1.906   3.008   6.368
 6489SOL    HW120366   1.870   3.081   6.426
 6489SOL    HW220367   2.006   3.006   6.375
 6490SOL     OW20368   4.216   2.358   0.342
 6490SOL    HW120369   4.256   2.382   0.431
 6490SOL    HW220370   4.182   2.441   0.297
 6491SOL     OW20371   3.986   1.093   6.780
 6491SOL    HW120372   4.086   1.083   6.776
 6491SOL    HW220373   3.961   1.184   6.748
 6492SOL     OW20374   6.106   6.619   6.963
 6492SOL    HW120375   6.161   6.622   0.022
 6492SOL    HW220376   6.162   6.647   6.885
 6493SOL     OW20377   1.390   6.316   5.281
 6493SOL    HW120378   1.409   6.401   5.330
 6493SOL    HW220379   1.413   6.238   5.339
 6494SOL     OW20380   0.749   0.515   3.201
 6494SOL    HW120381   0.821   0.449   3.220
 6494SOL    HW220382   0.670   0.497   3.260
 6495SOL     OW20383   5.224   6.002   4.291
 6495SOL    HW120384   5.138   5.996   4.242
 6495SOL    HW220385   5.278   6.078   4.254
 6496SOL     OW20386   6.914   6.223   2.084
 6496SOL    HW120387   6.963   6.137   2.099
 6496SOL    HW220388   6.979   6.298   2.081
 6497SOL     OW20389   2.565   3.170   0.797
 6497SOL    HW120390   2.474   3.208   0.812
 6497SOL    HW220391   2.600   3.133   0.883
 6498SOL     OW20392   2.489   5.085   3.825
 6498SOL    HW120393   2.452   5.168   3.868
 6498SOL    HW220394   2.550   5.110   3.750
 6499SOL     OW20395   4.994   1.071   5.108
 6499SOL    HW120396   5.039   0.984   5.088
 6499SOL    HW220397   4.972   1.076   5.206
 6500SOL     OW20398   6.272   3.997   3.463
 6500SOL    HW120399   6.369   4.014   3.446
 6500SOL    HW220400   6.259   3.973   3.559
 6501SOL     OW20401   6.215   3.119   1.146
 6501SOL    HW120402   6.276   3.096   1.222
 6501SOL    HW220403   6.233   3.213   1.117
 6502SOL     OW20404   7.025   4.222   3.756
 6502SOL    HW120405   7.010   4.317   3.729
 6502SOL    HW220406   6.984   4.161   3.688
 6503SOL     OW20407   6.219   6.725   3.768
 6503SOL    HW120408   6.277   6.756   3.692
 6503SOL    HW220409   6.273   6.723   3.852
 6504SOL     OW20410   3.873   6.893   6.485
 6504SOL    HW120411   3.958   6.863   6.441
 6504SOL    HW220412   3.852   6.986   6.455
 6505SOL     OW20413   6.365   4.998   1.101
 6505SOL    HW120414   6.393   4.948   1.019
 6505SOL    HW220415   6.400   4.952   1.182
 6506SOL     OW20416   0.810   2.898   1.002
 6506SOL    HW120417   0.830   2.810   0.960
 6506SOL    HW220418   0.771   2.960   0.933
 6507SOL     OW20419   1.352   5.889   0.204
 6507SOL    HW120420   1.433   5.932   0.164
 6507SOL    HW220421   1.286   5.869   0.132
 6508SOL     OW20422   2.393   1.605   3.455
 6508SOL    HW120423   2.472   1.666   3.460
 6508SOL    HW220424   2.311   1.653   3.485
 6509SOL     OW20425   1.852   2.379   4.920
 6509SOL    HW120426   1.782   2.391   4.989
 6509SOL    HW220427   1.848   2.286   4.883
 6510SOL     OW20428   0.431   5.321   6.565
 6510SOL    HW120429   0.502   5.274   6.514
 6510SOL    HW220430   0.361   5.256   6.594
 6511SOL     OW20431   6.171   0.337   4.590
 6511SOL    HW120432   6.248   0.392   4.558
 6511SOL    HW220433   6.201   0.243   4.607
 6512SOL     OW20434   4.364   0.128   2.977
 6512SOL    HW120435   4.456   0.145   2.941
 6512SOL    HW220436   4.334   0.207   3.031
 6513SOL     OW20437   3.917   6.105   3.957
 6513SOL    HW120438   3.966   6.017   3.958
 6513SOL    HW220439   3.887   6.125   3.864
 6514SOL     OW20440   5.392   6.986   3.967
 6514SOL    HW120441   5.356   6.984   4.060
 6514SOL    HW220442   5.451   0.040   3.955
 6515SOL     OW20443   0.017   4.917   4.191
 6515SOL    HW120444   0.074   5.000   4.186
 6515SOL    HW220445   0.074   4.837   4.176
 6516SOL     OW20446   0.218   1.752   6.767
 6516SOL    HW120447   0.216   1.679   6.699
 6516SOL    HW220448   0.261   1.718   6.851
 6517SOL     OW20449   6.667   1.984   0.496
 6517SOL    HW120450   6.632   2.048   0.427
 6517SOL    HW220451   6.596   1.917   0.518
 6518SOL     OW20452   0.904   6.583   0.342
 6518SOL    HW120453   0.908   6.593   0.243
 6518SOL    HW220454   0.996   6.564   0.377
 6519SOL     OW20455   2.735   1.727   3.847
 6519SOL    HW120456   2.802   1.749   3.776
 6519SOL    HW220457   2.648   1.772   3.826
 6520SOL     OW20458   5.953   5.444   3.371
 6520SOL    HW120459   5.923   5.494   3.452
 6520SOL    HW220460   6.052   5.455   3.360
 6521SOL     OW20461   1.022   1.068   4.516
 6521SOL    HW120462   1.000   1.160   4.550
 6521SOL    HW220463   0.993   1.000   4.584
 6522SOL     OW20464   2.801   5.606   0.019
 6522SOL    HW120465   2.846   5.525   7.007
 6522SOL    HW220466   2.785   5.672   6.971
 6523SOL     OW20467   2.681   1.581   6.747
 6523SOL    HW120468   2.728   1.669   6.754
 6523SOL    HW220469   2.661   1.547   6.839
 6524SOL     OW20470   3.632   3.137   3.959
 6524SOL    HW120471   3.607   3.105   4.051
 6524SOL    HW220472   3.731   3.132   3.948
 6525SOL     OW20473   1.899   2.792   2.646
 6525SOL    HW120474   1.873   2.696   2.655
 6525SOL    HW220475   1.830   2.840   2.591
 6526SOL     OW20476   0.577   6.560   5.014
 6526SOL    HW120477   0.570   6.523   5.107
 6526SOL    HW220478   0.540   6.653   5.013
 6527SOL     OW20479   1.079   1.331   5.077
 6527SOL    HW120480   1.094   1.238   5.110
 6527SOL    HW220481   1.109   1.397   5.146
 6528SOL     OW20482   0.207   0.923   3.859
 6528SOL    HW120483   0.219   0.876   3.772
 6528SOL    HW220484   0.295   0.928   3.907
 6529SOL     OW20485   6.133   1.791   3.149
 6529SOL    HW120486   6.124   1.882   3.189
 6529SOL    HW220487   6.227   1.777   3.118
 6530SOL     OW20488   6.656   3.246   0.718
 6530SOL    HW120489   6.749   3.240   0.753
 6530SOL    HW220490   6.645   3.181   0.642
 6531SOL     OW20491   5.593   2.905   4.049
 6531SOL    HW120492   5.667   2.838   4.043
 6531SOL    HW220493   5.507   2.863   4.020
 6532SOL     OW20494   6.227   1.730   0.647
 6532SOL    HW120495   6.194   1.802   0.708
 6532SOL    HW220496   6.323   1.745   0.626
 6533SOL     OW20497   5.498   6.048   1.357
 6533SOL    HW120498   5.422   6.111   1.341
 6533SOL    HW220499   5.557   6.085   1.429
 6534SOL     OW20500   2.514   3.593   1.264
 6534SOL    HW120501   2.495   3.526   1.193
 6534SOL    HW220502   2.522   3.684   1.223
 6535SOL     OW20503   0.305   2.815   5.199
 6535SOL    HW120504   0.326   2.899   5.148
 6535SOL    HW220505   0.362   2.740   5.164
 6536SOL     OW20506   6.608   2.947   6.637
 6536SOL    HW120507   6.531   2.884   6.647
 6536SOL    HW220508   6.675   2.908   6.574
 6537SOL     OW20509   6.497   6.696   6.693
 6537SOL    HW120510   6.536   6.612   6.655
 6537SOL    HW220511   6.500   6.768   6.623
 6538SOL     OW20512   4.289   4.366   0.165
 6538SOL    HW120513   4.255   4.418   0.244
 6538SOL    HW220514   4.379   4.401   0.139
 6539SOL     OW20515   2.325   2.219   6.614
 6539SOL    HW120516   2.229   2.194   6.618
 6539SOL    HW220517   2.373   2.159   6.549
 6540SOL     OW20518   3.733   1.789   4.375
 6540SOL    HW120519   3.722   1.720   4.303
 6540SOL    HW220520   3.644   1.828   4.398
 6541SOL     OW20521   3.006   2.050   5.120
 6541SOL    HW120522   2.945   2.047   5.041
 6541SOL    HW220523   3.061   2.133   5.116
 6542SOL     OW20524   6.210   4.833   3.191
 6542SOL    HW120525   6.142   4.882   3.245
 6542SOL    HW220526   6.204   4.863   3.095
 6543SOL     OW20527   6.431   5.242   0.156
 6543SOL    HW120528   6.385   5.300   0.224
 6543SOL    HW220529   6.497   5.183   0.202
 6544SOL     OW20530   0.269   6.084   4.253
 6544SOL    HW120531   0.185   6.127   4.286
 6544SOL    HW220532   0.265   6.075   4.154
 6545SOL     OW20533   4.816   1.623   6.191
 6545SOL    HW120534   4.826   1.717   6.222
 6545SOL    HW220535   4.731   1.613   6.140
 6546SOL     OW20536   4.778   4.086   6.268
 6546SOL    HW120537   4.720   4.010   6.240
 6546SOL    HW220538   4.812   4.070   6.361
 6547SOL     OW20539   4.254   1.850   5.953
 6547SOL    HW120540   4.336   1.905   5.937
 6547SOL    HW220541   4.186   1.905   6.001
 6548SOL     OW20542   0.737   4.406   6.696
 6548SOL    HW120543   0.667   4.351   6.651
 6548SOL    HW220544   0.711   4.423   6.791
 6549SOL     OW20545   3.523   1.385   1.365
 6549SOL    HW120546   3.598   1.377   1.300
 6549SOL    HW220547   3.556   1.364   1.457
 6550SOL     OW20548   0.630   6.210   3.621
 6550SOL    HW120549   0.536   6.202   3.588
 6550SOL    HW220550   0.689   6.242   3.547
 6551SOL     OW20551   1.818   4.271   2.250
 6551SOL    HW120552   1.894   4.304   2.194
 6551SOL    HW220553   1.798   4.176   2.227
 6552SOL     OW20554   2.609   5.735   5.007
 6552SOL    HW120555   2.582   5.831   5.015
 6552SOL    HW220556   2.588   5.702   4.915
 6553SOL     OW20557   0.324   2.976   1.315
 6553SOL    HW120558   0.331   2.925   1.401
 6553SOL    HW220559   0.402   3.038   1.307
 6554SOL     OW20560   5.775   1.511   5.714
 6554SOL    HW120561   5.816   1.431   5.759
 6554SOL    HW220562   5.698   1.543   5.768
 6555SOL     OW20563   1.719   0.948   2.513
 6555SOL    HW120564   1.777   0.975   2.436
 6555SOL    HW220565   1.648   0.886   2.481
 6556SOL     OW20566   4.730   4.635   4.868
 6556SOL    HW120567   4.794   4.694   4.917
 6556SOL    HW220568   4.772   4.604   4.783
 6557SOL     OW20569   5.668   5.799   0.902
 6557SOL    HW120570   5.763   5.783   0.874
 6557SOL    HW220571   5.666   5.869   0.974
 6558SOL     OW20572   6.549   5.304   0.699
 6558SOL    HW120573   6.510   5.294   0.790
 6558SOL    HW220574   6.508   5.384   0.654
 6559SOL     OW20575   5.720   3.630   1.111
 6559SOL    HW120576   5.769   3.649   1.196
 6559SOL    HW220577   5.640   3.574   1.130
 6560SOL     OW20578   3.542   3.041   1.614
 6560SOL    HW120579   3.581   3.054   1.705
 6560SOL    HW220580   3.604   3.078   1.545
 6561SOL     OW20581   3.874   3.733   2.753
 6561SOL    HW120582   3.779   3.736   2.721
 6561SOL    HW220583   3.878   3.766   2.847
 6562SOL     OW20584   6.302   4.915   6.509
 6562SOL    HW120585   6.370   4.842   6.503
 6562SOL    HW220586   6.213   4.875   6.529
 6563SOL     OW20587   0.456   5.793   0.087
 6563SOL    HW120588   0.524   5.738   0.135
 6563SOL    HW220589   0.407   5.736   0.021
 6564SOL     OW20590   1.188   3.443   2.502
 6564SOL    HW120591   1.097   3.405   2.519
 6564SOL    HW220592   1.186   3.502   2.421
 6565SOL     OW20593   6.367   2.500   4.917
 6565SOL    HW120594   6.358   2.575   4.983
 6565SOL    HW220595   6.426   2.429   4.954
 6566SOL     OW20596   3.609   0.399   1.557
 6566SOL    HW120597   3.673   0.396   1.480
 6566SOL    HW220598   3.535   0.463   1.536
 6567SOL     OW20599   4.802   2.847   1.366
 6567SOL    HW120600   4.766   2.939   1.351
 6567SOL    HW220601   4.901   2.852   1.382
 6568SOL     OW20602   4.546   4.851   2.275
 6568SOL    HW120603   4.476   4.819   2.211
 6568SOL    HW220604   4.592   4.931   2.236
 6569SOL     OW20605   2.921   4.899   0.978
 6569SOL    HW120606   2.878   4.809   0.984
 6569SOL    HW220607   2.851   4.970   0.972
 6570SOL     OW20608   4.478   0.451   1.685
 6570SOL    HW120609   4.518   0.361   1.669
 6570SOL    HW220610   4.410   0.445   1.759
 6571SOL     OW20611   2.097   5.965   3.100
 6571SOL    HW120612   2.186   5.989   3.062
 6571SOL    HW220613   2.040   5.925   3.028
 6572SOL     OW20614   6.465   4.408   5.035
 6572SOL    HW120615   6.503   4.317   5.055
 6572SOL    HW220616   6.436   4.451   5.121
 6573SOL     OW20617   3.371   0.730   2.964
 6573SOL    HW120618   3.382   0.805   3.030
 6573SOL    HW220619   3.403   0.760   2.874
 6574SOL     OW20620   2.293   6.001   1.780
 6574SOL    HW120621   2.205   5.956   1.798
 6574SOL    HW220622   2.279   6.078   1.718
 6575SOL     OW20623   0.770   1.539   1.704
 6575SOL    HW120624   0.769   1.605   1.779
 6575SOL    HW220625   0.754   1.447   1.740
 6576SOL     OW20626   0.980   6.302   6.566
 6576SOL    HW120627   1.039   6.353   6.503
 6576SOL    HW220628   0.971   6.208   6.535
 6577SOL     OW20629   0.285   1.573   3.649
 6577SOL    HW120630   0.288   1.672   3.665
 6577SOL    HW220631   0.254   1.527   3.733
 6578SOL     OW20632   6.677   5.513   3.481
 6578SOL    HW120633   6.748   5.444   3.475
 6578SOL    HW220634   6.615   5.490   3.556
 6579SOL     OW20635   6.914   4.113   4.032
 6579SOL    HW120636   6.960   4.138   3.947
 6579SOL    HW220637   6.927   4.015   4.049
 6580SOL     OW20638   6.133   0.928   0.893
 6580SOL    HW120639   6.184   0.961   0.813
 6580SOL    HW220640   6.115   1.004   0.955
 6581SOL     OW20641   3.719   1.191   5.322
 6581SOL    HW120642   3.659   1.271   5.321
 6581SOL    HW220643   3.714   1.146   5.411
 6582SOL     OW20644   1.516   6.769   2.151
 6582SOL    HW120645   1.607   6.742   2.182
 6582SOL    HW220646   1.449   6.698   2.175
 6583SOL     OW20647   4.715   1.744   5.885
 6583SOL    HW120648   4.798   1.700   5.850
 6583SOL    HW220649   4.670   1.684   5.950
 6584SOL     OW20650   5.788   2.102   6.390
 6584SOL    HW120651   5.708   2.067   6.438
 6584SOL    HW220652   5.856   2.135   6.455
 6585SOL     OW20653   6.994   1.605   0.279
 6585SOL    HW120654   0.040   1.550   0.324
 6585SOL    HW220655   6.924   1.630   0.346
 6586SOL     OW20656   6.434   2.157   6.111
 6586SOL    HW120657   6.340   2.178   6.138
 6586SOL    HW220658   6.432   2.100   6.028
 6587SOL     OW20659   2.638   5.626   4.286
 6587SOL    HW120660   2.687   5.559   4.343
 6587SOL    HW220661   2.597   5.696   4.345
 6588SOL     OW20662   1.663   4.090   1.292
 6588SOL    HW120663   1.702   3.999   1.300
 6588SOL    HW220664   1.603   4.107   1.371
 6589SOL     OW20665   5.098   0.402   6.747
 6589SOL    HW120666   5.004   0.389   6.717
 6589SOL    HW220667   5.159   0.397   6.668
 6590SOL     OW20668   0.059   1.687   4.944
 6590SOL    HW120669   0.033   1.600   4.901
 6590SOL    HW220670   0.076   1.672   5.041
 6591SOL     OW20671   5.772   6.767   2.862
 6591SOL    HW120672   5.855   6.782   2.915
 6591SOL    HW220673   5.720   6.853   2.856
 6592SOL     OW20674   4.335   6.934   4.161
 6592SOL    HW120675   4.330   6.901   4.255
 6592SOL    HW220676   4.310   0.006   4.158
 6593SOL     OW20677   2.361   2.295   3.601
 6593SOL    HW120678   2.422   2.337   3.535
 6593SOL    HW220679   2.280   2.353   3.615
 6594SOL     OW20680   4.312   1.063   0.080
 6594SOL    HW120681   4.303   1.109   0.168
 6594SOL    HW220682   4.314   0.964   0.094
 6595SOL     OW20683   0.587   3.800   1.582
 6595SOL    HW120684   0.679   3.790   1.546
 6595SOL    HW220685   0.534   3.862   1.524
 6596SOL     OW20686   3.954   0.287   5.900
 6596SOL    HW120687   3.900   0.231   5.837
 6596SOL    HW220688   4.050   0.285   5.873
 6597SOL     OW20689   0.836   6.631   4.371
 6597SOL    HW120690   0.884   6.711   4.406
 6597SOL    HW220691   0.770   6.659   4.302
 6598SOL     OW20692   1.868   5.579   5.115
 6598SOL    HW120693   1.865   5.479   5.106
 6598SOL    HW220694   1.786   5.618   5.075
 6599SOL     OW20695   4.265   5.113   5.662
 6599SOL    HW120696   4.187   5.143   5.608
 6599SOL    HW220697   4.249   5.136   5.758
 6600SOL     OW20698   5.456   5.030   5.060
 6600SOL    HW120699   5.444   5.049   4.963
 6600SOL    HW220700   5.455   5.116   5.111
 6601SOL     OW20701   0.427   0.362   0.180
 6601SOL    HW120702   0.337   0.319   0.173
 6601SOL    HW220703   0.415   0.460   0.199
 6602SOL     OW20704   0.068   2.539   1.032
 6602SOL    HW120705   0.099   2.447   1.058
 6602SOL    HW220706   0.112   2.607   1.090
 6603SOL     OW20707   1.800   3.230   4.142
 6603SOL    HW120708   1.864   3.154   4.136
 6603SOL    HW220709   1.823   3.287   4.221
 6604SOL     OW20710   2.631   6.017   1.589
 6604SOL    HW120711   2.542   6.000   1.632
 6604SOL    HW220712   2.704   6.007   1.656
 6605SOL     OW20713   4.788   4.905   0.453
 6605SOL    HW120714   4.700   4.867   0.422
 6605SOL    HW220715   4.807   4.874   0.546
 6606SOL     OW20716   4.532   0.020   2.523
 6606SOL    HW120717   4.523   7.021   2.426
 6606SOL    HW220718   4.606   6.991   2.564
 6607SOL     OW20719   1.956   1.259   2.062
 6607SOL    HW120720   1.925   1.333   2.122
 6607SOL    HW220721   2.031   1.210   2.106
 6608SOL     OW20722   5.227   3.549   2.507
 6608SOL    HW120723   5.245   3.511   2.416
 6608SOL    HW220724   5.232   3.649   2.502
 6609SOL     OW20725   5.231   0.825   6.792
 6609SOL    HW120726   5.176   0.798   6.871
 6609SOL    HW220727   5.229   0.925   6.782
 6610SOL     OW20728   1.973   0.095   0.187
 6610SOL    HW120729   1.979   0.131   0.280
 6610SOL    HW220730   1.886   0.123   0.147
 6611SOL     OW20731   6.702   2.537   3.222
 6611SOL    HW120732   6.800   2.540   3.242
 6611SOL    HW220733   6.654   2.603   3.279
 6612SOL     OW20734   1.580   4.496   6.528
 6612SOL    HW120735   1.644   4.452   6.592
 6612SOL    HW220736   1.618   4.584   6.499
 6613SOL     OW20737   5.916   5.930   3.620
 6613SOL    HW120738   5.821   5.934   3.649
 6613SOL    HW220739   5.921   5.928   3.520
 6614SOL     OW20740   4.841   6.671   6.584
 6614SOL    HW120741   4.874   6.701   6.495
 6614SOL    HW220742   4.908   6.693   6.654
 6615SOL     OW20743   0.693   4.073   4.914
 6615SOL    HW120744   0.634   4.002   4.952
 6615SOL    HW220745   0.651   4.111   4.832
 6616SOL     OW20746   4.109   1.613   5.902
 6616SOL    HW120747   4.042   1.621   5.975
 6616SOL    HW220748   4.155   1.701   5.889
 6617SOL     OW20749   3.745   6.647   3.437
 6617SOL    HW120750   3.823   6.654   3.375
 6617SOL    HW220751   3.663   6.682   3.392
 6618SOL     OW20752   1.154   3.052   2.295
 6618SOL    HW120753   1.233   3.085   2.243
 6618SOL    HW220754   1.184   3.023   2.386
 6619SOL     OW20755   4.591   6.917   4.097
 6619SOL    HW120756   4.592   6.818   4.081
 6619SOL    HW220757   4.497   6.947   4.116
 6620SOL     OW20758   1.504   3.110   5.867
 6620SOL    HW120759   1.533   3.084   5.959
 6620SOL    HW220760   1.455   3.034   5.825
 6621SOL     OW20761   3.074   3.840   0.697
 6621SOL    HW120762   3.156   3.879   0.740
 6621SOL    HW220763   3.027   3.911   0.645
 6622SOL     OW20764   5.842   5.785   1.221
 6622SOL    HW120765   5.884   5.739   1.299
 6622SOL    HW220766   5.842   5.883   1.236
 6623SOL     OW20767   3.610   3.110   1.891
 6623SOL    HW120768   3.596   3.013   1.908
 6623SOL    HW220769   3.529   3.161   1.921
 6624SOL     OW20770   2.712   6.113   4.493
 6624SOL    HW120771   2.801   6.125   4.536
 6624SOL    HW220772   2.646   6.176   4.535
 6625SOL     OW20773   5.865   1.352   6.660
 6625SOL    HW120774   5.882   1.447   6.685
 6625SOL    HW220775   5.952   1.305   6.647
 6626SOL     OW20776   3.480   5.095   3.140
 6626SOL    HW120777   3.430   5.039   3.074
 6626SOL    HW220778   3.452   5.070   3.233
 6627SOL     OW20779   2.274   0.854   5.948
 6627SOL    HW120780   2.321   0.942   5.943
 6627SOL    HW220781   2.178   0.866   5.922
 6628SOL     OW20782   4.853   5.006   2.475
 6628SOL    HW120783   4.924   4.985   2.408
 6628SOL    HW220784   4.781   4.936   2.470
 6629SOL     OW20785   3.460   6.090   1.009
 6629SOL    HW120786   3.456   6.161   0.940
 6629SOL    HW220787   3.552   6.050   1.011
 6630SOL     OW20788   3.651   1.887   0.406
 6630SOL    HW120789   3.661   1.914   0.502
 6630SOL    HW220790   3.623   1.966   0.352
 6631SOL     OW20791   4.538   0.031   2.232
 6631SOL    HW120792   4.564   7.003   2.151
 6631SOL    HW220793   4.440   0.046   2.232
 6632SOL     OW20794   0.257   1.426   1.473
 6632SOL    HW120795   0.254   1.443   1.375
 6632SOL    HW220796   0.224   1.333   1.492
 6633SOL     OW20797   1.414   5.635   6.084
 6633SOL    HW120798   1.485   5.672   6.144
 6633SOL    HW220799   1.456   5.568   6.022
 6634SOL     OW20800   6.675   3.281   6.147
 6634SOL    HW120801   6.748   3.349   6.156
 6634SOL    HW220802   6.704   3.209   6.084
 6635SOL     OW20803   4.254   5.079   3.452
 6635SOL    HW120804   4.339   5.130   3.468
 6635SOL    HW220805   4.181   5.119   3.507
 6636SOL     OW20806   1.602   3.429   5.231
 6636SOL    HW120807   1.561   3.365   5.166
 6636SOL    HW220808   1.694   3.454   5.199
 6637SOL     OW20809   0.831   0.185   6.966
 6637SOL    HW120810   0.747   0.207   6.915
 6637SOL    HW220811   0.867   0.097   6.934
 6638SOL     OW20812   3.627   5.074   4.687
 6638SOL    HW120813   3.662   5.162   4.655
 6638SOL    HW220814   3.684   5.000   4.652
 6639SOL     OW20815   5.797   5.522   6.068
 6639SOL    HW120816   5.885   5.564   6.087
 6639SOL    HW220817   5.799   5.477   5.979
 6640SOL     OW20818   0.260   1.639   4.530
 6640SOL    HW120819   0.187   1.684   4.479
 6640SOL    HW220820   0.305   1.705   4.590
 6641SOL     OW20821   3.285   3.655   6.431
 6641SOL    HW120822   3.252   3.711   6.355
 6641SOL    HW220823   3.294   3.712   6.513
 6642SOL     OW20824   2.508   5.114   6.990
 6642SOL    HW120825   2.409   5.126   6.987
 6642SOL    HW220826   2.530   5.034   0.020
 6643SOL     OW20827   6.234   4.486   6.955
 6643SOL    HW120828   6.152   4.488   7.013
 6643SOL    HW220829   6.220   4.420   6.881
 6644SOL     OW20830   3.061   4.719   1.781
 6644SOL    HW120831   2.966   4.740   1.758
 6644SOL    HW220832   3.066   4.626   1.818
 6645SOL     OW20833   0.056   4.911   0.685
 6645SOL    HW120834   6.995   4.884   0.644
 6645SOL    HW220835   0.061   5.011   0.691
 6646SOL     OW20836   4.550   5.565   4.313
 6646SOL    HW120837   4.538   5.663   4.332
 6646SOL    HW220838   4.494   5.512   4.376
 6647SOL     OW20839   3.245   1.155   2.758
 6647SOL    HW120840   3.218   1.117   2.670
 6647SOL    HW220841   3.165   1.167   2.816
 6648SOL     OW20842   3.784   5.634   2.819
 6648SOL    HW120843   3.729   5.680   2.749
 6648SOL    HW220844   3.724   5.585   2.882
 6649SOL     OW20845   5.730   2.374   6.288
 6649SOL    HW120846   5.766   2.293   6.336
 6649SOL    HW220847   5.788   2.394   6.209
 6650SOL     OW20848   3.878   1.109   3.229
 6650SOL    HW120849   3.926   1.021   3.228
 6650SOL    HW220850   3.902   1.161   3.147
 6651SOL     OW20851   1.492   2.282   0.840
 6651SOL    HW120852   1.435   2.203   0.864
 6651SOL    HW220853   1.471   2.311   0.747
 6652SOL     OW20854   6.660   3.951   0.602
 6652SOL    HW120855   6.646   3.933   0.699
 6652SOL    HW220856   6.621   3.877   0.548
 6653SOL     OW20857   3.897   3.688   3.160
 6653SOL    HW120858   3.871   3.730   3.073
 6653SOL    HW220859   3.821   3.697   3.225
 6654SOL     OW20860   1.951   2.882   1.262
 6654SOL    HW120861   1.908   2.847   1.179
 6654SOL    HW220862   1.938   2.981   1.267
 6655SOL     OW20863   2.568   0.151   1.730
 6655SOL    HW120864   2.535   0.057   1.737
 6655SOL    HW220865   2.504   0.212   1.776
 6656SOL     OW20866   6.705   1.236   2.511
 6656SOL    HW120867   6.788   1.272   2.468
 6656SOL    HW220868   6.680   1.149   2.467
 6657SOL     OW20869   4.063   6.685   6.393
 6657SOL    HW120870   4.145   6.742   6.391
 6657SOL    HW220871   4.089   6.589   6.379
 6658SOL     OW20872   5.907   0.968   5.843
 6658SOL    HW120873   5.883   0.985   5.747
 6658SOL    HW220874   6.006   0.971   5.854
 6659SOL     OW20875   2.528   2.181   0.016
 6659SOL    HW120876   2.614   2.164   6.994
 6659SOL    HW220877   2.502   2.100   0.070
 6660SOL     OW20878   6.848   6.422   1.407
 6660SOL    HW120879   6.872   6.359   1.333
 6660SOL    HW220880   6.930   6.442   1.461
 6661SOL     OW20881   0.237   5.130   3.787
 6661SOL    HW120882   0.283   5.042   3.790
 6661SOL    HW220883   0.140   5.117   3.769
 6662SOL     OW20884   1.258   1.140   0.295
 6662SOL    HW120885   1.236   1.158   0.391
 6662SOL    HW220886   1.336   1.078   0.290
 6663SOL     OW20887   0.170   5.524   3.538
 6663SOL    HW120888   0.184   5.450   3.472
 6663SOL    HW220889   0.204   5.496   3.628
 6664SOL     OW20890   1.205   0.318   1.582
 6664SOL    HW120891   1.292   0.295   1.626
 6664SOL    HW220892   1.219   0.394   1.518
 6665SOL     OW20893   1.300   0.074   3.732
 6665SOL    HW120894   1.333   0.093   3.639
 6665SOL    HW220895   1.250   7.013   3.732
 6666SOL     OW20896   5.986   1.992   5.086
 6666SOL    HW120897   5.930   1.924   5.133
 6666SOL    HW220898   5.930   2.043   5.022
 6667SOL     OW20899   6.192   4.811   4.986
 6667SOL    HW120900   6.263   4.775   4.925
 6667SOL    HW220901   6.214   4.905   5.011
 6668SOL     OW20902   0.274   5.656   2.129
 6668SOL    HW120903   0.185   5.611   2.123
 6668SOL    HW220904   0.261   5.751   2.158
 6669SOL     OW20905   2.200   4.290   3.507
 6669SOL    HW120906   2.283   4.288   3.562
 6669SOL    HW220907   2.224   4.275   3.411
 6670SOL     OW20908   3.558   4.613   6.624
 6670SOL    HW120909   3.463   4.620   6.593
 6670SOL    HW220910   3.588   4.702   6.657
 6671SOL     OW20911   5.419   4.620   0.041
 6671SOL    HW120912   5.367   4.575   0.114
 6671SOL    HW220913   5.393   4.717   0.037
 6672SOL     OW20914   1.006   0.669   5.479
 6672SOL    HW120915   0.973   0.727   5.404
 6672SOL    HW220916   0.929   0.622   5.521
 6673SOL     OW20917   5.259   6.109   2.809
 6673SOL    HW120918   5.168   6.068   2.816
 6673SOL    HW220919   5.252   6.208   2.822
 6674SOL     OW20920   0.894   5.690   6.115
 6674SOL    HW120921   0.934   5.761   6.173
 6674SOL    HW220922   0.930   5.601   6.143
 6675SOL     OW20923   5.576   4.010   1.054
 6675SOL    HW120924   5.575   3.999   0.954
 6675SOL    HW220925   5.546   3.925   1.097
 6676SOL     OW20926   0.724   3.210   5.397
 6676SOL    HW120927   0.817   3.192   5.429
 6676SOL    HW220928   0.660   3.206   5.474
 6677SOL     OW20929   0.362   3.169   0.136
 6677SOL    HW120930   0.285   3.145   0.077
 6677SOL    HW220931   0.426   3.227   0.085
 6678SOL     OW20932   1.316   2.585   6.530
 6678SOL    HW120933   1.267   2.557   6.447
 6678SOL    HW220934   1.365   2.506   6.568
 6679SOL     OW20935   1.456   1.888   5.134
 6679SOL    HW120936   1.375   1.927   5.091
 6679SOL    HW220937   1.510   1.840   5.064
 6680SOL     OW20938   3.845   5.571   5.652
 6680SOL    HW120939   3.807   5.581   5.560
 6680SOL    HW220940   3.791   5.626   5.717
 6681SOL     OW20941   5.767   6.072   7.004
 6681SOL    HW120942   5.779   6.151   6.944
 6681SOL    HW220943   5.789   6.098   0.073
 6682SOL     OW20944   0.601   4.570   2.874
 6682SOL    HW120945   0.624   4.509   2.799
 6682SOL    HW220946   0.516   4.539   2.917
 6683SOL     OW20947   4.957   1.936   5.292
 6683SOL    HW120948   4.892   1.996   5.340
 6683SOL    HW220949   4.915   1.847   5.278
 6684SOL     OW20950   2.168   6.703   1.842
 6684SOL    HW120951   2.079   6.676   1.878
 6684SOL    HW220952   2.238   6.690   1.913
 6685SOL     OW20953   5.057   1.795   6.065
 6685SOL    HW120954   5.151   1.783   6.096
 6685SOL    HW220955   5.006   1.847   6.133
 6686SOL     OW20956   6.170   4.075   4.206
 6686SOL    HW120957   6.241   4.099   4.272
 6686SOL    HW220958   6.118   3.997   4.240
 6687SOL     OW20959   1.128   1.471   0.896
 6687SOL    HW120960   1.136   1.531   0.816
 6687SOL    HW220961   1.148   1.524   0.979
 6688SOL     OW20962   6.904   4.549   2.379
 6688SOL    HW120963   6.841   4.534   2.303
 6688SOL    HW220964   6.953   4.465   2.399
 6689SOL     OW20965   4.700   3.142   1.273
 6689SOL    HW120966   4.698   3.196   1.357
 6689SOL    HW220967   4.606   3.117   1.249
 6690SOL     OW20968   2.102   1.856   1.701
 6690SOL    HW120969   2.102   1.911   1.784
 6690SOL    HW220970   2.191   1.811   1.691
 6691SOL     OW20971   2.561   5.890   1.189
 6691SOL    HW120972   2.585   5.886   1.092
 6691SOL    HW220973   2.494   5.818   1.210
 6692SOL     OW20974   2.795   4.573   5.388
 6692SOL    HW120975   2.718   4.513   5.369
 6692SOL    HW220976   2.865   4.562   5.317
 6693SOL     OW20977   4.380   3.723   6.022
 6693SOL    HW120978   4.467   3.715   5.973
 6693SOL    HW220979   4.307   3.682   5.967
 6694SOL     OW20980   4.168   5.931   0.309
 6694SOL    HW120981   4.181   5.843   0.264
 6694SOL    HW220982   4.251   5.953   0.361
 6695SOL     OW20983   0.361   2.034   6.604
 6695SOL    HW120984   0.335   2.042   6.508
 6695SOL    HW220985   0.301   2.092   6.659
 6696SOL     OW20986   1.784   2.604   1.323
 6696SOL    HW120987   1.825   2.691   1.352
 6696SOL    HW220988   1.695   2.593   1.366
 6697SOL     OW20989   4.439   2.019   2.486
 6697SOL    HW120990   4.410   2.008   2.581
 6697SOL    HW220991   4.370   2.072   2.436
 6698SOL     OW20992   3.761   2.437   0.743
 6698SOL    HW120993   3.664   2.428   0.765
 6698SOL    HW220994   3.798   2.517   0.792
 6699SOL     OW20995   3.892   4.467   6.799
 6699SOL    HW120996   3.937   4.463   6.888
 6699SOL    HW220997   3.960   4.470   6.726
 6700SOL     OW20998   0.401   5.608   0.761
 6700SOL    HW120999   0.332   5.557   0.710
 6700SOL    HW221000   0.381   5.705   0.757
 6701SOL     OW21001   6.226   2.725   1.038
 6701SOL    HW121002   6.135   2.748   1.003
 6701SOL    HW221003   6.250   2.632   1.009
 6702SOL     OW21004   2.805   2.159   0.127
 6702SOL    HW121005   2.849   2.247   0.113
 6702SOL    HW221006   2.749   2.161   0.209
 6703SOL     OW21007   6.381   2.296   6.982
 6703SOL    HW121008   6.370   2.197   6.989
 6703SOL    HW221009   6.315   2.341   0.017
 6704SOL     OW21010   4.409   2.457   2.110
 6704SOL    HW121011   4.322   2.497   2.081
 6704SOL    HW221012   4.397   2.359   2.126
 6705SOL     OW21013   0.194   2.695   1.837
 6705SOL    HW121014   0.142   2.685   1.752
 6705SOL    HW221015   0.131   2.693   1.915
 6706SOL     OW21016   0.829   3.399   0.508
 6706SOL    HW121017   0.894   3.428   0.579
 6706SOL    HW221018   0.832   3.465   0.433
 6707SOL     OW21019   6.377   6.241   4.637
 6707SOL    HW121020   6.392   6.286   4.549
 6707SOL    HW221021   6.401   6.144   4.630
 6708SOL     OW21022   1.741   5.524   2.820
 6708SOL    HW121023   1.655   5.566   2.849
 6708SOL    HW221024   1.726   5.428   2.797
 6709SOL     OW21025   3.431   6.618   1.151
 6709SOL    HW121026   3.403   6.529   1.114
 6709SOL    HW221027   3.375   6.640   1.230
 6710SOL     OW21028   2.380   2.668   5.940
 6710SOL    HW121029   2.446   2.621   5.882
 6710SOL    HW221030   2.414   2.759   5.964
 6711SOL     OW21031   5.302   4.081   6.366
 6711SOL    HW121032   5.294   4.168   6.317
 6711SOL    HW221033   5.398   4.057   6.376
 6712SOL     OW21034   3.790   5.644   0.188
 6712SOL    HW121035   3.859   5.577   0.215
 6712SOL    HW221036   3.704   5.626   0.235
 6713SOL     OW21037   2.594   2.025   1.441
 6713SOL    HW121038   2.613   2.113   1.397
 6713SOL    HW221039   2.631   1.951   1.385
 6714SOL     OW21040   4.959   6.781   5.239
 6714SOL    HW121041   5.047   6.828   5.238
 6714SOL    HW221042   4.918   6.788   5.330
 6715SOL     OW21043   0.627   1.259   0.519
 6715SOL    HW121044   0.598   1.171   0.557
 6715SOL    HW221045   0.556   1.294   0.458
 6716SOL     OW21046   1.806   6.251   0.973
 6716SOL    HW121047   1.714   6.247   0.936
 6716SOL    HW221048   1.873   6.244   0.899
 6717SOL     OW21049   3.642   3.497   0.291
 6717SOL    HW121050   3.695   3.440   0.229
 6717SOL    HW221051   3.544   3.488   0.269
 6718SOL     OW21052   3.482   5.538   6.422
 6718SOL    HW121053   3.483   5.492   6.333
 6718SOL    HW221054   3.538   5.621   6.417
 6719SOL     OW21055   0.211   6.923   5.964
 6719SOL    HW121056   0.153   6.861   6.018
 6719SOL    HW221057   0.305   6.890   5.966
 6720SOL     OW21058   2.409   5.766   1.678
 6720SOL    HW121059   2.387   5.678   1.721
 6720SOL    HW221060   2.353   5.838   1.720
 6721SOL     OW21061   5.138   6.454   4.747
 6721SOL    HW121062   5.178   6.402   4.822
 6721SOL    HW221063   5.038   6.446   4.751
 6722SOL     OW21064   5.014   3.408   0.761
 6722SOL    HW121065   5.068   3.491   0.743
 6722SOL    HW221066   5.030   3.341   0.688
 6723SOL     OW21067   2.130   6.398   3.120
 6723SOL    HW121068   2.142   6.454   3.201
 6723SOL    HW221069   2.046   6.344   3.129
 6724SOL     OW21070   2.306   4.611   6.221
 6724SOL    HW121071   2.239   4.615   6.295
 6724SOL    HW221072   2.366   4.533   6.235
 6725SOL     OW21073   0.975   4.550   2.656
 6725SOL    HW121074   1.048   4.618   2.647
 6725SOL    HW221075   1.002   4.466   2.609
 6726SOL     OW21076   1.871   2.873   4.380
 6726SOL    HW121077   1.823   2.911   4.459
 6726SOL    HW221078   1.811   2.874   4.300
 6727SOL     OW21079   5.183   3.600   6.276
 6727SOL    HW121080   5.268   3.616   6.328
 6727SOL    HW221081   5.106   3.636   6.327
 6728SOL     OW21082   3.918   2.169   4.499
 6728SOL    HW121083   4.015   2.185   4.518
 6728SOL    HW221084   3.868   2.167   4.586
 6729SOL     OW21085   0.031   0.847   2.259
 6729SOL    HW121086   7.009   0.815   2.341
 6729SOL    HW221087   7.024   0.796   2.179
 6730SOL     OW21088   2.488   0.135   6.752
 6730SOL    HW121089   2.516   0.043   6.780
 6730SOL    HW221090   2.549   0.168   6.680
 6731SOL     OW21091   2.830   4.639   1.392
 6731SOL    HW121092   2.757   4.571   1.398
 6731SOL    HW221093   2.919   4.592   1.399
 6732SOL     OW21094   2.260   6.096   0.343
 6732SOL    HW121095   2.242   6.191   0.318
 6732SOL    HW221096   2.358   6.077   0.333
 6733SOL     OW21097   4.307   5.638   5.574
 6733SOL    HW121098   4.317   5.544   5.606
 6733SOL    HW221099   4.350   5.700   5.640
 6734SOL     OW21100   0.957   3.487   5.618
 6734SOL    HW121101   1.036   3.454   5.567
 6734SOL    HW221102   0.963   3.587   5.627
 6735SOL     OW21103   0.310   4.858   5.333
 6735SOL    HW121104   0.316   4.765   5.368
 6735SOL    HW221105   0.276   4.919   5.404
 6736SOL     OW21106   2.395   3.135   1.470
 6736SOL    HW121107   2.393   3.205   1.542
 6736SOL    HW221108   2.466   3.159   1.403
 6737SOL     OW21109   1.916   1.448   2.219
 6737SOL    HW121110   1.927   1.536   2.265
 6737SOL    HW221111   1.844   1.395   2.265
 6738SOL     OW21112   2.319   1.343   2.387
 6738SOL    HW121113   2.417   1.324   2.393
 6738SOL    HW221114   2.280   1.292   2.311
 6739SOL     OW21115   3.810   6.034   5.016
 6739SOL    HW121116   3.893   6.085   5.038
 6739SOL    HW221117   3.732   6.079   5.061
 6740SOL     OW21118   1.370   1.259   4.478
 6740SOL    HW121119   1.281   1.284   4.440
 6740SOL    HW221120   1.432   1.337   4.472
 6741SOL     OW21121   5.499   1.135   5.986
 6741SOL    HW121122   5.489   1.227   5.948
 6741SOL    HW221123   5.420   1.113   6.043
 6742SOL     OW21124   6.808   5.166   5.262
 6742SOL    HW121125   6.758   5.107   5.198
 6742SOL    HW221126   6.827   5.254   5.218
 6743SOL     OW21127   4.087   3.206   0.873
 6743SOL    HW121128   4.047   3.293   0.843
 6743SOL    HW221129   4.183   3.203   0.844
 6744SOL     OW21130   4.148   4.364   5.550
 6744SOL    HW121131   4.215   4.438   5.541
 6744SOL    HW221132   4.087   4.365   5.471
 6745SOL     OW21133   1.002   5.009   3.168
 6745SOL    HW121134   1.097   5.029   3.194
 6745SOL    HW221135   0.963   4.943   3.232
 6746SOL     OW21136   0.676   1.241   1.394
 6746SOL    HW121137   0.611   1.309   1.429
 6746SOL    HW221138   0.760   1.245   1.448
 6747SOL     OW21139   5.657   6.609   4.434
 6747SOL    HW121140   5.594   6.601   4.511
 6747SOL    HW221141   5.683   6.705   4.422
 6748SOL     OW21142   0.914   0.330   2.012
 6748SOL    HW121143   0.954   0.276   2.087
 6748SOL    HW221144   0.886   0.269   1.938
 6749SOL     OW21145   3.692   0.652   6.965
 6749SOL    HW121146   3.762   0.617   0.002
 6749SOL    HW221147   3.725   0.735   6.920
 6750SOL     OW21148   2.697   2.399   4.309
 6750SOL    HW121149   2.699   2.460   4.388
 6750SOL    HW221150   2.790   2.372   4.285
 6751SOL     OW21151   2.487   2.457   4.141
 6751SOL    HW121152   2.535   2.434   4.057
 6751SOL    HW221153   2.543   2.430   4.220
 6752SOL     OW21154   5.932   3.347   1.122
 6752SOL    HW121155   6.011   3.329   1.181
 6752SOL    HW221156   5.859   3.387   1.177
 6753SOL     OW21157   4.258   1.695   6.540
 6753SOL    HW121158   4.221   1.673   6.631
 6753SOL    HW221159   4.306   1.615   6.504
 6754SOL     OW21160   5.972   1.576   6.079
 6754SOL    HW121161   5.950   1.492   6.028
 6754SOL    HW221162   5.951   1.655   6.022
 6755SOL     OW21163   5.509   2.137   3.499
 6755SOL    HW121164   5.419   2.158   3.463
 6755SOL    HW221165   5.555   2.222   3.527
 6756SOL     OW21166   4.984   4.618   4.015
 6756SOL    HW121167   5.038   4.571   4.085
 6756SOL    HW221168   5.023   4.708   3.998
 6757SOL     OW21169   5.113   6.140   1.307
 6757SOL    HW121170   5.052   6.069   1.271
 6757SOL    HW221171   5.068   6.229   1.302
 6758SOL     OW21172   5.172   3.138   2.206
 6758SOL    HW121173   5.210   3.159   2.116
 6758SOL    HW221174   5.076   3.110   2.197
 6759SOL     OW21175   1.196   4.886   2.735
 6759SOL    HW121176   1.223   4.898   2.831
 6759SOL    HW221177   1.096   4.885   2.728
 6760SOL     OW21178   0.217   4.235   4.121
 6760SOL    HW121179   0.137   4.290   4.098
 6760SOL    HW221180   0.263   4.276   4.200
 6761SOL     OW21181   5.275   2.952   5.574
 6761SOL    HW121182   5.205   2.960   5.645
 6761SOL    HW221183   5.240   2.899   5.497
 6762SOL     OW21184   6.400   5.182   3.807
 6762SOL    HW121185   6.456   5.260   3.778
 6762SOL    HW221186   6.437   5.146   3.892
 6763SOL     OW21187   6.013   6.998   5.547
 6763SOL    HW121188   6.045   0.065   5.523
 6763SOL    HW221189   5.982   6.952   5.464
 6764SOL     OW21190   3.076   3.835   6.556
 6764SOL    HW121191   3.122   3.815   6.642
 6764SOL    HW221192   3.086   3.931   6.533
 6765SOL     OW21193   6.774   4.387   3.287
 6765SOL    HW121194   6.837   4.395   3.365
 6765SOL    HW221195   6.704   4.319   3.307
 6766SOL     OW21196   1.635   0.451   5.477
 6766SOL    HW121197   1.731   0.427   5.460
 6766SOL    HW221198   1.608   0.417   5.568
 6767SOL     OW21199   0.696   2.486   6.421
 6767SOL    HW121200   0.705   2.584   6.440
 6767SOL    HW221201   0.776   2.437   6.456
 6768SOL     OW21202   0.916   0.179   4.154
 6768SOL    HW121203   0.895   0.106   4.089
 6768SOL    HW221204   0.907   0.268   4.109
 6769SOL     OW21205   2.288   2.698   5.516
 6769SOL    HW121206   2.202   2.722   5.561
 6769SOL    HW221207   2.333   2.781   5.485
 6770SOL     OW21208   0.195   1.801   3.260
 6770SOL    HW121209   0.244   1.868   3.316
 6770SOL    HW221210   0.179   1.718   3.314
 6771SOL     OW21211   3.531   1.924   4.033
 6771SOL    HW121212   3.630   1.917   4.037
 6771SOL    HW221213   3.502   1.946   3.940
 6772SOL     OW21214   6.333   1.254   3.059
 6772SOL    HW121215   6.261   1.209   3.112
 6772SOL    HW221216   6.292   1.310   2.987
 6773SOL     OW21217   0.145   6.088   1.666
 6773SOL    HW121218   0.174   6.038   1.584
 6773SOL    HW221219   0.052   6.122   1.653
 6774SOL     OW21220   2.283   2.403   5.783
 6774SOL    HW121221   2.348   2.466   5.824
 6774SOL    HW221222   2.275   2.320   5.839
 6775SOL     OW21223   0.452   2.046   4.975
 6775SOL    HW121224   0.374   2.002   4.931
 6775SOL    HW221225   0.432   2.061   5.071
 6776SOL     OW21226   3.567   4.104   2.007
 6776SOL    HW121227   3.567   4.171   1.933
 6776SOL    HW221228   3.508   4.137   2.081
 6777SOL     OW21229   5.290   5.359   1.043
 6777SOL    HW121230   5.194   5.386   1.030
 6777SOL    HW221231   5.345   5.397   0.968
 6778SOL     OW21232   0.403   4.329   2.301
 6778SOL    HW121233   0.445   4.410   2.260
 6778SOL    HW221234   0.474   4.261   2.320
 6779SOL     OW21235   5.970   4.183   5.521
 6779SOL    HW121236   5.875   4.183   5.490
 6779SOL    HW221237   5.998   4.091   5.548
 6780SOL     OW21238   2.845   2.127   2.617
 6780SOL    HW121239   2.924   2.147   2.559
 6780SOL    HW221240   2.769   2.187   2.592
 6781SOL     OW21241   6.793   1.165   4.024
 6781SOL    HW121242   6.848   1.125   4.097
 6781SOL    HW221243   6.771   1.095   3.956
 6782SOL     OW21244   6.759   2.090   3.123
 6782SOL    HW121245   6.791   2.059   3.033
 6782SOL    HW221246   6.770   2.016   3.189
 6783SOL     OW21247   1.725   4.818   5.319
 6783SOL    HW121248   1.671   4.884   5.370
 6783SOL    HW221249   1.679   4.729   5.320
 6784SOL     OW21250   1.901   3.789   1.613
 6784SOL    HW121251   1.880   3.871   1.665
 6784SOL    HW221252   1.960   3.729   1.667
 6785SOL     OW21253   5.202   4.971   4.315
 6785SOL    HW121254   5.302   4.978   4.314
 6785SOL    HW221255   5.173   4.914   4.392
 6786SOL     OW21256   6.850   2.443   7.002
 6786SOL    HW121257   6.784   2.369   6.990
 6786SOL    HW221258   6.839   2.510   6.928
 6787SOL     OW21259   4.047   2.029   6.581
 6787SOL    HW121260   3.968   2.086   6.557
 6787SOL    HW221261   4.050   1.950   6.520
 6788SOL     OW21262   6.920   4.018   3.606
 6788SOL    HW121263   6.939   3.971   3.520
 6788SOL    HW221264   6.821   4.024   3.619
 6789SOL     OW21265   6.206   3.840   3.965
 6789SOL    HW121266   6.249   3.807   4.049
 6789SOL    HW221267   6.106   3.836   3.975
 6790SOL     OW21268   0.713   4.893   5.652
 6790SOL    HW121269   0.776   4.815   5.641
 6790SOL    HW221270   0.760   4.977   5.626
 6791SOL     OW21271   3.562   0.492   3.693
 6791SOL    HW121272   3.647   0.537   3.718
 6791SOL    HW221273   3.576   0.434   3.613
 6792SOL     OW21274   4.197   0.070   5.711
 6792SOL    HW121275   4.145   0.114   5.637
 6792SOL    HW221276   4.262   0.005   5.671
 6793SOL     OW21277   2.062   3.130   0.720
 6793SOL    HW121278   2.055   3.203   0.652
 6793SOL    HW221279   1.971   3.106   0.753
 6794SOL     OW21280   5.168   1.602   5.236
 6794SOL    HW121281   5.256   1.591   5.282
 6794SOL    HW221282   5.183   1.646   5.147
 6795SOL     OW21283   0.854   1.403   0.904
 6795SOL    HW121284   0.844   1.304   0.891
 6795SOL    HW221285   0.950   1.424   0.920
 6796SOL     OW21286   6.791   0.709   2.696
 6796SOL    HW121287   6.847   0.694   2.614
 6796SOL    HW221288   6.849   0.746   2.769
 6797SOL     OW21289   0.507   2.543   1.091
 6797SOL    HW121290   0.493   2.503   1.000
 6797SOL    HW221291   0.593   2.509   1.129
 6798SOL     OW21292   5.181   0.464   1.835
 6798SOL    HW121293   5.212   0.552   1.799
 6798SOL    HW221294   5.244   0.392   1.806
 6799SOL     OW21295   5.660   0.550   3.504
 6799SOL    HW121296   5.616   0.633   3.538
 6799SOL    HW221297   5.649   0.545   3.404
 6800SOL     OW21298   0.254   1.980   1.313
 6800SOL    HW121299   0.273   1.973   1.411
 6800SOL    HW221300   0.312   2.051   1.274
 6801SOL     OW21301   0.757   5.797   5.917
 6801SOL    HW121302   0.657   5.806   5.913
 6801SOL    HW221303   0.783   5.753   6.003
 6802SOL     OW21304   2.882   4.968   1.658
 6802SOL    HW121305   2.793   4.926   1.646
 6802SOL    HW221306   2.926   4.978   1.568
 6803SOL     OW21307   4.940   4.919   5.628
 6803SOL    HW121308   5.025   4.891   5.583
 6803SOL    HW221309   4.909   5.006   5.589
 6804SOL     OW21310   3.317   4.913   3.001
 6804SOL    HW121311   3.305   4.870   3.090
 6804SOL    HW221312   3.231   4.912   2.951
 6805SOL     OW21313   6.841   4.035   5.149
 6805SOL    HW121314   6.810   4.129   5.133
 6805SOL    HW221315   6.829   4.012   5.246
 6806SOL     OW21316   6.896   1.809   2.314
 6806SOL    HW121317   6.973   1.844   2.262
 6806SOL    HW221318   6.929   1.747   2.385
 6807SOL     OW21319   3.387   3.709   1.754
 6807SOL    HW121320   3.473   3.724   1.705
 6807SOL    HW221321   3.384   3.768   1.835
 6808SOL     OW21322   3.324   0.922   4.209
 6808SOL    HW121323   3.300   0.836   4.163
 6808SOL    HW221324   3.423   0.934   4.207
 6809SOL     OW21325   5.175   3.169   1.926
 6809SOL    HW121326   5.219   3.254   1.896
 6809SOL    HW221327   5.233   3.091   1.903
 6810SOL     OW21328   2.730   0.424   3.895
 6810SOL    HW121329   2.760   0.486   3.967
 6810SOL    HW221330   2.735   0.471   3.806
 6811SOL     OW21331   6.775   1.727   1.003
 6811SOL    HW121332   6.721   1.697   1.082
 6811SOL    HW221333   6.716   1.730   0.922
 6812SOL     OW21334   3.353   3.965   5.244
 6812SOL    HW121335   3.320   3.919   5.326
 6812SOL    HW221336   3.404   4.047   5.270
 6813SOL     OW21337   6.348   4.103   1.800
 6813SOL    HW121338   6.317   4.085   1.894
 6813SOL    HW221339   6.280   4.069   1.736
 6814SOL     OW21340   5.093   1.322   6.429
 6814SOL    HW121341   5.070   1.366   6.342
 6814SOL    HW221342   5.171   1.370   6.471
 6815SOL     OW21343   1.731   4.834   6.180
 6815SOL    HW121344   1.699   4.800   6.092
 6815SOL    HW221345   1.828   4.857   6.173
 6816SOL     OW21346   0.722   1.189   2.942
 6816SOL    HW121347   0.821   1.183   2.936
 6816SOL    HW221348   0.695   1.209   3.036
 6817SOL     OW21349   3.779   2.155   2.275
 6817SOL    HW121350   3.720   2.112   2.344
 6817SOL    HW221351   3.726   2.174   2.193
 6818SOL     OW21352   1.841   6.704   5.420
 6818SOL    HW121353   1.768   6.649   5.379
 6818SOL    HW221354   1.878   6.766   5.351
 6819SOL     OW21355   4.519   4.567   1.942
 6819SOL    HW121356   4.576   4.572   1.859
 6819SOL    HW221357   4.501   4.471   1.964
 6820SOL     OW21358   2.766   5.886   1.382
 6820SOL    HW121359   2.721   5.944   1.450
 6820SOL    HW221360   2.707   5.879   1.301
 6821SOL     OW21361   4.007   2.588   5.309
 6821SOL    HW121362   4.089   2.580   5.252
 6821SOL    HW221363   4.033   2.617   5.401
 6822SOL     OW21364   6.985   2.957   6.854
 6822SOL    HW121365   6.921   3.032   6.869
 6822SOL    HW221366   0.011   2.972   6.769
 6823SOL     OW21367   6.231   3.458   6.623
 6823SOL    HW121368   6.233   3.387   6.692
 6823SOL    HW221369   6.249   3.547   6.665
 6824SOL     OW21370   0.231   1.757   5.728
 6824SOL    HW121371   0.188   1.827   5.785
 6824SOL    HW221372   0.283   1.800   5.655
 6825SOL     OW21373   5.770   4.919   1.240
 6825SOL    HW121374   5.815   4.954   1.159
 6825SOL    HW221375   5.833   4.922   1.318
 6826SOL     OW21376   0.232   3.657   2.959
 6826SOL    HW121377   0.315   3.713   2.966
 6826SOL    HW221378   0.256   3.566   2.927
 6827SOL     OW21379   4.640   5.904   4.592
 6827SOL    HW121380   4.575   5.877   4.521
 6827SOL    HW221381   4.611   5.867   4.680
 6828SOL     OW21382   2.854   1.592   2.138
 6828SOL    HW121383   2.787   1.600   2.211
 6828SOL    HW221384   2.926   1.660   2.151
 6829SOL     OW21385   4.559   6.811   4.595
 6829SOL    HW121386   4.602   6.848   4.513
 6829SOL    HW221387   4.472   6.768   4.570
 6830SOL     OW21388   5.166   0.314   2.988
 6830SOL    HW121389   5.144   0.411   2.999
 6830SOL    HW221390   5.115   0.261   3.056
 6831SOL     OW21391   1.348   1.700   6.546
 6831SOL    HW121392   1.266   1.727   6.596
 6831SOL    HW221393   1.412   1.655   6.609
 6832SOL     OW21394   3.049   2.697   0.217
 6832SOL    HW121395   3.069   2.793   0.199
 6832SOL    HW221396   3.118   2.640   0.171
 6833SOL     OW21397   2.912   4.961   6.066
 6833SOL    HW121398   2.920   5.027   6.141
 6833SOL    HW221399   2.824   4.914   6.073
 6834SOL     OW21400   5.324   0.234   0.827
 6834SOL    HW121401   5.332   0.323   0.871
 6834SOL    HW221402   5.375   0.234   0.741
 6835SOL     OW21403   2.543   2.099   4.564
 6835SOL    HW121404   2.576   2.070   4.474
 6835SOL    HW221405   2.615   2.086   4.632
 6836SOL     OW21406   1.981   4.530   6.145
 6836SOL    HW121407   1.905   4.587   6.114
 6836SOL    HW221408   1.972   4.513   6.243
 6837SOL     OW21409   0.425   0.064   1.265
 6837SOL    HW121410   0.431   0.154   1.307
 6837SOL    HW221411   0.341   0.058   1.211
 6838SOL     OW21412   2.935   4.223   5.295
 6838SOL    HW121413   2.980   4.167   5.226
 6838SOL    HW221414   2.989   4.306   5.311
 6839SOL     OW21415   5.535   2.514   3.922
 6839SOL    HW121416   5.618   2.461   3.944
 6839SOL    HW221417   5.475   2.459   3.864
 6840SOL     OW21418   2.624   6.806   5.223
 6840SOL    HW121419   2.572   6.823   5.307
 6840SOL    HW221420   2.575   6.846   5.145
 6841SOL     OW21421   4.162   5.428   1.420
 6841SOL    HW121422   4.169   5.397   1.325
 6841SOL    HW221423   4.067   5.453   1.440
 6842SOL     OW21424   0.177   4.018   6.439
 6842SOL    HW121425   0.161   3.993   6.344
 6842SOL    HW221426   0.266   3.981   6.468
 6843SOL     OW21427   3.415   1.872   2.334
 6843SOL    HW121428   3.418   1.942   2.262
 6843SOL    HW221429   3.324   1.871   2.375
 6844SOL     OW21430   4.918   4.837   4.268
 6844SOL    HW121431   4.861   4.871   4.194
 6844SOL    HW221432   4.986   4.773   4.233
 6845SOL     OW21433   5.133   4.673   2.149
 6845SOL    HW121434   5.044   4.640   2.118
 6845SOL    HW221435   5.191   4.595   2.172
 6846SOL     OW21436   3.890   2.947   2.352
 6846SOL    HW121437   3.798   2.918   2.328
 6846SOL    HW221438   3.933   2.990   2.272
 6847SOL     OW21439   6.385   3.050   1.802
 6847SOL    HW121440   6.469   2.997   1.788
 6847SOL    HW221441   6.392   3.137   1.753
 6848SOL     OW21442   1.338   6.332   3.420
 6848SOL    HW121443   1.300   6.409   3.471
 6848SOL    HW221444   1.401   6.280   3.478
 6849SOL     OW21445   3.856   5.801   3.871
 6849SOL    HW121446   3.765   5.761   3.861
 6849SOL    HW221447   3.874   5.861   3.792
 6850SOL     OW21448   5.309   2.908   3.126
 6850SOL    HW121449   5.287   2.849   3.048
 6850SOL    HW221450   5.401   2.946   3.114
 6851SOL     OW21451   1.553   5.229   5.826
 6851SOL    HW121452   1.549   5.130   5.838
 6851SOL    HW221453   1.612   5.251   5.748
 6852SOL     OW21454   1.155   4.387   1.704
 6852SOL    HW121455   1.205   4.466   1.740
 6852SOL    HW221456   1.197   4.303   1.739
 6853SOL     OW21457   0.308   4.364   5.264
 6853SOL    HW121458   0.318   4.337   5.168
 6853SOL    HW221459   0.215   4.397   5.280
 6854SOL     OW21460   6.827   3.184   6.924
 6854SOL    HW121461   6.921   3.215   6.941
 6854SOL    HW221462   6.765   3.262   6.933
 6855SOL     OW21463   3.044   6.846   2.091
 6855SOL    HW121464   3.103   6.822   2.168
 6855SOL    HW221465   3.087   6.818   2.005
 6856SOL     OW21466   5.998   3.784   4.810
 6856SOL    HW121467   5.917   3.824   4.767
 6856SOL    HW221468   6.076   3.843   4.794
 6857SOL     OW21469   3.126   2.105   6.103
 6857SOL    HW121470   3.091   2.034   6.164
 6857SOL    HW221471   3.189   2.164   6.153
 6858SOL     OW21472   3.964   2.890   5.272
 6858SOL    HW121473   3.965   2.791   5.286
 6858SOL    HW221474   4.039   2.932   5.322
 6859SOL     OW21475   3.359   0.233   0.357
 6859SOL    HW121476   3.409   0.273   0.434
 6859SOL    HW221477   3.261   0.251   0.368
 6860SOL     OW21478   5.623   3.978   0.728
 6860SOL    HW121479   5.591   4.072   0.738
 6860SOL    HW221480   5.586   3.940   0.643
 6861SOL     OW21481   6.063   5.090   0.453
 6861SOL    HW121482   6.078   5.187   0.472
 6861SOL    HW221483   6.091   5.069   0.360
 6862SOL     OW21484   3.254   5.435   4.358
 6862SOL    HW121485   3.166   5.430   4.311
 6862SOL    HW221486   3.265   5.355   4.418
 6863SOL     OW21487   5.887   2.205   4.318
 6863SOL    HW121488   5.939   2.180   4.400
 6863SOL    HW221489   5.945   2.193   4.237
 6864SOL     OW21490   3.112   6.362   4.069
 6864SOL    HW121491   3.043   6.310   4.018
 6864SOL    HW221492   3.130   6.316   4.156
 6865SOL     OW21493   6.429   4.026   4.091
 6865SOL    HW121494   6.427   4.044   3.992
 6865SOL    HW221495   6.336   4.023   4.126
 6866SOL     OW21496   6.639   3.491   2.028
 6866SOL    HW121497   6.577   3.496   2.107
 6866SOL    HW221498   6.597   3.435   1.957
 6867SOL     OW21499   2.254   4.080   2.310
 6867SOL    HW121500   2.306   3.994   2.316
 6867SOL    HW221501   2.303   4.145   2.253
 6868SOL     OW21502   2.096   5.685   4.252
 6868SOL    HW121503   2.026   5.652   4.316
 6868SOL    HW221504   2.182   5.698   4.301
 6869SOL     OW21505   5.218   2.210   5.592
 6869SOL    HW121506   5.121   2.185   5.596
 6869SOL    HW221507   5.234   2.266   5.511
 6870SOL     OW21508   5.813   3.742   2.873
 6870SOL    HW121509   5.910   3.752   2.899
 6870SOL    HW221510   5.778   3.656   2.911
 6871SOL     OW21511   5.432   5.390   1.309
 6871SOL    HW121512   5.363   5.382   1.381
 6871SOL    HW221513   5.394   5.359   1.222
 6872SOL     OW21514   2.026   3.281   0.489
 6872SOL    HW121515   1.981   3.233   0.415
 6872SOL    HW221516   1.990   3.374   0.496
 6873SOL     OW21517   6.099   3.635   6.317
 6873SOL    HW121518   6.101   3.703   6.391
 6873SOL    HW221519   6.192   3.601   6.301
 6874SOL     OW21520   0.623   2.627   4.683
 6874SOL    HW121521   0.675   2.559   4.735
 6874SOL    HW221522   0.686   2.693   4.642
 6875SOL     OW21523   1.928   1.025   2.995
 6875SOL    HW121524   2.026   1.044   3.002
 6875SOL    HW221525   1.900   1.028   2.898
 6876SOL     OW21526   3.706   6.067   0.342
 6876SOL    HW121527   3.608   6.071   0.323
 6876SOL    HW221528   3.747   5.992   0.289
 6877SOL     OW21529   2.368   3.902   0.302
 6877SOL    HW121530   2.386   3.917   0.205
 6877SOL    HW221531   2.365   3.991   0.348
 6878SOL     OW21532   2.116   1.708   5.511
 6878SOL    HW121533   2.107   1.608   5.515
 6878SOL    HW221534   2.211   1.732   5.492
 6879SOL     OW21535   0.989   2.315   6.927
 6879SOL    HW121536   1.058   2.382   6.899
 6879SOL    HW221537   1.012   2.280   7.019
 6880SOL     OW21538   2.244   4.081   4.744
 6880SOL    HW121539   2.275   4.061   4.837
 6880SOL    HW221540   2.176   4.013   4.716
 6881SOL     OW21541   0.398   3.993   1.429
 6881SOL    HW121542   0.374   4.089   1.448
 6881SOL    HW221543   0.318   3.946   1.392
 6882SOL     OW21544   2.270   0.947   5.086
 6882SOL    HW121545   2.321   0.862   5.097
 6882SOL    HW221546   2.294   1.010   5.160
 6883SOL     OW21547   3.909   0.891   1.616
 6883SOL    HW121548   3.874   0.904   1.709
 6883SOL    HW221549   3.956   0.803   1.611
 6884SOL     OW21550   1.931   5.027   4.403
 6884SOL    HW121551   1.981   4.950   4.364
 6884SOL    HW221552   1.983   5.112   4.388
 6885SOL     OW21553   2.761   6.024   4.147
 6885SOL    HW121554   2.815   6.013   4.064
 6885SOL    HW221555   2.816   6.001   4.227
 6886SOL     OW21556   5.437   1.048   2.745
 6886SOL    HW121557   5.407   0.953   2.733
 6886SOL    HW221558   5.479   1.058   2.835
 6887SOL     OW21559   5.848   0.855   4.768
 6887SOL    HW121560   5.915   0.924   4.740
 6887SOL    HW221561   5.797   0.889   4.847
 6888SOL     OW21562   6.257   0.635   4.693
 6888SOL    HW121563   6.300   0.594   4.774
 6888SOL    HW221564   6.157   0.634   4.705
 6889SOL     OW21565   1.180   4.402   6.000
 6889SOL    HW121566   1.173   4.391   6.100
 6889SOL    HW221567   1.199   4.498   5.979
 6890SOL     OW21568   2.196   6.715   1.117
 6890SOL    HW121569   2.224   6.683   1.026
 6890SOL    HW221570   2.188   6.814   1.116
 6891SOL     OW21571   2.048   3.802   3.911
 6891SOL    HW121572   2.117   3.873   3.903
 6891SOL    HW221573   1.996   3.796   3.826
 6892SOL     OW21574   3.204   0.343   4.214
 6892SOL    HW121575   3.234   0.407   4.285
 6892SOL    HW221576   3.259   0.357   4.132
 6893SOL     OW21577   5.031   5.963   2.826
 6893SOL    HW121578   5.072   5.874   2.843
 6893SOL    HW221579   5.017   6.011   2.913
 6894SOL     OW21580   5.712   5.167   0.321
 6894SOL    HW121581   5.665   5.153   0.408
 6894SOL    HW221582   5.646   5.196   0.252
 6895SOL     OW21583   2.629   4.265   0.214
 6895SOL    HW121584   2.619   4.175   0.171
 6895SOL    HW221585   2.687   4.256   0.295
 6896SOL     OW21586   3.608   0.205   3.078
 6896SOL    HW121587   3.675   0.262   3.030
 6896SOL    HW221588   3.564   0.258   3.150
 6897SOL     OW21589   3.519   3.761   0.457
 6897SOL    HW121590   3.611   3.781   0.422
 6897SOL    HW221591   3.491   3.834   0.519
 6898SOL     OW21592   4.193   1.638   1.836
 6898SOL    HW121593   4.122   1.664   1.901
 6898SOL    HW221594   4.231   1.721   1.795
 6899SOL     OW21595   4.722   6.485   6.756
 6899SOL    HW121596   4.758   6.562   6.702
 6899SOL    HW221597   4.713   6.513   6.852
 6900SOL     OW21598   5.377   0.323   6.131
 6900SOL    HW121599   5.393   0.227   6.107
 6900SOL    HW221600   5.464   0.368   6.152
 6901SOL     OW21601   1.702   0.142   6.416
 6901SOL    HW121602   1.708   0.103   6.509
 6901SOL    HW221603   1.608   0.138   6.385
 6902SOL     OW21604   0.409   6.033   7.024
 6902SOL    HW121605   0.420   5.943   0.042
 6902SOL    HW221606   0.494   6.085   0.007
 6903SOL     OW21607   4.145   4.747   0.782
 6903SOL    HW121608   4.147   4.647   0.784
 6903SOL    HW221609   4.069   4.777   0.724
 6904SOL     OW21610   6.467   1.405   3.513
 6904SOL    HW121611   6.501   1.354   3.434
 6904SOL    HW221612   6.434   1.340   3.582
 6905SOL     OW21613   5.741   6.677   1.203
 6905SOL    HW121614   5.829   6.672   1.250
 6905SOL    HW221615   5.713   6.585   1.176
 6906SOL     OW21616   3.778   0.659   2.943
 6906SOL    HW121617   3.751   0.754   2.958
 6906SOL    HW221618   3.858   0.656   2.882
 6907SOL     OW21619   3.389   1.277   1.728
 6907SOL    HW121620   3.394   1.187   1.684
 6907SOL    HW221621   3.370   1.266   1.825
 6908SOL     OW21622   0.901   6.532   5.398
 6908SOL    HW121623   0.930   6.575   5.312
 6908SOL    HW221624   0.970   6.467   5.429
 6909SOL     OW21625   4.540   4.401   0.328
 6909SOL    HW121626   4.640   4.396   0.316
 6909SOL    HW221627   4.509   4.319   0.374
 6910SOL     OW21628   6.253   1.615   1.788
 6910SOL    HW121629   6.198   1.563   1.854
 6910SOL    HW221630   6.213   1.706   1.777
 6911SOL     OW21631   4.005   0.855   4.345
 6911SOL    HW121632   4.068   0.865   4.267
 6911SOL    HW221633   3.961   0.943   4.362
 6912SOL     OW21634   4.875   4.855   0.708
 6912SOL    HW121635   4.972   4.836   0.725
 6912SOL    HW221636   4.841   4.918   0.778
 6913SOL     OW21637   5.148   4.925   4.745
 6913SOL    HW121638   5.235   4.972   4.760
 6913SOL    HW221639   5.078   4.993   4.722
 6914SOL     OW21640   6.167   5.394   0.581
 6914SOL    HW121641   6.174   5.318   0.645
 6914SOL    HW221642   6.078   5.438   0.590
 6915SOL     OW21643   0.367   4.805   3.221
 6915SOL    HW121644   0.421   4.810   3.137
 6915SOL    HW221645   0.423   4.768   3.295
 6916SOL     OW21646   6.233   3.574   6.928
 6916SOL    HW121647   6.240   3.477   6.905
 6916SOL    HW221648   6.164   3.586   7.000
 6917SOL     OW21649   5.001   6.702   6.365
 6917SOL    HW121650   5.005   6.751   6.278
 6917SOL    HW221651   4.996   6.604   6.348
 6918SOL     OW21652   6.722   3.628   3.848
 6918SOL    HW121653   6.645   3.586   3.800
 6918SOL    HW221654   6.691   3.708   3.898
 6919SOL     OW21655   1.770   6.238   2.497
 6919SOL    HW121656   1.718   6.273   2.575
 6919SOL    HW221657   1.837   6.171   2.529
 6920SOL     OW21658   5.099   5.817   4.793
 6920SOL    HW121659   5.138   5.847   4.880
 6920SOL    HW221660   5.172   5.804   4.726
 6921SOL     OW21661   6.870   0.288   3.124
 6921SOL    HW121662   6.827   0.313   3.211
 6921SOL    HW221663   6.967   0.273   3.138
 6922SOL     OW21664   2.563   6.028   0.893
 6922SOL    HW121665   2.648   6.025   0.946
 6922SOL    HW221666   2.485   6.037   0.955
 6923SOL     OW21667   4.616   0.169   4.203
 6923SOL    HW121668   4.582   0.075   4.196
 6923SOL    HW221669   4.557   0.221   4.264
 6924SOL     OW21670   0.229   5.289   1.511
 6924SOL    HW121671   0.129   5.280   1.503
 6924SOL    HW221672   0.271   5.199   1.499
 6925SOL     OW21673   4.653   6.574   2.800
 6925SOL    HW121674   4.610   6.498   2.849
 6925SOL    HW221675   4.660   6.551   2.703
 6926SOL     OW21676   3.095   3.999   4.150
 6926SOL    HW121677   3.014   4.001   4.208
 6926SOL    HW221678   3.154   3.923   4.178
 6927SOL     OW21679   5.223   3.944   6.134
 6927SOL    HW121680   5.130   3.909   6.141
 6927SOL    HW221681   5.249   3.989   6.220
 6928SOL     OW21682   4.873   0.819   6.588
 6928SOL    HW121683   4.827   0.863   6.511
 6928SOL    HW221684   4.840   0.725   6.597
 6929SOL     OW21685   4.258   6.240   0.491
 6929SOL    HW121686   4.249   6.340   0.493
 6929SOL    HW221687   4.168   6.199   0.498
 6930SOL     OW21688   0.707   7.000   2.339
 6930SOL    HW121689   0.751   6.910   2.330
 6930SOL    HW221690   0.644   7.014   2.263
 6931SOL     OW21691   1.799   0.403   1.446
 6931SOL    HW121692   1.794   0.500   1.472
 6931SOL    HW221693   1.859   0.355   1.510
 6932SOL     OW21694   2.663   1.516   7.010
 6932SOL    HW121695   2.602   1.482   0.056
 6932SOL    HW221696   2.756   1.525   0.021
 6933SOL     OW21697   4.088   5.618   5.813
 6933SOL    HW121698   4.009   5.571   5.774
 6933SOL    HW221699   4.122   5.686   5.748
 6934SOL     OW21700   4.863   3.259   0.089
 6934SOL    HW121701   4.888   3.303   0.003
 6934SOL    HW221702   4.942   3.260   0.151
 6935SOL     OW21703   4.379   6.574   3.236
 6935SOL    HW121704   4.312   6.561   3.309
 6935SOL    HW221705   4.414   6.485   3.206
 6936SOL     OW21706   0.822   2.717   0.775
 6936SOL    HW121707   0.743   2.656   0.765
 6936SOL    HW221708   0.831   2.774   0.693
 6937SOL     OW21709   4.623   6.431   6.185
 6937SOL    HW121710   4.705   6.447   6.129
 6937SOL    HW221711   4.646   6.373   6.263
 6938SOL     OW21712   4.875   3.335   5.378
 6938SOL    HW121713   4.930   3.356   5.296
 6938SOL    HW221714   4.893   3.404   5.448
 6939SOL     OW21715   0.110   4.370   2.456
 6939SOL    HW121716   0.082   4.354   2.362
 6939SOL    HW221717   0.209   4.380   2.460
 6940SOL     OW21718   4.932   0.653   5.778
 6940SOL    HW121719   4.911   0.558   5.801
 6940SOL    HW221720   4.943   0.662   5.679
 6941SOL     OW21721   4.121   3.261   4.109
 6941SOL    HW121722   4.174   3.226   4.185
 6941SOL    HW221723   4.111   3.360   4.118
 6942SOL     OW21724   6.926   3.235   0.716
 6942SOL    HW121725   6.996   3.174   0.753
 6942SOL    HW221726   6.929   3.232   0.616
 6943SOL     OW21727   5.257   6.381   6.186
 6943SOL    HW121728   5.272   6.338   6.275
 6943SOL    HW221729   5.307   6.330   6.116
 6944SOL     OW21730   1.195   5.377   6.376
 6944SOL    HW121731   1.153   5.338   6.459
 6944SOL    HW221732   1.181   5.314   6.299
 6945SOL     OW21733   6.289   2.946   6.408
 6945SOL    HW121734   6.242   2.963   6.495
 6945SOL    HW221735   6.346   3.025   6.385
 6946SOL     OW21736   5.762   4.279   2.620
 6946SOL    HW121737   5.677   4.237   2.652
 6946SOL    HW221738   5.839   4.240   2.670
 6947SOL     OW21739   3.248   6.651   2.677
 6947SOL    HW121740   3.204   6.739   2.658
 6947SOL    HW221741   3.194   6.577   2.637
 6948SOL     OW21742   4.768   0.975   6.918
 6948SOL    HW121743   4.863   0.951   6.942
 6948SOL    HW221744   4.720   0.892   6.888
 6949SOL     OW21745   5.323   6.683   3.614
 6949SOL    HW121746   5.392   6.721   3.676
 6949SOL    HW221747   5.367   6.625   3.545
 6950SOL     OW21748   2.180   1.119   2.985
 6950SOL    HW121749   2.245   1.158   2.921
 6950SOL    HW221750   2.225   1.051   3.043
 6951SOL     OW21751   6.354   5.887   5.572
 6951SOL    HW121752   6.305   5.954   5.515
 6951SOL    HW221753   6.290   5.816   5.601
 6952SOL     OW21754   0.436   4.993   4.384
 6952SOL    HW121755   0.490   4.930   4.439
 6952SOL    HW221756   0.497   5.049   4.328
 6953SOL     OW21757   4.703   1.125   5.802
 6953SOL    HW121758   4.655   1.055   5.749
 6953SOL    HW221759   4.709   1.209   5.749
 6954SOL     OW21760   6.561   3.445   4.391
 6954SOL    HW121761   6.650   3.407   4.417
 6954SOL    HW221762   6.569   3.488   4.300
 6955SOL     OW21763   0.309   6.285   1.772
 6955SOL    HW121764   0.247   6.362   1.787
 6955SOL    HW221765   0.255   6.200   1.766
 6956SOL     OW21766   4.559   5.208   1.882
 6956SOL    HW121767   4.521   5.272   1.815
 6956SOL    HW221768   4.528   5.234   1.973
 6957SOL     OW21769   0.236   4.799   1.960
 6957SOL    HW121770   0.273   4.822   1.869
 6957SOL    HW221771   0.265   4.707   1.985
 6958SOL     OW21772   2.450   3.126   6.127
 6958SOL    HW121773   2.462   3.036   6.085
 6958SOL    HW221774   2.439   3.115   6.226
 6959SOL     OW21775   3.801   1.841   4.779
 6959SOL    HW121776   3.894   1.864   4.810
 6959SOL    HW221777   3.804   1.757   4.724
 6960SOL     OW21778   6.968   4.770   0.108
 6960SOL    HW121779   6.938   4.766   0.012
 6960SOL    HW221780   0.022   4.832   0.115
 6961SOL     OW21781   1.293   1.968   3.479
 6961SOL    HW121782   1.251   1.922   3.401
 6961SOL    HW221783   1.340   2.051   3.448
 6962SOL     OW21784   4.991   4.841   1.911
 6962SOL    HW121785   4.973   4.746   1.939
 6962SOL    HW221786   4.924   4.901   1.953
 6963SOL     OW21787   0.674   4.915   1.871
 6963SOL    HW121788   0.648   4.948   1.961
 6963SOL    HW221789   0.697   4.992   1.812
 6964SOL     OW21790   4.620   5.341   5.122
 6964SOL    HW121791   4.674   5.257   5.118
 6964SOL    HW221792   4.598   5.371   5.029
 6965SOL     OW21793   6.749   3.198   6.405
 6965SOL    HW121794   6.680   3.193   6.478
 6965SOL    HW221795   6.707   3.236   6.322
 6966SOL     OW21796   4.958   2.576   2.780
 6966SOL    HW121797   4.933   2.517   2.703
 6966SOL    HW221798   5.053   2.607   2.769
 6967SOL     OW21799   1.450   2.024   6.009
 6967SOL    HW121800   1.371   2.047   6.067
 6967SOL    HW221801   1.443   2.072   5.922
 6968SOL     OW21802   4.139   5.838   1.556
 6968SOL    HW121803   4.224   5.816   1.605
 6968SOL    HW221804   4.154   5.829   1.457
 6969SOL     OW21805   3.516   1.622   0.853
 6969SOL    HW121806   3.520   1.634   0.952
 6969SOL    HW221807   3.484   1.529   0.832
 6970SOL     OW21808   3.850   4.591   0.587
 6970SOL    HW121809   3.794   4.572   0.667
 6970SOL    HW221810   3.869   4.506   0.537
 6971SOL     OW21811   6.389   2.585   1.611
 6971SOL    HW121812   6.392   2.491   1.577
 6971SOL    HW221813   6.445   2.643   1.551
 6972SOL     OW21814   5.429   4.391   4.400
 6972SOL    HW121815   5.494   4.326   4.361
 6972SOL    HW221816   5.452   4.408   4.496
 6973SOL     OW21817   2.018   5.263   4.137
 6973SOL    HW121818   2.067   5.180   4.113
 6973SOL    HW221819   1.961   5.291   4.060
 6974SOL     OW21820   3.135   3.964   3.572
 6974SOL    HW121821   3.077   3.988   3.649
 6974SOL    HW221822   3.087   3.900   3.512
 6975SOL     OW21823   3.707   0.736   5.923
 6975SOL    HW121824   3.705   0.836   5.915
 6975SOL    HW221825   3.640   0.707   5.991
 6976SOL     OW21826   2.484   5.030   6.723
 6976SOL    HW121827   2.521   5.041   6.816
 6976SOL    HW221828   2.423   4.951   6.721
 6977SOL     OW21829   3.744   1.270   2.567
 6977SOL    HW121830   3.750   1.350   2.507
 6977SOL    HW221831   3.664   1.216   2.543
 6978SOL     OW21832   0.055   0.371   1.870
 6978SOL    HW121833   0.114   0.350   1.793
 6978SOL    HW221834   0.045   0.291   1.928
 6979SOL     OW21835   0.671   4.296   2.356
 6979SOL    HW121836   0.677   4.202   2.390
 6979SOL    HW221837   0.762   4.330   2.336
 6980SOL     OW21838   2.597   1.220   3.351
 6980SOL    HW121839   2.510   1.258   3.384
 6980SOL    HW221840   2.672   1.253   3.408
 6981SOL     OW21841   2.088   4.692   0.621
 6981SOL    HW121842   2.069   4.782   0.582
 6981SOL    HW221843   2.154   4.643   0.563
 6982SOL     OW21844   1.660   0.691   4.234
 6982SOL    HW121845   1.711   0.640   4.165
 6982SOL    HW221846   1.563   0.692   4.210
 6983SOL     OW21847   6.998   0.267   4.777
 6983SOL    HW121848   6.967   0.187   4.828
 6983SOL    HW221849   6.948   0.274   4.691
 6984SOL     OW21850   1.968   2.164   5.901
 6984SOL    HW121851   1.947   2.072   5.865
 6984SOL    HW221852   2.066   2.171   5.919
 6985SOL     OW21853   4.196   5.702   2.286
 6985SOL    HW121854   4.129   5.703   2.361
 6985SOL    HW221855   4.288   5.716   2.323
 6986SOL     OW21856   1.802   6.137   5.423
 6986SOL    HW121857   1.787   6.155   5.326
 6986SOL    HW221858   1.899   6.147   5.444
 6987SOL     OW21859   0.103   2.873   6.492
 6987SOL    HW121860   0.106   2.783   6.449
 6987SOL    HW221861   0.120   2.943   6.423
 6988SOL     OW21862   5.020   1.707   3.880
 6988SOL    HW121863   5.049   1.800   3.902
 6988SOL    HW221864   5.011   1.697   3.781
 6989SOL     OW21865   1.401   1.637   3.746
 6989SOL    HW121866   1.323   1.602   3.692
 6989SOL    HW221867   1.481   1.644   3.687
 6990SOL     OW21868   4.529   2.909   6.776
 6990SOL    HW121869   4.588   2.829   6.779
 6990SOL    HW221870   4.448   2.889   6.722
 6991SOL     OW21871   2.392   4.706   5.389
 6991SOL    HW121872   2.484   4.739   5.365
 6991SOL    HW221873   2.349   4.771   5.452
 6992SOL     OW21874   6.281   6.326   4.384
 6992SOL    HW121875   6.247   6.233   4.375
 6992SOL    HW221876   6.264   6.377   4.300
 6993SOL     OW21877   0.126   0.130   3.111
 6993SOL    HW121878   0.205   0.142   3.171
 6993SOL    HW221879   0.133   0.192   3.033
 6994SOL     OW21880   1.667   3.437   6.029
 6994SOL    HW121881   1.663   3.524   6.078
 6994SOL    HW221882   1.717   3.370   6.084
 6995SOL     OW21883   5.717   5.669   4.291
 6995SOL    HW121884   5.801   5.620   4.270
 6995SOL    HW221885   5.655   5.666   4.212
 6996SOL     OW21886   2.382   0.688   5.089
 6996SOL    HW121887   2.409   0.623   5.160
 6996SOL    HW221888   2.462   0.711   5.033
 6997SOL     OW21889   4.851   5.950   4.388
 6997SOL    HW121890   4.905   6.025   4.425
 6997SOL    HW221891   4.756   5.958   4.419
 6998SOL     OW21892   2.010   3.108   2.001
 6998SOL    HW121893   2.055   3.182   1.950
 6998SOL    HW221894   1.916   3.097   1.967
 6999SOL     OW21895   2.262   2.204   6.009
 6999SOL    HW121896   2.337   2.179   6.070
 6999SOL    HW221897   2.220   2.289   6.042
 7000SOL     OW21898   0.562   6.129   2.840
 7000SOL    HW121899   0.574   6.173   2.929
 7000SOL    HW221900   0.465   6.108   2.826
 7001SOL     OW21901   2.179   3.083   5.817
 7001SOL    HW121902   2.152   3.018   5.888
 7001SOL    HW221903   2.146   3.174   5.840
 7002SOL     OW21904   1.394   5.063   3.917
 7002SOL    HW121905   1.307   5.025   3.950
 7002SOL    HW221906   1.377   5.151   3.873
 7003SOL     OW21907   3.238   6.986   0.364
 7003SOL    HW121908   3.294   6.907   0.340
 7003SOL    HW221909   3.297   0.042   0.374
 7004SOL     OW21910   1.669   4.442   1.287
 7004SOL    HW121911   1.592   4.411   1.232
 7004SOL    HW221912   1.635   4.490   1.368
 7005SOL     OW21913   6.011   6.586   6.577
 7005SOL    HW121914   5.953   6.529   6.519
 7005SOL    HW221915   6.092   6.535   6.604
 7006SOL     OW21916   4.836   4.093   4.778
 7006SOL    HW121917   4.797   4.001   4.789
 7006SOL    HW221918   4.930   4.085   4.745
 7007SOL     OW21919   5.194   6.600   2.872
 7007SOL    HW121920   5.106   6.626   2.833
 7007SOL    HW221921   5.189   6.605   2.972
 7008SOL     OW21922   2.364   5.487   4.750
 7008SOL    HW121923   2.363   5.402   4.697
 7008SOL    HW221924   2.279   5.494   4.802
 7009SOL     OW21925   6.389   5.580   2.185
 7009SOL    HW121926   6.307   5.636   2.190
 7009SOL    HW221927   6.421   5.561   2.278
 7010SOL     OW21928   3.302   4.443   6.034
 7010SOL    HW121929   3.389   4.478   6.001
 7010SOL    HW221930   3.232   4.513   6.025
 7011SOL     OW21931   2.131   6.765   5.433
 7011SOL    HW121932   2.099   6.841   5.376
 7011SOL    HW221933   2.053   6.714   5.467
 7012SOL     OW21934   1.091   0.112   1.717
 7012SOL    HW121935   1.167   0.084   1.776
 7012SOL    HW221936   1.125   0.180   1.651
 7013SOL     OW21937   1.077   6.952   1.250
 7013SOL    HW121938   1.008   7.021   1.272
 7013SOL    HW221939   1.140   6.988   1.182
 7014SOL     OW21940   3.370   4.665   1.141
 7014SOL    HW121941   3.343   4.620   1.226
 7014SOL    HW221942   3.288   4.696   1.093
 7015SOL     OW21943   4.894   2.906   2.557
 7015SOL    HW121944   4.977   2.887   2.505
 7015SOL    HW221945   4.822   2.841   2.529
 7016SOL     OW21946   4.481   4.609   1.629
 7016SOL    HW121947   4.520   4.684   1.576
 7016SOL    HW221948   4.402   4.641   1.680
 7017SOL     OW21949   3.139   1.503   3.081
 7017SOL    HW121950   3.110   1.487   3.175
 7017SOL    HW221951   3.066   1.476   3.018
 7018SOL     OW21952   0.200   4.051   4.403
 7018SOL    HW121953   0.247   4.129   4.446
 7018SOL    HW221954   0.186   3.979   4.471
 7019SOL     OW21955   2.889   4.714   6.774
 7019SOL    HW121956   2.861   4.620   6.756
 7019SOL    HW221957   2.835   4.751   6.850
 7020SOL     OW21958   5.781   0.381   6.911
 7020SOL    HW121959   5.854   0.426   6.962
 7020SOL    HW221960   5.717   0.450   6.877
 7021SOL     OW21961   2.488   1.159   5.229
 7021SOL    HW121962   2.429   1.147   5.309
 7021SOL    HW221963   2.470   1.248   5.187
 7022SOL     OW21964   5.292   3.513   0.714
 7022SOL    HW121965   5.302   3.592   0.654
 7022SOL    HW221966   5.312   3.540   0.808
 7023SOL     OW21967   6.178   2.427   2.221
 7023SOL    HW121968   6.146   2.476   2.140
 7023SOL    HW221969   6.111   2.435   2.294
 7024SOL     OW21970   1.856   6.122   6.600
 7024SOL    HW121971   1.813   6.033   6.613
 7024SOL    HW221972   1.788   6.189   6.571
 7025SOL     OW21973   3.240   1.975   6.569
 7025SOL    HW121974   3.295   2.024   6.637
 7025SOL    HW221975   3.220   2.036   6.492
 7026SOL     OW21976   3.143   2.003   1.914
 7026SOL    HW121977   3.080   2.064   1.963
 7026SOL    HW221978   3.113   1.908   1.928
 7027SOL     OW21979   4.157   5.580   3.639
 7027SOL    HW121980   4.136   5.641   3.563
 7027SOL    HW221981   4.191   5.634   3.716
 7028SOL     OW21982   4.774   6.836   3.160
 7028SOL    HW121983   4.748   6.745   3.191
 7028SOL    HW221984   4.710   6.867   3.089
 7029SOL     OW21985   3.658   6.663   0.144
 7029SOL    HW121986   3.748   6.681   0.105
 7029SOL    HW221987   3.656   6.694   0.239
 7030SOL     OW21988   0.310   3.391   5.594
 7030SOL    HW121989   0.303   3.412   5.497
 7030SOL    HW221990   0.262   3.460   5.647
 7031SOL     OW21991   2.298   5.415   4.318
 7031SOL    HW121992   2.310   5.501   4.367
 7031SOL    HW221993   2.208   5.412   4.276
 7032SOL     OW21994   4.945   6.627   2.788
 7032SOL    HW121995   4.852   6.633   2.824
 7032SOL    HW221996   4.943   6.584   2.698
 7033SOL     OW21997   0.113   1.175   3.814
 7033SOL    HW121998   0.149   1.082   3.827
 7033SOL    HW221999   0.079   1.185   3.721
 7034SOL     OW22000   5.184   7.003   2.890
 7034SOL    HW122001   5.192   0.003   2.794
 7034SOL    HW222002   5.111   6.935   2.901
 7035SOL     OW22003   0.400   6.407   2.867
 7035SOL    HW122004   0.411   6.373   2.773
 7035SOL    HW222005   0.451   6.348   2.930
 7036SOL     OW22006   6.913   5.892   1.894
 7036SOL    HW122007   6.954   5.920   1.981
 7036SOL    HW222008   6.933   5.961   1.824
 7037SOL     OW22009   0.723   5.967   5.400
 7037SOL    HW122010   0.807   5.926   5.435
 7037SOL    HW222011   0.645   5.914   5.433
 7038SOL     OW22012   1.189   4.279   3.207
 7038SOL    HW122013   1.108   4.224   3.188
 7038SOL    HW222014   1.248   4.281   3.126
 7039SOL     OW22015   3.602   0.341   6.422
 7039SOL    HW122016   3.511   0.375   6.397
 7039SOL    HW222017   3.597   0.243   6.439
 7040SOL     OW22018   4.382   2.910   6.356
 7040SOL    HW122019   4.482   2.908   6.369
 7040SOL    HW222020   4.340   2.962   6.431
 7041SOL     OW22021   1.003   1.281   2.926
 7041SOL    HW122022   1.026   1.307   3.020
 7041SOL    HW222023   1.041   1.191   2.906
 7042SOL     OW22024   4.134   5.680   6.128
 7042SOL    HW122025   4.146   5.650   6.222
 7042SOL    HW222026   4.213   5.734   6.099
 7043SOL     OW22027   1.424   2.239   3.460
 7043SOL    HW122028   1.395   2.270   3.369
 7043SOL    HW222029   1.521   2.261   3.472
 7044SOL     OW22030   4.735   4.608   2.650
 7044SOL    HW122031   4.704   4.681   2.590
 7044SOL    HW222032   4.691   4.522   2.624
 7045SOL     OW22033   5.023   6.408   1.330
 7045SOL    HW122034   5.022   6.464   1.247
 7045SOL    HW222035   5.022   6.467   1.411
 7046SOL     OW22036   3.910   0.624   4.738
 7046SOL    HW122037   3.873   0.673   4.658
 7046SOL    HW222038   3.935   0.531   4.711
 7047SOL     OW22039   0.809   1.703   3.694
 7047SOL    HW122040   0.819   1.799   3.666
 7047SOL    HW222041   0.769   1.699   3.786
 7048SOL     OW22042   0.040   5.782   1.170
 7048SOL    HW122043   0.112   5.835   1.215
 7048SOL    HW222044   0.080   5.727   1.097
 7049SOL     OW22045   1.709   0.785   0.843
 7049SOL    HW122046   1.764   0.725   0.785
 7049SOL    HW222047   1.727   0.764   0.939
 7050SOL     OW22048   3.598   4.095   4.511
 7050SOL    HW122049   3.685   4.099   4.561
 7050SOL    HW222050   3.563   4.187   4.498
 7051SOL     OW22051   6.870   0.240   0.957
 7051SOL    HW122052   6.778   0.249   0.918
 7051SOL    HW222053   6.930   0.309   0.918
 7052SOL     OW22054   0.118   1.859   4.421
 7052SOL    HW122055   0.023   1.881   4.443
 7052SOL    HW222056   0.139   1.889   4.328
 7053SOL     OW22057   0.427   3.845   6.537
 7053SOL    HW122058   0.498   3.831   6.468
 7053SOL    HW222059   0.469   3.878   6.621
 7054SOL     OW22060   6.118   6.779   1.543
 7054SOL    HW122061   6.106   6.841   1.465
 7054SOL    HW222062   6.162   6.827   1.619
 7055SOL     OW22063   4.461   0.540   5.611
 7055SOL    HW122064   4.491   0.500   5.698
 7055SOL    HW222065   4.479   0.639   5.612
 7056SOL     OW22066   5.499   4.618   2.760
 7056SOL    HW122067   5.570   4.548   2.760
 7056SOL    HW222068   5.534   4.701   2.804
 7057SOL     OW22069   0.285   4.226   3.740
 7057SOL    HW122070   0.195   4.184   3.754
 7057SOL    HW222071   0.324   4.193   3.654
 7058SOL     OW22072   0.504   5.409   4.961
 7058SOL    HW122073   0.558   5.411   5.045
 7058SOL    HW222074   0.408   5.392   4.984
 7059SOL     OW22075   0.371   0.109   1.727
 7059SOL    HW122076   0.350   0.061   1.643
 7059SOL    HW222077   0.460   0.081   1.761
 7060SOL     OW22078   3.061   0.128   1.197
 7060SOL    HW122079   3.039   0.119   1.100
 7060SOL    HW222080   3.042   0.222   1.226
 7061SOL     OW22081   0.377   1.856   2.964
 7061SOL    HW122082   0.387   1.776   3.024
 7061SOL    HW222083   0.282   1.862   2.933
 7062SOL     OW22084   5.959   1.926   5.461
 7062SOL    HW122085   5.888   1.994   5.482
 7062SOL    HW222086   5.934   1.878   5.376
 7063SOL     OW22087   2.193   6.582   1.373
 7063SOL    HW122088   2.199   6.487   1.343
 7063SOL    HW222089   2.204   6.643   1.294
 7064SOL     OW22090   4.344   2.457   1.816
 7064SOL    HW122091   4.432   2.497   1.841
 7064SOL    HW222092   4.358   2.363   1.784
 7065SOL     OW22093   4.498   4.233   1.230
 7065SOL    HW122094   4.422   4.172   1.251
 7065SOL    HW222095   4.469   4.328   1.241
 7066SOL     OW22096   3.714   0.393   0.536
 7066SOL    HW122097   3.735   0.440   0.621
 7066SOL    HW222098   3.781   0.320   0.521
 7067SOL     OW22099   1.073   3.935   5.726
 7067SOL    HW122100   1.030   4.025   5.735
 7067SOL    HW222101   1.171   3.947   5.709
 7068SOL     OW22102   0.886   2.582   3.231
 7068SOL    HW122103   0.832   2.545   3.156
 7068SOL    HW222104   0.946   2.511   3.268
 7069SOL     OW22105   6.493   3.540   5.453
 7069SOL    HW122106   6.424   3.499   5.513
 7069SOL    HW222107   6.584   3.504   5.477
 7070SOL     OW22108   6.398   4.534   5.271
 7070SOL    HW122109   6.350   4.520   5.358
 7070SOL    HW222110   6.391   4.630   5.245
 7071SOL     OW22111   1.047   5.682   5.157
 7071SOL    HW122112   1.056   5.779   5.176
 7071SOL    HW222113   0.986   5.640   5.224
 7072SOL     OW22114   6.732   6.156   5.799
 7072SOL    HW122115   6.707   6.243   5.841
 7072SOL    HW222116   6.649   6.106   5.774
 7073SOL     OW22117   0.222   0.716   5.546
 7073SOL    HW122118   0.243   0.812   5.534
 7073SOL    HW222119   0.297   0.671   5.596
 7074SOL     OW22120   3.451   2.553   1.611
 7074SOL    HW122121   3.521   2.525   1.677
 7074SOL    HW222122   3.361   2.531   1.647
 7075SOL     OW22123   1.772   5.917   4.074
 7075SOL    HW122124   1.741   5.880   4.162
 7075SOL    HW222125   1.767   5.846   4.004
 7076SOL     OW22126   3.372   2.112   6.741
 7076SOL    HW122127   3.407   2.039   6.799
 7076SOL    HW222128   3.447   2.175   6.718
 7077SOL     OW22129   2.327   5.632   5.264
 7077SOL    HW122130   2.420   5.666   5.258
 7077SOL    HW222131   2.295   5.635   5.359
 7078SOL     OW22132   6.194   6.591   2.885
 7078SOL    HW122133   6.267   6.524   2.875
 7078SOL    HW222134   6.110   6.555   2.843
 7079SOL     OW22135   6.569   5.922   5.714
 7079SOL    HW122136   6.562   5.881   5.806
 7079SOL    HW222137   6.491   5.891   5.659
 7080SOL     OW22138   3.960   2.116   3.790
 7080SOL    HW122139   3.918   2.026   3.778
 7080SOL    HW222140   4.004   2.121   3.880
 7081SOL     OW22141   3.129   1.103   5.125
 7081SOL    HW122142   3.190   1.114   5.046
 7081SOL    HW222143   3.066   1.181   5.128
 7082SOL     OW22144   5.592   1.337   6.839
 7082SOL    HW122145   5.619   1.420   6.890
 7082SOL    HW222146   5.630   1.342   6.747
 7083SOL     OW22147   2.930   1.614   6.287
 7083SOL    HW122148   2.995   1.638   6.214
 7083SOL    HW222149   2.971   1.546   6.347
 7084SOL     OW22150   6.817   6.774   5.439
 7084SOL    HW122151   6.892   6.816   5.488
 7084SOL    HW222152   6.736   6.769   5.498
 7085SOL     OW22153   2.494   2.320   3.337
 7085SOL    HW122154   2.586   2.286   3.320
 7085SOL    HW222155   2.495   2.420   3.336
 7086SOL     OW22156   5.162   0.794   6.538
 7086SOL    HW122157   5.198   0.793   6.632
 7086SOL    HW222158   5.063   0.782   6.541
 7087SOL     OW22159   1.157   3.591   4.442
 7087SOL    HW122160   1.204   3.679   4.430
 7087SOL    HW222161   1.058   3.606   4.441
 7088SOL     OW22162   4.870   3.006   4.618
 7088SOL    HW122163   4.931   2.997   4.539
 7088SOL    HW222164   4.815   3.089   4.608
 7089SOL     OW22165   3.501   2.473   6.188
 7089SOL    HW122166   3.456   2.529   6.258
 7089SOL    HW222167   3.490   2.517   6.099
 7090SOL     OW22168   1.614   1.532   5.727
 7090SOL    HW122169   1.600   1.575   5.815
 7090SOL    HW222170   1.698   1.477   5.729
 7091SOL     OW22171   0.409   0.937   0.206
 7091SOL    HW122172   0.444   0.979   0.122
 7091SOL    HW222173   0.426   0.998   0.283
 7092SOL     OW22174   4.069   4.120   0.215
 7092SOL    HW122175   3.986   4.087   0.170
 7092SOL    HW222176   4.095   4.208   0.177
 7093SOL     OW22177   3.449   4.103   4.208
 7093SOL    HW122178   3.374   4.118   4.273
 7093SOL    HW222179   3.429   4.024   4.151
 7094SOL     OW22180   0.451   6.519   5.931
 7094SOL    HW122181   0.430   6.422   5.928
 7094SOL    HW222182   0.527   6.536   5.994
 7095SOL     OW22183   2.090   3.292   6.743
 7095SOL    HW122184   2.162   3.253   6.686
 7095SOL    HW222185   2.035   3.356   6.689
 7096SOL     OW22186   5.379   2.042   3.757
 7096SOL    HW122187   5.422   2.075   3.673
 7096SOL    HW222188   5.407   1.947   3.774
 7097SOL     OW22189   6.728   0.495   1.643
 7097SOL    HW122190   6.762   0.418   1.589
 7097SOL    HW222191   6.784   0.505   1.725
 7098SOL     OW22192   1.088   5.995   5.231
 7098SOL    HW122193   1.063   6.092   5.243
 7098SOL    HW222194   1.184   5.988   5.205
 7099SOL     OW22195   1.187   1.463   5.317
 7099SOL    HW122196   1.216   1.393   5.382
 7099SOL    HW222197   1.254   1.537   5.315
 7100SOL     OW22198   4.960   3.769   0.920
 7100SOL    HW122199   4.883   3.706   0.922
 7100SOL    HW222200   5.013   3.761   1.005
 7101SOL     OW22201   2.829   0.181   4.633
 7101SOL    HW122202   2.851   0.243   4.558
 7101SOL    HW222203   2.914   0.144   4.672
 7102SOL     OW22204   4.113   0.955   1.170
 7102SOL    HW122205   4.114   0.855   1.168
 7102SOL    HW222206   4.191   0.990   1.118
 7103SOL     OW22207   3.539   5.856   6.799
 7103SOL    HW122208   3.566   5.810   6.884
 7103SOL    HW222209   3.497   5.944   6.820
 7104SOL     OW22210   1.479   2.948   3.490
 7104SOL    HW122211   1.529   3.035   3.487
 7104SOL    HW222212   1.542   2.875   3.515
 7105SOL     OW22213   3.347   3.421   5.031
 7105SOL    HW122214   3.327   3.328   5.062
 7105SOL    HW222215   3.373   3.477   5.110
 7106SOL     OW22216   3.648   2.907   4.780
 7106SOL    HW122217   3.591   2.989   4.781
 7106SOL    HW222218   3.625   2.849   4.858
 7107SOL     OW22219   2.971   1.136   0.292
 7107SOL    HW122220   3.014   1.083   0.219
 7107SOL    HW222221   2.989   1.092   0.380
 7108SOL     OW22222   4.193   6.260   1.582
 7108SOL    HW122223   4.165   6.251   1.487
 7108SOL    HW222224   4.131   6.208   1.641
 7109SOL     OW22225   3.276   0.041   6.184
 7109SOL    HW122226   3.360   0.092   6.163
 7109SOL    HW222227   3.271   6.986   6.125
 7110SOL     OW22228   5.448   5.177   4.144
 7110SOL    HW122229   5.357   5.215   4.157
 7110SOL    HW222230   5.441   5.087   4.100
 7111SOL     OW22231   1.620   3.392   3.794
 7111SOL    HW122232   1.595   3.427   3.704
 7111SOL    HW222233   1.627   3.292   3.790
 7112SOL     OW22234   1.652   6.109   3.851
 7112SOL    HW122235   1.642   6.192   3.905
 7112SOL    HW222236   1.657   6.030   3.913
 7113SOL     OW22237   4.034   3.830   4.943
 7113SOL    HW122238   4.104   3.784   4.998
 7113SOL    HW222239   4.069   3.846   4.851
 7114SOL     OW22240   3.646   0.817   1.757
 7114SOL    HW122241   3.713   0.744   1.744
 7114SOL    HW222242   3.554   0.779   1.753
 7115SOL     OW22243   5.354   2.398   1.262
 7115SOL    HW122244   5.341   2.301   1.241
 7115SOL    HW222245   5.315   2.418   1.352
 7116SOL     OW22246   5.583   4.304   3.749
 7116SOL    HW122247   5.591   4.235   3.676
 7116SOL    HW222248   5.657   4.291   3.814
 7117SOL     OW22249   6.940   6.113   3.313
 7117SOL    HW122250   6.886   6.119   3.397
 7117SOL    HW222251   7.023   6.060   3.331
 7118SOL     OW22252   5.387   3.642   1.370
 7118SOL    HW122253   5.470   3.669   1.419
 7118SOL    HW222254   5.367   3.546   1.388
 7119SOL     OW22255   5.663   1.081   3.042
 7119SOL    HW122256   5.675   1.163   3.097
 7119SOL    HW222257   5.703   1.095   2.952
 7120SOL     OW22258   4.622   1.461   3.067
 7120SOL    HW122259   4.676   1.540   3.039
 7120SOL    HW222260   4.663   1.419   3.148
 7121SOL     OW22261   2.178   6.691   3.492
 7121SOL    HW122262   2.084   6.670   3.466
 7121SOL    HW222263   2.221   6.746   3.420
 7122SOL     OW22264   6.494   1.048   0.109
 7122SOL    HW122265   6.498   0.972   0.044
 7122SOL    HW222266   6.574   1.044   0.169
 7123SOL     OW22267   2.519   5.257   1.638
 7123SOL    HW122268   2.507   5.261   1.737
 7123SOL    HW222269   2.502   5.163   1.606
 7124SOL     OW22270   0.603   4.810   0.924
 7124SOL    HW122271   0.700   4.825   0.945
 7124SOL    HW222272   0.594   4.735   0.859
 7125SOL     OW22273   6.335   6.602   1.524
 7125SOL    HW122274   6.255   6.655   1.552
 7125SOL    HW222275   6.358   6.623   1.429
 7126SOL     OW22276   2.446   3.682   0.470
 7126SOL    HW122277   2.409   3.760   0.421
 7126SOL    HW222278   2.375   3.613   0.482
 7127SOL     OW22279   3.271   5.228   4.029
 7127SOL    HW122280   3.343   5.296   4.042
 7127SOL    HW222281   3.305   5.139   4.058
 7128SOL     OW22282   3.351   4.673   0.623
 7128SOL    HW122283   3.351   4.575   0.644
 7128SOL    HW222284   3.260   4.711   0.641
 7129SOL     OW22285   3.231   0.765   1.512
 7129SOL    HW122286   3.146   0.714   1.500
 7129SOL    HW222287   3.218   0.836   1.581
 7130SOL     OW22288   3.417   4.978   4.078
 7130SOL    HW122289   3.365   4.943   4.000
 7130SOL    HW222290   3.364   4.966   4.162
 7131SOL     OW22291   2.782   1.530   1.541
 7131SOL    HW122292   2.839   1.534   1.460
 7131SOL    HW222293   2.764   1.623   1.574
 7132SOL     OW22294   4.098   3.491   3.265
 7132SOL    HW122295   4.034   3.554   3.222
 7132SOL    HW222296   4.171   3.468   3.201
 7133SOL     OW22297   5.029   5.175   3.097
 7133SOL    HW122298   5.014   5.273   3.113
 7133SOL    HW222299   5.025   5.127   3.184
 7134SOL     OW22300   6.637   6.025   3.970
 7134SOL    HW122301   6.593   6.045   3.882
 7134SOL    HW222302   6.706   5.954   3.957
 7135SOL     OW22303   1.377   0.738   4.210
 7135SOL    HW122304   1.301   0.694   4.258
 7135SOL    HW222305   1.372   0.837   4.224
 7136SOL     OW22306   1.969   1.643   0.828
 7136SOL    HW122307   2.007   1.609   0.914
 7136SOL    HW222308   1.878   1.679   0.844
 7137SOL     OW22309   4.395   0.934   4.423
 7137SOL    HW122310   4.459   1.009   4.437
 7137SOL    HW222311   4.345   0.948   4.338
 7138SOL     OW22312   3.346   2.642   1.300
 7138SOL    HW122313   3.263   2.694   1.280
 7138SOL    HW222314   3.403   2.694   1.364
 7139SOL     OW22315   4.922   3.262   1.866
 7139SOL    HW122316   4.843   3.206   1.889
 7139SOL    HW222317   5.004   3.223   1.908
 7140SOL     OW22318   5.957   3.375   5.050
 7140SOL    HW122319   5.892   3.429   4.996
 7140SOL    HW222320   5.955   3.280   5.018
 7141SOL     OW22321   3.316   0.394   1.025
 7141SOL    HW122322   3.366   0.367   1.107
 7141SOL    HW222323   3.284   0.312   0.977
 7142SOL     OW22324   4.435   0.205   3.617
 7142SOL    HW122325   4.387   0.188   3.531
 7142SOL    HW222326   4.369   0.228   3.688
 7143SOL     OW22327   2.223   3.773   6.435
 7143SOL    HW122328   2.186   3.808   6.348
 7143SOL    HW222329   2.204   3.839   6.508
 7144SOL     OW22330   0.550   1.299   2.575
 7144SOL    HW122331   0.571   1.342   2.663
 7144SOL    HW222332   0.636   1.281   2.526
 7145SOL     OW22333   4.407   6.506   6.616
 7145SOL    HW122334   4.326   6.556   6.646
 7145SOL    HW222335   4.489   6.551   6.653
 7146SOL     OW22336   2.899   6.830   0.877
 7146SOL    HW122337   2.908   6.800   0.972
 7146SOL    HW222338   2.990   6.835   0.834
 7147SOL     OW22339   6.846   6.852   3.483
 7147SOL    HW122340   6.899   6.903   3.416
 7147SOL    HW222341   6.874   6.879   3.575
 7148SOL     OW22342   0.918   6.596   1.644
 7148SOL    HW122343   0.902   6.520   1.581
 7148SOL    HW222344   0.944   6.677   1.592
 7149SOL     OW22345   6.825   0.863   3.562
 7149SOL    HW122346   6.751   0.798   3.580
 7149SOL    HW222347   6.793   0.956   3.580
 7150SOL     OW22348   5.037   3.108   1.409
 7150SOL    HW122349   4.953   3.134   1.458
 7150SOL    HW222350   5.015   3.087   1.314
 7151SOL     OW22351   1.606   5.973   0.979
 7151SOL    HW122352   1.693   5.930   1.002
 7151SOL    HW222353   1.587   5.962   0.882
 7152SOL     OW22354   0.886   3.698   4.957
 7152SOL    HW122355   0.930   3.609   4.964
 7152SOL    HW222356   0.956   3.769   4.949
 7153SOL     OW22357   3.984   6.792   5.436
 7153SOL    HW122358   3.932   6.710   5.413
 7153SOL    HW222359   3.978   6.858   5.361
 7154SOL     OW22360   3.961   5.817   4.335
 7154SOL    HW122361   3.942   5.788   4.242
 7154SOL    HW222362   3.998   5.741   4.388
 7155SOL     OW22363   1.115   6.372   2.051
 7155SOL    HW122364   1.082   6.456   2.009
 7155SOL    HW222365   1.143   6.308   1.979
 7156SOL     OW22366   6.646   4.732   5.360
 7156SOL    HW122367   6.729   4.774   5.323
 7156SOL    HW222368   6.568   4.756   5.303
 7157SOL     OW22369   6.317   5.437   0.335
 7157SOL    HW122370   6.255   5.437   0.414
 7157SOL    HW222371   6.327   5.530   0.301
 7158SOL     OW22372   6.783   6.635   3.323
 7158SOL    HW122373   6.867   6.582   3.335
 7158SOL    HW222374   6.797   6.728   3.358
 7159SOL     OW22375   0.198   4.910   1.438
 7159SOL    HW122376   0.199   4.881   1.343
 7159SOL    HW222377   0.121   4.868   1.485
 7160SOL     OW22378   6.288   0.021   1.579
 7160SOL    HW122379   6.209   0.061   1.533
 7160SOL    HW222380   6.372   0.059   1.540
 7161SOL     OW22381   3.204   3.559   3.979
 7161SOL    HW122382   3.120   3.614   3.981
 7161SOL    HW222383   3.272   3.605   3.922
 7162SOL     OW22384   3.864   5.251   4.485
 7162SOL    HW122385   3.870   5.175   4.420
 7162SOL    HW222386   3.840   5.334   4.436
 7163SOL     OW22387   3.629   0.308   3.452
 7163SOL    HW122388   3.592   0.330   3.362
 7163SOL    HW222389   3.729   0.314   3.449
 7164SOL     OW22390   2.097   1.402   2.912
 7164SOL    HW122391   2.109   1.413   2.813
 7164SOL    HW222392   2.124   1.310   2.939
 7165SOL     OW22393   6.106   1.244   0.318
 7165SOL    HW122394   6.097   1.174   0.389
 7165SOL    HW222395   6.168   1.212   0.247
 7166SOL     OW22396   4.723   4.265   1.390
 7166SOL    HW122397   4.704   4.318   1.473
 7166SOL    HW222398   4.648   4.276   1.325
 7167SOL     OW22399   4.864   3.868   5.092
 7167SOL    HW122400   4.857   3.913   5.003
 7167SOL    HW222401   4.850   3.770   5.080
 7168SOL     OW22402   1.534   1.680   4.249
 7168SOL    HW122403   1.463   1.751   4.242
 7168SOL    HW222404   1.541   1.631   4.162
 7169SOL     OW22405   1.574   3.385   5.770
 7169SOL    HW122406   1.600   3.440   5.849
 7169SOL    HW222407   1.553   3.292   5.800
 7170SOL     OW22408   4.831   5.098   2.885
 7170SOL    HW122409   4.910   5.130   2.938
 7170SOL    HW222410   4.802   5.171   2.822
 7171SOL     OW22411   4.553   3.078   5.669
 7171SOL    HW122412   4.479   3.100   5.605
 7171SOL    HW222413   4.516   3.065   5.760
 7172SOL     OW22414   1.375   6.819   0.235
 7172SOL    HW122415   1.387   6.878   0.155
 7172SOL    HW222416   1.392   6.871   0.318
 7173SOL     OW22417   6.308   5.040   4.352
 7173SOL    HW122418   6.249   5.025   4.432
 7173SOL    HW222419   6.282   4.977   4.279
 7174SOL     OW22420   1.712   5.318   6.733
 7174SOL    HW122421   1.719   5.325   6.634
 7174SOL    HW222422   1.765   5.240   6.766
 7175SOL     OW22423   5.147   3.761   1.120
 7175SOL    HW122424   5.199   3.698   1.062
 7175SOL    HW222425   5.203   3.842   1.138
 7176SOL     OW22426   6.916   4.871   2.530
 7176SOL    HW122427   6.882   4.781   2.558
 7176SOL    HW222428   6.975   4.861   2.450
 7177SOL     OW22429   1.827   5.926   3.738
 7177SOL    HW122430   1.769   5.996   3.780
 7177SOL    HW222431   1.918   5.928   3.779
 7178SOL     OW22432   1.782   2.795   5.785
 7178SOL    HW122433   1.840   2.714   5.789
 7178SOL    HW222434   1.839   2.876   5.770
 7179SOL     OW22435   2.704   3.414   5.781
 7179SOL    HW122436   2.628   3.375   5.833
 7179SOL    HW222437   2.673   3.439   5.690
 7180SOL     OW22438   0.990   5.011   6.559
 7180SOL    HW122439   1.010   5.006   6.657
 7180SOL    HW222440   0.953   4.923   6.529
 7181SOL     OW22441   3.955   0.717   0.408
 7181SOL    HW122442   3.942   0.687   0.313
 7181SOL    HW222443   3.928   0.813   0.417
 7182SOL     OW22444   2.001   4.177   5.638
 7182SOL    HW122445   1.940   4.249   5.604
 7182SOL    HW222446   2.092   4.216   5.656
 7183SOL     OW22447   1.689   5.047   2.469
 7183SOL    HW122448   1.609   5.022   2.524
 7183SOL    HW222449   1.732   4.964   2.434
 7184SOL     OW22450   1.211   6.810   4.202
 7184SOL    HW122451   1.188   6.907   4.206
 7184SOL    HW222452   1.263   6.784   4.283
 7185SOL     OW22453   5.325   2.881   6.737
 7185SOL    HW122454   5.291   2.886   6.830
 7185SOL    HW222455   5.425   2.878   6.738
 7186SOL     OW22456   6.950   6.916   5.641
 7186SOL    HW122457   0.014   6.958   5.657
 7186SOL    HW222458   6.879   6.966   5.692
 7187SOL     OW22459   1.701   4.612   1.718
 7187SOL    HW122460   1.792   4.590   1.753
 7187SOL    HW222461   1.644   4.650   1.791
 7188SOL     OW22462   5.142   6.984   1.789
 7188SOL    HW122463   5.055   6.948   1.823
 7188SOL    HW222464   5.201   6.908   1.762
 7189SOL     OW22465   6.477   1.079   6.400
 7189SOL    HW122466   6.455   1.025   6.319
 7189SOL    HW222467   6.406   1.148   6.414
 7190SOL     OW22468   5.105   4.406   3.325
 7190SOL    HW122469   5.185   4.441   3.373
 7190SOL    HW222470   5.096   4.307   3.342
 7191SOL     OW22471   0.941   3.669   2.674
 7191SOL    HW122472   0.962   3.577   2.643
 7191SOL    HW222473   1.018   3.704   2.728
 7192SOL     OW22474   2.343   5.780   5.764
 7192SOL    HW122475   2.337   5.765   5.863
 7192SOL    HW222476   2.425   5.834   5.744
 7193SOL     OW22477   2.982   2.118   4.618
 7193SOL    HW122478   3.069   2.110   4.667
 7193SOL    HW222479   2.993   2.088   4.524
 7194SOL     OW22480   2.090   1.579   1.075
 7194SOL    HW122481   2.182   1.563   1.041
 7194SOL    HW222482   2.094   1.638   1.156
 7195SOL     OW22483   0.077   4.933   0.986
 7195SOL    HW122484   0.001   4.992   0.959
 7195SOL    HW222485   0.145   4.930   0.912
 7196SOL     OW22486   2.953   3.412   3.341
 7196SOL    HW122487   2.944   3.456   3.430
 7196SOL    HW222488   2.934   3.479   3.269
 7197SOL     OW22489   6.752   1.882   5.250
 7197SOL    HW122490   6.817   1.822   5.204
 7197SOL    HW222491   6.664   1.880   5.202
 7198SOL     OW22492   1.363   6.783   5.981
 7198SOL    HW122493   1.417   6.703   5.955
 7198SOL    HW222494   1.265   6.762   5.973
 7199SOL     OW22495   0.342   0.419   2.707
 7199SOL    HW122496   0.260   0.382   2.750
 7199SOL    HW222497   0.341   0.519   2.712
 7200SOL     OW22498   2.495   1.075   0.407
 7200SOL    HW122499   2.427   1.003   0.426
 7200SOL    HW222500   2.562   1.041   0.342
 7201SOL     OW22501   2.026   4.900   3.007
 7201SOL    HW122502   2.001   4.996   2.996
 7201SOL    HW222503   2.114   4.894   3.055
 7202SOL     OW22504   4.076   0.335   6.415
 7202SOL    HW122505   4.117   0.293   6.334
 7202SOL    HW222506   3.982   0.362   6.395
 7203SOL     OW22507   6.578   0.217   0.549
 7203SOL    HW122508   6.498   0.195   0.604
 7203SOL    HW222509   6.593   0.316   0.548
 7204SOL     OW22510   6.518   0.116   3.742
 7204SOL    HW122511   6.572   0.094   3.660
 7204SOL    HW222512   6.567   0.185   3.796
 7205SOL     OW22513   1.756   5.596   3.167
 7205SOL    HW122514   1.746   5.503   3.132
 7205SOL    HW222515   1.837   5.639   3.127
 7206SOL     OW22516   0.346   1.267   1.032
 7206SOL    HW122517   0.442   1.292   1.021
 7206SOL    HW222518   0.339   1.186   1.091
 7207SOL     OW22519   3.351   0.045   1.162
 7207SOL    HW122520   3.300   0.126   1.190
 7207SOL    HW222521   3.332   6.995   1.226
 7208SOL     OW22522   3.791   6.626   4.684
 7208SOL    HW122523   3.759   6.685   4.609
 7208SOL    HW222524   3.863   6.673   4.735
 7209SOL     OW22525   3.646   2.910   4.252
 7209SOL    HW122526   3.555   2.869   4.250
 7209SOL    HW222527   3.690   2.889   4.339
 7210SOL     OW22528   4.623   1.117   3.575
 7210SOL    HW122529   4.683   1.037   3.568
 7210SOL    HW222530   4.530   1.087   3.599
 7211SOL     OW22531   1.002   6.349   4.166
 7211SOL    HW122532   0.975   6.376   4.258
 7211SOL    HW222533   1.000   6.250   4.158
 7212SOL     OW22534   0.274   6.075   4.722
 7212SOL    HW122535   0.216   5.993   4.719
 7212SOL    HW222536   0.364   6.053   4.685
 7213SOL     OW22537   5.663   0.191   5.426
 7213SOL    HW122538   5.605   0.227   5.499
 7213SOL    HW222539   5.690   0.097   5.448
 7214SOL     OW22540   1.991   5.333   4.403
 7214SOL    HW122541   1.965   5.429   4.411
 7214SOL    HW222542   1.992   5.306   4.307
 7215SOL     OW22543   1.359   2.922   4.397
 7215SOL    HW122544   1.423   2.981   4.348
 7215SOL    HW222545   1.409   2.846   4.439
 7216SOL     OW22546   2.538   5.878   6.890
 7216SOL    HW122547   2.589   5.938   6.828
 7216SOL    HW222548   2.576   5.884   6.982
 7217SOL     OW22549   1.802   4.618   2.429
 7217SOL    HW122550   1.858   4.667   2.496
 7217SOL    HW222551   1.706   4.645   2.439
 7218SOL     OW22552   4.775   2.037   5.457
 7218SOL    HW122553   4.716   1.973   5.507
 7218SOL    HW222554   4.735   2.129   5.463
 7219SOL     OW22555   4.757   0.033   3.315
 7219SOL    HW122556   4.780   6.973   3.268
 7219SOL    HW222557   4.659   0.051   3.305
 7220SOL     OW22558   6.506   0.680   3.180
 7220SOL    HW122559   6.439   0.639   3.117
 7220SOL    HW222560   6.545   0.762   3.137
 7221SOL     OW22561   6.003   4.525   5.360
 7221SOL    HW122562   6.018   4.562   5.268
 7221SOL    HW222563   5.957   4.437   5.353
 7222SOL     OW22564   6.000   6.437   1.052
 7222SOL    HW122565   6.027   6.533   1.046
 7222SOL    HW222566   6.042   6.386   0.977
 7223SOL     OW22567   3.087   1.883   0.449
 7223SOL    HW122568   3.144   1.828   0.388
 7223SOL    HW222569   2.998   1.898   0.406
 7224SOL     OW22570   5.795   1.421   4.657
 7224SOL    HW122571   5.775   1.500   4.599
 7224SOL    HW222572   5.878   1.376   4.624
 7225SOL     OW22573   1.630   5.635   0.455
 7225SOL    HW122574   1.684   5.705   0.407
 7225SOL    HW222575   1.652   5.545   0.416
 7226SOL     OW22576   0.296   6.783   0.188
 7226SOL    HW122577   0.233   6.813   0.117
 7226SOL    HW222578   0.289   6.684   0.199
 7227SOL     OW22579   0.597   1.667   6.978
 7227SOL    HW122580   0.664   1.639   6.910
 7227SOL    HW222581   0.564   1.759   6.958
 7228SOL     OW22582   6.836   6.614   1.800
 7228SOL    HW122583   6.880   6.576   1.881
 7228SOL    HW222584   6.739   6.629   1.817
 7229SOL     OW22585   1.146   0.605   4.363
 7229SOL    HW122586   1.059   0.654   4.371
 7229SOL    HW222587   1.130   0.507   4.368
 7230SOL     OW22588   4.647   5.664   3.832
 7230SOL    HW122589   4.597   5.620   3.906
 7230SOL    HW222590   4.623   5.761   3.827
 7231SOL     OW22591   5.855   1.646   6.303
 7231SOL    HW122592   5.915   1.708   6.352
 7231SOL    HW222593   5.898   1.620   6.216
 7232SOL     OW22594   4.214   4.727   2.707
 7232SOL    HW122595   4.279   4.686   2.642
 7232SOL    HW222596   4.128   4.745   2.661
 7233SOL     OW22597   0.115   2.677   5.356
 7233SOL    HW122598   0.121   2.734   5.437
 7233SOL    HW222599   0.174   2.715   5.284
 7234SOL     OW22600   6.139   2.175   1.712
 7234SOL    HW122601   6.110   2.144   1.802
 7234SOL    HW222602   6.239   2.177   1.708
 7235SOL     OW22603   5.332   4.100   4.634
 7235SOL    HW122604   5.380   4.185   4.653
 7235SOL    HW222605   5.397   4.025   4.626
 7236SOL     OW22606   3.761   1.680   2.882
 7236SOL    HW122607   3.811   1.629   2.812
 7236SOL    HW222608   3.723   1.615   2.948
 7237SOL     OW22609   6.587   6.376   5.297
 7237SOL    HW122610   6.562   6.414   5.386
 7237SOL    HW222611   6.632   6.287   5.310
 7238SOL     OW22612   2.441   1.702   2.286
 7238SOL    HW122613   2.432   1.663   2.194
 7238SOL    HW222614   2.351   1.706   2.329
 7239SOL     OW22615   1.693   1.386   2.588
 7239SOL    HW122616   1.634   1.321   2.636
 7239SOL    HW222617   1.675   1.479   2.621
 7240SOL     OW22618   2.755   3.821   1.029
 7240SOL    HW122619   2.744   3.791   0.934
 7240SOL    HW222620   2.848   3.803   1.059
 7241SOL     OW22621   3.804   0.641   5.663
 7241SOL    HW122622   3.771   0.667   5.753
 7241SOL    HW222623   3.890   0.688   5.644
 7242SOL     OW22624   5.490   4.335   6.663
 7242SOL    HW122625   5.551   4.268   6.705
 7242SOL    HW222626   5.395   4.305   6.674
 7243SOL     OW22627   1.159   4.859   6.760
 7243SOL    HW122628   1.195   4.924   6.826
 7243SOL    HW222629   1.065   4.835   6.785
 7244SOL     OW22630   5.821   1.843   1.409
 7244SOL    HW122631   5.770   1.908   1.352
 7244SOL    HW222632   5.912   1.829   1.370
 7245SOL     OW22633   0.222   1.928   4.880
 7245SOL    HW122634   0.173   1.844   4.901
 7245SOL    HW222635   0.157   2.004   4.878
 7246SOL     OW22636   6.034   6.886   4.716
 7246SOL    HW122637   6.106   6.864   4.781
 7246SOL    HW222638   6.073   6.897   4.625
 7247SOL     OW22639   2.674   6.285   1.720
 7247SOL    HW122640   2.646   6.214   1.785
 7247SOL    HW222641   2.685   6.245   1.629
 7248SOL     OW22642   3.879   0.900   4.095
 7248SOL    HW122643   3.859   0.802   4.086
 7248SOL    HW222644   3.956   0.924   4.035
 7249SOL     OW22645   5.475   4.200   0.766
 7249SOL    HW122646   5.402   4.182   0.831
 7249SOL    HW222647   5.506   4.295   0.777
 7250SOL     OW22648   2.409   4.860   6.159
 7250SOL    HW122649   2.388   4.763   6.168
 7250SOL    HW222650   2.349   4.901   6.091
 7251SOL     OW22651   6.938   6.756   4.895
 7251SOL    HW122652   6.958   6.710   4.808
 7251SOL    HW222653   6.994   6.714   4.968
 7252SOL     OW22654   3.019   3.333   4.972
 7252SOL    HW122655   3.007   3.259   4.905
 7252SOL    HW222656   3.039   3.294   5.062
 7253SOL     OW22657   2.828   6.242   1.213
 7253SOL    HW122658   2.886   6.178   1.263
 7253SOL    HW222659   2.863   6.335   1.225
 7254SOL     OW22660   3.869   5.472   3.734
 7254SOL    HW122661   3.958   5.513   3.711
 7254SOL    HW222662   3.798   5.541   3.727
 7255SOL     OW22663   3.033   3.493   2.264
 7255SOL    HW122664   3.036   3.555   2.186
 7255SOL    HW222665   2.961   3.425   2.251
 7256SOL     OW22666   4.176   5.114   4.346
 7256SOL    HW122667   4.207   5.113   4.251
 7256SOL    HW222668   4.077   5.100   4.349
 7257SOL     OW22669   5.466   2.601   2.961
 7257SOL    HW122670   5.467   2.683   2.903
 7257SOL    HW222671   5.546   2.601   3.020
 7258SOL     OW22672   3.774   0.244   4.821
 7258SOL    HW122673   3.684   0.242   4.776
 7258SOL    HW222674   3.774   0.316   4.890
 7259SOL     OW22675   2.476   3.970   6.961
 7259SOL    HW122676   2.535   3.900   7.001
 7259SOL    HW222677   2.527   4.021   6.892
 7260SOL     OW22678   3.303   2.028   2.692
 7260SOL    HW122679   3.328   1.932   2.680
 7260SOL    HW222680   3.233   2.053   2.626
 7261SOL     OW22681   2.103   3.353   1.886
 7261SOL    HW122682   2.136   3.350   1.792
 7261SOL    HW222683   2.150   3.425   1.936
 7262SOL     OW22684   5.531   2.126   4.960
 7262SOL    HW122685   5.605   2.193   4.966
 7262SOL    HW222686   5.488   2.131   4.870
 7263SOL     OW22687   1.156   6.102   1.120
 7263SOL    HW122688   1.180   6.005   1.121
 7263SOL    HW222689   1.191   6.146   1.203
 7264SOL     OW22690   6.437   0.897   6.607
 7264SOL    HW122691   6.343   0.868   6.623
 7264SOL    HW222692   6.442   0.947   6.520
 7265SOL     OW22693   5.116   5.137   5.491
 7265SOL    HW122694   5.133   5.043   5.462
 7265SOL    HW222695   5.047   5.178   5.431
 7266SOL     OW22696   4.851   0.608   1.981
 7266SOL    HW122697   4.762   0.616   1.935
 7266SOL    HW222698   4.884   0.514   1.975
 7267SOL     OW22699   0.206   3.785   4.531
 7267SOL    HW122700   0.290   3.734   4.552
 7267SOL    HW222701   0.147   3.786   4.612
 7268SOL     OW22702   3.738   6.306   1.559
 7268SOL    HW122703   3.649   6.350   1.541
 7268SOL    HW222704   3.801   6.327   1.485
 7269SOL     OW22705   0.833   5.899   1.863
 7269SOL    HW122706   0.752   5.949   1.894
 7269SOL    HW222707   0.811   5.847   1.780
 7270SOL     OW22708   2.535   1.730   2.620
 7270SOL    HW122709   2.576   1.821   2.615
 7270SOL    HW222710   2.437   1.737   2.597
 7271SOL     OW22711   6.994   3.927   3.323
 7271SOL    HW122712   6.916   3.969   3.277
 7271SOL    HW222713   7.017   3.841   3.278
 7272SOL     OW22714   4.649   2.735   2.786
 7272SOL    HW122715   4.697   2.823   2.782
 7272SOL    HW222716   4.553   2.749   2.763
 7273SOL     OW22717   5.553   4.433   1.339
 7273SOL    HW122718   5.566   4.487   1.256
 7273SOL    HW222719   5.642   4.397   1.370
 7274SOL     OW22720   6.970   5.044   5.787
 7274SOL    HW122721   6.948   5.019   5.693
 7274SOL    HW222722   6.962   4.963   5.846
 7275SOL     OW22723   6.790   0.291   0.149
 7275SOL    HW122724   6.734   0.370   0.122
 7275SOL    HW222725   6.841   0.314   0.232
 7276SOL     OW22726   2.384   2.157   4.144
 7276SOL    HW122727   2.427   2.205   4.068
 7276SOL    HW222728   2.286   2.178   4.144
 7277SOL     OW22729   4.824   1.534   4.540
 7277SOL    HW122730   4.817   1.592   4.621
 7277SOL    HW222731   4.875   1.583   4.469
 7278SOL     OW22732   3.364   1.423   3.708
 7278SOL    HW122733   3.430   1.497   3.696
 7278SOL    HW222734   3.273   1.462   3.724
 7279SOL     OW22735   4.653   4.704   0.067
 7279SOL    HW122736   4.641   4.785   0.124
 7279SOL    HW222737   4.602   4.714   7.007
 7280SOL     OW22738   5.298   2.309   5.309
 7280SOL    HW122739   5.345   2.390   5.274
 7280SOL    HW222740   5.319   2.230   5.250
 7281SOL     OW22741   3.656   6.819   2.007
 7281SOL    HW122742   3.664   6.916   1.984
 7281SOL    HW222743   3.660   6.807   2.106
 7282SOL     OW22744   6.623   5.233   1.870
 7282SOL    HW122745   6.716   5.202   1.887
 7282SOL    HW222746   6.618   5.333   1.880
 7283SOL     OW22747   3.948   5.194   2.662
 7283SOL    HW122748   3.849   5.204   2.673
 7283SOL    HW222749   3.984   5.134   2.734
 7284SOL     OW22750   6.876   1.620   3.752
 7284SOL    HW122751   6.922   1.693   3.700
 7284SOL    HW222752   6.873   1.537   3.696
 7285SOL     OW22753   4.745   2.745   2.080
 7285SOL    HW122754   4.741   2.706   2.172
 7285SOL    HW222755   4.729   2.844   2.086
 7286SOL     OW22756   0.166   0.636   0.496
 7286SOL    HW122757   0.149   0.622   0.399
 7286SOL    HW222758   0.111   0.714   0.529
 7287SOL     OW22759   1.369   2.710   4.050
 7287SOL    HW122760   1.275   2.742   4.054
 7287SOL    HW222761   1.371   2.610   4.050
 7288SOL     OW22762   2.998   1.962   3.302
 7288SOL    HW122763   2.939   2.020   3.358
 7288SOL    HW222764   3.043   2.017   3.233
 7289SOL     OW22765   6.226   2.730   1.311
 7289SOL    HW122766   6.290   2.659   1.339
 7289SOL    HW222767   6.239   2.750   1.214
 7290SOL     OW22768   3.572   1.279   4.911
 7290SOL    HW122769   3.596   1.343   4.838
 7290SOL    HW222770   3.648   1.271   4.975
 7291SOL     OW22771   4.026   0.833   0.031
 7291SOL    HW122772   4.106   0.863   7.004
 7291SOL    HW222773   3.943   0.855   7.005
 7292SOL     OW22774   2.125   6.794   3.078
 7292SOL    HW122775   2.134   6.849   3.161
 7292SOL    HW222776   2.211   6.744   3.062
 7293SOL     OW22777   1.469   0.904   5.243
 7293SOL    HW122778   1.551   0.917   5.187
 7293SOL    HW222779   1.473   0.815   5.287
 7294SOL     OW22780   2.639   5.216   1.263
 7294SOL    HW122781   2.694   5.251   1.338
 7294SOL    HW222782   2.675   5.252   1.176
 7295SOL     OW22783   6.457   5.073   2.356
 7295SOL    HW122784   6.500   5.092   2.268
 7295SOL    HW222785   6.379   5.134   2.370
 7296SOL     OW22786   4.077   4.886   1.996
 7296SOL    HW122787   4.060   4.926   2.086
 7296SOL    HW222788   4.165   4.838   1.997
 7297SOL     OW22789   3.837   6.093   1.368
 7297SOL    HW122790   3.752   6.135   1.338
 7297SOL    HW222791   3.825   5.993   1.370
 7298SOL     OW22792   4.779   5.903   6.578
 7298SOL    HW122793   4.733   5.960   6.509
 7298SOL    HW222794   4.855   5.855   6.535
 7299SOL     OW22795   1.401   2.642   0.457
 7299SOL    HW122796   1.429   2.555   0.498
 7299SOL    HW222797   1.306   2.661   0.480
 7300SOL     OW22798   0.963   5.011   1.730
 7300SOL    HW122799   1.050   4.990   1.775
 7300SOL    HW222800   0.891   5.018   1.799
 7301SOL     OW22801   5.456   6.734   5.527
 7301SOL    HW122802   5.363   6.744   5.492
 7301SOL    HW222803   5.455   6.750   5.626
 7302SOL     OW22804   5.030   2.720   5.910
 7302SOL    HW122805   4.967   2.767   5.971
 7302SOL    HW222806   5.063   2.784   5.840
 7303SOL     OW22807   2.784   1.045   1.094
 7303SOL    HW122808   2.780   1.141   1.122
 7303SOL    HW222809   2.716   1.029   1.023
 7304SOL     OW22810   2.564   5.327   2.131
 7304SOL    HW122811   2.663   5.336   2.122
 7304SOL    HW222812   2.526   5.287   2.048
 7305SOL     OW22813   5.901   2.264   0.798
 7305SOL    HW122814   5.853   2.302   0.719
 7305SOL    HW222815   5.952   2.336   0.844
 7306SOL     OW22816   2.162   1.708   1.317
 7306SOL    HW122817   2.238   1.766   1.346
 7306SOL    HW222818   2.179   1.614   1.345
 7307SOL     OW22819   1.836   6.722   1.352
 7307SOL    HW122820   1.905   6.740   1.422
 7307SOL    HW222821   1.874   6.661   1.283
 7308SOL     OW22822   4.836   1.108   2.663
 7308SOL    HW122823   4.759   1.055   2.629
 7308SOL    HW222824   4.833   1.113   2.763
 7309SOL     OW22825   2.048   5.347   3.334
 7309SOL    HW122826   2.084   5.255   3.325
 7309SOL    HW222827   1.960   5.345   3.381
 7310SOL     OW22828   1.869   3.164   0.237
 7310SOL    HW122829   1.790   3.143   0.293
 7310SOL    HW222830   1.864   3.112   0.152
 7311SOL     OW22831   6.905   6.646   6.371
 7311SOL    HW122832   6.931   6.571   6.432
 7311SOL    HW222833   6.986   6.700   6.348
 7312SOL     OW22834   0.083   2.442   5.259
 7312SOL    HW122835   0.085   2.481   5.167
 7312SOL    HW222836   0.077   2.516   5.326
 7313SOL     OW22837   2.750   0.784   2.292
 7313SOL    HW122838   2.721   0.707   2.348
 7313SOL    HW222839   2.732   0.869   2.342
 7314SOL     OW22840   0.624   4.485   6.971
 7314SOL    HW122841   0.620   4.555   0.017
 7314SOL    HW222842   0.674   4.406   7.006
 7315SOL     OW22843   0.882   5.028   2.378
 7315SOL    HW122844   0.867   4.930   2.363
 7315SOL    HW222845   0.960   5.059   2.324
 7316SOL     OW22846   3.674   2.166   0.396
 7316SOL    HW122847   3.746   2.133   0.457
 7316SOL    HW222848   3.593   2.191   0.449
 7317SOL     OW22849   3.666   1.619   1.878
 7317SOL    HW122850   3.634   1.703   1.922
 7317SOL    HW222851   3.661   1.543   1.943
 7318SOL     OW22852   3.638   0.280   1.002
 7318SOL    HW122853   3.570   0.304   1.071
 7318SOL    HW222854   3.649   0.181   0.998
 7319SOL     OW22855   6.837   4.910   0.335
 7319SOL    HW122856   6.853   4.893   0.432
 7319SOL    HW222857   6.898   4.854   0.280
 7320SOL     OW22858   6.970   3.049   1.048
 7320SOL    HW122859   0.016   2.983   1.068
 7320SOL    HW222860   7.011   3.135   1.018
 7321SOL     OW22861   2.144   6.206   0.041
 7321SOL    HW122862   2.058   6.156   0.032
 7321SOL    HW222863   2.137   6.271   0.117
 7322SOL     OW22864   0.483   2.584   2.368
 7322SOL    HW122865   0.508   2.514   2.302
 7322SOL    HW222866   0.474   2.673   2.322
 7323SOL     OW22867   1.190   1.657   1.489
 7323SOL    HW122868   1.241   1.575   1.464
 7323SOL    HW222869   1.117   1.633   1.554
 7324SOL     OW22870   5.736   4.478   2.890
 7324SOL    HW122871   5.704   4.528   2.970
 7324SOL    HW222872   5.819   4.521   2.855
 7325SOL     OW22873   4.339   0.913   6.451
 7325SOL    HW122874   4.375   0.847   6.384
 7325SOL    HW222875   4.336   1.004   6.410
 7326SOL     OW22876   2.436   0.569   0.456
 7326SOL    HW122877   2.437   0.488   0.397
 7326SOL    HW222878   2.358   0.627   0.432
 7327SOL     OW22879   6.421   3.900   3.123
 7327SOL    HW122880   6.341   3.939   3.168
 7327SOL    HW222881   6.429   3.938   3.030
 7328SOL     OW22882   4.290   4.787   4.964
 7328SOL    HW122883   4.344   4.703   4.970
 7328SOL    HW222884   4.228   4.792   5.043
 7329SOL     OW22885   2.745   3.281   0.573
 7329SOL    HW122886   2.660   3.231   0.592
 7329SOL    HW222887   2.724   3.364   0.521
 7330SOL     OW22888   3.652   2.795   1.079
 7330SOL    HW122889   3.733   2.796   1.137
 7330SOL    HW222890   3.597   2.714   1.100
 7331SOL     OW22891   4.531   0.568   2.257
 7331SOL    HW122892   4.513   0.580   2.355
 7331SOL    HW222893   4.627   0.589   2.238
 7332SOL     OW22894   3.050   4.114   6.657
 7332SOL    HW122895   3.082   4.208   6.673
 7332SOL    HW222896   3.000   4.082   6.737
 7333SOL     OW22897   6.851   2.236   1.571
 7333SOL    HW122898   6.776   2.187   1.614
 7333SOL    HW222899   6.894   2.178   1.502
 7334SOL     OW22900   2.925   0.020   5.728
 7334SOL    HW122901   2.914   7.019   5.632
 7334SOL    HW222902   3.021   0.011   5.754
 7335SOL     OW22903   6.753   2.787   2.464
 7335SOL    HW122904   6.727   2.763   2.557
 7335SOL    HW222905   6.852   2.805   2.461
 7336SOL     OW22906   1.192   6.308   0.934
 7336SOL    HW122907   1.248   6.381   0.973
 7336SOL    HW222908   1.190   6.231   0.997
 7337SOL     OW22909   2.185   2.032   2.669
 7337SOL    HW122910   2.142   2.090   2.738
 7337SOL    HW222911   2.160   1.937   2.685
 7338SOL     OW22912   5.539   3.167   2.013
 7338SOL    HW122913   5.570   3.154   1.919
 7338SOL    HW222914   5.465   3.234   2.014
 7339SOL     OW22915   6.509   5.389   4.809
 7339SOL    HW122916   6.501   5.398   4.908
 7339SOL    HW222917   6.428   5.342   4.774
 7340SOL     OW22918   2.994   0.024   0.199
 7340SOL    HW122919   2.985   0.088   0.123
 7340SOL    HW222920   3.074   0.047   0.254
 7341SOL     OW22921   6.538   5.070   4.038
 7341SOL    HW122922   6.484   4.991   4.012
 7341SOL    HW222923   6.627   5.040   4.072
 7342SOL     OW22924   6.942   0.060   0.628
 7342SOL    HW122925   6.843   0.045   0.633
 7342SOL    HW222926   6.985   0.024   0.711
 7343SOL     OW22927   6.250   4.022   2.552
 7343SOL    HW122928   6.232   3.945   2.613
 7343SOL    HW222929   6.274   4.103   2.607
 7344SOL     OW22930   1.911   6.474   6.909
 7344SOL    HW122931   1.906   6.416   6.990
 7344SOL    HW222932   1.957   6.424   6.835
 7345SOL     OW22933   4.311   5.530   5.917
 7345SOL    HW122934   4.217   5.559   5.904
 7345SOL    HW222935   4.349   5.574   5.999
 7346SOL     OW22936   3.813   4.635   1.653
 7346SOL    HW122937   3.746   4.589   1.711
 7346SOL    HW222938   3.855   4.569   1.591
 7347SOL     OW22939   6.070   1.525   1.986
 7347SOL    HW122940   6.059   1.610   2.039
 7347SOL    HW222941   6.145   1.471   2.025
 7348SOL     OW22942   1.536   2.076   3.885
 7348SOL    HW122943   1.486   1.996   3.852
 7348SOL    HW222944   1.550   2.068   3.984
 7349SOL     OW22945   4.039   1.621   0.593
 7349SOL    HW122946   3.962   1.575   0.637
 7349SOL    HW222947   4.013   1.647   0.500
 7350SOL     OW22948   1.137   2.212   3.094
 7350SOL    HW122949   1.156   2.122   3.132
 7350SOL    HW222950   1.095   2.202   3.003
 7351SOL     OW22951   4.523   4.742   6.844
 7351SOL    HW122952   4.498   4.827   6.891
 7351SOL    HW222953   4.537   4.761   6.747
 7352SOL     OW22954   0.802   1.801   2.263
 7352SOL    HW122955   0.761   1.891   2.251
 7352SOL    HW222956   0.750   1.750   2.332
 7353SOL     OW22957   5.787   1.754   4.641
 7353SOL    HW122958   5.881   1.730   4.665
 7353SOL    HW222959   5.753   1.824   4.704
 7354SOL     OW22960   6.422   6.190   5.648
 7354SOL    HW122961   6.465   6.100   5.642
 7354SOL    HW222962   6.395   6.220   5.557
 7355SOL     OW22963   0.813   5.644   1.948
 7355SOL    HW122964   0.852   5.735   1.937
 7355SOL    HW222965   0.823   5.615   2.044
 7356SOL     OW22966   6.355   1.987   6.453
 7356SOL    HW122967   6.335   1.891   6.471
 7356SOL    HW222968   6.447   2.008   6.486
 7357SOL     OW22969   5.711   2.298   6.675
 7357SOL    HW122970   5.711   2.387   6.631
 7357SOL    HW222971   5.775   2.237   6.628
 7358SOL     OW22972   3.059   1.614   4.252
 7358SOL    HW122973   3.003   1.538   4.283
 7358SOL    HW222974   3.061   1.686   4.321
 7359SOL     OW22975   4.028   3.130   3.127
 7359SOL    HW122976   4.023   3.031   3.132
 7359SOL    HW222977   4.053   3.167   3.217
 7360SOL     OW22978   1.106   2.426   5.258
 7360SOL    HW122979   1.180   2.361   5.274
 7360SOL    HW222980   1.036   2.384   5.200
 7361SOL     OW22981   5.257   5.865   1.814
 7361SOL    HW122982   5.324   5.929   1.776
 7361SOL    HW222983   5.171   5.874   1.763
 7362SOL     OW22984   2.233   5.689   5.531
 7362SOL    HW122985   2.206   5.762   5.469
 7362SOL    HW222986   2.273   5.728   5.614
 7363SOL     OW22987   4.919   2.878   6.941
 7363SOL    HW122988   4.928   2.780   6.922
 7363SOL    HW222989   4.948   2.896   0.010
 7364SOL     OW22990   4.260   6.299   1.194
 7364SOL    HW122991   4.288   6.373   1.254
 7364SOL    HW222992   4.184   6.330   1.136
 7365SOL     OW22993   2.476   0.045   2.316
 7365SOL    HW122994   2.484   0.145   2.313
 7365SOL    HW222995   2.525   0.006   2.238
 7366SOL     OW22996   6.974   5.250   6.840
 7366SOL    HW122997   6.954   5.293   6.928
 7366SOL    HW222998   0.018   5.179   6.852
 7367SOL     OW22999   4.935   3.885   1.925
 7367SOL    HW123000   4.992   3.939   1.863
 7367SOL    HW223001   4.962   3.789   1.921
 7368SOL     OW23002   2.878   3.659   4.773
 7368SOL    HW123003   2.805   3.604   4.812
 7368SOL    HW223004   2.874   3.752   4.810
 7369SOL     OW23005   5.010   4.036   0.859
 7369SOL    HW123006   4.968   4.079   0.778
 7369SOL    HW223007   4.957   3.955   0.885
 7370SOL     OW23008   2.270   7.000   0.799
 7370SOL    HW123009   2.337   6.987   0.873
 7370SOL    HW223010   2.309   0.034   0.729
 7371SOL     OW23011   2.973   4.890   4.132
 7371SOL    HW123012   2.990   4.989   4.129
 7371SOL    HW223013   2.964   4.855   4.039
 7372SOL     OW23014   3.513   0.294   5.759
 7372SOL    HW123015   3.502   0.356   5.837
 7372SOL    HW223016   3.559   0.343   5.685
 7373SOL     OW23017   3.351   0.470   3.005
 7373SOL    HW123018   3.392   0.423   2.926
 7373SOL    HW223019   3.378   0.566   3.005
 7374SOL     OW23020   1.544   3.135   6.226
 7374SOL    HW123021   1.611   3.209   6.225
 7374SOL    HW223022   1.590   3.048   6.211
 7375SOL     OW23023   1.469   1.034   4.328
 7375SOL    HW123024   1.453   1.123   4.370
 7375SOL    HW223025   1.556   0.997   4.361
 7376SOL     OW23026   2.788   2.838   6.978
 7376SOL    HW123027   2.697   2.865   6.946
 7376SOL    HW223028   2.781   2.753   0.004
 7377SOL     OW23029   4.905   4.569   2.006
 7377SOL    HW123030   4.947   4.540   1.920
 7377SOL    HW223031   4.868   4.489   2.054
 7378SOL     OW23032   0.465   1.401   4.852
 7378SOL    HW123033   0.512   1.490   4.852
 7378SOL    HW223034   0.378   1.410   4.803
 7379SOL     OW23035   3.733   1.531   2.398
 7379SOL    HW123036   3.664   1.586   2.351
 7379SOL    HW223037   3.818   1.531   2.346
 7380SOL     OW23038   0.183   3.125   5.838
 7380SOL    HW123039   0.143   3.170   5.918
 7380SOL    HW223040   0.150   3.169   5.755
 7381SOL     OW23041   4.298   2.192   2.142
 7381SOL    HW123042   4.199   2.201   2.125
 7381SOL    HW223043   4.321   2.095   2.150
 7382SOL     OW23044   6.976   4.727   4.393
 7382SOL    HW123045   6.998   4.820   4.364
 7382SOL    HW223046   0.033   4.682   4.427
 7383SOL     OW23047   0.177   6.259   3.007
 7383SOL    HW123048   0.268   6.239   2.971
 7383SOL    HW223049   0.122   6.304   2.937
 7384SOL     OW23050   5.109   6.764   2.060
 7384SOL    HW123051   5.104   6.665   2.073
 7384SOL    HW223052   5.201   6.790   2.032
 7385SOL     OW23053   4.756   5.921   1.782
 7385SOL    HW123054   4.836   5.893   1.835
 7385SOL    HW223055   4.713   5.841   1.741
 7386SOL     OW23056   1.006   2.524   5.612
 7386SOL    HW123057   1.104   2.518   5.595
 7386SOL    HW223058   0.959   2.448   5.568
 7387SOL     OW23059   4.254   5.048   4.075
 7387SOL    HW123060   4.309   4.968   4.097
 7387SOL    HW223061   4.289   5.092   3.993
 7388SOL     OW23062   6.454   4.669   4.345
 7388SOL    HW123063   6.500   4.756   4.327
 7388SOL    HW223064   6.366   4.686   4.389
 7389SOL     OW23065   1.728   4.256   0.058
 7389SOL    HW123066   1.693   4.168   0.088
 7389SOL    HW223067   1.780   4.245   6.998
 7390SOL     OW23068   0.553   1.187   5.993
 7390SOL    HW123069   0.592   1.111   5.941
 7390SOL    HW223070   0.505   1.249   5.931
 7391SOL     OW23071   5.914   3.851   6.051
 7391SOL    HW123072   5.845   3.799   6.000
 7391SOL    HW223073   5.998   3.798   6.059
 7392SOL     OW23074   1.569   5.139   4.682
 7392SOL    HW123075   1.642   5.125   4.749
 7392SOL    HW223076   1.608   5.182   4.600
 7393SOL     OW23077   6.615   5.361   2.348
 7393SOL    HW123078   6.599   5.452   2.386
 7393SOL    HW223079   6.643   5.369   2.253
 7394SOL     OW23080   3.858   3.724   6.452
 7394SOL    HW123081   3.899   3.634   6.440
 7394SOL    HW223082   3.925   3.795   6.430
 7395SOL     OW23083   0.565   6.949   6.746
 7395SOL    HW123084   0.557   0.003   6.807
 7395SOL    HW223085   0.510   6.964   6.664
 7396SOL     OW23086   1.171   0.743   6.165
 7396SOL    HW123087   1.232   0.667   6.141
 7396SOL    HW223088   1.225   0.826   6.179
 7397SOL     OW23089   6.974   4.486   4.601
 7397SOL    HW123090   6.888   4.498   4.650
 7397SOL    HW223091   6.957   4.493   4.503
 7398SOL     OW23092   4.778   4.565   4.219
 7398SOL    HW123093   4.741   4.612   4.299
 7398SOL    HW223094   4.878   4.557   4.228
 7399SOL     OW23095   6.010   3.931   5.631
 7399SOL    HW123096   5.930   3.960   5.683
 7399SOL    HW223097   6.081   3.900   5.695
 7400SOL     OW23098   2.959   4.510   0.258
 7400SOL    HW123099   2.997   4.480   0.170
 7400SOL    HW223100   2.967   4.609   0.266
 7401SOL     OW23101   0.161   1.743   3.942
 7401SOL    HW123102   0.197   1.650   3.939
 7401SOL    HW223103   0.169   1.785   3.851
 7402SOL     OW23104   2.249   6.868   3.711
 7402SOL    HW123105   2.217   6.786   3.664
 7402SOL    HW223106   2.322   6.844   3.774
 7403SOL     OW23107   2.132   3.478   3.413
 7403SOL    HW123108   2.173   3.457   3.501
 7403SOL    HW223109   2.118   3.577   3.405
 7404SOL     OW23110   0.968   0.468   1.208
 7404SOL    HW123111   0.898   0.406   1.174
 7404SOL    HW223112   1.010   0.516   1.131
 7405SOL     OW23113   2.852   5.270   5.078
 7405SOL    HW123114   2.854   5.205   5.153
 7405SOL    HW223115   2.758   5.302   5.064
 7406SOL     OW23116   1.630   3.807   2.206
 7406SOL    HW123117   1.540   3.809   2.248
 7406SOL    HW223118   1.694   3.759   2.266
 7407SOL     OW23119   0.998   6.243   5.097
 7407SOL    HW123120   1.091   6.269   5.072
 7407SOL    HW223121   0.942   6.325   5.108
 7408SOL     OW23122   1.789   4.452   5.762
 7408SOL    HW123123   1.857   4.525   5.767
 7408SOL    HW223124   1.721   4.474   5.692
 7409SOL     OW23125   1.240   0.838   5.038
 7409SOL    HW123126   1.215   0.745   5.010
 7409SOL    HW223127   1.301   0.833   5.117
 7410SOL     OW23128   0.298   5.016   1.168
 7410SOL    HW123129   0.293   5.111   1.136
 7410SOL    HW223130   0.227   4.962   1.124
 7411SOL     OW23131   2.770   6.341   4.957
 7411SOL    HW123132   2.762   6.395   4.873
 7411SOL    HW223133   2.683   6.342   5.006
 7412SOL     OW23134   2.084   0.805   1.003
 7412SOL    HW123135   2.162   0.760   1.047
 7412SOL    HW223136   2.112   0.840   0.914
 7413SOL     OW23137   6.106   3.535   4.559
 7413SOL    HW123138   6.161   3.452   4.573
 7413SOL    HW223139   6.158   3.615   4.589
 7414SOL     OW23140   6.366   6.472   2.107
 7414SOL    HW123141   6.311   6.390   2.093
 7414SOL    HW223142   6.458   6.457   2.070
 7415SOL     OW23143   1.982   3.325   2.901
 7415SOL    HW123144   1.886   3.324   2.872
 7415SOL    HW223145   2.041   3.311   2.821
 7416SOL     OW23146   3.591   1.026   4.401
 7416SOL    HW123147   3.588   0.962   4.324
 7416SOL    HW223148   3.497   1.051   4.427
 7417SOL     OW23149   1.230   6.890   6.698
 7417SOL    HW123150   1.201   6.979   6.662
 7417SOL    HW223151   1.329   6.890   6.712
 7418SOL     OW23152   2.585   4.249   1.380
 7418SOL    HW123153   2.593   4.332   1.434
 7418SOL    HW223154   2.671   4.198   1.384
 7419SOL     OW23155   5.442   1.821   4.881
 7419SOL    HW123156   5.478   1.739   4.836
 7419SOL    HW223157   5.503   1.898   4.862
 7420SOL     OW23158   6.363   6.156   1.790
 7420SOL    HW123159   6.347   6.142   1.887
 7420SOL    HW223160   6.348   6.253   1.767
 7421SOL     OW23161   3.799   3.939   1.618
 7421SOL    HW123162   3.787   4.033   1.650
 7421SOL    HW223163   3.895   3.912   1.628
 7422SOL     OW23164   0.512   3.311   0.885
 7422SOL    HW123165   0.469   3.379   0.945
 7422SOL    HW223166   0.440   3.261   0.836
 7423SOL     OW23167   2.012   4.908   6.229
 7423SOL    HW123168   2.010   5.006   6.249
 7423SOL    HW223169   2.080   4.889   6.159
 7424SOL     OW23170   5.552   1.153   4.552
 7424SOL    HW123171   5.630   1.198   4.595
 7424SOL    HW223172   5.499   1.219   4.500
 7425SOL     OW23173   3.650   4.743   6.393
 7425SOL    HW123174   3.674   4.677   6.322
 7425SOL    HW223175   3.615   4.694   6.473
 7426SOL     OW23176   0.532   1.754   5.951
 7426SOL    HW123177   0.487   1.801   5.876
 7426SOL    HW223178   0.472   1.684   5.988
 7427SOL     OW23179   3.135   5.954   4.771
 7427SOL    HW123180   3.161   5.955   4.868
 7427SOL    HW223181   3.217   5.947   4.714
 7428SOL     OW23182   3.671   2.279   6.140
 7428SOL    HW123183   3.660   2.241   6.048
 7428SOL    HW223184   3.588   2.329   6.165
 7429SOL     OW23185   0.062   6.981   2.366
 7429SOL    HW123186   6.996   7.023   2.371
 7429SOL    HW223187   0.056   6.884   2.391
 7430SOL     OW23188   6.677   3.513   5.205
 7430SOL    HW123189   6.722   3.601   5.191
 7430SOL    HW223190   6.702   3.477   5.295
 7431SOL     OW23191   0.551   3.410   1.941
 7431SOL    HW123192   0.586   3.498   1.975
 7431SOL    HW223193   0.584   3.394   1.848
 7432SOL     OW23194   0.676   6.815   3.876
 7432SOL    HW123195   0.692   6.869   3.793
 7432SOL    HW223196   0.629   6.730   3.851
 7433SOL     OW23197   5.886   5.368   0.648
 7433SOL    HW123198   5.896   5.409   0.738
 7433SOL    HW223199   5.810   5.303   0.649
 7434SOL     OW23200   2.780   1.837   6.721
 7434SOL    HW123201   2.782   1.896   6.802
 7434SOL    HW223202   2.872   1.831   6.682
 7435SOL     OW23203   3.239   6.224   6.198
 7435SOL    HW123204   3.227   6.191   6.104
 7435SOL    HW223205   3.336   6.219   6.222
 7436SOL     OW23206   5.371   3.332   6.802
 7436SOL    HW123207   5.429   3.286   6.869
 7436SOL    HW223208   5.282   3.286   6.798
 7437SOL     OW23209   0.206   5.232   6.180
 7437SOL    HW123210   0.290   5.182   6.159
 7437SOL    HW223211   0.140   5.171   6.223
 7438SOL     OW23212   0.474   4.307   2.002
 7438SOL    HW123213   0.407   4.233   2.009
 7438SOL    HW223214   0.563   4.276   2.035
 7439SOL     OW23215   2.219   6.936   3.994
 7439SOL    HW123216   2.155   6.875   3.948
 7439SOL    HW223217   2.313   6.903   3.980
 7440SOL     OW23218   1.382   2.668   4.595
 7440SOL    HW123219   1.470   2.621   4.594
 7440SOL    HW223220   1.319   2.618   4.654
 7441SOL     OW23221   5.742   0.977   4.058
 7441SOL    HW123222   5.661   1.016   4.102
 7441SOL    HW223223   5.803   1.051   4.029
 7442SOL     OW23224   1.040   1.794   6.445
 7442SOL    HW123225   1.074   1.885   6.418
 7442SOL    HW223226   1.055   1.782   6.543
 7443SOL     OW23227   0.630   1.545   6.388
 7443SOL    HW123228   0.613   1.460   6.337
 7443SOL    HW223229   0.672   1.523   6.476
 7444SOL     OW23230   0.054   3.324   6.010
 7444SOL    HW123231   0.060   3.392   6.083
 7444SOL    HW223232   0.071   3.368   5.922
 7445SOL     OW23233   5.333   1.562   1.522
 7445SOL    HW123234   5.420   1.587   1.566
 7445SOL    HW223235   5.352   1.505   1.442
 7446SOL     OW23236   6.511   3.631   1.070
 7446SOL    HW123237   6.562   3.699   1.123
 7446SOL    HW223238   6.571   3.588   1.004
 7447SOL     OW23239   1.671   4.318   0.619
 7447SOL    HW123240   1.609   4.291   0.546
 7447SOL    HW223241   1.732   4.390   0.586
 7448SOL     OW23242   5.400   0.314   5.349
 7448SOL    HW123243   5.487   0.265   5.343
 7448SOL    HW223244   5.334   0.258   5.400
 7449SOL     OW23245   5.064   2.097   2.350
 7449SOL    HW123246   5.066   2.096   2.450
 7449SOL    HW223247   4.985   2.044   2.318
 7450SOL     OW23248   4.358   2.376   2.928
 7450SOL    HW123249   4.458   2.371   2.922
 7450SOL    HW223250   4.321   2.415   2.844
 7451SOL     OW23251   1.600   1.274   5.112
 7451SOL    HW123252   1.617   1.311   5.021
 7451SOL    HW223253   1.605   1.174   5.110
 7452SOL     OW23254   2.141   0.185   4.973
 7452SOL    HW123255   2.155   0.118   4.900
 7452SOL    HW223256   2.054   0.232   4.959
 7453SOL     OW23257   5.886   6.810   5.080
 7453SOL    HW123258   5.811   6.760   5.037
 7453SOL    HW223259   5.901   6.896   5.031
 7454SOL     OW23260   0.932   3.631   1.832
 7454SOL    HW123261   0.932   3.730   1.840
 7454SOL    HW223262   1.007   3.593   1.887
 7455SOL     OW23263   5.091   2.289   1.080
 7455SOL    HW123264   5.117   2.383   1.057
 7455SOL    HW223265   5.049   2.245   1.001
 7456SOL     OW23266   1.465   3.189   4.562
 7456SOL    HW123267   1.428   3.257   4.499
 7456SOL    HW223268   1.415   3.102   4.551
 7457SOL     OW23269   5.544   1.224   5.074
 7457SOL    HW123270   5.486   1.294   5.034
 7457SOL    HW223271   5.624   1.267   5.116
 7458SOL     OW23272   2.984   0.239   0.007
 7458SOL    HW123273   3.052   0.310   7.013
 7458SOL    HW223274   2.893   0.273   7.007
 7459SOL     OW23275   4.946   0.095   5.789
 7459SOL    HW123276   4.916   0.179   5.744
 7459SOL    HW223277   5.004   0.043   5.726
 7460SOL     OW23278   1.431   4.489   0.810
 7460SOL    HW123279   1.436   4.390   0.819
 7460SOL    HW223280   1.336   4.519   0.817
 7461SOL     OW23281   5.332   0.877   5.539
 7461SOL    HW123282   5.291   0.832   5.459
 7461SOL    HW223283   5.297   0.835   5.622
 7462SOL     OW23284   2.123   1.865   2.109
 7462SOL    HW123285   2.031   1.853   2.073
 7462SOL    HW223286   2.118   1.910   2.198
 7463SOL     OW23287   3.941   3.432   1.615
 7463SOL    HW123288   3.841   3.439   1.617
 7463SOL    HW223289   3.978   3.457   1.704
 7464SOL     OW23290   4.348   6.077   0.812
 7464SOL    HW123291   4.268   6.026   0.779
 7464SOL    HW223292   4.404   6.104   0.734
 7465SOL     OW23293   2.127   0.135   1.564
 7465SOL    HW123294   2.206   0.194   1.583
 7465SOL    HW223295   2.129   0.056   1.625
 7466SOL     OW23296   0.277   0.319   6.566
 7466SOL    HW123297   0.230   0.398   6.605
 7466SOL    HW223298   0.209   0.251   6.537
 7467SOL     OW23299   6.858   2.322   1.004
 7467SOL    HW123300   6.901   2.355   0.921
 7467SOL    HW223301   6.796   2.246   0.982
 7468SOL     OW23302   5.611   1.742   2.979
 7468SOL    HW123303   5.705   1.708   2.989
 7468SOL    HW223304   5.559   1.679   2.921
 7469SOL     OW23305   0.991   0.362   6.633
 7469SOL    HW123306   0.915   0.302   6.604
 7469SOL    HW223307   1.055   0.373   6.557
 7470SOL     OW23308   0.271   2.043   2.463
 7470SOL    HW123309   0.362   2.001   2.463
 7470SOL    HW223310   0.269   2.119   2.398
 7471SOL     OW23311   6.444   6.709   5.290
 7471SOL    HW123312   6.485   6.680   5.203
 7471SOL    HW223313   6.438   6.808   5.292
 7472SOL     OW23314   3.968   0.112   4.465
 7472SOL    HW123315   3.880   0.155   4.482
 7472SOL    HW223316   3.954   0.016   4.440
 7473SOL     OW23317   6.657   3.581   4.180
 7473SOL    HW123318   6.662   3.678   4.156
 7473SOL    HW223319   6.748   3.541   4.176
 7474SOL     OW23320   3.280   0.681   4.046
 7474SOL    HW123321   3.353   0.692   3.979
 7474SOL    HW223322   3.315   0.630   4.125
 7475SOL     OW23323   3.988   0.620   1.655
 7475SOL    HW123324   3.912   0.589   1.713
 7475SOL    HW223325   3.995   0.560   1.575
 7476SOL     OW23326   4.438   5.808   4.434
 7476SOL    HW123327   4.390   5.857   4.362
 7476SOL    HW223328   4.390   5.820   4.521
 7477SOL     OW23329   4.086   0.929   3.902
 7477SOL    HW123330   4.105   0.843   3.854
 7477SOL    HW223331   4.171   0.966   3.939
 7478SOL     OW23332   2.873   3.778   6.390
 7478SOL    HW123333   2.786   3.781   6.438
 7478SOL    HW223334   2.948   3.788   6.455
 7479SOL     OW23335   4.625   0.843   0.345
 7479SOL    HW123336   4.584   0.930   0.371
 7479SOL    HW223337   4.557   0.788   0.296
 7480SOL     OW23338   5.462   5.801   1.606
 7480SOL    HW123339   5.455   5.870   1.678
 7480SOL    HW223340   5.436   5.840   1.518
 7481SOL     OW23341   5.616   4.894   0.656
 7481SOL    HW123342   5.677   4.864   0.730
 7481SOL    HW223343   5.636   4.840   0.573
 7482SOL     OW23344   4.628   0.948   2.590
 7482SOL    HW123345   4.632   0.856   2.630
 7482SOL    HW223346   4.533   0.981   2.592
 7483SOL     OW23347   3.473   2.112   4.509
 7483SOL    HW123348   3.558   2.119   4.458
 7483SOL    HW223349   3.463   2.020   4.547
 7484SOL     OW23350   2.012   6.693   1.558
 7484SOL    HW123351   2.081   6.637   1.511
 7484SOL    HW223352   1.960   6.636   1.621
 7485SOL     OW23353   3.159   5.920   5.641
 7485SOL    HW123354   3.080   5.873   5.682
 7485SOL    HW223355   3.139   5.943   5.546
 7486SOL     OW23356   3.152   6.238   5.273
 7486SOL    HW123357   3.095   6.315   5.244
 7486SOL    HW223358   3.142   6.225   5.372
 7487SOL     OW23359   3.167   6.522   3.263
 7487SOL    HW123360   3.186   6.506   3.360
 7487SOL    HW223361   3.253   6.538   3.215
 7488SOL     OW23362   3.224   0.211   5.785
 7488SOL    HW123363   3.320   0.227   5.762
 7488SOL    HW223364   3.218   0.140   5.855
 7489SOL     OW23365   4.451   2.170   3.863
 7489SOL    HW123366   4.472   2.083   3.907
 7489SOL    HW223367   4.532   2.229   3.863
 7490SOL     OW23368   0.052   0.856   0.597
 7490SOL    HW123369   0.097   0.823   0.680
 7490SOL    HW223370   7.004   0.920   0.622
 7491SOL     OW23371   6.886   5.891   6.566
 7491SOL    HW123372   6.961   5.850   6.515
 7491SOL    HW223373   6.807   5.829   6.566
 7492SOL     OW23374   1.980   2.709   5.275
 7492SOL    HW123375   1.913   2.636   5.265
 7492SOL    HW223376   2.056   2.693   5.213
 7493SOL     OW23377   5.816   4.279   6.266
 7493SOL    HW123378   5.725   4.273   6.307
 7493SOL    HW223379   5.859   4.189   6.269
 7494SOL     OW23380   5.701   0.855   1.969
 7494SOL    HW123381   5.792   0.846   2.009
 7494SOL    HW223382   5.638   0.890   2.039
 7495SOL     OW23383   2.384   2.076   0.478
 7495SOL    HW123384   2.306   2.015   0.494
 7495SOL    HW223385   2.385   2.148   0.549
 7496SOL     OW23386   0.775   5.120   6.183
 7496SOL    HW123387   0.834   5.130   6.103
 7496SOL    HW223388   0.818   5.163   6.262
 7497SOL     OW23389   2.642   5.004   2.167
 7497SOL    HW123390   2.690   5.057   2.238
 7497SOL    HW223391   2.704   4.989   2.090
 7498SOL     OW23392   2.827   1.160   4.817
 7498SOL    HW123393   2.801   1.079   4.869
 7498SOL    HW223394   2.800   1.148   4.721
 7499SOL     OW23395   5.292   6.594   4.564
 7499SOL    HW123396   5.356   6.654   4.614
 7499SOL    HW223397   5.243   6.536   4.629
 7500SOL     OW23398   4.327   6.128   2.492
 7500SOL    HW123399   4.243   6.182   2.496
 7500SOL    HW223400   4.348   6.106   2.396
 7501SOL     OW23401   1.136   3.273   3.727
 7501SOL    HW123402   1.196   3.226   3.792
 7501SOL    HW223403   1.173   3.265   3.635
 7502SOL     OW23404   2.013   0.947   5.276
 7502SOL    HW123405   2.078   0.978   5.207
 7502SOL    HW223406   2.041   0.857   5.311
 7503SOL     OW23407   2.572   0.548   6.532
 7503SOL    HW123408   2.558   0.563   6.629
 7503SOL    HW223409   2.566   0.635   6.483
 7504SOL     OW23410   4.218   6.557   3.460
 7504SOL    HW123411   4.144   6.506   3.415
 7504SOL    HW223412   4.245   6.508   3.543
 7505SOL     OW23413   2.165   0.935   5.614
 7505SOL    HW123414   2.096   0.894   5.553
 7505SOL    HW223415   2.124   0.952   5.703
 7506SOL     OW23416   3.477   0.785   2.688
 7506SOL    HW123417   3.437   0.784   2.596
 7506SOL    HW223418   3.571   0.752   2.683
 7507SOL     OW23419   0.158   5.897   6.364
 7507SOL    HW123420   0.144   5.812   6.415
 7507SOL    HW223421   0.077   5.918   6.310
 7508SOL     OW23422   5.755   6.474   3.467
 7508SOL    HW123423   5.757   6.522   3.554
 7508SOL    HW223424   5.710   6.531   3.398
 7509SOL     OW23425   5.178   4.281   6.498
 7509SOL    HW123426   5.240   4.205   6.475
 7509SOL    HW223427   5.222   4.367   6.474
 7510SOL     OW23428   3.057   4.018   4.779
 7510SOL    HW123429   3.047   3.995   4.682
 7510SOL    HW223430   3.117   4.098   4.788
 7511SOL     OW23431   1.880   0.265   2.475
 7511SOL    HW123432   1.961   0.313   2.443
 7511SOL    HW223433   1.802   0.289   2.417
 7512SOL     OW23434   2.479   2.868   1.553
 7512SOL    HW123435   2.449   2.948   1.501
 7512SOL    HW223436   2.555   2.894   1.612
 7513SOL     OW23437   0.949   2.551   5.918
 7513SOL    HW123438   0.860   2.595   5.919
 7513SOL    HW223439   0.978   2.535   5.823
 7514SOL     OW23440   2.822   6.003   1.773
 7514SOL    HW123441   2.870   5.977   1.858
 7514SOL    HW223442   2.779   6.092   1.786
 7515SOL     OW23443   0.591   7.022   2.858
 7515SOL    HW123444   0.649   0.077   2.866
 7515SOL    HW223445   0.513   0.018   2.798
 7516SOL     OW23446   6.804   6.956   4.243
 7516SOL    HW123447   6.760   6.921   4.326
 7516SOL    HW223448   6.878   6.895   4.216
 7517SOL     OW23449   0.185   3.868   1.299
 7517SOL    HW123450   0.160   3.779   1.263
 7517SOL    HW223451   0.129   3.939   1.257
 7518SOL     OW23452   4.269   5.667   3.341
 7518SOL    HW123453   4.265   5.605   3.262
 7518SOL    HW223454   4.177   5.678   3.379
 7519SOL     OW23455   1.360   6.981   5.095
 7519SOL    HW123456   1.450   7.007   5.060
 7519SOL    HW223457   1.291   0.018   5.059
 7520SOL     OW23458   1.642   6.786   2.756
 7520SOL    HW123459   1.680   6.745   2.673
 7520SOL    HW223460   1.586   6.865   2.731
 7521SOL     OW23461   4.496   4.424   5.279
 7521SOL    HW123462   4.485   4.429   5.378
 7521SOL    HW223463   4.406   4.430   5.236
 7522SOL     OW23464   2.334   1.095   0.012
 7522SOL    HW123465   2.303   1.044   0.093
 7522SOL    HW223466   2.410   1.154   0.037
 7523SOL     OW23467   5.534   0.264   5.670
 7523SOL    HW123468   5.485   0.183   5.703
 7523SOL    HW223469   5.546   0.330   5.744
 7524SOL     OW23470   0.129   1.493   5.780
 7524SOL    HW123471   0.145   1.591   5.785
 7524SOL    HW223472   0.062   1.466   5.850
 7525SOL     OW23473   2.158   0.307   0.373
 7525SOL    HW123474   2.200   0.217   0.366
 7525SOL    HW223475   2.059   0.298   0.369
 7526SOL     OW23476   3.455   3.143   4.857
 7526SOL    HW123477   3.395   3.075   4.900
 7526SOL    HW223478   3.401   3.225   4.834
 7527SOL     OW23479   5.198   3.994   2.890
 7527SOL    HW123480   5.137   4.061   2.849
 7527SOL    HW223481   5.201   4.007   2.989
 7528SOL     OW23482   4.775   3.006   0.855
 7528SOL    HW123483   4.847   2.969   0.913
 7528SOL    HW223484   4.774   2.957   0.767
 7529SOL     OW23485   4.353   1.089   3.942
 7529SOL    HW123486   4.340   1.170   3.999
 7529SOL    HW223487   4.424   1.031   3.983
 7530SOL     OW23488   7.013   3.685   2.293
 7530SOL    HW123489   0.063   3.716   2.234
 7530SOL    HW223490   6.975   3.599   2.256
 7531SOL     OW23491   4.010   1.958   3.526
 7531SOL    HW123492   3.956   2.040   3.505
 7531SOL    HW223493   4.029   1.955   3.625
 7532SOL     OW23494   5.472   6.123   2.187
 7532SOL    HW123495   5.379   6.094   2.207
 7532SOL    HW223496   5.532   6.096   2.262
 7533SOL     OW23497   2.892   1.214   4.196
 7533SOL    HW123498   2.834   1.157   4.137
 7533SOL    HW223499   2.987   1.187   4.185
 7534SOL     OW23500   3.964   6.358   5.674
 7534SOL    HW123501   3.976   6.350   5.575
 7534SOL    HW223502   3.875   6.323   5.700
 7535SOL     OW23503   2.923   2.194   5.425
 7535SOL    HW123504   2.987   2.118   5.430
 7535SOL    HW223505   2.903   2.215   5.330
 7536SOL     OW23506   4.647   5.353   4.841
 7536SOL    HW123507   4.661   5.254   4.835
 7536SOL    HW223508   4.735   5.399   4.847
 7537SOL     OW23509   1.984   4.273   4.693
 7537SOL    HW123510   2.065   4.247   4.640
 7537SOL    HW223511   1.933   4.343   4.643
 7538SOL     OW23512   3.165   2.988   3.083
 7538SOL    HW123513   3.159   2.918   3.154
 7538SOL    HW223514   3.130   3.074   3.120
 7539SOL     OW23515   1.753   3.119   5.142
 7539SOL    HW123516   1.662   3.154   5.163
 7539SOL    HW223517   1.811   3.195   5.111
 7540SOL     OW23518   2.498   0.808   6.818
 7540SOL    HW123519   2.582   0.841   6.774
 7540SOL    HW223520   2.420   0.864   6.788
 7541SOL     OW23521   6.315   2.842   5.481
 7541SOL    HW123522   6.403   2.816   5.443
 7541SOL    HW223523   6.314   2.825   5.580
 7542SOL     OW23524   1.261   0.005   5.915
 7542SOL    HW123525   1.335   6.971   5.948
 7542SOL    HW223526   1.299   0.084   5.867
 7543SOL     OW23527   4.193   2.788   0.569
 7543SOL    HW123528   4.124   2.836   0.622
 7543SOL    HW223529   4.248   2.731   0.629
 7544SOL     OW23530   1.327   2.037   2.814
 7544SOL    HW123531   1.381   2.018   2.896
 7544SOL    HW223532   1.250   2.095   2.837
 7545SOL     OW23533   4.738   6.881   2.608
 7545SOL    HW123534   4.771   6.793   2.574
 7545SOL    HW223535   4.724   6.875   2.707
 7546SOL     OW23536   5.287   0.951   0.272
 7546SOL    HW123537   5.199   0.904   0.273
 7546SOL    HW223538   5.297   1.006   0.356
 7547SOL     OW23539   3.934   0.565   0.124
 7547SOL    HW123540   3.980   0.650   0.098
 7547SOL    HW223541   3.988   0.487   0.092
 7548SOL     OW23542   2.346   1.948   1.183
 7548SOL    HW123543   2.380   1.900   1.102
 7548SOL    HW223544   2.355   1.889   1.263
 7549SOL     OW23545   5.423   1.450   2.616
 7549SOL    HW123546   5.509   1.497   2.594
 7549SOL    HW223547   5.362   1.453   2.536
 7550SOL     OW23548   1.533   5.524   2.494
 7550SOL    HW123549   1.464   5.557   2.558
 7550SOL    HW223550   1.505   5.435   2.458
 7551SOL     OW23551   4.576   3.373   6.903
 7551SOL    HW123552   4.564   3.274   6.901
 7551SOL    HW223553   4.575   3.405   6.997
 7552SOL     OW23554   2.347   5.727   4.343
 7552SOL    HW123555   2.321   5.792   4.415
 7552SOL    HW223556   2.407   5.773   4.277
 7553SOL     OW23557   4.016   4.743   5.696
 7553SOL    HW123558   4.013   4.815   5.766
 7553SOL    HW223559   3.979   4.658   5.734
 7554SOL     OW23560   5.106   1.536   1.025
 7554SOL    HW123561   5.026   1.508   0.971
 7554SOL    HW223562   5.079   1.606   1.092
 7555SOL     OW23563   0.605   5.318   5.637
 7555SOL    HW123564   0.552   5.272   5.565
 7555SOL    HW223565   0.547   5.331   5.717
 7556SOL     OW23566   0.996   3.031   4.897
 7556SOL    HW123567   0.984   3.121   4.939
 7556SOL    HW223568   1.092   3.021   4.869
 7557SOL     OW23569   5.031   4.332   6.031
 7557SOL    HW123570   4.983   4.361   6.114
 7557SOL    HW223571   4.983   4.368   5.951
 7558SOL     OW23572   2.026   2.509   4.137
 7558SOL    HW123573   1.951   2.523   4.203
 7558SOL    HW223574   2.113   2.501   4.187
 7559SOL     OW23575   6.182   5.188   1.067
 7559SOL    HW123576   6.254   5.119   1.074
 7559SOL    HW223577   6.169   5.232   1.156
 7560SOL     OW23578   4.967   6.909   1.033
 7560SOL    HW123579   4.937   6.938   1.123
 7560SOL    HW223580   4.939   6.976   0.964
 7561SOL     OW23581   0.751   3.414   0.828
 7561SOL    HW123582   0.801   3.431   0.913
 7561SOL    HW223583   0.665   3.368   0.849
 7562SOL     OW23584   5.686   6.667   4.869
 7562SOL    HW123585   5.706   6.748   4.815
 7562SOL    HW223586   5.597   6.677   4.913
 7563SOL     OW23587   2.673   0.578   1.792
 7563SOL    HW123588   2.699   0.605   1.884
 7563SOL    HW223589   2.715   0.490   1.770
 7564SOL     OW23590   5.550   6.640   3.193
 7564SOL    HW123591   5.540   6.739   3.202
 7564SOL    HW223592   5.554   6.616   3.096
 7565SOL     OW23593   5.191   5.326   6.438
 7565SOL    HW123594   5.201   5.369   6.527
 7565SOL    HW223595   5.149   5.391   6.374
 7566SOL     OW23596   0.196   5.127   4.083
 7566SOL    HW123597   0.292   5.101   4.099
 7566SOL    HW223598   0.192   5.189   4.005
 7567SOL     OW23599   2.572   4.208   5.989
 7567SOL    HW123600   2.671   4.199   6.004
 7567SOL    HW223601   2.555   4.247   5.898
 7568SOL     OW23602   5.676   5.784   3.692
 7568SOL    HW123603   5.607   5.712   3.683
 7568SOL    HW223604   5.643   5.867   3.647
 7569SOL     OW23605   4.100   5.933   6.749
 7569SOL    HW123606   4.063   5.901   6.836
 7569SOL    HW223607   4.097   5.858   6.683
 7570SOL     OW23608   5.739   4.451   4.657
 7570SOL    HW123609   5.714   4.403   4.573
 7570SOL    HW223610   5.792   4.533   4.634
 7571SOL     OW23611   5.534   3.749   2.112
 7571SOL    HW123612   5.466   3.797   2.058
 7571SOL    HW223613   5.525   3.775   2.209
 7572SOL     OW23614   4.854   0.537   3.862
 7572SOL    HW123615   4.795   0.611   3.830
 7572SOL    HW223616   4.840   0.523   3.960
 7573SOL     OW23617   0.128   5.841   4.723
 7573SOL    HW123618   0.079   5.839   4.636
 7573SOL    HW223619   0.117   5.753   4.770
 7574SOL     OW23620   6.391   0.947   3.486
 7574SOL    HW123621   6.351   0.957   3.577
 7574SOL    HW223622   6.397   0.850   3.462
 7575SOL     OW23623   4.293   1.187   5.840
 7575SOL    HW123624   4.345   1.149   5.763
 7575SOL    HW223625   4.230   1.257   5.805
 7576SOL     OW23626   5.873   4.969   0.294
 7576SOL    HW123627   5.808   5.044   0.280
 7576SOL    HW223628   5.940   4.996   0.362
 7577SOL     OW23629   6.364   0.837   4.554
 7577SOL    HW123630   6.357   0.751   4.604
 7577SOL    HW223631   6.460   0.856   4.533
 7578SOL     OW23632   2.178   6.402   4.379
 7578SOL    HW123633   2.130   6.373   4.296
 7578SOL    HW223634   2.113   6.410   4.454
 7579SOL     OW23635   4.166   2.131   2.406
 7579SOL    HW123636   4.076   2.146   2.447
 7579SOL    HW223637   4.168   2.168   2.313
 7580SOL     OW23638   1.402   3.624   3.017
 7580SOL    HW123639   1.313   3.600   3.055
 7580SOL    HW223640   1.453   3.677   3.085
 7581SOL     OW23641   5.299   1.567   0.665
 7581SOL    HW123642   5.295   1.648   0.606
 7581SOL    HW223643   5.353   1.587   0.747
 7582SOL     OW23644   3.859   1.758   0.290
 7582SOL    HW123645   3.813   1.684   0.241
 7582SOL    HW223646   3.792   1.811   0.341
 7583SOL     OW23647   5.996   3.958   1.881
 7583SOL    HW123648   5.960   3.866   1.888
 7583SOL    HW223649   6.000   3.985   1.784
 7584SOL     OW23650   2.953   6.755   1.141
 7584SOL    HW123651   3.051   6.771   1.156
 7584SOL    HW223652   2.900   6.817   1.198
 7585SOL     OW23653   1.651   4.049   6.633
 7585SOL    HW123654   1.698   3.995   6.563
 7585SOL    HW223655   1.603   3.987   6.696
 7586SOL     OW23656   2.827   0.128   2.521
 7586SOL    HW123657   2.885   0.067   2.575
 7586SOL    HW223658   2.732   0.100   2.529
 7587SOL     OW23659   2.041   1.881   6.989
 7587SOL    HW123660   2.000   1.832   0.041
 7587SOL    HW223661   2.117   1.827   6.952
 7588SOL     OW23662   0.553   5.290   2.025
 7588SOL    HW123663   0.530   5.360   2.093
 7588SOL    HW223664   0.604   5.216   2.069
 7589SOL     OW23665   6.056   5.942   0.215
 7589SOL    HW123666   5.987   5.874   0.190
 7589SOL    HW223667   6.035   6.029   0.170
 7590SOL     OW23668   2.855   1.758   5.399
 7590SOL    HW123669   2.812   1.779   5.311
 7590SOL    HW223670   2.921   1.830   5.421
 7591SOL     OW23671   0.303   4.844   0.596
 7591SOL    HW123672   0.207   4.865   0.615
 7591SOL    HW223673   0.324   4.865   0.501
 7592SOL     OW23674   6.493   4.968   0.120
 7592SOL    HW123675   6.421   5.026   0.082
 7592SOL    HW223676   6.580   5.018   0.118
 7593SOL     OW23677   5.633   2.665   7.019
 7593SOL    HW123678   5.637   2.669   0.094
 7593SOL    HW223679   5.537   2.663   6.990
 7594SOL     OW23680   0.718   5.057   3.046
 7594SOL    HW123681   0.786   5.129   3.029
 7594SOL    HW223682   0.677   5.071   3.136
 7595SOL     OW23683   0.271   3.723   6.306
 7595SOL    HW123684   0.333   3.780   6.360
 7595SOL    HW223685   0.324   3.654   6.256
 7596SOL     OW23686   5.230   4.725   2.788
 7596SOL    HW123687   5.166   4.649   2.783
 7596SOL    HW223688   5.324   4.690   2.787
 7597SOL     OW23689   3.259   5.558   2.231
 7597SOL    HW123690   3.222   5.577   2.140
 7597SOL    HW223691   3.188   5.518   2.288
 7598SOL     OW23692   6.829   0.398   2.686
 7598SOL    HW123693   6.872   0.337   2.753
 7598SOL    HW223694   6.792   0.478   2.732
 7599SOL     OW23695   5.928   1.385   3.113
 7599SOL    HW123696   5.916   1.390   3.212
 7599SOL    HW223697   6.018   1.420   3.088
 7600SOL     OW23698   1.747   0.074   2.259
 7600SOL    HW123699   1.721   0.134   2.335
 7600SOL    HW223700   1.821   0.015   2.288
 7601SOL     OW23701   2.256   5.800   3.513
 7601SOL    HW123702   2.316   5.877   3.537
 7601SOL    HW223703   2.183   5.832   3.454
 7602SOL     OW23704   2.253   4.430   4.794
 7602SOL    HW123705   2.313   4.389   4.725
 7602SOL    HW223706   2.290   4.518   4.823
 7603SOL     OW23707   1.194   6.088   6.928
 7603SOL    HW123708   1.159   6.013   6.983
 7603SOL    HW223709   1.119   6.134   6.881
 7604SOL     OW23710   3.623   5.936   4.084
 7604SOL    HW123711   3.680   5.892   4.014
 7604SOL    HW223712   3.543   5.977   4.040
 7605SOL     OW23713   1.722   5.229   0.152
 7605SOL    HW123714   1.707   5.229   0.251
 7605SOL    HW223715   1.817   5.252   0.132
 7606SOL     OW23716   0.377   2.814   2.244
 7606SOL    HW123717   0.376   2.865   2.158
 7606SOL    HW223718   0.386   2.878   2.321
 7607SOL     OW23719   4.760   6.715   0.486
 7607SOL    HW123720   4.829   6.646   0.511
 7607SOL    HW223721   4.779   6.799   0.536
 7608SOL     OW23722   2.970   3.803   2.994
 7608SOL    HW123723   3.023   3.883   3.023
 7608SOL    HW223724   3.028   3.743   2.939
 7609SOL     OW23725   6.858   3.666   3.585
 7609SOL    HW123726   6.830   3.694   3.677
 7609SOL    HW223727   6.956   3.649   3.584
 7610SOL     OW23728   6.006   0.667   1.228
 7610SOL    HW123729   5.925   0.680   1.171
 7610SOL    HW223730   6.077   0.733   1.202
 7611SOL     OW23731   1.391   1.839   6.885
 7611SOL    HW123732   1.406   1.933   6.853
 7611SOL    HW223733   1.471   1.808   6.937
 7612SOL     OW23734   3.723   1.276   4.278
 7612SOL    HW123735   3.679   1.203   4.331
 7612SOL    HW223736   3.691   1.271   4.183
 7613SOL     OW23737   4.873   1.526   1.563
 7613SOL    HW123738   4.811   1.503   1.489
 7613SOL    HW223739   4.848   1.476   1.646
 7614SOL     OW23740   3.958   2.213   1.865
 7614SOL    HW123741   3.988   2.285   1.802
 7614SOL    HW223742   3.861   2.227   1.887
 7615SOL     OW23743   4.679   5.111   6.445
 7615SOL    HW123744   4.664   5.191   6.502
 7615SOL    HW223745   4.636   5.124   6.356
 7616SOL     OW23746   0.759   4.335   4.640
 7616SOL    HW123747   0.858   4.319   4.643
 7616SOL    HW223748   0.712   4.247   4.629
 7617SOL     OW23749   2.958   5.962   3.611
 7617SOL    HW123750   3.037   6.007   3.568
 7617SOL    HW223751   2.983   5.870   3.641
 7618SOL     OW23752   1.423   2.245   6.253
 7618SOL    HW123753   1.503   2.264   6.195
 7618SOL    HW223754   1.451   2.195   6.334
 7619SOL     OW23755   5.673   3.238   5.723
 7619SOL    HW123756   5.578   3.214   5.705
 7619SOL    HW223757   5.691   3.230   5.821
 7620SOL     OW23758   3.699   0.464   0.799
 7620SOL    HW123759   3.602   0.481   0.779
 7620SOL    HW223760   3.707   0.378   0.850
 7621SOL     OW23761   1.031   0.563   0.258
 7621SOL    HW123762   1.032   0.463   0.252
 7621SOL    HW223763   0.963   0.599   0.194
 7622SOL     OW23764   5.002   2.717   1.711
 7622SOL    HW123765   4.964   2.809   1.723
 7622SOL    HW223766   5.065   2.717   1.633
 7623SOL     OW23767   4.312   5.851   6.456
 7623SOL    HW123768   4.397   5.799   6.465
 7623SOL    HW223769   4.241   5.808   6.512
 7624SOL     OW23770   0.261   2.351   3.524
 7624SOL    HW123771   0.355   2.383   3.529
 7624SOL    HW223772   0.238   2.330   3.428
 7625SOL     OW23773   5.694   1.414   0.612
 7625SOL    HW123774   5.778   1.361   0.596
 7625SOL    HW223775   5.659   1.395   0.703
 7626SOL     OW23776   0.112   6.823   5.261
 7626SOL    HW123777   0.071   6.748   5.209
 7626SOL    HW223778   0.132   6.792   5.354
 7627SOL     OW23779   6.393   3.367   0.759
 7627SOL    HW123780   6.482   3.325   0.740
 7627SOL    HW223781   6.406   3.463   0.784
 7628SOL     OW23782   2.804   0.714   1.585
 7628SOL    HW123783   2.756   0.791   1.543
 7628SOL    HW223784   2.764   0.692   1.673
 7629SOL     OW23785   6.432   6.038   2.036
 7629SOL    HW123786   6.388   5.991   2.112
 7629SOL    HW223787   6.522   5.997   2.019
 7630SOL     OW23788   6.341   6.609   2.339
 7630SOL    HW123789   6.379   6.541   2.402
 7630SOL    HW223790   6.357   6.580   2.245
 7631SOL     OW23791   1.144   2.034   5.164
 7631SOL    HW123792   1.148   2.053   5.066
 7631SOL    HW223793   1.173   2.115   5.215
 7632SOL     OW23794   4.230   1.916   1.176
 7632SOL    HW123795   4.194   1.929   1.268
 7632SOL    HW223796   4.214   1.998   1.122
 7633SOL     OW23797   5.412   3.328   0.107
 7633SOL    HW123798   5.427   3.229   0.101
 7633SOL    HW223799   5.483   3.370   0.163
 7634SOL     OW23800   1.365   1.052   2.468
 7634SOL    HW123801   1.425   0.972   2.459
 7634SOL    HW223802   1.270   1.025   2.451
 7635SOL     OW23803   2.650   5.454   5.433
 7635SOL    HW123804   2.589   5.384   5.397
 7635SOL    HW223805   2.727   5.411   5.479
 7636SOL     OW23806   1.522   1.584   4.000
 7636SOL    HW123807   1.467   1.594   3.917
 7636SOL    HW223808   1.559   1.491   4.006
 7637SOL     OW23809   1.582   6.688   3.984
 7637SOL    HW123810   1.571   6.786   4.003
 7637SOL    HW223811   1.566   6.671   3.887
 7638SOL     OW23812   5.768   5.721   1.516
 7638SOL    HW123813   5.766   5.746   1.612
 7638SOL    HW223814   5.674   5.713   1.481
 7639SOL     OW23815   0.714   2.091   6.532
 7639SOL    HW123816   0.800   2.085   6.482
 7639SOL    HW223817   0.638   2.100   6.467
 7640SOL     OW23818   2.504   2.456   0.698
 7640SOL    HW123819   2.474   2.363   0.721
 7640SOL    HW223820   2.492   2.515   0.777
 7641SOL     OW23821   0.596   4.639   1.803
 7641SOL    HW123822   0.548   4.601   1.882
 7641SOL    HW223823   0.610   4.737   1.817
 7642SOL     OW23824   2.793   1.840   2.553
 7642SOL    HW123825   2.741   1.910   2.601
 7642SOL    HW223826   2.886   1.836   2.589
 7643SOL     OW23827   4.494   2.393   3.394
 7643SOL    HW123828   4.501   2.478   3.446
 7643SOL    HW223829   4.498   2.316   3.458
 7644SOL     OW23830   6.414   2.248   2.555
 7644SOL    HW123831   6.352   2.211   2.623
 7644SOL    HW223832   6.378   2.229   2.463
 7645SOL     OW23833   4.672   5.365   6.551
 7645SOL    HW123834   4.772   5.366   6.544
 7645SOL    HW223835   4.646   5.385   6.646
 7646SOL     OW23836   1.604   2.195   2.194
 7646SOL    HW123837   1.504   2.195   2.190
 7646SOL    HW223838   1.636   2.281   2.233
 7647SOL     OW23839   1.217   3.248   1.667
 7647SOL    HW123840   1.122   3.229   1.645
 7647SOL    HW223841   1.233   3.347   1.664
 7648SOL     OW23842   4.367   1.734   3.464
 7648SOL    HW123843   4.268   1.721   3.454
 7648SOL    HW223844   4.385   1.794   3.541
 7649SOL     OW23845   0.525   0.499   2.202
 7649SOL    HW123846   0.577   0.465   2.281
 7649SOL    HW223847   0.473   0.424   2.162
 7650SOL     OW23848   6.261   2.907   2.001
 7650SOL    HW123849   6.296   2.966   1.928
 7650SOL    HW223850   6.336   2.860   2.046
 7651SOL     OW23851   2.471   0.275   6.982
 7651SOL    HW123852   2.475   0.207   6.908
 7651SOL    HW223853   2.388   0.260   0.010
 7652SOL     OW23854   5.940   3.396   4.162
 7652SOL    HW123855   5.953   3.342   4.245
 7652SOL    HW223856   5.950   3.493   4.184
 7653SOL     OW23857   2.150   0.999   0.795
 7653SOL    HW123858   2.057   1.004   0.759
 7653SOL    HW223859   2.198   1.085   0.775
 7654SOL     OW23860   4.768   2.275   3.302
 7654SOL    HW123861   4.676   2.287   3.339
 7654SOL    HW223862   4.762   2.252   3.205
 7655SOL     OW23863   4.297   0.220   4.131
 7655SOL    HW123864   4.212   0.258   4.166
 7655SOL    HW223865   4.303   0.235   4.033
 7656SOL     OW23866   0.448   5.632   5.857
 7656SOL    HW123867   0.546   5.623   5.871
 7656SOL    HW223868   0.402   5.645   5.945
 7657SOL     OW23869   3.167   2.076   3.104
 7657SOL    HW123870   3.167   2.105   3.009
 7657SOL    HW223871   3.187   1.978   3.109
 7658SOL     OW23872   4.525   0.549   6.364
 7658SOL    HW123873   4.587   0.560   6.287
 7658SOL    HW223874   4.455   0.621   6.361
 7659SOL     OW23875   5.813   6.886   0.818
 7659SOL    HW123876   5.861   6.959   0.768
 7659SOL    HW223877   5.802   6.913   0.913
 7660SOL     OW23878   5.545   6.061   3.883
 7660SOL    HW123879   5.590   6.020   3.804
 7660SOL    HW223880   5.552   6.161   3.877
 7661SOL     OW23881   6.043   2.070   4.490
 7661SOL    HW123882   5.991   1.990   4.521
 7661SOL    HW223883   6.140   2.057   4.508
 7662SOL     OW23884   1.506   2.576   1.961
 7662SOL    HW123885   1.602   2.603   1.952
 7662SOL    HW223886   1.500   2.476   1.965
 7663SOL     OW23887   6.938   5.443   6.647
 7663SOL    HW123888   6.844   5.474   6.639
 7663SOL    HW223889   6.944   5.370   6.715
 7664SOL     OW23890   3.087   6.281   2.452
 7664SOL    HW123891   3.110   6.299   2.547
 7664SOL    HW223892   3.020   6.206   2.447
 7665SOL     OW23893   3.208   0.003   3.688
 7665SOL    HW123894   3.190   0.069   3.615
 7665SOL    HW223895   3.174   6.939   3.661
 7666SOL     OW23896   0.323   6.811   1.442
 7666SOL    HW123897   0.283   6.900   1.464
 7666SOL    HW223898   0.384   6.820   1.363
 7667SOL     OW23899   4.977   6.049   6.903
 7667SOL    HW123900   4.955   6.135   6.950
 7667SOL    HW223901   5.059   6.009   6.944
 7668SOL     OW23902   3.195   4.042   1.420
 7668SOL    HW123903   3.138   4.044   1.338
 7668SOL    HW223904   3.273   3.982   1.406
 7669SOL     OW23905   5.450   0.949   4.699
 7669SOL    HW123906   5.404   0.897   4.627
 7669SOL    HW223907   5.473   1.040   4.664
 7670SOL     OW23908   1.392   5.621   6.601
 7670SOL    HW123909   1.404   5.533   6.647
 7670SOL    HW223910   1.344   5.608   6.515
 7671SOL     OW23911   4.743   1.228   4.094
 7671SOL    HW123912   4.807   1.195   4.025
 7671SOL    HW223913   4.793   1.274   4.167
 7672SOL     OW23914   6.208   0.144   3.717
 7672SOL    HW123915   6.287   0.186   3.763
 7672SOL    HW223916   6.219   0.153   3.618
 7673SOL     OW23917   1.541   4.944   0.804
 7673SOL    HW123918   1.632   4.965   0.840
 7673SOL    HW223919   1.543   4.853   0.762
 7674SOL     OW23920   6.691   1.935   4.712
 7674SOL    HW123921   6.642   1.995   4.775
 7674SOL    HW223922   6.660   1.951   4.619
 7675SOL     OW23923   5.117   0.685   2.077
 7675SOL    HW123924   5.029   0.693   2.031
 7675SOL    HW223925   5.105   0.635   2.163
 7676SOL     OW23926   0.804   1.812   6.594
 7676SOL    HW123927   0.862   1.815   6.512
 7676SOL    HW223928   0.709   1.823   6.567
 7677SOL     OW23929   1.764   2.926   1.903
 7677SOL    HW123930   1.782   2.829   1.922
 7677SOL    HW223931   1.786   2.945   1.807
 7678SOL     OW23932   1.371   0.871   6.400
 7678SOL    HW123933   1.368   0.933   6.322
 7678SOL    HW223934   1.380   0.924   6.485
 7679SOL     OW23935   1.095   5.392   5.101
 7679SOL    HW123936   1.103   5.492   5.100
 7679SOL    HW223937   1.053   5.363   5.187
 7680SOL     OW23938   2.863   3.322   6.854
 7680SOL    HW123939   2.814   3.407   6.875
 7680SOL    HW223940   2.958   3.342   6.831
 7681SOL     OW23941   3.091   0.305   0.425
 7681SOL    HW123942   3.021   0.322   0.355
 7681SOL    HW223943   3.048   0.294   0.514
 7682SOL     OW23944   2.585   6.641   1.872
 7682SOL    HW123945   2.508   6.603   1.925
 7682SOL    HW223946   2.660   6.664   1.934
 7683SOL     OW23947   6.522   2.730   3.055
 7683SOL    HW123948   6.488   2.729   3.149
 7683SOL    HW223949   6.539   2.637   3.024
 7684SOL     OW23950   5.800   2.720   6.695
 7684SOL    HW123951   5.774   2.642   6.638
 7684SOL    HW223952   5.807   2.690   6.790
 7685SOL     OW23953   3.964   3.091   0.255
 7685SOL    HW123954   3.951   3.015   0.191
 7685SOL    HW223955   4.062   3.112   0.263
 7686SOL     OW23956   4.142   0.148   2.818
 7686SOL    HW123957   4.096   0.067   2.782
 7686SOL    HW223958   4.230   0.122   2.858
 7687SOL     OW23959   5.351   5.799   5.628
 7687SOL    HW123960   5.316   5.721   5.680
 7687SOL    HW223961   5.405   5.765   5.550
 7688SOL     OW23962   6.900   6.994   6.014
 7688SOL    HW123963   6.923   6.896   6.014
 7688SOL    HW223964   6.970   0.020   6.063
 7689SOL     OW23965   4.964   5.994   4.125
 7689SOL    HW123966   4.933   5.925   4.061
 7689SOL    HW223967   4.916   5.983   4.212
 7690SOL     OW23968   5.266   5.324   2.877
 7690SOL    HW123969   5.223   5.235   2.890
 7690SOL    HW223970   5.289   5.364   2.966
 7691SOL     OW23971   4.801   2.935   4.075
 7691SOL    HW123972   4.761   2.952   3.985
 7691SOL    HW223973   4.735   2.887   4.133
 7692SOL     OW23974   1.055   6.747   0.965
 7692SOL    HW123975   0.993   6.758   1.044
 7692SOL    HW223976   1.043   6.825   0.904
 7693SOL     OW23977   4.227   0.918   6.723
 7693SOL    HW123978   4.152   0.852   6.719
 7693SOL    HW223979   4.231   0.970   6.638
 7694SOL     OW23980   0.512   4.698   3.812
 7694SOL    HW123981   0.575   4.708   3.889
 7694SOL    HW223982   0.502   4.601   3.790
 7695SOL     OW23983   3.869   0.663   0.866
 7695SOL    HW123984   3.828   0.746   0.901
 7695SOL    HW223985   3.798   0.597   0.843
 7696SOL     OW23986   6.836   2.142   4.267
 7696SOL    HW123987   6.915   2.193   4.300
 7696SOL    HW223988   6.790   2.194   4.195
 7697SOL     OW23989   2.198   1.534   3.135
 7697SOL    HW123990   2.140   1.500   3.061
 7697SOL    HW223991   2.210   1.632   3.126
 7698SOL     OW23992   0.136   3.165   4.412
 7698SOL    HW123993   0.217   3.109   4.429
 7698SOL    HW223994   0.152   3.226   4.335
 7699SOL     OW23995   2.035   5.915   6.996
 7699SOL    HW123996   2.128   5.939   6.968
 7699SOL    HW223997   2.036   5.826   0.017
 7700SOL     OW23998   4.592   6.950   5.232
 7700SOL    HW123999   4.679   6.984   5.197
 7700SOL    HW224000   4.560   7.009   5.306
 7701SOL     OW24001   6.549   1.101   6.085
 7701SOL    HW124002   6.500   1.164   6.024
 7701SOL    HW224003   6.483   1.044   6.134
 7702SOL     OW24004   3.441   6.424   5.976
 7702SOL    HW124005   3.455   6.334   6.018
 7702SOL    HW224006   3.388   6.482   6.038
 7703SOL     OW24007   6.435   1.596   5.357
 7703SOL    HW124008   6.439   1.497   5.370
 7703SOL    HW224009   6.474   1.642   5.437
 7704SOL     OW24010   4.246   5.132   6.233
 7704SOL    HW124011   4.206   5.161   6.320
 7704SOL    HW224012   4.231   5.033   6.221
 7705SOL     OW24013   3.518   4.907   5.149
 7705SOL    HW124014   3.480   4.922   5.058
 7705SOL    HW224015   3.617   4.901   5.144
 7706SOL     OW24016   6.183   0.641   5.532
 7706SOL    HW124017   6.241   0.722   5.547
 7706SOL    HW224018   6.231   0.576   5.473
 7707SOL     OW24019   0.138   5.476   6.313
 7707SOL    HW124020   0.171   5.418   6.239
 7707SOL    HW224021   0.050   5.443   6.345
 7708SOL     OW24022   5.228   6.116   4.906
 7708SOL    HW124023   5.128   6.120   4.898
 7708SOL    HW224024   5.254   6.122   5.002
 7709SOL     OW24025   4.635   2.496   2.354
 7709SOL    HW124026   4.564   2.457   2.297
 7709SOL    HW224027   4.721   2.447   2.339
 7710SOL     OW24028   2.462   6.986   0.579
 7710SOL    HW124029   2.434   6.894   0.551
 7710SOL    HW224030   2.535   6.979   0.648
 7711SOL     OW24031   6.124   6.467   5.690
 7711SOL    HW124032   6.161   6.510   5.607
 7711SOL    HW224033   6.152   6.371   5.693
 7712SOL     OW24034   6.360   5.398   1.608
 7712SOL    HW124035   6.453   5.427   1.630
 7712SOL    HW224036   6.360   5.300   1.587
 7713SOL     OW24037   1.935   3.939   0.588
 7713SOL    HW124038   1.934   4.012   0.656
 7713SOL    HW224039   2.006   3.873   0.609
 7714SOL     OW24040   6.391   4.600   4.085
 7714SOL    HW124041   6.412   4.629   4.179
 7714SOL    HW224042   6.295   4.577   4.078
 7715SOL     OW24043   4.767   0.915   1.272
 7715SOL    HW124044   4.850   0.959   1.309
 7715SOL    HW224045   4.763   0.930   1.173
 7716SOL     OW24046   4.710   2.716   2.514
 7716SOL    HW124047   4.685   2.647   2.446
 7716SOL    HW224048   4.692   2.681   2.605
 7717SOL     OW24049   2.684   1.321   4.974
 7717SOL    HW124050   2.743   1.278   4.906
 7717SOL    HW224051   2.737   1.388   5.026
 7718SOL     OW24052   1.926   1.691   2.845
 7718SOL    HW124053   1.911   1.722   2.751
 7718SOL    HW224054   1.873   1.608   2.861
 7719SOL     OW24055   6.961   3.143   4.166
 7719SOL    HW124056   6.897   3.066   4.164
 7719SOL    HW224057   0.027   3.110   4.140
 7720SOL     OW24058   6.107   6.366   0.793
 7720SOL    HW124059   6.116   6.284   0.736
 7720SOL    HW224060   6.019   6.409   0.774
 7721SOL     OW24061   1.905   4.250   2.897
 7721SOL    HW124062   1.867   4.185   2.830
 7721SOL    HW224063   2.001   4.267   2.874
 7722SOL     OW24064   6.875   5.389   3.200
 7722SOL    HW124065   6.836   5.319   3.141
 7722SOL    HW224066   6.818   5.472   3.195
 7723SOL     OW24067   0.115   3.317   0.478
 7723SOL    HW124068   0.114   3.369   0.392
 7723SOL    HW224069   0.072   3.228   0.463
 7724SOL     OW24070   1.809   4.303   1.880
 7724SOL    HW124071   1.876   4.320   1.953
 7724SOL    HW224072   1.845   4.231   1.820
 7725SOL     OW24073   5.203   2.610   3.093
 7725SOL    HW124074   5.134   2.542   3.068
 7725SOL    HW224075   5.277   2.608   3.026
 7726SOL     OW24076   0.019   4.609   3.501
 7726SOL    HW124077   6.998   4.520   3.498
 7726SOL    HW224078   0.117   4.595   3.514
 7727SOL     OW24079   6.052   2.163   4.070
 7727SOL    HW124080   6.084   2.256   4.086
 7727SOL    HW224081   6.082   2.133   3.980
 7728SOL     OW24082   1.431   3.157   2.808
 7728SOL    HW124083   1.527   3.129   2.803
 7728SOL    HW224084   1.407   3.206   2.724
 7729SOL     OW24085   5.702   2.407   0.988
 7729SOL    HW124086   5.650   2.439   1.067
 7729SOL    HW224087   5.762   2.480   0.955
 7730SOL     OW24088   5.552   6.195   2.930
 7730SOL    HW124089   5.469   6.141   2.914
 7730SOL    HW224090   5.586   6.179   3.022
 7731SOL     OW24091   6.383   1.035   0.428
 7731SOL    HW124092   6.325   0.986   0.363
 7731SOL    HW224093   6.414   1.121   0.388
 7732SOL     OW24094   5.037   5.817   0.395
 7732SOL    HW124095   5.056   5.911   0.421
 7732SOL    HW224096   5.035   5.809   0.295
 7733SOL     OW24097   3.840   6.996   1.159
 7733SOL    HW124098   3.888   6.924   1.209
 7733SOL    HW224099   3.904   0.045   1.137
 7734SOL     OW24100   1.656   3.230   3.186
 7734SOL    HW124101   1.717   3.158   3.150
 7734SOL    HW224102   1.693   3.319   3.161
 7735SOL     OW24103   4.807   4.642   6.597
 7735SOL    HW124104   4.859   4.563   6.629
 7735SOL    HW224105   4.869   4.720   6.586
 7736SOL     OW24106   5.131   4.574   0.641
 7736SOL    HW124107   5.183   4.626   0.573
 7736SOL    HW224108   5.045   4.543   0.601
 7737SOL     OW24109   4.728   2.061   1.032
 7737SOL    HW124110   4.736   2.038   0.935
 7737SOL    HW224111   4.666   2.139   1.042
 7738SOL     OW24112   2.274   6.106   0.911
 7738SOL    HW124113   2.292   6.114   0.813
 7738SOL    HW224114   2.297   6.192   0.956
 7739SOL     OW24115   0.938   2.528   0.489
 7739SOL    HW124116   0.877   2.588   0.540
 7739SOL    HW224117   0.885   2.472   0.425
 7740SOL     OW24118   6.789   6.734   2.547
 7740SOL    HW124119   6.753   6.821   2.580
 7740SOL    HW224120   6.790   6.668   2.622
 7741SOL     OW24121   1.691   5.407   4.090
 7741SOL    HW124122   1.613   5.462   4.119
 7741SOL    HW224123   1.735   5.450   4.011
 7742SOL     OW24124   6.155   2.290   3.048
 7742SOL    HW124125   6.245   2.321   3.016
 7742SOL    HW224126   6.085   2.355   3.019
 7743SOL     OW24127   4.302   3.337   5.741
 7743SOL    HW124128   4.312   3.280   5.660
 7743SOL    HW224129   4.243   3.292   5.808
 7744SOL     OW24130   0.011   6.393   4.033
 7744SOL    HW124131   0.004   6.301   3.994
 7744SOL    HW224132   0.087   6.442   3.990
 7745SOL     OW24133   3.820   2.581   6.123
 7745SOL    HW124134   3.762   2.653   6.085
 7745SOL    HW224135   3.763   2.510   6.164
 7746SOL     OW24136   1.655   0.284   0.426
 7746SOL    HW124137   1.633   0.187   0.418
 7746SOL    HW224138   1.591   0.338   0.370
 7747SOL     OW24139   5.003   6.631   1.082
 7747SOL    HW124140   4.962   6.558   1.027
 7747SOL    HW224141   4.979   6.720   1.044
 7748SOL     OW24142   3.123   3.606   6.102
 7748SOL    HW124143   3.025   3.602   6.122
 7748SOL    HW224144   3.159   3.695   6.130
 7749SOL     OW24145   4.823   3.199   5.628
 7749SOL    HW124146   4.824   3.239   5.536
 7749SOL    HW224147   4.730   3.171   5.651
 7750SOL     OW24148   0.622   6.391   1.330
 7750SOL    HW124149   0.704   6.416   1.380
 7750SOL    HW224150   0.543   6.438   1.370
 7751SOL     OW24151   0.776   1.665   1.941
 7751SOL    HW124152   0.819   1.666   2.032
 7751SOL    HW224153   0.684   1.627   1.949
 7752SOL     OW24154   5.301   0.798   4.542
 7752SOL    HW124155   5.278   0.712   4.587
 7752SOL    HW224156   5.257   0.801   4.452
 7753SOL     OW24157   1.959   1.427   4.749
 7753SOL    HW124158   1.955   1.444   4.848
 7753SOL    HW224159   2.005   1.503   4.704
 7754SOL     OW24160   3.787   5.781   1.513
 7754SOL    HW124161   3.792   5.854   1.582
 7754SOL    HW224162   3.701   5.787   1.464
 7755SOL     OW24163   2.296   4.303   6.581
 7755SOL    HW124164   2.314   4.311   6.680
 7755SOL    HW224165   2.382   4.285   6.533
 7756SOL     OW24166   2.094   5.567   1.675
 7756SOL    HW124167   2.030   5.498   1.641
 7756SOL    HW224168   2.044   5.634   1.730
 7757SOL     OW24169   0.202   4.657   2.380
 7757SOL    HW124170   0.223   4.720   2.454
 7757SOL    HW224171   0.155   4.577   2.417
 7758SOL     OW24172   1.512   1.133   5.773
 7758SOL    HW124173   1.562   1.168   5.694
 7758SOL    HW224174   1.561   1.159   5.857
 7759SOL     OW24175   2.883   2.527   6.145
 7759SOL    HW124176   2.810   2.485   6.199
 7759SOL    HW224177   2.942   2.455   6.108
 7760SOL     OW24178   4.376   2.200   1.451
 7760SOL    HW124179   4.344   2.170   1.361
 7760SOL    HW224180   4.308   2.176   1.520
 7761SOL     OW24181   5.044   5.564   4.704
 7761SOL    HW124182   5.111   5.568   4.630
 7761SOL    HW224183   5.052   5.647   4.760
 7762SOL     OW24184   0.120   0.372   3.809
 7762SOL    HW124185   0.136   0.307   3.883
 7762SOL    HW224186   0.056   0.443   3.840
 7763SOL     OW24187   2.708   0.502   5.065
 7763SOL    HW124188   2.612   0.500   5.095
 7763SOL    HW224189   2.715   0.462   4.974
 7764SOL     OW24190   3.308   3.837   5.492
 7764SOL    HW124191   3.262   3.909   5.544
 7764SOL    HW224192   3.344   3.768   5.555
 7765SOL     OW24193   6.847   3.363   4.237
 7765SOL    HW124194   6.931   3.412   4.259
 7765SOL    HW224195   6.870   3.269   4.210
 7766SOL     OW24196   0.650   4.759   0.469
 7766SOL    HW124197   0.712   4.722   0.539
 7766SOL    HW224198   0.556   4.747   0.498
 7767SOL     OW24199   2.883   0.461   3.020
 7767SOL    HW124200   2.832   0.399   2.961
 7767SOL    HW224201   2.873   0.555   2.986
 7768SOL     OW24202   4.280   4.689   2.950
 7768SOL    HW124203   4.232   4.690   2.863
 7768SOL    HW224204   4.379   4.686   2.933
 7769SOL     OW24205   3.406   2.387   5.431
 7769SOL    HW124206   3.343   2.398   5.354
 7769SOL    HW224207   3.493   2.351   5.397
 7770SOL     OW24208   1.342   3.375   4.425
 7770SOL    HW124209   1.271   3.445   4.429
 7770SOL    HW224210   1.409   3.400   4.355
 7771SOL     OW24211   3.077   2.711   6.087
 7771SOL    HW124212   3.002   2.650   6.113
 7771SOL    HW224213   3.112   2.684   5.998
 7772SOL     OW24214   4.989   1.078   1.321
 7772SOL    HW124215   4.952   1.061   1.412
 7772SOL    HW224216   5.069   1.139   1.328
 7773SOL     OW24217   3.061   6.082   0.330
 7773SOL    HW124218   3.088   6.019   0.257
 7773SOL    HW224219   2.993   6.037   0.388
 7774SOL     OW24220   4.637   1.323   2.780
 7774SOL    HW124221   4.675   1.248   2.834
 7774SOL    HW224222   4.681   1.409   2.807
 7775SOL     OW24223   3.145   0.527   0.214
 7775SOL    HW124224   3.066   0.480   0.253
 7775SOL    HW224225   3.166   0.488   0.124
 7776SOL     OW24226   0.770   6.644   5.593
 7776SOL    HW124227   0.827   6.603   5.523
 7776SOL    HW224228   0.818   6.642   5.681
 7777SOL     OW24229   5.320   4.992   3.582
 7777SOL    HW124230   5.373   5.059   3.635
 7777SOL    HW224231   5.275   4.929   3.645
 7778SOL     OW24232   5.925   4.147   2.795
 7778SOL    HW124233   5.989   4.071   2.791
 7778SOL    HW224234   5.967   4.223   2.846
 7779SOL     OW24235   2.933   5.991   2.013
 7779SOL    HW124236   2.951   6.073   2.066
 7779SOL    HW224237   2.998   5.920   2.038
 7780SOL     OW24238   6.764   6.153   5.288
 7780SOL    HW124239   6.759   6.058   5.258
 7780SOL    HW224240   6.809   6.157   5.377
 7781SOL     OW24241   1.560   3.026   0.719
 7781SOL    HW124242   1.617   3.018   0.801
 7781SOL    HW224243   1.597   2.968   0.646
 7782SOL     OW24244   6.365   5.002   3.605
 7782SOL    HW124245   6.382   5.076   3.669
 7782SOL    HW224246   6.446   4.988   3.548
 7783SOL     OW24247   1.181   0.349   5.242
 7783SOL    HW124248   1.092   0.320   5.278
 7783SOL    HW224249   1.253   0.327   5.308
 7784SOL     OW24250   2.569   2.431   2.150
 7784SOL    HW124251   2.665   2.409   2.131
 7784SOL    HW224252   2.513   2.409   2.071
 7785SOL     OW24253   0.780   6.229   2.264
 7785SOL    HW124254   0.818   6.137   2.260
 7785SOL    HW224255   0.852   6.295   2.284
 7786SOL     OW24256   4.411   0.315   6.216
 7786SOL    HW124257   4.416   0.286   6.311
 7786SOL    HW224258   4.433   0.413   6.210
 7787SOL     OW24259   2.850   2.759   1.361
 7787SOL    HW124260   2.760   2.739   1.398
 7787SOL    HW224261   2.876   2.853   1.383
 7788SOL     OW24262   0.880   4.535   1.449
 7788SOL    HW124263   0.832   4.511   1.534
 7788SOL    HW224264   0.975   4.557   1.470
 7789SOL     OW24265   3.271   0.894   6.471
 7789SOL    HW124266   3.265   0.937   6.561
 7789SOL    HW224267   3.183   0.902   6.424
 7790SOL     OW24268   5.575   4.870   1.931
 7790SOL    HW124269   5.563   4.777   1.897
 7790SOL    HW224270   5.489   4.920   1.922
 7791SOL     OW24271   2.138   5.224   1.880
 7791SOL    HW124272   2.108   5.162   1.953
 7791SOL    HW224273   2.205   5.176   1.823
 7792SOL     OW24274   1.141   1.748   2.505
 7792SOL    HW124275   1.120   1.769   2.410
 7792SOL    HW224276   1.072   1.788   2.565
 7793SOL     OW24277   4.776   1.655   0.278
 7793SOL    HW124278   4.800   1.752   0.266
 7793SOL    HW224279   4.682   1.640   0.247
 7794SOL     OW24280   0.841   5.486   2.821
 7794SOL    HW124281   0.904   5.421   2.779
 7794SOL    HW224282   0.870   5.579   2.799
 7795SOL     OW24283   3.078   5.241   5.847
 7795SOL    HW124284   3.115   5.229   5.939
 7795SOL    HW224285   3.144   5.207   5.779
 7796SOL     OW24286   3.648   3.197   6.337
 7796SOL    HW124287   3.602   3.246   6.411
 7796SOL    HW224288   3.581   3.142   6.287
 7797SOL     OW24289   0.890   5.772   3.584
 7797SOL    HW124290   0.892   5.679   3.622
 7797SOL    HW224291   0.842   5.833   3.648
 7798SOL     OW24292   0.459   2.248   0.914
 7798SOL    HW124293   0.541   2.247   0.971
 7798SOL    HW224294   0.440   2.155   0.881
 7799SOL     OW24295   2.742   6.249   3.424
 7799SOL    HW124296   2.797   6.194   3.361
 7799SOL    HW224297   2.661   6.284   3.377
 7800SOL     OW24298   0.011   6.316   1.188
 7800SOL    HW124299   0.068   6.288   1.265
 7800SOL    HW224300   0.021   6.250   1.113
 7801SOL     OW24301   1.981   2.520   2.666
 7801SOL    HW124302   2.053   2.516   2.596
 7801SOL    HW224303   2.022   2.506   2.756
 7802SOL     OW24304   6.750   3.907   5.769
 7802SOL    HW124305   6.739   3.997   5.726
 7802SOL    HW224306   6.693   3.840   5.721
 7803SOL     OW24307   4.736   2.293   5.492
 7803SOL    HW124308   4.798   2.311   5.568
 7803SOL    HW224309   4.722   2.377   5.440
 7804SOL     OW24310   2.771   2.312   4.977
 7804SOL    HW124311   2.692   2.373   4.975
 7804SOL    HW224312   2.741   2.217   4.978
 7805SOL     OW24313   5.316   2.871   1.270
 7805SOL    HW124314   5.313   2.939   1.197
 7805SOL    HW224315   5.411   2.849   1.292
 7806SOL     OW24316   6.412   2.433   5.686
 7806SOL    HW124317   6.479   2.419   5.759
 7806SOL    HW224318   6.359   2.516   5.703
 7807SOL     OW24319   1.996   5.143   5.822
 7807SOL    HW124320   2.085   5.188   5.819
 7807SOL    HW224321   1.955   5.155   5.913
 7808SOL     OW24322   5.363   4.236   2.606
 7808SOL    HW124323   5.317   4.224   2.694
 7808SOL    HW224324   5.339   4.326   2.569
 7809SOL     OW24325   4.937   5.315   3.438
 7809SOL    HW124326   5.018   5.256   3.448
 7809SOL    HW224327   4.948   5.396   3.496
 7810SOL     OW24328   4.301   6.096   5.271
 7810SOL    HW124329   4.391   6.063   5.300
 7810SOL    HW224330   4.253   6.023   5.222
 7811SOL     OW24331   1.087   5.750   2.301
 7811SOL    HW124332   1.072   5.738   2.399
 7811SOL    HW224333   1.048   5.837   2.271
 7812SOL     OW24334   2.363   3.124   5.608
 7812SOL    HW124335   2.303   3.085   5.677
 7812SOL    HW224336   2.349   3.223   5.603
 7813SOL     OW24337   5.783   1.499   1.208
 7813SOL    HW124338   5.864   1.513   1.264
 7813SOL    HW224339   5.738   1.586   1.192
 7814SOL     OW24340   6.859   2.920   1.971
 7814SOL    HW124341   6.840   2.919   2.069
 7814SOL    HW224342   6.777   2.946   1.921
 7815SOL     OW24343   6.142   2.838   5.257
 7815SOL    HW124344   6.046   2.855   5.279
 7815SOL    HW224345   6.199   2.868   5.333
 7816SOL     OW24346   0.386   1.434   5.248
 7816SOL    HW124347   0.287   1.422   5.243
 7816SOL    HW224348   0.410   1.523   5.209
 7817SOL     OW24349   3.158   2.955   6.379
 7817SOL    HW124350   3.106   2.914   6.455
 7817SOL    HW224351   3.117   2.927   6.293
 7818SOL     OW24352   5.643   1.243   2.394
 7818SOL    HW124353   5.559   1.296   2.389
 7818SOL    HW224354   5.624   1.154   2.435
 7819SOL     OW24355   1.256   3.698   3.878
 7819SOL    HW124356   1.355   3.710   3.892
 7819SOL    HW224357   1.227   3.611   3.917
 7820SOL     OW24358   1.317   0.555   5.686
 7820SOL    HW124359   1.406   0.590   5.714
 7820SOL    HW224360   1.312   0.552   5.586
 7821SOL     OW24361   6.318   5.590   6.886
 7821SOL    HW124362   6.370   5.506   6.894
 7821SOL    HW224363   6.370   5.666   6.927
 7822SOL     OW24364   1.402   1.189   4.736
 7822SOL    HW124365   1.332   1.239   4.787
 7822SOL    HW224366   1.385   1.200   4.638
 7823SOL     OW24367   1.484   3.799   0.019
 7823SOL    HW124368   1.418   3.874   0.025
 7823SOL    HW224369   1.567   3.824   0.069
 7824SOL     OW24370   4.916   2.417   2.545
 7824SOL    HW124371   4.889   2.395   2.452
 7824SOL    HW224372   4.913   2.334   2.601
 7825SOL     OW24373   3.236   2.970   1.467
 7825SOL    HW124374   3.275   3.061   1.479
 7825SOL    HW224375   3.293   2.903   1.514
 7826SOL     OW24376   6.531   0.866   0.561
 7826SOL    HW124377   6.493   0.948   0.519
 7826SOL    HW224378   6.499   0.785   0.511
 7827SOL     OW24379   5.054   5.325   1.380
 7827SOL    HW124380   5.095   5.250   1.328
 7827SOL    HW224381   5.126   5.383   1.418
 7828SOL     OW24382   0.571   6.250   0.872
 7828SOL    HW124383   0.609   6.315   0.807
 7828SOL    HW224384   0.645   6.212   0.928
 7829SOL     OW24385   3.472   2.800   1.491
 7829SOL    HW124386   3.487   2.712   1.534
 7829SOL    HW224387   3.519   2.871   1.543
 7830SOL     OW24388   6.140   3.326   0.185
 7830SOL    HW124389   6.197   3.290   0.259
 7830SOL    HW224390   6.149   3.425   0.182
 7831SOL     OW24391   1.374   3.308   0.770
 7831SOL    HW124392   1.396   3.265   0.682
 7831SOL    HW224393   1.445   3.283   0.837
 7832SOL     OW24394   2.625   2.415   5.437
 7832SOL    HW124395   2.557   2.371   5.496
 7832SOL    HW224396   2.711   2.363   5.441
 7833SOL     OW24397   0.742   6.825   0.335
 7833SOL    HW124398   0.804   6.749   0.355
 7833SOL    HW224399   0.661   6.790   0.289
 7834SOL     OW24400   0.976   0.895   1.485
 7834SOL    HW124401   0.912   0.853   1.549
 7834SOL    HW224402   1.056   0.835   1.473
 7835SOL     OW24403   2.242   2.984   4.762
 7835SOL    HW124404   2.159   3.041   4.761
 7835SOL    HW224405   2.285   2.988   4.852
 7836SOL     OW24406   3.159   6.561   6.857
 7836SOL    HW124407   3.159   6.544   6.955
 7836SOL    HW224408   3.228   6.630   6.835
 7837SOL     OW24409   5.980   6.214   2.776
 7837SOL    HW124410   6.020   6.162   2.701
 7837SOL    HW224411   6.019   6.183   2.863
 7838SOL     OW24412   4.279   6.754   4.987
 7838SOL    HW124413   4.359   6.787   4.937
 7838SOL    HW224414   4.240   6.675   4.940
 7839SOL     OW24415   5.966   4.872   4.813
 7839SOL    HW124416   6.039   4.842   4.875
 7839SOL    HW224417   5.890   4.908   4.867
 7840SOL     OW24418   5.061   2.866   4.056
 7840SOL    HW124419   4.966   2.888   4.038
 7840SOL    HW224420   5.094   2.801   3.988
 7841SOL     OW24421   0.169   1.757   6.222
 7841SOL    HW124422   0.240   1.749   6.291
 7841SOL    HW224423   0.127   1.667   6.207
 7842SOL     OW24424   2.192   1.752   2.752
 7842SOL    HW124425   2.112   1.745   2.812
 7842SOL    HW224426   2.273   1.775   2.806
 7843SOL     OW24427   5.823   3.854   1.292
 7843SOL    HW124428   5.862   3.941   1.261
 7843SOL    HW224429   5.723   3.859   1.285
 7844SOL     OW24430   3.805   0.661   3.488
 7844SOL    HW124431   3.785   0.624   3.397
 7844SOL    HW224432   3.898   0.636   3.514
 7845SOL     OW24433   6.573   1.462   4.371
 7845SOL    HW124434   6.564   1.395   4.297
 7845SOL    HW224435   6.601   1.550   4.332
 7846SOL     OW24436   2.332   0.302   1.616
 7846SOL    HW124437   2.293   0.394   1.617
 7846SOL    HW224438   2.418   0.303   1.565
 7847SOL     OW24439   6.688   0.082   0.320
 7847SOL    HW124440   6.645   0.127   0.399
 7847SOL    HW224441   6.709   0.151   0.250
 7848SOL     OW24442   4.370   3.794   1.612
 7848SOL    HW124443   4.315   3.799   1.528
 7848SOL    HW224444   4.404   3.885   1.635
 7849SOL     OW24445   5.624   2.941   4.730
 7849SOL    HW124446   5.700   2.934   4.796
 7849SOL    HW224447   5.631   3.027   4.681
 7850SOL     OW24448   0.333   1.015   5.477
 7850SOL    HW124449   0.336   1.051   5.570
 7850SOL    HW224450   0.239   1.011   5.445
 7851SOL     OW24451   5.789   0.351   0.301
 7851SOL    HW124452   5.756   0.264   0.264
 7851SOL    HW224453   5.837   0.402   0.230
 7852SOL     OW24454   2.999   6.463   0.106
 7852SOL    HW124455   3.057   6.450   0.186
 7852SOL    HW224456   2.946   6.380   0.090
 7853SOL     OW24457   2.855   2.711   0.454
 7853SOL    HW124458   2.935   2.706   0.514
 7853SOL    HW224459   2.835   2.620   0.417
 7854SOL     OW24460   3.520   3.712   2.222
 7854SOL    HW124461   3.588   3.742   2.155
 7854SOL    HW224462   3.442   3.774   2.222
 7855SOL     OW24463   4.657   5.404   6.813
 7855SOL    HW124464   4.671   5.494   6.854
 7855SOL    HW224465   4.641   5.337   6.885
 7856SOL     OW24466   5.494   3.526   5.339
 7856SOL    HW124467   5.515   3.497   5.246
 7856SOL    HW224468   5.399   3.502   5.361
 7857SOL     OW24469   5.924   1.764   5.850
 7857SOL    HW124470   5.842   1.726   5.806
 7857SOL    HW224471   5.922   1.863   5.844
 7858SOL     OW24472   5.808   3.984   3.254
 7858SOL    HW124473   5.752   3.935   3.321
 7858SOL    HW224474   5.768   3.974   3.163
 7859SOL     OW24475   0.970   4.561   5.870
 7859SOL    HW124476   0.924   4.546   5.958
 7859SOL    HW224477   1.031   4.640   5.877
 7860SOL     OW24478   3.908   6.857   1.614
 7860SOL    HW124479   3.834   6.810   1.565
 7860SOL    HW224480   3.919   6.816   1.705
 7861SOL     OW24481   4.309   5.066   1.125
 7861SOL    HW124482   4.373   5.115   1.183
 7861SOL    HW224483   4.219   5.065   1.169
 7862SOL     OW24484   2.905   4.112   1.706
 7862SOL    HW124485   2.946   4.192   1.664
 7862SOL    HW224486   2.807   4.125   1.716
 7863SOL     OW24487   6.260   5.883   1.823
 7863SOL    HW124488   6.221   5.909   1.911
 7863SOL    HW224489   6.312   5.960   1.786
 7864SOL     OW24490   0.646   5.597   4.623
 7864SOL    HW124491   0.581   5.655   4.673
 7864SOL    HW224492   0.596   5.527   4.572
 7865SOL     OW24493   3.583   6.447   3.325
 7865SOL    HW124494   3.575   6.540   3.363
 7865SOL    HW224495   3.585   6.452   3.225
 7866SOL     OW24496   2.615   1.758   3.448
 7866SOL    HW124497   2.703   1.779   3.492
 7866SOL    HW224498   2.576   1.842   3.410
 7867SOL     OW24499   6.591   5.069   2.129
 7867SOL    HW124500   6.671   5.020   2.092
 7867SOL    HW224501   6.566   5.144   2.068
 7868SOL     OW24502   5.345   6.227   1.128
 7868SOL    HW124503   5.264   6.210   1.185
 7868SOL    HW224504   5.392   6.308   1.161
 7869SOL     OW24505   0.390   2.855   1.981
 7869SOL    HW124506   0.410   2.758   1.975
 7869SOL    HW224507   0.313   2.877   1.922
 7870SOL     OW24508   6.584   5.374   3.757
 7870SOL    HW124509   6.646   5.306   3.717
 7870SOL    HW224510   6.627   5.417   3.836
 7871SOL     OW24511   5.861   2.695   2.955
 7871SOL    HW124512   5.923   2.620   2.980
 7871SOL    HW224513   5.781   2.693   3.016
 7872SOL     OW24514   6.992   3.364   2.981
 7872SOL    HW124515   6.996   3.264   2.975
 7872SOL    HW224516   6.923   3.398   2.916
 7873SOL     OW24517   0.207   6.019   6.043
 7873SOL    HW124518   0.176   6.113   6.030
 7873SOL    HW224519   0.268   6.015   6.122
 7874SOL     OW24520   5.934   1.918   0.253
 7874SOL    HW124521   5.957   1.951   0.162
 7874SOL    HW224522   5.835   1.905   0.259
 7875SOL     OW24523   4.693   3.775   6.298
 7875SOL    HW124524   4.696   3.736   6.390
 7875SOL    HW224525   4.598   3.792   6.272
 7876SOL     OW24526   6.712   6.953   3.984
 7876SOL    HW124527   6.622   6.997   3.978
 7876SOL    HW224528   6.736   6.940   4.081
 7877SOL     OW24529   6.834   2.619   2.950
 7877SOL    HW124530   6.825   2.710   2.992
 7877SOL    HW224531   6.931   2.597   2.942
 7878SOL     OW24532   4.673   4.183   2.466
 7878SOL    HW124533   4.699   4.098   2.420
 7878SOL    HW224534   4.691   4.173   2.564
 7879SOL     OW24535   5.031   6.672   3.720
 7879SOL    HW124536   4.963   6.640   3.787
 7879SOL    HW224537   5.032   6.772   3.720
 7880SOL     OW24538   0.555   6.332   6.626
 7880SOL    HW124539   0.492   6.253   6.626
 7880SOL    HW224540   0.595   6.342   6.535
 7881SOL     OW24541   0.307   3.804   5.196
 7881SOL    HW124542   0.369   3.730   5.170
 7881SOL    HW224543   0.213   3.777   5.176
 7882SOL     OW24544   0.414   3.026   2.820
 7882SOL    HW124545   0.323   2.998   2.790
 7882SOL    HW224546   0.406   3.088   2.898
 7883SOL     OW24547   2.576   1.042   2.917
 7883SOL    HW124548   2.577   1.102   2.996
 7883SOL    HW224549   2.500   1.068   2.857
 7884SOL     OW24550   1.669   4.330   3.589
 7884SOL    HW124551   1.659   4.370   3.680
 7884SOL    HW224552   1.692   4.233   3.598
 7885SOL     OW24553   5.716   5.661   3.036
 7885SOL    HW124554   5.759   5.600   2.969
 7885SOL    HW224555   5.775   5.739   3.053
 7886SOL     OW24556   4.861   2.968   1.746
 7886SOL    HW124557   4.875   3.051   1.692
 7886SOL    HW224558   4.814   2.990   1.831
 7887SOL     OW24559   4.134   3.489   0.461
 7887SOL    HW124560   4.138   3.529   0.369
 7887SOL    HW224561   4.044   3.451   0.478
 7888SOL     OW24562   6.043   1.392   4.082
 7888SOL    HW124563   6.080   1.326   4.147
 7888SOL    HW224564   6.014   1.475   4.131
 7889SOL     OW24565   5.576   5.129   0.543
 7889SOL    HW124566   5.590   5.048   0.599
 7889SOL    HW224567   5.528   5.199   0.595
 7890SOL     OW24568   1.213   2.927   4.107
 7890SOL    HW124569   1.169   2.962   4.190
 7890SOL    HW224570   1.311   2.947   4.111
 7891SOL     OW24571   0.152   1.942   4.172
 7891SOL    HW124572   0.209   1.872   4.129
 7891SOL    HW224573   0.162   2.029   4.123
 7892SOL     OW24574   1.295   3.464   5.772
 7892SOL    HW124575   1.385   3.421   5.762
 7892SOL    HW224576   1.267   3.502   5.683
 7893SOL     OW24577   5.974   0.260   2.131
 7893SOL    HW124578   5.925   0.172   2.138
 7893SOL    HW224579   6.072   0.243   2.131
 7894SOL     OW24580   2.562   1.402   5.976
 7894SOL    HW124581   2.655   1.434   5.994
 7894SOL    HW224582   2.506   1.415   6.058
 7895SOL     OW24583   3.786   6.261   3.463
 7895SOL    HW124584   3.783   6.181   3.403
 7895SOL    HW224585   3.704   6.317   3.447
 7896SOL     OW24586   4.028   2.600   1.573
 7896SOL    HW124587   4.080   2.643   1.499
 7896SOL    HW224588   3.981   2.671   1.625
 7897SOL     OW24589   4.041   4.127   6.498
 7897SOL    HW124590   3.942   4.132   6.486
 7897SOL    HW224591   4.066   4.163   6.588
 7898SOL     OW24592   5.085   0.355   4.201
 7898SOL    HW124593   5.113   0.349   4.105
 7898SOL    HW224594   4.999   0.306   4.214
 7899SOL     OW24595   5.132   4.901   1.343
 7899SOL    HW124596   5.217   4.927   1.389
 7899SOL    HW224597   5.065   4.872   1.412
 7900SOL     OW24598   0.562   3.793   0.866
 7900SOL    HW124599   0.484   3.733   0.885
 7900SOL    HW224600   0.609   3.760   0.784
 7901SOL     OW24601   5.278   1.119   6.137
 7901SOL    HW124602   5.187   1.160   6.136
 7901SOL    HW224603   5.270   1.021   6.118
 7902SOL     OW24604   0.652   6.316   2.636
 7902SOL    HW124605   0.608   6.249   2.696
 7902SOL    HW224606   0.604   6.320   2.549
 7903SOL     OW24607   2.304   1.526   4.727
 7903SOL    HW124608   2.275   1.455   4.791
 7903SOL    HW224609   2.228   1.551   4.667
 7904SOL     OW24610   6.271   0.832   2.526
 7904SOL    HW124611   6.208   0.768   2.483
 7904SOL    HW224612   6.327   0.784   2.594
 7905SOL     OW24613   5.835   0.940   0.210
 7905SOL    HW124614   5.791   0.916   0.123
 7905SOL    HW224615   5.766   0.961   0.279
 7906SOL     OW24616   1.373   5.227   1.144
 7906SOL    HW124617   1.391   5.242   1.241
 7906SOL    HW224618   1.275   5.220   1.129
 7907SOL     OW24619   6.104   0.239   3.015
 7907SOL    HW124620   6.059   0.152   2.995
 7907SOL    HW224621   6.170   0.227   3.089
 7908SOL     OW24622   0.733   0.788   6.667
 7908SOL    HW124623   0.723   0.858   6.738
 7908SOL    HW224624   0.683   0.817   6.584
 7909SOL     OW24625   5.731   3.736   2.439
 7909SOL    HW124626   5.767   3.792   2.513
 7909SOL    HW224627   5.633   3.724   2.450
 7910SOL     OW24628   1.965   3.871   1.033
 7910SOL    HW124629   1.970   3.828   1.123
 7910SOL    HW224630   1.920   3.810   0.968
 7911SOL     OW24631   0.999   4.038   0.887
 7911SOL    HW124632   0.988   4.044   0.788
 7911SOL    HW224633   1.064   3.965   0.909
 7912SOL     OW24634   5.412   5.666   0.292
 7912SOL    HW124635   5.486   5.598   0.299
 7912SOL    HW224636   5.387   5.697   0.384
 7913SOL     OW24637   0.320   3.631   0.884
 7913SOL    HW124638   0.248   3.699   0.898
 7913SOL    HW224639   0.293   3.569   0.811
 7914SOL     OW24640   6.132   5.502   5.104
 7914SOL    HW124641   6.064   5.520   5.175
 7914SOL    HW224642   6.115   5.562   5.025
 7915SOL     OW24643   3.578   6.790   2.550
 7915SOL    HW124644   3.660   6.768   2.497
 7915SOL    HW224645   3.601   6.789   2.647
 7916SOL     OW24646   1.129   0.470   4.730
 7916SOL    HW124647   1.048   0.495   4.677
 7916SOL    HW224648   1.211   0.490   4.677
 7917SOL     OW24649   3.923   2.787   0.090
 7917SOL    HW124650   3.995   2.723   0.065
 7917SOL    HW224651   3.878   2.757   0.174
 7918SOL     OW24652   2.153   1.026   4.794
 7918SOL    HW124653   2.199   0.986   4.873
 7918SOL    HW224654   2.205   1.007   4.711
 7919SOL     OW24655   0.938   5.261   3.028
 7919SOL    HW124656   0.967   5.175   3.070
 7919SOL    HW224657   0.933   5.332   3.098
 7920SOL     OW24658   4.668   0.523   1.330
 7920SOL    HW124659   4.664   0.599   1.395
 7920SOL    HW224660   4.578   0.478   1.326
 7921SOL     OW24661   5.191   1.519   1.766
 7921SOL    HW124662   5.240   1.535   1.680
 7921SOL    HW224663   5.111   1.579   1.770
 7922SOL     OW24664   0.638   6.145   0.254
 7922SOL    HW124665   0.587   6.193   0.182
 7922SOL    HW224666   0.731   6.126   0.222
 7923SOL     OW24667   3.673   1.493   6.892
 7923SOL    HW124668   3.619   1.483   6.808
 7923SOL    HW224669   3.650   1.418   6.955
 7924SOL     OW24670   5.953   6.618   1.386
 7924SOL    HW124671   5.971   6.650   1.479
 7924SOL    HW224672   6.011   6.667   1.322
 7925SOL     OW24673   2.582   6.453   0.943
 7925SOL    HW124674   2.530   6.524   0.895
 7925SOL    HW224675   2.679   6.479   0.947
 7926SOL     OW24676   5.588   0.424   6.397
 7926SOL    HW124677   5.558   0.493   6.462
 7926SOL    HW224678   5.536   0.340   6.411
 7927SOL     OW24679   4.950   7.021   2.515
 7927SOL    HW124680   4.954   6.960   2.435
 7927SOL    HW224681   4.868   7.000   2.568
 7928SOL     OW24682   6.614   0.889   3.050
 7928SOL    HW124683   6.587   0.968   2.994
 7928SOL    HW224684   6.713   0.881   3.049
 7929SOL     OW24685   4.618   3.941   6.043
 7929SOL    HW124686   4.646   3.858   5.995
 7929SOL    HW224687   4.549   3.918   6.112
 7930SOL     OW24688   3.933   5.874   5.560
 7930SOL    HW124689   3.970   5.813   5.489
 7930SOL    HW224690   4.005   5.936   5.590
 7931SOL     OW24691   2.765   2.477   0.644
 7931SOL    HW124692   2.747   2.451   0.549
 7931SOL    HW224693   2.689   2.444   0.702
 7932SOL     OW24694   7.008   5.286   1.369
 7932SOL    HW124695   6.982   5.192   1.346
 7932SOL    HW224696   6.986   5.346   1.292
 7933SOL     OW24697   6.650   1.490   5.934
 7933SOL    HW124698   6.619   1.559   5.868
 7933SOL    HW224699   6.680   1.536   6.018
 7934SOL     OW24700   1.498   4.426   1.089
 7934SOL    HW124701   1.560   4.358   1.050
 7934SOL    HW224702   1.468   4.489   1.017
 7935SOL     OW24703   5.788   3.901   2.649
 7935SOL    HW124704   5.711   3.964   2.655
 7935SOL    HW224705   5.799   3.852   2.736
 7936SOL     OW24706   3.740   6.637   3.998
 7936SOL    HW124707   3.745   6.586   3.912
 7936SOL    HW224708   3.661   6.699   3.995
 7937SOL     OW24709   2.517   6.027   5.725
 7937SOL    HW124710   2.528   6.018   5.625
 7937SOL    HW224711   2.478   6.116   5.746
 7938SOL     OW24712   4.443   6.937   4.855
 7938SOL    HW124713   4.534   6.921   4.893
 7938SOL    HW224714   4.445   6.924   4.756
 7939SOL     OW24715   0.613   1.650   4.892
 7939SOL    HW124716   0.697   1.702   4.910
 7939SOL    HW224717   0.584   1.666   4.798
 7940SOL     OW24718   4.764   1.561   2.795
 7940SOL    HW124719   4.843   1.572   2.855
 7940SOL    HW224720   4.739   1.651   2.758
 7941SOL     OW24721   4.335   6.417   2.204
 7941SOL    HW124722   4.425   6.375   2.222
 7941SOL    HW224723   4.292   6.370   2.127
 7942SOL     OW24724   0.726   2.948   1.717
 7942SOL    HW124725   0.628   2.960   1.702
 7942SOL    HW224726   0.744   2.853   1.744
 7943SOL     OW24727   2.487   5.337   6.316
 7943SOL    HW124728   2.529   5.287   6.391
 7943SOL    HW224729   2.453   5.272   6.248
 7944SOL     OW24730   0.689   2.986   1.222
 7944SOL    HW124731   0.637   2.919   1.170
 7944SOL    HW224732   0.779   3.000   1.179
 7945SOL     OW24733   5.810   5.021   2.485
 7945SOL    HW124734   5.807   5.093   2.415
 7945SOL    HW224735   5.735   5.034   2.550
 7946SOL     OW24736   4.055   0.772   5.701
 7946SOL    HW124737   4.104   0.702   5.753
 7946SOL    HW224738   4.068   0.757   5.603
 7947SOL     OW24739   1.204   2.950   5.466
 7947SOL    HW124740   1.223   2.890   5.389
 7947SOL    HW224741   1.124   2.916   5.516
 7948SOL     OW24742   1.582   4.701   2.578
 7948SOL    HW124743   1.536   4.788   2.596
 7948SOL    HW224744   1.517   4.626   2.592
 7949SOL     OW24745   4.524   5.202   6.230
 7949SOL    HW124746   4.572   5.189   6.144
 7949SOL    HW224747   4.429   5.172   6.220
 7950SOL     OW24748   6.170   5.583   5.445
 7950SOL    HW124749   6.134   5.492   5.429
 7950SOL    HW224750   6.263   5.589   5.409
 7951SOL     OW24751   3.081   5.359   2.331
 7951SOL    HW124752   2.988   5.396   2.333
 7951SOL    HW224753   3.093   5.304   2.248
 7952SOL     OW24754   5.656   3.407   0.235
 7952SOL    HW124755   5.740   3.404   0.181
 7952SOL    HW224756   5.671   3.464   0.315
 7953SOL     OW24757   3.931   2.027   0.563
 7953SOL    HW124758   4.022   1.992   0.541
 7953SOL    HW224759   3.893   1.978   0.641
 7954SOL     OW24760   3.700   3.186   6.773
 7954SOL    HW124761   3.752   3.123   6.830
 7954SOL    HW224762   3.746   3.275   6.772
 7955SOL     OW24763   1.609   1.618   6.770
 7955SOL    HW124764   1.565   1.531   6.792
 7955SOL    HW224765   1.621   1.670   6.855
 7956SOL     OW24766   6.597   0.734   1.795
 7956SOL    HW124767   6.511   0.762   1.836
 7956SOL    HW224768   6.580   0.659   1.730
 7957SOL     OW24769   4.716   0.530   5.323
 7957SOL    HW124770   4.775   0.585   5.382
 7957SOL    HW224771   4.738   0.433   5.335
 7958SOL     OW24772   5.484   3.806   6.793
 7958SOL    HW124773   5.546   3.730   6.777
 7958SOL    HW224774   5.394   3.784   6.755
 7959SOL     OW24775   4.946   1.118   6.303
 7959SOL    HW124776   4.952   1.147   6.207
 7959SOL    HW224777   5.025   1.153   6.353
 7960SOL     OW24778   6.688   1.110   6.585
 7960SOL    HW124779   6.612   1.094   6.522
 7960SOL    HW224780   6.750   1.032   6.584
 7961SOL     OW24781   6.336   6.951   6.858
 7961SOL    HW124782   6.283   6.886   6.803
 7961SOL    HW224783   6.351   6.913   6.949
 7962SOL     OW24784   6.699   6.981   5.791
 7962SOL    HW124785   6.739   0.005   5.869
 7962SOL    HW224786   6.662   6.893   5.823
 7963SOL     OW24787   6.003   4.321   4.462
 7963SOL    HW124788   5.976   4.340   4.556
 7963SOL    HW224789   6.103   4.322   4.455
 7964SOL     OW24790   6.537   3.542   1.745
 7964SOL    HW124791   6.540   3.573   1.650
 7964SOL    HW224792   6.487   3.609   1.800
 7965SOL     OW24793   4.391   1.935   6.651
 7965SOL    HW124794   4.490   1.917   6.646
 7965SOL    HW224795   4.342   1.864   6.601
 7966SOL     OW24796   4.033   4.373   5.306
 7966SOL    HW124797   3.942   4.356   5.268
 7966SOL    HW224798   4.098   4.389   5.231
 7967SOL     OW24799   1.622   5.275   2.284
 7967SOL    HW124800   1.691   5.300   2.216
 7967SOL    HW224801   1.657   5.200   2.340
 7968SOL     OW24802   6.622   2.012   4.471
 7968SOL    HW124803   6.627   1.928   4.418
 7968SOL    HW224804   6.608   2.090   4.410
 7969SOL     OW24805   4.589   6.087   6.996
 7969SOL    HW124806   4.621   6.036   6.916
 7969SOL    HW224807   4.635   6.175   7.000
 7970SOL     OW24808   6.482   2.979   2.739
 7970SOL    HW124809   6.528   2.893   2.715
 7970SOL    HW224810   6.535   3.026   2.809
 7971SOL     OW24811   3.433   1.396   1.028
 7971SOL    HW124812   3.485   1.470   1.070
 7971SOL    HW224813   3.482   1.309   1.041
 7972SOL     OW24814   3.856   3.076   2.925
 7972SOL    HW124815   3.907   3.105   3.005
 7972SOL    HW224816   3.761   3.059   2.951
 7973SOL     OW24817   6.087   3.948   3.216
 7973SOL    HW124818   5.997   3.980   3.246
 7973SOL    HW224819   6.157   3.988   3.275
 7974SOL     OW24820   6.075   1.439   5.643
 7974SOL    HW124821   6.118   1.522   5.608
 7974SOL    HW224822   6.105   1.423   5.737
 7975SOL     OW24823   4.862   1.795   0.694
 7975SOL    HW124824   4.838   1.891   0.709
 7975SOL    HW224825   4.942   1.772   0.750
 7976SOL     OW24826   1.462   6.688   6.877
 7976SOL    HW124827   1.396   6.723   6.944
 7976SOL    HW224828   1.551   6.674   6.922
 7977SOL     OW24829   5.747   6.183   3.450
 7977SOL    HW124830   5.833   6.152   3.409
 7977SOL    HW224831   5.739   6.282   3.440
 7978SOL     OW24832   0.370   4.298   1.385
 7978SOL    HW124833   0.369   4.396   1.369
 7978SOL    HW224834   0.455   4.259   1.348
 7979SOL     OW24835   1.753   3.564   4.739
 7979SOL    HW124836   1.725   3.632   4.671
 7979SOL    HW224837   1.842   3.589   4.776
 7980SOL     OW24838   3.514   4.591   5.944
 7980SOL    HW124839   3.487   4.566   5.851
 7980SOL    HW224840   3.613   4.605   5.948
 7981SOL     OW24841   1.721   5.242   3.202
 7981SOL    HW124842   1.722   5.142   3.205
 7981SOL    HW224843   1.732   5.278   3.295
 7982SOL     OW24844   1.430   1.848   6.309
 7982SOL    HW124845   1.355   1.900   6.269
 7982SOL    HW224846   1.395   1.764   6.349
 7983SOL     OW24847   5.137   1.262   1.034
 7983SOL    HW124848   5.183   1.214   1.109
 7983SOL    HW224849   5.134   1.360   1.053
 7984SOL     OW24850   0.935   1.537   1.476
 7984SOL    HW124851   0.953   1.616   1.417
 7984SOL    HW224852   0.879   1.565   1.553
 7985SOL     OW24853   2.321   2.430   5.506
 7985SOL    HW124854   2.334   2.528   5.489
 7985SOL    HW224855   2.311   2.414   5.604
 7986SOL     OW24856   3.350   1.281   4.211
 7986SOL    HW124857   3.352   1.233   4.298
 7986SOL    HW224858   3.434   1.260   4.160
 7987SOL     OW24859   1.468   3.717   0.970
 7987SOL    HW124860   1.445   3.651   0.898
 7987SOL    HW224861   1.518   3.671   1.043
 7988SOL     OW24862   0.040   1.342   1.693
 7988SOL    HW124863   0.079   1.282   1.623
 7988SOL    HW224864   0.068   1.311   1.783
 7989SOL     OW24865   1.167   4.181   0.484
 7989SOL    HW124866   1.211   4.096   0.452
 7989SOL    HW224867   1.180   4.189   0.583
 7990SOL     OW24868   2.383   6.568   5.081
 7990SOL    HW124869   2.316   6.600   5.014
 7990SOL    HW224870   2.435   6.491   5.042
 7991SOL     OW24871   5.213   1.723   4.989
 7991SOL    HW124872   5.303   1.763   4.971
 7991SOL    HW224873   5.169   1.698   4.903
 7992SOL     OW24874   1.907   0.617   0.725
 7992SOL    HW124875   1.858   0.538   0.689
 7992SOL    HW224876   1.941   0.673   0.649
 7993SOL     OW24877   6.858   6.732   1.561
 7993SOL    HW124878   6.856   6.689   1.652
 7993SOL    HW224879   6.935   6.694   1.509
 7994SOL     OW24880   5.285   0.523   3.284
 7994SOL    HW124881   5.320   0.580   3.210
 7994SOL    HW224882   5.338   0.438   3.288
 7995SOL     OW24883   6.690   4.508   2.207
 7995SOL    HW124884   6.646   4.435   2.154
 7995SOL    HW224885   6.638   4.593   2.195
 7996SOL     OW24886   3.983   0.056   3.221
 7996SOL    HW124887   3.916   0.030   3.291
 7996SOL    HW224888   3.939   0.117   3.154
 7997SOL     OW24889   0.885   1.838   6.918
 7997SOL    HW124890   0.869   1.933   6.889
 7997SOL    HW224891   0.813   1.780   6.883
 7998SOL     OW24892   2.860   0.458   0.252
 7998SOL    HW124893   2.815   0.370   0.264
 7998SOL    HW224894   2.825   0.503   0.170
 7999SOL     OW24895   1.187   1.843   5.456
 7999SOL    HW124896   1.255   1.792   5.403
 7999SOL    HW224897   1.219   1.937   5.469
 8000SOL     OW24898   5.537   6.264   6.358
 8000SOL    HW124899   5.564   6.171   6.381
 8000SOL    HW224900   5.537   6.321   6.440
 8001SOL     OW24901   5.079   0.422   1.000
 8001SOL    HW124902   5.151   0.488   0.981
 8001SOL    HW224903   5.001   0.469   1.043
 8002SOL     OW24904   0.550   0.741   5.965
 8002SOL    HW124905   0.456   0.775   5.959
 8002SOL    HW224906   0.612   0.804   5.918
 8003SOL     OW24907   1.940   6.560   2.944
 8003SOL    HW124908   2.029   6.583   2.905
 8003SOL    HW224909   1.919   6.622   3.019
 8004SOL     OW24910   1.358   2.679   3.646
 8004SOL    HW124911   1.311   2.607   3.697
 8004SOL    HW224912   1.308   2.765   3.655
 8005SOL     OW24913   2.375   6.972   3.461
 8005SOL    HW124914   2.435   0.027   3.468
 8005SOL    HW224915   2.424   6.891   3.494
 8006SOL     OW24916   3.572   5.359   4.760
 8006SOL    HW124917   3.655   5.411   4.742
 8006SOL    HW224918   3.503   5.382   4.691
 8007SOL     OW24919   6.156   1.563   6.272
 8007SOL    HW124920   6.192   1.472   6.295
 8007SOL    HW224921   6.102   1.557   6.188
 8008SOL     OW24922   4.143   6.513   6.986
 8008SOL    HW124923   4.116   6.474   6.898
 8008SOL    HW224924   4.227   6.470   7.017
 8009SOL     OW24925   4.942   1.355   0.848
 8009SOL    HW124926   5.016   1.296   0.879
 8009SOL    HW224927   4.886   1.382   0.927
 8010SOL     OW24928   2.531   2.619   5.277
 8010SOL    HW124929   2.554   2.697   5.336
 8010SOL    HW224930   2.558   2.534   5.321
 8011SOL     OW24931   3.414   2.046   2.093
 8011SOL    HW124932   3.493   2.103   2.068
 8011SOL    HW224933   3.405   1.972   2.027
 8012SOL     OW24934   0.960   3.190   5.530
 8012SOL    HW124935   1.056   3.163   5.531
 8012SOL    HW224936   0.951   3.285   5.561
 8013SOL     OW24937   1.730   2.267   3.480
 8013SOL    HW124938   1.746   2.216   3.564
 8013SOL    HW224939   1.782   2.353   3.484
 8014SOL     OW24940   1.969   0.767   3.417
 8014SOL    HW124941   2.031   0.829   3.465
 8014SOL    HW224942   1.944   0.805   3.329
 8015SOL     OW24943   1.823   0.316   5.696
 8015SOL    HW124944   1.920   0.309   5.720
 8015SOL    HW224945   1.793   0.231   5.654
 8016SOL     OW24946   4.248   1.599   5.492
 8016SOL    HW124947   4.343   1.605   5.461
 8016SOL    HW224948   4.186   1.613   5.414
 8017SOL     OW24949   6.945   6.950   0.336
 8017SOL    HW124950   6.983   6.944   0.428
 8017SOL    HW224951   6.860   7.004   0.338
 8018SOL     OW24952   4.032   2.146   0.302
 8018SOL    HW124953   4.002   2.077   0.367
 8018SOL    HW224954   4.095   2.210   0.347
 8019SOL     OW24955   3.178   3.529   1.103
 8019SOL    HW124956   3.085   3.524   1.141
 8019SOL    HW224957   3.205   3.438   1.071
 8020SOL     OW24958   6.400   0.408   4.830
 8020SOL    HW124959   6.413   0.477   4.901
 8020SOL    HW224960   6.367   0.323   4.871
 8021SOL     OW24961   1.684   2.422   2.310
 8021SOL    HW124962   1.701   2.401   2.406
 8021SOL    HW224963   1.755   2.482   2.275
 8022SOL     OW24964   5.633   1.206   2.092
 8022SOL    HW124965   5.617   1.119   2.045
 8022SOL    HW224966   5.573   1.212   2.172
 8023SOL     OW24967   5.169   6.270   3.368
 8023SOL    HW124968   5.162   6.363   3.405
 8023SOL    HW224969   5.077   6.233   3.355
 8024SOL     OW24970   1.803   6.390   6.359
 8024SOL    HW124971   1.897   6.364   6.338
 8024SOL    HW224972   1.764   6.441   6.283
 8025SOL     OW24973   1.731   4.702   2.121
 8025SOL    HW124974   1.653   4.728   2.065
 8025SOL    HW224975   1.707   4.623   2.177
 8026SOL     OW24976   0.290   4.665   0.012
 8026SOL    HW124977   0.293   4.665   6.937
 8026SOL    HW224978   0.247   4.581   0.044
 8027SOL     OW24979   4.167   6.229   5.818
 8027SOL    HW124980   4.144   6.243   5.914
 8027SOL    HW224981   4.099   6.275   5.761
 8028SOL     OW24982   3.483   5.498   4.213
 8028SOL    HW124983   3.406   5.466   4.268
 8028SOL    HW224984   3.464   5.591   4.181
 8029SOL     OW24985   6.200   1.236   1.460
 8029SOL    HW124986   6.210   1.142   1.491
 8029SOL    HW224987   6.235   1.245   1.367
 8030SOL     OW24988   5.868   4.882   0.960
 8030SOL    HW124989   5.930   4.848   1.030
 8030SOL    HW224990   5.829   4.805   0.910
 8031SOL     OW24991   5.763   0.520   2.655
 8031SOL    HW124992   5.832   0.551   2.721
 8031SOL    HW224993   5.794   0.434   2.614
 8032SOL     OW24994   5.389   3.153   1.408
 8032SOL    HW124995   5.353   3.244   1.387
 8032SOL    HW224996   5.313   3.091   1.430
 8033SOL     OW24997   3.758   4.236   0.541
 8033SOL    HW124998   3.840   4.278   0.502
 8033SOL    HW224999   3.679   4.292   0.521
 8034SOL     OW25000   5.960   0.247   4.898
 8034SOL    HW125001   5.942   0.288   4.809
 8034SOL    HW225002   5.927   0.307   4.971
 8035SOL     OW25003   4.497   1.076   2.975
 8035SOL    HW125004   4.590   1.043   2.959
 8035SOL    HW225005   4.497   1.136   3.056
 8036SOL     OW25006   6.781   2.523   4.182
 8036SOL    HW125007   6.823   2.513   4.272
 8036SOL    HW225008   6.843   2.576   4.123
 8037SOL     OW25009   1.308   2.915   6.553
 8037SOL    HW125010   1.262   2.970   6.483
 8037SOL    HW225011   1.288   2.818   6.538
 8038SOL     OW25012   6.087   6.210   2.333
 8038SOL    HW125013   6.113   6.284   2.271
 8038SOL    HW225014   5.994   6.180   2.312
 8039SOL     OW25015   0.822   2.324   5.500
 8039SOL    HW125016   0.730   2.360   5.514
 8039SOL    HW225017   0.832   2.238   5.549
 8040SOL     OW25018   1.659   5.931   5.574
 8040SOL    HW125019   1.713   5.993   5.516
 8040SOL    HW225020   1.714   5.850   5.595
 8041SOL     OW25021   3.390   1.584   2.966
 8041SOL    HW125022   3.306   1.545   3.004
 8041SOL    HW225023   3.469   1.544   3.012
 8042SOL     OW25024   4.374   4.199   6.098
 8042SOL    HW125025   4.403   4.135   6.170
 8042SOL    HW225026   4.342   4.147   6.019
 8043SOL     OW25027   4.800   4.770   1.285
 8043SOL    HW125028   4.785   4.720   1.199
 8043SOL    HW225029   4.840   4.709   1.352
 8044SOL     OW25030   4.034   3.641   1.321
 8044SOL    HW125031   3.979   3.574   1.372
 8044SOL    HW225032   4.107   3.593   1.272
 8045SOL     OW25033   0.457   0.949   2.862
 8045SOL    HW125034   0.467   0.987   2.770
 8045SOL    HW225035   0.546   0.920   2.896
 8046SOL     OW25036   0.508   5.510   2.196
 8046SOL    HW125037   0.575   5.558   2.253
 8046SOL    HW225038   0.436   5.574   2.168
 8047SOL     OW25039   3.871   6.937   6.073
 8047SOL    HW125040   3.827   6.901   5.991
 8047SOL    HW225041   3.965   6.966   6.052
 8048SOL     OW25042   3.320   3.684   0.276
 8048SOL    HW125043   3.389   3.718   0.340
 8048SOL    HW225044   3.244   3.644   0.328
 8049SOL     OW25045   1.688   7.014   0.741
 8049SOL    HW125046   1.775   0.030   0.712
 8049SOL    HW225047   1.654   0.036   0.822
 8050SOL     OW25048   1.349   3.983   4.426
 8050SOL    HW125049   1.314   4.003   4.334
 8050SOL    HW225050   1.374   3.886   4.431
 8051SOL     OW25051   4.577   6.046   4.326
 8051SOL    HW125052   4.483   6.041   4.360
 8051SOL    HW225053   4.596   5.968   4.267
 8052SOL     OW25054   2.073   1.593   1.976
 8052SOL    HW125055   2.108   1.681   2.007
 8052SOL    HW225056   2.065   1.532   2.055
 8053SOL     OW25057   3.245   3.216   6.329
 8053SOL    HW125058   3.187   3.245   6.253
 8053SOL    HW225059   3.202   3.140   6.377
 8054SOL     OW25060   5.307   4.004   5.136
 8054SOL    HW125061   5.404   3.995   5.113
 8054SOL    HW225062   5.280   3.929   5.197
 8055SOL     OW25063   0.224   0.871   5.098
 8055SOL    HW125064   0.284   0.805   5.143
 8055SOL    HW225065   0.278   0.928   5.036
 8056SOL     OW25066   2.567   0.117   3.505
 8056SOL    HW125067   2.532   0.145   3.595
 8056SOL    HW225068   2.657   0.074   3.516
 8057SOL     OW25069   2.326   2.272   1.678
 8057SOL    HW125070   2.351   2.175   1.676
 8057SOL    HW225071   2.227   2.280   1.690
 8058SOL     OW25072   2.935   6.494   3.740
 8058SOL    HW125073   2.988   6.442   3.673
 8058SOL    HW225074   2.871   6.432   3.787
 8059SOL     OW25075   2.709   2.250   5.846
 8059SOL    HW125076   2.726   2.166   5.795
 8059SOL    HW225077   2.732   2.236   5.942
 8060SOL     OW25078   6.646   0.716   6.544
 8060SOL    HW125079   6.717   0.681   6.604
 8060SOL    HW225080   6.585   0.776   6.595
 8061SOL     OW25081   0.354   0.703   1.961
 8061SOL    HW125082   0.336   0.667   1.870
 8061SOL    HW225083   0.299   0.653   2.028
 8062SOL     OW25084   4.042   5.360   4.977
 8062SOL    HW125085   4.057   5.289   4.909
 8062SOL    HW225086   3.956   5.343   5.026
 8063SOL     OW25087   3.331   0.458   3.433
 8063SOL    HW125088   3.420   0.453   3.389
 8063SOL    HW225089   3.276   0.530   3.390
 8064SOL     OW25090   6.460   3.278   6.997
 8064SOL    HW125091   6.481   3.183   7.021
 8064SOL    HW225092   6.363   3.286   6.977
 8065SOL     OW25093   3.565   0.008   4.522
 8065SOL    HW125094   3.564   0.079   4.592
 8065SOL    HW225095   3.507   0.035   4.446
 8066SOL     OW25096   6.690   1.312   4.566
 8066SOL    HW125097   6.644   1.359   4.491
 8066SOL    HW225098   6.789   1.320   4.555
 8067SOL     OW25099   5.283   3.350   3.725
 8067SOL    HW125100   5.371   3.397   3.731
 8067SOL    HW225101   5.275   3.285   3.801
 8068SOL     OW25102   0.223   4.560   1.604
 8068SOL    HW125103   0.170   4.559   1.520
 8068SOL    HW225104   0.222   4.469   1.646
 8069SOL     OW25105   2.874   5.071   2.358
 8069SOL    HW125106   2.865   5.123   2.444
 8069SOL    HW225107   2.855   4.975   2.375
 8070SOL     OW25108   4.267   4.801   0.506
 8070SOL    HW125109   4.350   4.747   0.491
 8070SOL    HW225110   4.224   4.772   0.591
 8071SOL     OW25111   4.179   6.680   5.603
 8071SOL    HW125112   4.106   6.712   5.543
 8071SOL    HW225113   4.147   6.679   5.698
 8072SOL     OW25114   2.582   2.815   0.221
 8072SOL    HW125115   2.546   2.908   0.209
 8072SOL    HW225116   2.552   2.779   0.309
 8073SOL     OW25117   2.726   0.032   6.474
 8073SOL    HW125118   2.741   6.960   6.456
 8073SOL    HW225119   2.742   0.085   6.391
 8074SOL     OW25120   1.916   1.750   0.450
 8074SOL    HW125121   1.855   1.751   0.371
 8074SOL    HW225122   1.918   1.658   0.490
 8075SOL     OW25123   0.293   6.373   6.746
 8075SOL    HW125124   0.352   6.423   6.683
 8075SOL    HW225125   0.233   6.312   6.695
 8076SOL     OW25126   6.985   6.968   6.803
 8076SOL    HW125127   6.956   0.020   6.859
 8076SOL    HW225128   6.910   6.940   6.743
 8077SOL     OW25129   3.956   5.741   1.758
 8077SOL    HW125130   3.868   5.697   1.777
 8077SOL    HW225131   3.961   5.765   1.661
 8078SOL     OW25132   1.038   1.719   0.722
 8078SOL    HW125133   0.987   1.777   0.659
 8078SOL    HW225134   0.985   1.705   0.805
 8079SOL     OW25135   0.577   1.295   4.348
 8079SOL    HW125136   0.492   1.348   4.348
 8079SOL    HW225137   0.618   1.298   4.439
 8080SOL     OW25138   0.910   2.971   2.651
 8080SOL    HW125139   0.999   2.995   2.692
 8080SOL    HW225140   0.848   2.940   2.723
 8081SOL     OW25141   5.787   4.418   5.062
 8081SOL    HW125142   5.879   4.406   5.023
 8081SOL    HW225143   5.745   4.500   5.024
 8082SOL     OW25144   2.510   0.991   2.410
 8082SOL    HW125145   2.595   1.043   2.400
 8082SOL    HW225146   2.475   0.967   2.319
 8083SOL     OW25147   5.623   2.442   4.250
 8083SOL    HW125148   5.714   2.402   4.257
 8083SOL    HW225149   5.572   2.395   4.178
 8084SOL     OW25150   1.825   0.486   6.208
 8084SOL    HW125151   1.879   0.539   6.143
 8084SOL    HW225152   1.864   0.394   6.216
 8085SOL     OW25153   0.413   5.820   3.015
 8085SOL    HW125154   0.334   5.863   2.971
 8085SOL    HW225155   0.401   5.823   3.114
 8086SOL     OW25156   0.197   1.177   1.539
 8086SOL    HW125157   0.289   1.154   1.570
 8086SOL    HW225158   0.132   1.111   1.576
 8087SOL     OW25159   1.014   0.784   6.666
 8087SOL    HW125160   1.058   0.782   6.756
 8087SOL    HW225161   0.914   0.780   6.677
 8088SOL     OW25162   5.522   6.482   6.585
 8088SOL    HW125163   5.580   6.534   6.522
 8088SOL    HW225164   5.427   6.514   6.577
 8089SOL     OW25165   5.878   2.939   6.576
 8089SOL    HW125166   5.865   2.856   6.629
 8089SOL    HW225167   5.792   2.991   6.575
 8090SOL     OW25168   4.050   1.690   6.746
 8090SOL    HW125169   4.027   1.602   6.787
 8090SOL    HW225170   3.972   1.724   6.694
 8091SOL     OW25171   1.557   4.248   4.033
 8091SOL    HW125172   1.473   4.297   4.057
 8091SOL    HW225173   1.601   4.215   4.116
 8092SOL     OW25174   4.693   2.111   5.132
 8092SOL    HW125175   4.630   2.042   5.095
 8092SOL    HW225176   4.764   2.065   5.186
 8093SOL     OW25177   3.121   5.858   3.280
 8093SOL    HW125178   3.194   5.793   3.262
 8093SOL    HW225179   3.033   5.818   3.254
 8094SOL     OW25180   1.085   3.881   4.955
 8094SOL    HW125181   1.063   3.908   5.049
 8094SOL    HW225182   1.174   3.836   4.953
 8095SOL     OW25183   1.538   4.603   5.319
 8095SOL    HW125184   1.537   4.516   5.268
 8095SOL    HW225185   1.451   4.650   5.306
 8096SOL     OW25186   1.289   0.020   1.880
 8096SOL    HW125187   1.279   7.025   1.978
 8096SOL    HW225188   1.343   0.104   1.870
 8097SOL     OW25189   3.600   0.014   5.272
 8097SOL    HW125190   3.663   7.009   5.200
 8097SOL    HW225191   3.558   0.101   5.245
 8098SOL     OW25192   0.644   6.134   4.085
 8098SOL    HW125193   0.737   6.104   4.106
 8098SOL    HW225194   0.628   6.223   4.129
 8099SOL     OW25195   4.329   5.793   4.117
 8099SOL    HW125196   4.333   5.699   4.082
 8099SOL    HW225197   4.422   5.830   4.122
 8100SOL     OW25198   5.702   1.192   6.229
 8100SOL    HW125199   5.608   1.196   6.195
 8100SOL    HW225200   5.719   1.270   6.289
 8101SOL     OW25201   2.536   5.666   0.713
 8101SOL    HW125202   2.489   5.608   0.647
 8101SOL    HW225203   2.473   5.735   0.748
 8102SOL     OW25204   1.065   3.280   4.437
 8102SOL    HW125205   1.123   3.319   4.509
 8102SOL    HW225206   0.976   3.256   4.476
 8103SOL     OW25207   3.792   0.837   2.322
 8103SOL    HW125208   3.812   0.926   2.363
 8103SOL    HW225209   3.855   0.820   2.246
 8104SOL     OW25210   1.806   6.873   5.715
 8104SOL    HW125211   1.894   6.838   5.747
 8104SOL    HW225212   1.736   6.801   5.726
 8105SOL     OW25213   0.001   2.125   2.954
 8105SOL    HW125214   7.024   2.221   2.928
 8105SOL    HW225215   6.985   2.070   2.881
 8106SOL     OW25216   2.764   6.593   4.049
 8106SOL    HW125217   2.855   6.633   4.035
 8106SOL    HW225218   2.773   6.508   4.101
 8107SOL     OW25219   1.706   5.889   4.591
 8107SOL    HW125220   1.636   5.886   4.663
 8107SOL    HW225221   1.784   5.942   4.623
 8108SOL     OW25222   6.468   1.555   6.611
 8108SOL    HW125223   6.539   1.507   6.559
 8108SOL    HW225224   6.502   1.575   6.703
 8109SOL     OW25225   6.961   3.798   6.547
 8109SOL    HW125226   6.985   3.878   6.493
 8109SOL    HW225227   0.018   3.762   6.592
 8110SOL     OW25228   4.009   4.990   1.263
 8110SOL    HW125229   4.039   4.915   1.322
 8110SOL    HW225230   3.909   4.993   1.261
 8111SOL     OW25231   6.071   0.876   3.564
 8111SOL    HW125232   5.987   0.910   3.523
 8111SOL    HW225233   6.065   0.880   3.663
 8112SOL     OW25234   0.179   2.958   4.782
 8112SOL    HW125235   0.142   2.872   4.747
 8112SOL    HW225236   0.137   2.979   4.870
 8113SOL     OW25237   6.535   3.224   1.511
 8113SOL    HW125238   6.612   3.244   1.571
 8113SOL    HW225239   6.451   3.263   1.550
 8114SOL     OW25240   1.078   4.383   2.452
 8114SOL    HW125241   1.084   4.299   2.505
 8114SOL    HW225242   1.012   4.371   2.378
 8115SOL     OW25243   2.693   6.792   6.176
 8115SOL    HW125244   2.732   6.714   6.225
 8115SOL    HW225245   2.593   6.787   6.178
 8116SOL     OW25246   4.077   5.525   0.521
 8116SOL    HW125247   4.120   5.438   0.498
 8116SOL    HW225248   4.142   5.600   0.504
 8117SOL     OW25249   2.320   6.608   3.048
 8117SOL    HW125250   2.271   6.520   3.052
 8117SOL    HW225251   2.384   6.607   2.971
 8118SOL     OW25252   6.349   4.383   6.477
 8118SOL    HW125253   6.260   4.363   6.436
 8118SOL    HW225254   6.374   4.308   6.539
 8119SOL     OW25255   5.009   6.463   6.256
 8119SOL    HW125256   4.947   6.425   6.187
 8119SOL    HW225257   5.104   6.447   6.227
 8120SOL     OW25258   2.397   5.115   0.700
 8120SOL    HW125259   2.484   5.066   0.710
 8120SOL    HW225260   2.368   5.151   0.789
 8121SOL     OW25261   0.946   4.150   3.169
 8121SOL    HW125262   0.910   4.178   3.258
 8121SOL    HW225263   0.918   4.216   3.100
 8122SOL     OW25264   0.900   4.345   2.939
 8122SOL    HW125265   0.820   4.319   2.994
 8122SOL    HW225266   0.902   4.290   2.856
 8123SOL     OW25267   0.613   1.348   0.121
 8123SOL    HW125268   0.704   1.345   0.079
 8123SOL    HW225269   0.601   1.435   0.168
 8124SOL     OW25270   5.369   6.208   4.147
 8124SOL    HW125271   5.429   6.257   4.084
 8124SOL    HW225272   5.329   6.273   4.212
 8125SOL     OW25273   1.306   0.841   2.999
 8125SOL    HW125274   1.405   0.832   2.992
 8125SOL    HW225275   1.262   0.778   2.935
 8126SOL     OW25276   4.549   5.006   3.687
 8126SOL    HW125277   4.594   4.916   3.691
 8126SOL    HW225278   4.601   5.066   3.626
 8127SOL     OW25279   3.000   2.732   6.785
 8127SOL    HW125280   2.924   2.742   6.850
 8127SOL    HW225281   3.048   2.646   6.804
 8128SOL     OW25282   3.111   2.181   1.698
 8128SOL    HW125283   3.163   2.266   1.693
 8128SOL    HW225284   3.160   2.114   1.754
 8129SOL     OW25285   1.797   2.035   0.058
 8129SOL    HW125286   1.755   2.071   7.000
 8129SOL    HW225287   1.890   2.006   0.038
 8130SOL     OW25288   1.592   5.994   0.088
 8130SOL    HW125289   1.605   5.908   0.038
 8130SOL    HW225290   1.567   6.066   0.023
 8131SOL     OW25291   3.087   2.729   1.221
 8131SOL    HW125292   3.075   2.710   1.123
 8131SOL    HW225293   2.998   2.741   1.264
 8132SOL     OW25294   6.532   6.798   4.510
 8132SOL    HW125295   6.470   6.776   4.586
 8132SOL    HW225296   6.525   6.728   4.440
 8133SOL     OW25297   4.079   5.409   2.311
 8133SOL    HW125298   4.062   5.477   2.383
 8133SOL    HW225299   4.112   5.324   2.353
 8134SOL     OW25300   6.107   1.190   6.069
 8134SOL    HW125301   6.012   1.221   6.061
 8134SOL    HW225302   6.109   1.091   6.079
 8135SOL     OW25303   1.929   0.825   1.629
 8135SOL    HW125304   1.942   0.900   1.695
 8135SOL    HW225305   1.926   0.738   1.677
 8136SOL     OW25306   5.256   5.408   2.381
 8136SOL    HW125307   5.237   5.495   2.427
 8136SOL    HW225308   5.274   5.337   2.449
 8137SOL     OW25309   2.952   1.031   5.329
 8137SOL    HW125310   2.862   1.000   5.298
 8137SOL    HW225311   3.022   1.000   5.265
 8138SOL     OW25312   5.625   1.461   1.465
 8138SOL    HW125313   5.678   1.493   1.387
 8138SOL    HW225314   5.678   1.475   1.549
 8139SOL     OW25315   0.422   1.617   2.442
 8139SOL    HW125316   0.339   1.563   2.450
 8139SOL    HW225317   0.404   1.711   2.470
 8140SOL     OW25318   4.276   1.112   4.250
 8140SOL    HW125319   4.329   1.187   4.208
 8140SOL    HW225320   4.240   1.142   4.338
 8141SOL     OW25321   3.614   5.366   5.380
 8141SOL    HW125322   3.548   5.337   5.449
 8141SOL    HW225323   3.618   5.466   5.376
 8142SOL     OW25324   6.201   4.759   0.215
 8142SOL    HW125325   6.143   4.691   0.169
 8142SOL    HW225326   6.248   4.717   0.292
 8143SOL     OW25327   6.343   4.656   6.287
 8143SOL    HW125328   6.249   4.643   6.256
 8143SOL    HW225329   6.398   4.696   6.213
 8144SOL     OW25330   5.593   0.201   0.031
 8144SOL    HW125331   5.550   0.286   0.063
 8144SOL    HW225332   5.644   0.159   0.107
 8145SOL     OW25333   6.278   5.807   2.652
 8145SOL    HW125334   6.251   5.718   2.688
 8145SOL    HW225335   6.222   5.830   2.572
 8146SOL     OW25336   3.442   1.011   5.937
 8146SOL    HW125337   3.387   1.018   6.020
 8146SOL    HW225338   3.387   1.041   5.858
 8147SOL     OW25339   5.401   1.719   3.275
 8147SOL    HW125340   5.317   1.767   3.251
 8147SOL    HW225341   5.479   1.782   3.267
 8148SOL     OW25342   5.445   3.322   2.523
 8148SOL    HW125343   5.380   3.345   2.450
 8148SOL    HW225344   5.416   3.238   2.568
 8149SOL     OW25345   3.003   5.733   2.574
 8149SOL    HW125346   3.087   5.679   2.583
 8149SOL    HW225347   2.934   5.698   2.636
 8150SOL     OW25348   0.115   4.759   1.191
 8150SOL    HW125349   0.092   4.818   1.114
 8150SOL    HW225350   0.211   4.732   1.185
 8151SOL     OW25351   0.936   1.915   3.463
 8151SOL    HW125352   1.034   1.905   3.478
 8151SOL    HW225353   0.907   2.007   3.490
 8152SOL     OW25354   1.600   1.143   2.900
 8152SOL    HW125355   1.674   1.102   2.847
 8152SOL    HW225356   1.533   1.184   2.838
 8153SOL     OW25357   3.155   0.104   2.302
 8153SOL    HW125358   3.145   0.054   2.216
 8153SOL    HW225359   3.109   0.192   2.295
 8154SOL     OW25360   2.514   6.160   4.077
 8154SOL    HW125361   2.583   6.090   4.095
 8154SOL    HW225362   2.491   6.206   4.162
 8155SOL     OW25363   3.213   3.042   2.120
 8155SOL    HW125364   3.263   3.002   2.197
 8155SOL    HW225365   3.203   2.974   2.048
 8156SOL     OW25366   5.714   0.553   4.923
 8156SOL    HW125367   5.653   0.632   4.919
 8156SOL    HW225368   5.735   0.532   5.018
 8157SOL     OW25369   5.633   5.241   6.979
 8157SOL    HW125370   5.644   5.150   6.940
 8157SOL    HW225371   5.624   5.308   6.905
 8158SOL     OW25372   1.032   5.798   1.172
 8158SOL    HW125373   0.937   5.791   1.144
 8158SOL    HW225374   1.091   5.763   1.099
 8159SOL     OW25375   1.971   5.230   2.154
 8159SOL    HW125376   1.958   5.159   2.084
 8159SOL    HW225377   2.017   5.190   2.234
 8160SOL     OW25378   5.026   1.959   1.418
 8160SOL    HW125379   5.039   1.875   1.470
 8160SOL    HW225380   4.931   1.965   1.386
 8161SOL     OW25381   4.864   1.004   0.688
 8161SOL    HW125382   4.941   1.025   0.749
 8161SOL    HW225383   4.832   1.089   0.646
 8162SOL     OW25384   5.752   0.218   1.173
 8162SOL    HW125385   5.711   0.274   1.100
 8162SOL    HW225386   5.724   0.253   1.262
 8163SOL     OW25387   2.548   4.465   5.350
 8163SOL    HW125388   2.494   4.504   5.275
 8163SOL    HW225389   2.490   4.451   5.429
 8164SOL     OW25390   5.616   2.860   1.688
 8164SOL    HW125391   5.585   2.951   1.658
 8164SOL    HW225392   5.538   2.797   1.687
 8165SOL     OW25393   1.929   4.328   1.256
 8165SOL    HW125394   1.935   4.261   1.182
 8165SOL    HW225395   1.832   4.342   1.280
 8166SOL     OW25396   2.226   0.693   2.224
 8166SOL    HW125397   2.147   0.743   2.260
 8166SOL    HW225398   2.215   0.596   2.243
 8167SOL     OW25399   5.890   2.682   3.621
 8167SOL    HW125400   5.808   2.724   3.659
 8167SOL    HW225401   5.962   2.679   3.691
 8168SOL     OW25402   3.350   1.412   2.717
 8168SOL    HW125403   3.297   1.334   2.750
 8168SOL    HW225404   3.380   1.466   2.795
 8169SOL     OW25405   4.567   3.844   0.699
 8169SOL    HW125406   4.572   3.828   0.797
 8169SOL    HW225407   4.523   3.932   0.682
 8170SOL     OW25408   1.280   6.313   3.792
 8170SOL    HW125409   1.364   6.327   3.741
 8170SOL    HW225410   1.228   6.237   3.753
 8171SOL     OW25411   0.497   1.804   6.558
 8171SOL    HW125412   0.446   1.889   6.571
 8171SOL    HW225413   0.492   1.777   6.461
 8172SOL     OW25414   0.364   6.983   0.373
 8172SOL    HW125415   0.321   6.911   0.318
 8172SOL    HW225416   0.314   0.043   0.362
 8173SOL     OW25417   3.754   2.596   6.968
 8173SOL    HW125418   3.685   2.626   6.902
 8173SOL    HW225419   3.804   2.676   7.002
 8174SOL     OW25420   5.785   1.909   1.073
 8174SOL    HW125421   5.735   1.993   1.096
 8174SOL    HW225422   5.819   1.915   0.979
 8175SOL     OW25423   6.971   2.483   6.168
 8175SOL    HW125424   6.934   2.391   6.180
 8175SOL    HW225425   6.917   2.532   6.099
 8176SOL     OW25426   2.449   5.892   2.050
 8176SOL    HW125427   2.466   5.908   2.147
 8176SOL    HW225428   2.350   5.887   2.034
 8177SOL     OW25429   0.978   6.059   4.085
 8177SOL    HW125430   0.931   6.081   4.000
 8177SOL    HW225431   0.955   5.966   4.114
 8178SOL     OW25432   2.222   7.009   6.173
 8178SOL    HW125433   2.212   0.014   6.268
 8178SOL    HW225434   2.319   6.996   6.152
 8179SOL     OW25435   3.271   2.871   0.163
 8179SOL    HW125436   3.348   2.840   0.219
 8179SOL    HW225437   3.275   2.826   0.074
 8180SOL     OW25438   0.681   0.104   4.675
 8180SOL    HW125439   0.658   0.018   4.719
 8180SOL    HW225440   0.711   0.087   4.581
 8181SOL     OW25441   2.745   2.335   2.846
 8181SOL    HW125442   2.690   2.302   2.769
 8181SOL    HW225443   2.808   2.407   2.814
 8182SOL     OW25444   3.090   2.365   6.059
 8182SOL    HW125445   3.069   2.398   5.967
 8182SOL    HW225446   3.104   2.266   6.057
 8183SOL     OW25447   1.010   3.658   5.354
 8183SOL    HW125448   1.057   3.580   5.395
 8183SOL    HW225449   0.985   3.723   5.425
 8184SOL     OW25450   7.022   0.624   5.427
 8184SOL    HW125451   0.093   0.642   5.449
 8184SOL    HW225452   6.964   0.670   5.494
 8185SOL     OW25453   2.676   1.298   1.845
 8185SOL    HW125454   2.712   1.271   1.935
 8185SOL    HW225455   2.751   1.300   1.779
 8186SOL     OW25456   3.227   6.146   5.945
 8186SOL    HW125457   3.285   6.086   5.890
 8186SOL    HW225458   3.137   6.154   5.903
 8187SOL     OW25459   1.537   2.017   5.590
 8187SOL    HW125460   1.519   1.918   5.587
 8187SOL    HW225461   1.635   2.033   5.582
 8188SOL     OW25462   5.898   2.108   2.608
 8188SOL    HW125463   5.844   2.063   2.679
 8188SOL    HW225464   5.848   2.105   2.521
 8189SOL     OW25465   5.599   4.079   2.372
 8189SOL    HW125466   5.689   4.114   2.346
 8189SOL    HW225467   5.595   4.068   2.471
 8190SOL     OW25468   5.137   3.493   3.961
 8190SOL    HW125469   5.223   3.441   3.965
 8190SOL    HW225470   5.087   3.468   3.878
 8191SOL     OW25471   0.989   5.535   3.961
 8191SOL    HW125472   0.917   5.594   3.924
 8191SOL    HW225473   1.052   5.590   4.017
 8192SOL     OW25474   2.286   5.417   2.172
 8192SOL    HW125475   2.385   5.403   2.180
 8192SOL    HW225476   2.266   5.465   2.086
 8193SOL     OW25477   4.951   6.673   4.981
 8193SOL    HW125478   4.947   6.690   5.079
 8193SOL    HW225479   4.909   6.584   4.961
 8194SOL     OW25480   6.419   1.155   6.721
 8194SOL    HW125481   6.420   1.230   6.654
 8194SOL    HW225482   6.431   1.068   6.673
 8195SOL     OW25483   6.645   6.950   6.896
 8195SOL    HW125484   6.652   6.946   6.996
 8195SOL    HW225485   6.605   6.865   6.862
 8196SOL     OW25486   3.812   6.530   6.519
 8196SOL    HW125487   3.795   6.590   6.442
 8196SOL    HW225488   3.749   6.554   6.594
 8197SOL     OW25489   6.587   0.697   6.276
 8197SOL    HW125490   6.590   0.679   6.374
 8197SOL    HW225491   6.507   0.650   6.236
 8198SOL     OW25492   2.756   6.507   3.095
 8198SOL    HW125493   2.666   6.475   3.125
 8198SOL    HW225494   2.789   6.450   3.020
 8199SOL     OW25495   0.314   3.842   6.997
 8199SOL    HW125496   0.269   3.845   0.061
 8199SOL    HW225497   0.259   3.891   6.930
 8200SOL     OW25498   4.509   4.054   1.591
 8200SOL    HW125499   4.480   4.079   1.683
 8200SOL    HW225500   4.503   4.135   1.531
 8201SOL     OW25501   5.667   0.015   3.658
 8201SOL    HW125502   5.647   0.074   3.737
 8201SOL    HW225503   5.766   0.007   3.648
 8202SOL     OW25504   1.386   4.626   3.529
 8202SOL    HW125505   1.394   4.627   3.430
 8202SOL    HW225506   1.387   4.720   3.563
 8203SOL     OW25507   5.031   3.723   1.360
 8203SOL    HW125508   5.033   3.628   1.391
 8203SOL    HW225509   5.053   3.726   1.262
 8204SOL     OW25510   3.237   6.798   2.310
 8204SOL    HW125511   3.283   6.709   2.310
 8204SOL    HW225512   3.279   6.858   2.378
 8205SOL     OW25513   5.484   5.286   1.798
 8205SOL    HW125514   5.482   5.377   1.757
 8205SOL    HW225515   5.578   5.262   1.823
 8206SOL     OW25516   4.256   2.362   5.491
 8206SOL    HW125517   4.346   2.367   5.534
 8206SOL    HW225518   4.186   2.347   5.560
 8207SOL     OW25519   3.362   4.811   6.017
 8207SOL    HW125520   3.412   4.734   5.976
 8207SOL    HW225521   3.357   4.798   6.116
 8208SOL     OW25522   1.778   4.972   1.795
 8208SOL    HW125523   1.833   4.932   1.723
 8208SOL    HW225524   1.813   5.063   1.818
 8209SOL     OW25525   1.400   1.095   5.433
 8209SOL    HW125526   1.424   1.026   5.364
 8209SOL    HW225527   1.323   1.062   5.487
 8210SOL     OW25528   2.075   1.301   0.575
 8210SOL    HW125529   2.166   1.329   0.605
 8210SOL    HW225530   2.019   1.382   0.559
 8211SOL     OW25531   2.950   3.214   4.416
 8211SOL    HW125532   2.910   3.134   4.369
 8211SOL    HW225533   2.926   3.297   4.366
 8212SOL     OW25534   2.267   6.988   1.162
 8212SOL    HW125535   2.202   0.020   1.113
 8212SOL    HW225536   2.234   6.970   1.254
 8213SOL     OW25537   4.176   4.333   1.688
 8213SOL    HW125538   4.211   4.422   1.719
 8213SOL    HW225539   4.234   4.260   1.723
 8214SOL     OW25540   3.181   5.771   4.003
 8214SOL    HW125541   3.256   5.739   4.062
 8214SOL    HW225542   3.219   5.826   3.929
 8215SOL     OW25543   3.875   6.632   6.993
 8215SOL    HW125544   3.843   6.681   6.912
 8215SOL    HW225545   3.966   6.594   6.975
 8216SOL     OW25546   4.513   5.967   2.084
 8216SOL    HW125547   4.582   6.014   2.030
 8216SOL    HW225548   4.524   5.868   2.073
 8217SOL     OW25549   2.761   5.337   3.694
 8217SOL    HW125550   2.787   5.259   3.752
 8217SOL    HW225551   2.771   5.312   3.598
 8218SOL     OW25552   1.595   0.419   4.635
 8218SOL    HW125553   1.550   0.438   4.722
 8218SOL    HW225554   1.623   0.324   4.632
 8219SOL     OW25555   3.786   3.807   0.402
 8219SOL    HW125556   3.836   3.769   0.324
 8219SOL    HW225557   3.851   3.848   0.466
 8220SOL     OW25558   3.818   4.033   4.639
 8220SOL    HW125559   3.800   3.995   4.730
 8220SOL    HW225560   3.908   4.003   4.607
 8221SOL     OW25561   6.278   3.413   3.581
 8221SOL    HW125562   6.324   3.416   3.493
 8221SOL    HW225563   6.268   3.319   3.611
 8222SOL     OW25564   5.903   2.678   1.233
 8222SOL    HW125565   5.992   2.680   1.277
 8222SOL    HW225566   5.889   2.764   1.182
 8223SOL     OW25567   0.132   5.988   5.645
 8223SOL    HW125568   0.105   5.944   5.559
 8223SOL    HW225569   0.110   5.927   5.722
 8224SOL     OW25570   5.258   2.204   0.113
 8224SOL    HW125571   5.272   2.156   0.027
 8224SOL    HW225572   5.196   2.150   0.171
 8225SOL     OW25573   4.766   2.109   0.392
 8225SOL    HW125574   4.710   2.191   0.389
 8225SOL    HW225575   4.758   2.066   0.483
 8226SOL     OW25576   3.486   0.490   0.428
 8226SOL    HW125577   3.567   0.453   0.474
 8226SOL    HW225578   3.507   0.509   0.332
 8227SOL     OW25579   5.242   2.304   2.936
 8227SOL    HW125580   5.315   2.320   2.869
 8227SOL    HW225581   5.156   2.285   2.888
 8228SOL     OW25582   0.999   1.100   5.531
 8228SOL    HW125583   0.964   1.096   5.437
 8228SOL    HW225584   1.059   1.021   5.547
 8229SOL     OW25585   4.191   4.711   1.057
 8229SOL    HW125586   4.178   4.717   0.958
 8229SOL    HW225587   4.123   4.770   1.103
 8230SOL     OW25588   4.349   0.981   5.659
 8230SOL    HW125589   4.356   0.894   5.708
 8230SOL    HW225590   4.367   0.966   5.562
 8231SOL     OW25591   2.737   1.318   2.634
 8231SOL    HW125592   2.687   1.275   2.710
 8231SOL    HW225593   2.781   1.402   2.666
 8232SOL     OW25594   4.564   6.702   2.367
 8232SOL    HW125595   4.498   6.719   2.440
 8232SOL    HW225596   4.573   6.784   2.310
 8233SOL     OW25597   0.558   0.685   5.161
 8233SOL    HW125598   0.470   0.653   5.197
 8233SOL    HW225599   0.593   0.620   5.094
 8234SOL     OW25600   2.259   2.577   0.239
 8234SOL    HW125601   2.318   2.563   0.318
 8234SOL    HW225602   2.182   2.636   0.265
 8235SOL     OW25603   6.986   5.622   0.507
 8235SOL    HW125604   6.933   5.616   0.591
 8235SOL    HW225605   6.960   5.705   0.457
 8236SOL     OW25606   1.113   6.831   6.334
 8236SOL    HW125607   1.063   6.769   6.273
 8236SOL    HW225608   1.208   6.836   6.306
 8237SOL     OW25609   4.246   5.500   6.326
 8237SOL    HW125610   4.208   5.421   6.375
 8237SOL    HW225611   4.340   5.480   6.298
 8238SOL     OW25612   1.954   4.581   0.929
 8238SOL    HW125613   2.035   4.550   0.979
 8238SOL    HW225614   1.939   4.522   0.849
 8239SOL     OW25615   0.412   1.935   5.284
 8239SOL    HW125616   0.406   1.904   5.379
 8239SOL    HW225617   0.439   2.031   5.282
 8240SOL     OW25618   3.763   3.957   4.880
 8240SOL    HW125619   3.716   4.033   4.925
 8240SOL    HW225620   3.832   3.919   4.941
 8241SOL     OW25621   2.115   3.951   6.608
 8241SOL    HW125622   2.080   4.032   6.561
 8241SOL    HW225623   2.170   3.980   6.686
 8242SOL     OW25624   0.504   3.443   4.415
 8242SOL    HW125625   0.491   3.519   4.352
 8242SOL    HW225626   0.529   3.360   4.364
 8243SOL     OW25627   0.682   5.036   4.947
 8243SOL    HW125628   0.737   5.119   4.953
 8243SOL    HW225629   0.736   4.962   4.908
 8244SOL     OW25630   1.691   0.308   3.672
 8244SOL    HW125631   1.714   0.295   3.576
 8244SOL    HW225632   1.717   0.400   3.701
 8245SOL     OW25633   5.682   1.462   3.960
 8245SOL    HW125634   5.781   1.459   3.950
 8245SOL    HW225635   5.655   1.413   4.043
 8246SOL     OW25636   1.340   4.501   6.879
 8246SOL    HW125637   1.432   4.463   6.895
 8246SOL    HW225638   1.344   4.601   6.886
 8247SOL     OW25639   3.452   5.440   3.378
 8247SOL    HW125640   3.427   5.417   3.283
 8247SOL    HW225641   3.550   5.429   3.391
 8248SOL     OW25642   0.648   5.095   2.759
 8248SOL    HW125643   0.695   5.050   2.836
 8248SOL    HW225644   0.623   5.188   2.786
 8249SOL     OW25645   2.500   2.107   6.113
 8249SOL    HW125646   2.575   2.169   6.089
 8249SOL    HW225647   2.535   2.014   6.122
 8250SOL     OW25648   1.796   1.704   6.567
 8250SOL    HW125649   1.805   1.642   6.489
 8250SOL    HW225650   1.733   1.666   6.634
 8251SOL     OW25651   0.076   2.272   4.663
 8251SOL    HW125652   0.112   2.349   4.611
 8251SOL    HW225653   7.002   2.268   4.652
 8252SOL     OW25654   1.833   2.322   6.755
 8252SOL    HW125655   1.930   2.344   6.766
 8252SOL    HW225656   1.788   2.393   6.701
 8253SOL     OW25657   3.972   6.005   0.527
 8253SOL    HW125658   3.950   6.102   0.526
 8253SOL    HW225659   4.037   5.985   0.453
 8254SOL     OW25660   5.091   5.421   0.402
 8254SOL    HW125661   5.150   5.499   0.379
 8254SOL    HW225662   5.147   5.341   0.421
 8255SOL     OW25663   0.496   6.175   6.332
 8255SOL    HW125664   0.515   6.099   6.269
 8255SOL    HW225665   0.581   6.225   6.349
 8256SOL     OW25666   1.698   5.798   2.978
 8256SOL    HW125667   1.623   5.779   2.915
 8256SOL    HW225668   1.682   5.751   3.065
 8257SOL     OW25669   4.791   3.978   3.862
 8257SOL    HW125670   4.861   4.024   3.916
 8257SOL    HW225671   4.793   3.880   3.882
 8258SOL     OW25672   6.656   3.310   1.730
 8258SOL    HW125673   6.735   3.316   1.792
 8258SOL    HW225674   6.615   3.401   1.720
 8259SOL     OW25675   4.235   1.381   3.794
 8259SOL    HW125676   4.167   1.358   3.865
 8259SOL    HW225677   4.229   1.479   3.773
 8260SOL     OW25678   3.356   0.640   1.178
 8260SOL    HW125679   3.259   0.663   1.172
 8260SOL    HW225680   3.376   0.564   1.117
 8261SOL     OW25681   5.456   0.286   3.000
 8261SOL    HW125682   5.357   0.298   2.991
 8261SOL    HW225683   5.482   0.299   3.096
 8262SOL     OW25684   6.708   4.040   1.828
 8262SOL    HW125685   6.714   3.951   1.782
 8262SOL    HW225686   6.644   4.032   1.905
 8263SOL     OW25687   0.117   2.402   5.938
 8263SOL    HW125688   0.086   2.465   6.010
 8263SOL    HW225689   0.189   2.446   5.884
 8264SOL     OW25690   2.207   6.346   2.847
 8264SOL    HW125691   2.132   6.357   2.912
 8264SOL    HW225692   2.170   6.339   2.754
 8265SOL     OW25693   5.551   0.966   0.595
 8265SOL    HW125694   5.522   0.992   0.503
 8265SOL    HW225695   5.540   1.044   0.656
 8266SOL     OW25696   2.157   0.290   3.571
 8266SOL    HW125697   2.076   0.346   3.556
 8266SOL    HW225698   2.222   0.304   3.496
 8267SOL     OW25699   1.803   4.028   3.105
 8267SOL    HW125700   1.777   4.007   3.011
 8267SOL    HW225701   1.796   3.946   3.161
 8268SOL     OW25702   3.187   4.796   6.756
 8268SOL    HW125703   3.241   4.775   6.838
 8268SOL    HW225704   3.090   4.787   6.777
 8269SOL     OW25705   4.862   1.984   3.385
 8269SOL    HW125706   4.862   1.986   3.285
 8269SOL    HW225707   4.786   2.039   3.419
 8270SOL     OW25708   3.512   0.206   6.145
 8270SOL    HW125709   3.611   0.220   6.152
 8270SOL    HW225710   3.467   0.292   6.124
 8271SOL     OW25711   4.215   6.497   5.402
 8271SOL    HW125712   4.224   6.557   5.481
 8271SOL    HW225713   4.173   6.547   5.326
 8272SOL     OW25714   0.648   0.020   1.665
 8272SOL    HW125715   0.716   0.085   1.700
 8272SOL    HW225716   0.670   7.020   1.571
 8273SOL     OW25717   2.698   6.658   6.733
 8273SOL    HW125718   2.792   6.660   6.766
 8273SOL    HW225719   2.690   6.593   6.657
 8274SOL     OW25720   5.206   6.508   6.510
 8274SOL    HW125721   5.115   6.549   6.504
 8274SOL    HW225722   5.200   6.409   6.497
 8275SOL     OW25723   5.749   0.968   4.427
 8275SOL    HW125724   5.760   0.881   4.477
 8275SOL    HW225725   5.674   1.020   4.468
 8276SOL     OW25726   6.732   2.765   6.279
 8276SOL    HW125727   6.711   2.670   6.302
 8276SOL    HW225728   6.699   2.785   6.186
 8277SOL     OW25729   1.201   5.638   6.291
 8277SOL    HW125730   1.185   5.544   6.320
 8277SOL    HW225731   1.276   5.640   6.224
 8278SOL     OW25732   3.740   1.479   0.420
 8278SOL    HW125733   3.653   1.528   0.410
 8278SOL    HW225734   3.784   1.508   0.505
 8279SOL     OW25735   4.892   5.452   5.775
 8279SOL    HW125736   4.976   5.399   5.766
 8279SOL    HW225737   4.820   5.410   5.720
 8280SOL     OW25738   5.723   3.083   6.992
 8280SOL    HW125739   5.646   3.078   0.031
 8280SOL    HW225740   5.809   3.079   0.017
 8281SOL     OW25741   2.106   4.794   6.773
 8281SOL    HW125742   2.202   4.796   6.803
 8281SOL    HW225743   2.048   4.836   6.843
 8282SOL     OW25744   2.963   2.606   0.770
 8282SOL    HW125745   2.884   2.548   0.750
 8282SOL    HW225746   2.993   2.652   0.686
 8283SOL     OW25747   0.381   4.947   2.806
 8283SOL    HW125748   0.393   4.878   2.877
 8283SOL    HW225749   0.470   4.981   2.777
 8284SOL     OW25750   2.316   2.145   2.154
 8284SOL    HW125751   2.402   2.100   2.179
 8284SOL    HW225752   2.332   2.208   2.078
 8285SOL     OW25753   3.315   4.321   6.300
 8285SOL    HW125754   3.303   4.350   6.204
 8285SOL    HW225755   3.409   4.339   6.328
 8286SOL     OW25756   5.382   1.006   5.107
 8286SOL    HW125757   5.417   1.099   5.103
 8286SOL    HW225758   5.366   0.973   5.014
 8287SOL     OW25759   1.995   0.497   3.531
 8287SOL    HW125760   1.945   0.507   3.616
 8287SOL    HW225761   1.994   0.584   3.480
 8288SOL     OW25762   1.287   1.381   2.810
 8288SOL    HW125763   1.274   1.480   2.808
 8288SOL    HW225764   1.272   1.347   2.904
 8289SOL     OW25765   6.466   1.376   5.527
 8289SOL    HW125766   6.438   1.412   5.616
 8289SOL    HW225767   6.469   1.276   5.531
 8290SOL     OW25768   3.850   2.437   1.472
 8290SOL    HW125769   3.917   2.491   1.522
 8290SOL    HW225770   3.897   2.367   1.417
 8291SOL     OW25771   5.878   5.890   5.952
 8291SOL    HW125772   5.909   5.818   6.014
 8291SOL    HW225773   5.806   5.854   5.892
 8292SOL     OW25774   0.878   3.617   4.404
 8292SOL    HW125775   0.832   3.564   4.476
 8292SOL    HW225776   0.822   3.618   4.322
 8293SOL     OW25777   3.152   5.324   3.221
 8293SOL    HW125778   3.208   5.358   3.145
 8293SOL    HW225779   3.084   5.392   3.246
 8294SOL     OW25780   5.974   4.025   6.256
 8294SOL    HW125781   5.945   3.947   6.201
 8294SOL    HW225782   6.063   4.057   6.225
 8295SOL     OW25783   4.715   4.369   2.134
 8295SOL    HW125784   4.687   4.300   2.201
 8295SOL    HW225785   4.654   4.364   2.054
 8296SOL     OW25786   3.682   6.734   1.520
 8296SOL    HW125787   3.623   6.756   1.443
 8296SOL    HW225788   3.625   6.714   1.600
 8297SOL     OW25789   5.964   4.645   2.853
 8297SOL    HW125790   5.999   4.682   2.939
 8297SOL    HW225791   5.981   4.710   2.779
 8298SOL     OW25792   6.173   0.231   6.142
 8298SOL    HW125793   6.149   0.143   6.102
 8298SOL    HW225794   6.237   0.218   6.218
 8299SOL     OW25795   1.012   3.370   1.047
 8299SOL    HW125796   0.984   3.295   1.106
 8299SOL    HW225797   1.025   3.337   0.953
 8300SOL     OW25798   5.788   5.328   3.201
 8300SOL    HW125799   5.793   5.229   3.214
 8300SOL    HW225800   5.851   5.373   3.264
 8301SOL     OW25801   4.361   6.505   0.310
 8301SOL    HW125802   4.363   6.605   0.315
 8301SOL    HW225803   4.423   6.467   0.380
 8302SOL     OW25804   3.817   6.575   5.409
 8302SOL    HW125805   3.802   6.590   5.311
 8302SOL    HW225806   3.730   6.580   5.458
 8303SOL     OW25807   6.676   6.296   2.928
 8303SOL    HW125808   6.653   6.234   3.003
 8303SOL    HW225809   6.728   6.374   2.964
 8304SOL     OW25810   5.594   3.824   3.415
 8304SOL    HW125811   5.583   3.821   3.316
 8304SOL    HW225812   5.523   3.769   3.459
 8305SOL     OW25813   5.288   5.726   4.583
 8305SOL    HW125814   5.331   5.673   4.657
 8305SOL    HW225815   5.359   5.761   4.522
 8306SOL     OW25816   6.727   0.681   2.263
 8306SOL    HW125817   6.696   0.755   2.203
 8306SOL    HW225818   6.665   0.603   2.254
 8307SOL     OW25819   2.518   4.863   2.855
 8307SOL    HW125820   2.444   4.856   2.788
 8307SOL    HW225821   2.508   4.947   2.908
 8308SOL     OW25822   1.224   5.035   6.991
 8308SOL    HW125823   1.287   5.004   0.037
 8308SOL    HW225824   1.202   5.132   7.005
 8309SOL     OW25825   6.141   4.510   4.007
 8309SOL    HW125826   6.044   4.531   3.992
 8309SOL    HW225827   6.158   4.414   3.983
 8310SOL     OW25828   1.011   6.582   0.049
 8310SOL    HW125829   1.069   6.647   0.001
 8310SOL    HW225830   0.925   6.569   7.024
 8311SOL     OW25831   5.146   0.572   3.502
 8311SOL    HW125832   5.207   0.564   3.581
 8311SOL    HW225833   5.198   0.550   3.419
 8312SOL     OW25834   5.395   1.649   6.408
 8312SOL    HW125835   5.311   1.684   6.450
 8312SOL    HW225836   5.474   1.680   6.461
 8313SOL     OW25837   4.452   1.731   4.866
 8313SOL    HW125838   4.464   1.819   4.910
 8313SOL    HW225839   4.483   1.736   4.771
 8314SOL     OW25840   5.031   6.054   5.790
 8314SOL    HW125841   5.034   6.137   5.733
 8314SOL    HW225842   4.939   6.014   5.784
 8315SOL     OW25843   4.043   3.532   4.885
 8315SOL    HW125844   3.969   3.479   4.927
 8315SOL    HW225845   4.084   3.591   4.954
 8316SOL     OW25846   1.726   2.479   6.578
 8316SOL    HW125847   1.747   2.566   6.533
 8316SOL    HW225848   1.727   2.406   6.510
 8317SOL     OW25849   2.032   1.528   3.575
 8317SOL    HW125850   1.971   1.545   3.498
 8317SOL    HW225851   2.083   1.444   3.559
 8318SOL     OW25852   4.190   0.106   6.603
 8318SOL    HW125853   4.286   0.113   6.577
 8318SOL    HW225854   4.138   0.177   6.557
 8319SOL     OW25855   1.742   6.635   6.504
 8319SOL    HW125856   1.781   6.548   6.476
 8319SOL    HW225857   1.650   6.620   6.541
 8320SOL     OW25858   2.991   3.970   4.523
 8320SOL    HW125859   2.936   3.935   4.447
 8320SOL    HW225860   3.086   3.981   4.494
 8321SOL     OW25861   6.205   6.506   0.517
 8321SOL    HW125862   6.218   6.446   0.596
 8321SOL    HW225863   6.108   6.520   0.501
 8322SOL     OW25864   0.210   0.864   0.039
 8322SOL    HW125865   0.284   0.894   0.098
 8322SOL    HW225866   0.152   0.941   0.015
 8323SOL     OW25867   4.503   4.732   0.820
 8323SOL    HW125868   4.464   4.800   0.758
 8323SOL    HW225869   4.543   4.778   0.899
 8324SOL     OW25870   5.657   6.833   6.809
 8324SOL    HW125871   5.722   6.809   6.737
 8324SOL    HW225872   5.637   6.931   6.805
 8325SOL     OW25873   1.238   5.911   5.694
 8325SOL    HW125874   1.255   5.837   5.760
 8325SOL    HW225875   1.233   5.872   5.602
 8326SOL     OW25876   1.295   4.169   1.758
 8326SOL    HW125877   1.277   4.112   1.679
 8326SOL    HW225878   1.345   4.116   1.827
 8327SOL     OW25879   1.176   6.883   4.666
 8327SOL    HW125880   1.172   6.787   4.695
 8327SOL    HW225881   1.265   6.921   4.692
 8328SOL     OW25882   1.705   0.351   6.792
 8328SOL    HW125883   1.785   0.292   6.782
 8328SOL    HW225884   1.647   0.343   6.711
 8329SOL     OW25885   1.490   2.600   5.175
 8329SOL    HW125886   1.566   2.643   5.126
 8329SOL    HW225887   1.492   2.501   5.158
 8330SOL     OW25888   3.159   1.550   6.447
 8330SOL    HW125889   3.224   1.626   6.454
 8330SOL    HW225890   3.137   1.517   6.538
 8331SOL     OW25891   2.098   2.411   6.767
 8331SOL    HW125892   2.168   2.371   6.826
 8331SOL    HW225893   2.126   2.404   6.671
 8332SOL     OW25894   6.017   5.346   2.051
 8332SOL    HW125895   6.088   5.416   2.038
 8332SOL    HW225896   6.055   5.256   2.032
 8333SOL     OW25897   2.482   5.002   1.222
 8333SOL    HW125898   2.544   5.077   1.245
 8333SOL    HW225899   2.468   4.944   1.302
 8334SOL     OW25900   3.928   1.677   6.098
 8334SOL    HW125901   3.865   1.711   6.027
 8334SOL    HW225902   3.939   1.747   6.168
 8335SOL     OW25903   5.097   3.640   5.993
 8335SOL    HW125904   5.142   3.680   6.073
 8335SOL    HW225905   5.075   3.545   6.012
 8336SOL     OW25906   1.204   3.745   3.364
 8336SOL    HW125907   1.193   3.687   3.445
 8336SOL    HW225908   1.122   3.740   3.307
 8337SOL     OW25909   0.376   1.252   4.049
 8337SOL    HW125910   0.387   1.193   3.969
 8337SOL    HW225911   0.466   1.287   4.078
 8338SOL     OW25912   4.497   5.404   2.844
 8338SOL    HW125913   4.457   5.465   2.776
 8338SOL    HW225914   4.591   5.383   2.818
 8339SOL     OW25915   6.197   0.059   0.460
 8339SOL    HW125916   6.279   0.004   0.473
 8339SOL    HW225917   6.166   0.051   0.365
 8340SOL     OW25918   5.892   2.825   0.235
 8340SOL    HW125919   5.897   2.878   0.320
 8340SOL    HW225920   5.799   2.788   0.225
 8341SOL     OW25921   3.150   1.198   0.625
 8341SOL    HW125922   3.084   1.229   0.692
 8341SOL    HW225923   3.113   1.121   0.573
 8342SOL     OW25924   4.707   0.543   7.025
 8342SOL    HW125925   4.646   0.478   0.046
 8342SOL    HW225926   4.789   0.496   6.994
 8343SOL     OW25927   5.809   4.017   3.809
 8343SOL    HW125928   5.769   4.049   3.895
 8343SOL    HW225929   5.758   3.937   3.777
 8344SOL     OW25930   1.349   5.037   5.287
 8344SOL    HW125931   1.440   5.024   5.327
 8344SOL    HW225932   1.349   5.120   5.231
 8345SOL     OW25933   4.653   0.689   2.670
 8345SOL    HW125934   4.731   0.660   2.615
 8345SOL    HW225935   4.619   0.611   2.722
 8346SOL     OW25936   5.036   3.082   5.359
 8346SOL    HW125937   5.118   3.125   5.321
 8346SOL    HW225938   4.960   3.146   5.358
 8347SOL     OW25939   2.502   0.014   6.188
 8347SOL    HW125940   2.576   7.024   6.253
 8347SOL    HW225941   2.453   0.097   6.213
 8348SOL     OW25942   3.726   0.062   1.944
 8348SOL    HW125943   3.810   0.076   1.998
 8348SOL    HW225944   3.722   0.130   1.871
 8349SOL     OW25945   0.980   6.430   2.277
 8349SOL    HW125946   0.945   6.523   2.267
 8349SOL    HW225947   1.023   6.401   2.191
 8350SOL     OW25948   2.569   6.882   6.819
 8350SOL    HW125949   2.609   6.917   6.904
 8350SOL    HW225950   2.609   6.794   6.797
 8351SOL     OW25951   6.664   4.038   3.701
 8351SOL    HW125952   6.671   4.103   3.777
 8351SOL    HW225953   6.601   3.964   3.726
 8352SOL     OW25954   2.779   5.325   1.449
 8352SOL    HW125955   2.729   5.335   1.535
 8352SOL    HW225956   2.790   5.414   1.406
 8353SOL     OW25957   1.793   3.841   2.470
 8353SOL    HW125958   1.860   3.821   2.399
 8353SOL    HW225959   1.840   3.879   2.550
 8354SOL     OW25960   3.463   0.009   3.789
 8354SOL    HW125961   3.493   0.102   3.813
 8354SOL    HW225962   3.372   0.013   3.748
 8355SOL     OW25963   1.948   6.267   5.830
 8355SOL    HW125964   1.983   6.343   5.775
 8355SOL    HW225965   1.955   6.290   5.927
 8356SOL     OW25966   1.634   5.442   1.110
 8356SOL    HW125967   1.616   5.427   1.013
 8356SOL    HW225968   1.691   5.367   1.146
 8357SOL     OW25969   4.469   6.102   6.065
 8357SOL    HW125970   4.402   6.045   6.017
 8357SOL    HW225971   4.537   6.136   5.999
 8358SOL     OW25972   0.989   2.302   4.649
 8358SOL    HW125973   1.069   2.360   4.662
 8358SOL    HW225974   0.963   2.261   4.737
 8359SOL     OW25975   3.086   1.981   5.388
 8359SOL    HW125976   3.075   1.976   5.288
 8359SOL    HW225977   3.155   1.914   5.416
 8360SOL     OW25978   4.917   0.709   1.117
 8360SOL    HW125979   4.834   0.724   1.170
 8360SOL    HW225980   4.912   0.762   1.032
 8361SOL     OW25981   3.452   0.112   0.116
 8361SOL    HW125982   3.528   0.052   0.140
 8361SOL    HW225983   3.413   0.152   0.199
 8362SOL     OW25984   6.697   3.794   1.659
 8362SOL    HW125985   6.764   3.856   1.617
 8362SOL    HW225986   6.742   3.740   1.730
 8363SOL     OW25987   2.483   2.765   7.006
 8363SOL    HW125988   2.463   2.670   6.981
 8363SOL    HW225989   2.523   2.768   0.072
 8364SOL     OW25990   0.034   2.304   4.289
 8364SOL    HW125991   0.121   2.308   4.337
 8364SOL    HW225992   0.037   2.364   4.209
 8365SOL     OW25993   2.121   2.651   3.010
 8365SOL    HW125994   2.050   2.718   2.988
 8365SOL    HW225995   2.211   2.691   2.994
 8366SOL     OW25996   5.038   5.909   1.656
 8366SOL    HW125997   5.066   5.831   1.600
 8366SOL    HW225998   4.944   5.935   1.632
 8367SOL     OW25999   4.269   5.086   4.584
 8367SOL    HW126000   4.239   5.000   4.625
 8367SOL    HW226001   4.272   5.076   4.484
 8368SOL     OW26002   0.200   6.093   0.603
 8368SOL    HW126003   0.201   5.996   0.579
 8368SOL    HW226004   0.106   6.123   0.617
 8369SOL     OW26005   1.730   1.106   0.310
 8369SOL    HW126006   1.698   1.200   0.317
 8369SOL    HW226007   1.674   1.056   0.243
 8370SOL     OW26008   2.777   2.428   0.375
 8370SOL    HW126009   2.863   2.402   0.330
 8370SOL    HW226010   2.702   2.420   0.310
 8371SOL     OW26011   2.174   4.587   5.974
 8371SOL    HW126012   2.236   4.598   6.052
 8371SOL    HW226013   2.087   4.550   6.007
 8372SOL     OW26014   1.786   5.559   2.448
 8372SOL    HW126015   1.687   5.549   2.457
 8372SOL    HW226016   1.827   5.566   2.539
 8373SOL     OW26017   0.166   0.866   4.458
 8373SOL    HW126018   0.215   0.794   4.508
 8373SOL    HW226019   0.220   0.950   4.460
 8374SOL     OW26020   1.486   0.576   4.865
 8374SOL    HW126021   1.418   0.649   4.874
 8374SOL    HW226022   1.508   0.539   4.955
 8375SOL     OW26023   4.133   1.374   4.583
 8375SOL    HW126024   4.216   1.358   4.530
 8375SOL    HW226025   4.156   1.386   4.680
 8376SOL     OW26026   1.784   0.518   3.110
 8376SOL    HW126027   1.724   0.564   3.176
 8376SOL    HW226028   1.863   0.480   3.157
 8377SOL     OW26029   5.015   5.664   6.535
 8377SOL    HW126030   5.079   5.703   6.601
 8377SOL    HW226031   5.046   5.683   6.442
 8378SOL     OW26032   6.486   6.038   3.725
 8378SOL    HW126033   6.423   5.980   3.777
 8378SOL    HW226034   6.434   6.102   3.669
 8379SOL     OW26035   6.038   1.065   2.020
 8379SOL    HW126036   6.020   1.156   2.059
 8379SOL    HW226037   6.052   0.999   2.094
 8380SOL     OW26038   6.660   5.551   0.350
 8380SOL    HW126039   6.695   5.458   0.343
 8380SOL    HW226040   6.615   5.576   0.264
 8381SOL     OW26041   7.004   1.608   2.476
 8381SOL    HW126042   0.002   1.586   2.571
 8381SOL    HW226043   0.045   1.565   2.415
 8382SOL     OW26044   2.457   0.279   0.244
 8382SOL    HW126045   2.472   0.279   0.145
 8382SOL    HW226046   2.372   0.231   0.266
 8383SOL     OW26047   2.616   6.164   5.326
 8383SOL    HW126048   2.701   6.155   5.378
 8383SOL    HW226049   2.578   6.255   5.341
 8384SOL     OW26050   0.641   2.680   0.496
 8384SOL    HW126051   0.552   2.645   0.465
 8384SOL    HW226052   0.683   2.733   0.423
 8385SOL     OW26053   4.023   3.895   0.519
 8385SOL    HW126054   4.065   3.825   0.576
 8385SOL    HW226055   4.094   3.939   0.463
 8386SOL     OW26056   1.344   5.506   1.755
 8386SOL    HW126057   1.403   5.427   1.768
 8386SOL    HW226058   1.399   5.586   1.732
 8387SOL     OW26059   1.740   1.154   1.920
 8387SOL    HW126060   1.825   1.193   1.956
 8387SOL    HW226061   1.723   1.191   1.828
 8388SOL     OW26062   3.158   6.861   0.834
 8388SOL    HW126063   3.253   6.878   0.810
 8388SOL    HW226064   3.154   6.784   0.899
 8389SOL     OW26065   1.210   2.452   4.380
 8389SOL    HW126066   1.277   2.515   4.418
 8389SOL    HW226067   1.119   2.491   4.386
 8390SOL     OW26068   2.051   0.725   5.449
 8390SOL    HW126069   2.105   0.648   5.482
 8390SOL    HW226070   1.962   0.726   5.494
 8391SOL     OW26071   4.807   5.351   1.498
 8391SOL    HW126072   4.895   5.314   1.469
 8391SOL    HW226073   4.777   5.305   1.582
 8392SOL     OW26074   5.982   6.579   5.337
 8392SOL    HW126075   5.926   6.662   5.337
 8392SOL    HW226076   6.067   6.596   5.388
 8393SOL     OW26077   0.608   6.310   3.027
 8393SOL    HW126078   0.695   6.357   3.037
 8393SOL    HW226079   0.556   6.317   3.112
 8394SOL     OW26080   0.823   1.429   3.239
 8394SOL    HW126081   0.838   1.522   3.205
 8394SOL    HW226082   0.817   1.431   3.339
 8395SOL     OW26083   0.249   6.504   5.021
 8395SOL    HW126084   0.223   6.408   5.031
 8395SOL    HW226085   0.294   6.517   4.933
 8396SOL     OW26086   4.707   4.184   2.729
 8396SOL    HW126087   4.647   4.264   2.721
 8396SOL    HW226088   4.774   4.200   2.801
 8397SOL     OW26089   2.014   5.871   2.863
 8397SOL    HW126090   1.926   5.913   2.843
 8397SOL    HW226091   2.070   5.869   2.780
 8398SOL     OW26092   4.492   1.680   0.232
 8398SOL    HW126093   4.418   1.696   0.167
 8398SOL    HW226094   4.493   1.752   0.302
 8399SOL     OW26095   5.390   6.109   0.223
 8399SOL    HW126096   5.411   6.022   0.179
 8399SOL    HW226097   5.291   6.124   0.220
 8400SOL     OW26098   0.015   0.074   2.667
 8400SOL    HW126099   6.941   0.074   2.681
 8400SOL    HW226100   0.038   0.140   2.596
 8401SOL     OW26101   3.639   4.078   5.998
 8401SOL    HW126102   3.692   4.118   5.923
 8401SOL    HW226103   3.609   3.986   5.972
 8402SOL     OW26104   4.063   1.838   6.340
 8402SOL    HW126105   4.117   1.776   6.397
 8402SOL    HW226106   4.122   1.911   6.306
 8403SOL     OW26107   1.536   1.458   4.439
 8403SOL    HW126108   1.615   1.479   4.497
 8403SOL    HW226109   1.537   1.516   4.358
 8404SOL     OW26110   4.920   5.739   5.838
 8404SOL    HW126111   4.912   5.752   5.937
 8404SOL    HW226112   4.930   5.642   5.818
 8405SOL     OW26113   0.245   2.374   6.449
 8405SOL    HW126114   0.227   2.282   6.413
 8405SOL    HW226115   0.321   2.414   6.400
 8406SOL     OW26116   4.746   2.558   1.484
 8406SOL    HW126117   4.762   2.622   1.559
 8406SOL    HW226118   4.832   2.543   1.435
 8407SOL     OW26119   5.278   4.297   4.057
 8407SOL    HW126120   5.239   4.386   4.031
 8407SOL    HW226121   5.306   4.248   3.975
 8408SOL     OW26122   5.120   1.975   3.956
 8408SOL    HW126123   5.094   2.035   4.032
 8408SOL    HW226124   5.088   2.015   3.870
 8409SOL     OW26125   1.939   1.410   4.384
 8409SOL    HW126126   2.033   1.377   4.378
 8409SOL    HW226127   1.876   1.333   4.387
 8410SOL     OW26128   3.895   6.615   1.354
 8410SOL    HW126129   3.804   6.651   1.374
 8410SOL    HW226130   3.930   6.566   1.433
 8411SOL     OW26131   1.991   4.184   4.336
 8411SOL    HW126132   2.069   4.155   4.391
 8411SOL    HW226133   2.005   4.279   4.307
 8412SOL     OW26134   4.392   2.159   1.822
 8412SOL    HW126135   4.485   2.185   1.795
 8412SOL    HW226136   4.381   2.177   1.920
 8413SOL     OW26137   3.347   5.015   0.499
 8413SOL    HW126138   3.432   5.016   0.553
 8413SOL    HW226139   3.369   5.003   0.402
 8414SOL     OW26140   4.088   6.175   3.073
 8414SOL    HW126141   4.159   6.151   3.007
 8414SOL    HW226142   4.127   6.228   3.148
 8415SOL     OW26143   6.574   4.000   3.449
 8415SOL    HW126144   6.623   4.026   3.532
 8415SOL    HW226145   6.599   3.906   3.425
 8416SOL     OW26146   5.251   3.856   2.566
 8416SOL    HW126147   5.197   3.935   2.538
 8416SOL    HW226148   5.283   3.869   2.660
 8417SOL     OW26149   2.101   6.111   6.462
 8417SOL    HW126150   2.172   6.043   6.477
 8417SOL    HW226151   2.025   6.094   6.526
 8418SOL     OW26152   6.498   5.594   2.455
 8418SOL    HW126153   6.548   5.673   2.491
 8418SOL    HW226154   6.412   5.584   2.505
 8419SOL     OW26155   4.221   0.445   2.440
 8419SOL    HW126156   4.167   0.444   2.524
 8419SOL    HW226157   4.309   0.399   2.456
 8420SOL     OW26158   3.806   0.479   6.037
 8420SOL    HW126159   3.868   0.425   5.980
 8420SOL    HW226160   3.800   0.572   6.002
 8421SOL     OW26161   2.120   6.418   2.017
 8421SOL    HW126162   2.081   6.339   2.065
 8421SOL    HW226163   2.143   6.392   1.923
 8422SOL     OW26164   4.618   6.739   0.252
 8422SOL    HW126165   4.529   6.766   0.289
 8422SOL    HW226166   4.676   6.705   0.326
 8423SOL     OW26167   3.560   4.708   0.386
 8423SOL    HW126168   3.514   4.748   0.465
 8423SOL    HW226169   3.492   4.678   0.319
 8424SOL     OW26170   3.375   1.762   2.713
 8424SOL    HW126171   3.385   1.707   2.796
 8424SOL    HW226172   3.429   1.721   2.640
 8425SOL     OW26173   5.981   4.986   1.446
 8425SOL    HW126174   6.025   4.934   1.519
 8425SOL    HW226175   5.921   5.055   1.486
 8426SOL     OW26176   3.888   3.182   3.567
 8426SOL    HW126177   3.809   3.227   3.609
 8426SOL    HW226178   3.866   3.087   3.547
 8427SOL     OW26179   2.234   3.908   6.849
 8427SOL    HW126180   2.222   3.839   6.920
 8427SOL    HW226181   2.329   3.940   6.850
 8428SOL     OW26182   0.270   4.119   1.989
 8428SOL    HW126183   0.293   4.054   2.062
 8428SOL    HW226184   0.293   4.078   1.901
 8429SOL     OW26185   2.152   5.617   3.681
 8429SOL    HW126186   2.186   5.686   3.617
 8429SOL    HW226187   2.174   5.646   3.774
 8430SOL     OW26188   4.412   4.532   3.144
 8430SOL    HW126189   4.469   4.457   3.110
 8430SOL    HW226190   4.360   4.571   3.068
 8431SOL     OW26191   3.608   4.516   1.053
 8431SOL    HW126192   3.664   4.498   1.133
 8431SOL    HW226193   3.514   4.538   1.081
 8432SOL     OW26194   3.845   5.641   6.431
 8432SOL    HW126195   3.772   5.700   6.466
 8432SOL    HW226196   3.826   5.617   6.336
 8433SOL     OW26197   1.132   2.931   6.299
 8433SOL    HW126198   1.064   2.953   6.369
 8433SOL    HW226199   1.118   2.837   6.268
 8434SOL     OW26200   4.875   6.319   6.037
 8434SOL    HW126201   4.945   6.342   5.969
 8434SOL    HW226202   4.800   6.270   5.992
 8435SOL     OW26203   4.785   1.979   1.311
 8435SOL    HW126204   4.771   1.881   1.295
 8435SOL    HW226205   4.800   2.025   1.224
 8436SOL     OW26206   4.203   4.681   2.271
 8436SOL    HW126207   4.168   4.773   2.256
 8436SOL    HW226208   4.154   4.617   2.212
 8437SOL     OW26209   0.637   0.953   0.889
 8437SOL    HW126210   0.584   0.947   0.973
 8437SOL    HW226211   0.627   0.868   0.836
 8438SOL     OW26212   2.870   4.811   2.353
 8438SOL    HW126213   2.958   4.802   2.308
 8438SOL    HW226214   2.800   4.763   2.299
 8439SOL     OW26215   0.255   5.676   2.438
 8439SOL    HW126216   0.251   5.578   2.419
 8439SOL    HW226217   0.171   5.720   2.407
 8440SOL     OW26218   0.312   0.799   1.525
 8440SOL    HW126219   0.338   0.882   1.573
 8440SOL    HW226220   0.213   0.787   1.529
 8441SOL     OW26221   5.371   5.778   6.176
 8441SOL    HW126222   5.442   5.711   6.197
 8441SOL    HW226223   5.408   5.850   6.117
 8442SOL     OW26224   2.428   4.603   0.192
 8442SOL    HW126225   2.497   4.638   0.128
 8442SOL    HW226226   2.471   4.536   0.252
 8443SOL     OW26227   1.137   0.590   3.090
 8443SOL    HW126228   1.058   0.651   3.092
 8443SOL    HW226229   1.159   0.560   3.183
 8444SOL     OW26230   3.996   6.491   3.721
 8444SOL    HW126231   4.046   6.414   3.682
 8444SOL    HW226232   4.008   6.491   3.820
 8445SOL     OW26233   3.594   5.451   2.902
 8445SOL    HW126234   3.531   5.415   2.834
 8445SOL    HW226235   3.679   5.398   2.900
 8446SOL     OW26236   5.618   5.083   2.758
 8446SOL    HW126237   5.642   5.139   2.838
 8446SOL    HW226238   5.564   5.137   2.694
 8447SOL     OW26239   5.263   2.232   2.227
 8447SOL    HW126240   5.197   2.171   2.270
 8447SOL    HW226241   5.215   2.304   2.177
 8448SOL     OW26242   0.176   3.727   6.638
 8448SOL    HW126243   0.269   3.755   6.616
 8448SOL    HW226244   0.161   3.634   6.605
 8449SOL     OW26245   0.717   3.312   4.847
 8449SOL    HW126246   0.652   3.319   4.924
 8449SOL    HW226247   0.742   3.216   4.834
 8450SOL     OW26248   1.821   6.096   2.794
 8450SOL    HW126249   1.812   6.192   2.822
 8450SOL    HW226250   1.731   6.053   2.792
 8451SOL     OW26251   3.918   3.147   1.357
 8451SOL    HW126252   3.963   3.169   1.271
 8451SOL    HW226253   3.984   3.154   1.432
 8452SOL     OW26254   6.571   0.332   1.352
 8452SOL    HW126255   6.570   0.307   1.448
 8452SOL    HW226256   6.648   0.286   1.306
 8453SOL     OW26257   6.218   4.878   6.808
 8453SOL    HW126258   6.180   4.832   6.888
 8453SOL    HW226259   6.309   4.842   6.789
 8454SOL     OW26260   1.212   6.719   3.256
 8454SOL    HW126261   1.304   6.698   3.288
 8454SOL    HW226262   1.191   6.815   3.277
 8455SOL     OW26263   5.014   1.675   1.238
 8455SOL    HW126264   5.055   1.667   1.329
 8455SOL    HW226265   4.914   1.681   1.247
 8456SOL     OW26266   5.498   5.578   3.820
 8456SOL    HW126267   5.432   5.572   3.745
 8456SOL    HW226268   5.575   5.517   3.800
 8457SOL     OW26269   0.086   0.352   5.530
 8457SOL    HW126270   0.043   0.315   5.612
 8457SOL    HW226271   0.028   0.424   5.492
 8458SOL     OW26272   1.829   2.230   0.255
 8458SOL    HW126273   1.831   2.141   0.210
 8458SOL    HW226274   1.893   2.231   0.331
 8459SOL     OW26275   3.669   5.759   2.100
 8459SOL    HW126276   3.635   5.851   2.084
 8459SOL    HW226277   3.742   5.739   2.035
 8460SOL     OW26278   4.787   2.106   6.769
 8460SOL    HW126279   4.727   2.072   6.696
 8460SOL    HW226280   4.743   2.091   6.858
 8461SOL     OW26281   0.727   4.107   1.400
 8461SOL    HW126282   0.723   4.193   1.452
 8461SOL    HW226283   0.655   4.108   1.330
 8462SOL     OW26284   3.511   4.245   6.990
 8462SOL    HW126285   3.610   4.257   6.999
 8462SOL    HW226286   3.485   4.154   7.022
 8463SOL     OW26287   0.001   1.948   0.467
 8463SOL    HW126288   7.023   1.974   0.371
 8463SOL    HW226289   6.935   1.921   0.497
 8464SOL     OW26290   0.254   3.330   6.768
 8464SOL    HW126291   0.335   3.387   6.759
 8464SOL    HW226292   0.259   3.254   6.703
 8465SOL     OW26293   3.567   2.177   1.157
 8465SOL    HW126294   3.474   2.183   1.193
 8465SOL    HW226295   3.618   2.259   1.183
 8466SOL     OW26296   5.430   0.594   5.362
 8466SOL    HW126297   5.422   0.500   5.394
 8466SOL    HW226298   5.522   0.628   5.381
 8467SOL     OW26299   3.301   0.886   0.596
 8467SOL    HW126300   3.291   0.968   0.651
 8467SOL    HW226301   3.372   0.828   0.635
 8468SOL     OW26302   5.954   3.699   6.754
 8468SOL    HW126303   6.000   3.716   6.667
 8468SOL    HW226304   5.991   3.615   6.795
 8469SOL     OW26305   4.142   2.732   5.520
 8469SOL    HW126306   4.084   2.799   5.568
 8469SOL    HW226307   4.194   2.679   5.587
 8470SOL     OW26308   0.824   4.657   1.224
 8470SOL    HW126309   0.741   4.687   1.271
 8470SOL    HW226310   0.882   4.607   1.288
 8471SOL     OW26311   2.891   0.607   5.236
 8471SOL    HW126312   2.835   0.625   5.317
 8471SOL    HW226313   2.833   0.579   5.160
 8472SOL     OW26314   5.333   1.512   6.154
 8472SOL    HW126315   5.356   1.571   6.232
 8472SOL    HW226316   5.238   1.481   6.163
 8473SOL     OW26317   5.120   4.919   6.860
 8473SOL    HW126318   5.162   4.969   6.784
 8473SOL    HW226319   5.024   4.900   6.837
 8474SOL     OW26320   3.065   3.161   2.406
 8474SOL    HW126321   3.057   3.062   2.416
 8474SOL    HW226322   3.108   3.182   2.318
 8475SOL     OW26323   0.111   3.521   1.328
 8475SOL    HW126324   0.180   3.474   1.272
 8475SOL    HW226325   0.020   3.497   1.296
 8476SOL     OW26326   6.026   0.126   1.493
 8476SOL    HW126327   6.005   0.207   1.438
 8476SOL    HW226328   6.006   0.145   1.589
 8477SOL     OW26329   4.574   0.094   1.460
 8477SOL    HW126330   4.640   0.147   1.407
 8477SOL    HW226331   4.573   0.127   1.555
 8478SOL     OW26332   0.563   0.254   5.588
 8478SOL    HW126333   0.625   0.327   5.616
 8478SOL    HW226334   0.560   0.183   5.658
 8479SOL     OW26335   1.798   2.251   1.421
 8479SOL    HW126336   1.834   2.236   1.329
 8479SOL    HW226337   1.722   2.187   1.438
 8480SOL     OW26338   4.538   3.247   0.344
 8480SOL    HW126339   4.590   3.174   0.301
 8480SOL    HW226340   4.588   3.282   0.424
 8481SOL     OW26341   3.684   2.085   4.374
 8481SOL    HW126342   3.710   2.005   4.321
 8481SOL    HW226343   3.766   2.135   4.401
 8482SOL     OW26344   4.650   1.128   0.115
 8482SOL    HW126345   4.555   1.099   0.126
 8482SOL    HW226346   4.684   1.095   0.027
 8483SOL     OW26347   3.508   6.059   3.576
 8483SOL    HW126348   3.498   5.966   3.540
 8483SOL    HW226349   3.452   6.121   3.521
 8484SOL     OW26350   6.357   6.129   5.044
 8484SOL    HW126351   6.261   6.152   5.061
 8484SOL    HW226352   6.395   6.192   4.975
 8485SOL     OW26353   3.829   2.601   0.272
 8485SOL    HW126354   3.772   2.549   0.209
 8485SOL    HW226355   3.878   2.537   0.332
 8486SOL     OW26356   1.450   1.301   2.308
 8486SOL    HW126357   1.422   1.235   2.378
 8486SOL    HW226358   1.393   1.289   2.226
 8487SOL     OW26359   5.503   1.911   5.851
 8487SOL    HW126360   5.565   1.932   5.926
 8487SOL    HW226361   5.491   1.992   5.793
 8488SOL     OW26362   5.866   5.856   2.342
 8488SOL    HW126363   5.831   5.774   2.296
 8488SOL    HW226364   5.789   5.911   2.375
 8489SOL     OW26365   5.745   0.974   1.377
 8489SOL    HW126366   5.796   1.054   1.408
 8489SOL    HW226367   5.726   0.983   1.280
 8490SOL     OW26368   2.602   6.683   6.461
 8490SOL    HW126369   2.642   6.598   6.426
 8490SOL    HW226370   2.503   6.671   6.470
 8491SOL     OW26371   1.970   5.675   2.302
 8491SOL    HW126372   1.986   5.616   2.223
 8491SOL    HW226373   1.915   5.626   2.370
 8492SOL     OW26374   6.255   3.763   4.553
 8492SOL    HW126375   6.210   3.838   4.504
 8492SOL    HW226376   6.342   3.741   4.509
 8493SOL     OW26377   3.327   1.468   0.280
 8493SOL    HW126378   3.372   1.379   0.288
 8493SOL    HW226379   3.394   1.541   0.298
 8494SOL     OW26380   5.762   5.074   2.182
 8494SOL    HW126381   5.730   4.981   2.200
 8494SOL    HW226382   5.807   5.077   2.093
 8495SOL     OW26383   6.207   5.160   0.734
 8495SOL    HW126384   6.168   5.192   0.820
 8495SOL    HW226385   6.169   5.070   0.711
 8496SOL     OW26386   5.491   1.451   2.105
 8496SOL    HW126387   5.542   1.368   2.083
 8496SOL    HW226388   5.496   1.515   2.029
 8497SOL     OW26389   0.256   0.239   3.613
 8497SOL    HW126390   0.309   0.168   3.659
 8497SOL    HW226391   0.206   0.293   3.681
 8498SOL     OW26392   5.307   6.985   4.219
 8498SOL    HW126393   5.320   0.036   4.283
 8498SOL    HW226394   5.260   6.910   4.266
 8499SOL     OW26395   6.908   5.850   0.368
 8499SOL    HW126396   6.880   5.942   0.397
 8499SOL    HW226397   6.932   5.852   0.271
 8500SOL     OW26398   1.660   1.225   5.980
 8500SOL    HW126399   1.633   1.227   6.077
 8500SOL    HW226400   1.759   1.240   5.974
 8501SOL     OW26401   0.518   1.880   6.832
 8501SOL    HW126402   0.526   1.859   6.734
 8501SOL    HW226403   0.441   1.942   6.846
 8502SOL     OW26404   0.442   2.928   6.575
 8502SOL    HW126405   0.407   2.965   6.661
 8502SOL    HW226406   0.410   2.834   6.563
 8503SOL     OW26407   6.684   6.126   4.426
 8503SOL    HW126408   6.605   6.065   4.419
 8503SOL    HW226409   6.652   6.220   4.436
 8504SOL     OW26410   2.171   5.469   2.420
 8504SOL    HW126411   2.212   5.448   2.331
 8504SOL    HW226412   2.135   5.562   2.418
 8505SOL     OW26413   5.255   3.389   2.747
 8505SOL    HW126414   5.258   3.447   2.666
 8505SOL    HW226415   5.163   3.351   2.757
 8506SOL     OW26416   1.884   0.843   0.552
 8506SOL    HW126417   1.939   0.894   0.487
 8506SOL    HW226418   1.879   0.893   0.639
 8507SOL     OW26419   4.770   0.243   5.314
 8507SOL    HW126420   4.710   0.240   5.235
 8507SOL    HW226421   4.752   0.164   5.373
 8508SOL     OW26422   4.318   2.200   6.603
 8508SOL    HW126423   4.221   2.214   6.622
 8508SOL    HW226424   4.345   2.109   6.632
 8509SOL     OW26425   5.614   0.062   3.383
 8509SOL    HW126426   5.586   0.023   3.471
 8509SOL    HW226427   5.701   0.021   3.354
 8510SOL     OW26428   5.496   2.685   4.337
 8510SOL    HW126429   5.406   2.642   4.329
 8510SOL    HW226430   5.567   2.622   4.306
 8511SOL     OW26431   5.566   2.994   2.227
 8511SOL    HW126432   5.491   2.983   2.292
 8511SOL    HW226433   5.541   3.063   2.159
 8512SOL     OW26434   1.974   7.025   3.541
 8512SOL    HW126435   1.906   6.990   3.605
 8512SOL    HW226436   1.954   6.991   3.449
 8513SOL     OW26437   6.062   6.280   6.878
 8513SOL    HW126438   5.970   6.291   6.840
 8513SOL    HW226439   6.055   6.265   6.977
 8514SOL     OW26440   3.303   6.474   3.516
 8514SOL    HW126441   3.356   6.479   3.600
 8514SOL    HW226442   3.322   6.387   3.470
 8515SOL     OW26443   5.881   1.984   0.830
 8515SOL    HW126444   5.868   1.930   0.746
 8515SOL    HW226445   5.859   2.079   0.812
 8516SOL     OW26446   6.649   2.459   2.033
 8516SOL    HW126447   6.573   2.395   2.019
 8516SOL    HW226448   6.628   2.519   2.109
 8517SOL     OW26449   1.257   2.663   6.171
 8517SOL    HW126450   1.229   2.569   6.187
 8517SOL    HW226451   1.356   2.672   6.185
 8518SOL     OW26452   3.326   5.784   0.085
 8518SOL    HW126453   3.321   5.767   0.183
 8518SOL    HW226454   3.312   5.882   0.067
 8519SOL     OW26455   1.294   5.683   2.493
 8519SOL    HW126456   1.243   5.762   2.526
 8519SOL    HW226457   1.235   5.628   2.434
 8520SOL     OW26458   4.024   1.092   0.159
 8520SOL    HW126459   4.038   1.015   0.097
 8520SOL    HW226460   4.106   1.107   0.213
 8521SOL     OW26461   0.818   6.334   6.168
 8521SOL    HW126462   0.781   6.289   6.087
 8521SOL    HW226463   0.918   6.328   6.167
 8522SOL     OW26464   0.969   6.414   4.445
 8522SOL    HW126465   1.052   6.423   4.499
 8522SOL    HW226466   0.933   6.504   4.423
 8523SOL     OW26467   2.022   6.875   6.292
 8523SOL    HW126468   2.087   6.920   6.231
 8523SOL    HW226469   2.041   6.901   6.386
 8524SOL     OW26470   1.393   3.841   5.849
 8524SOL    HW126471   1.480   3.820   5.804
 8524SOL    HW226472   1.318   3.802   5.796
 8525SOL     OW26473   5.735   3.484   2.907
 8525SOL    HW126474   5.801   3.410   2.925
 8525SOL    HW226475   5.682   3.461   2.825
 8526SOL     OW26476   2.491   2.532   1.776
 8526SOL    HW126477   2.558   2.463   1.801
 8526SOL    HW226478   2.399   2.500   1.801
 8527SOL     OW26479   4.796   0.598   4.145
 8527SOL    HW126480   4.752   0.511   4.125
 8527SOL    HW226481   4.766   0.631   4.234
 8528SOL     OW26482   4.474   3.087   5.937
 8528SOL    HW126483   4.389   3.126   5.972
 8528SOL    HW226484   4.524   3.043   6.012
 8529SOL     OW26485   1.742   4.768   6.780
 8529SOL    HW126486   1.663   4.754   6.720
 8529SOL    HW226487   1.782   4.679   6.803
 8530SOL     OW26488   1.430   4.104   5.363
 8530SOL    HW126489   1.433   4.016   5.317
 8530SOL    HW226490   1.471   4.174   5.304
 8531SOL     OW26491   5.378   5.194   2.642
 8531SOL    HW126492   5.335   5.231   2.724
 8531SOL    HW226493   5.333   5.110   2.615
 8532SOL     OW26494   3.335   4.740   5.560
 8532SOL    HW126495   3.313   4.793   5.478
 8532SOL    HW226496   3.273   4.766   5.635
 8533SOL     OW26497   3.100   1.152   4.507
 8533SOL    HW126498   3.104   1.197   4.596
 8533SOL    HW226499   3.025   1.192   4.453
 8534SOL     OW26500   1.539   3.425   2.932
 8534SOL    HW126501   1.489   3.499   2.976
 8534SOL    HW226502   1.486   3.340   2.938
 8535SOL     OW26503   0.649   1.904   4.639
 8535SOL    HW126504   0.741   1.875   4.663
 8535SOL    HW226505   0.643   2.003   4.641
 8536SOL     OW26506   6.513   1.773   5.566
 8536SOL    HW126507   6.456   1.852   5.541
 8536SOL    HW226508   6.607   1.803   5.578
 8537SOL     OW26509   5.366   0.597   1.281
 8537SOL    HW126510   5.453   0.630   1.244
 8537SOL    HW226511   5.343   0.649   1.363
 8538SOL     OW26512   0.174   0.454   4.836
 8538SOL    HW126513   0.150   0.533   4.779
 8538SOL    HW226514   0.096   0.391   4.841
 8539SOL     OW26515   0.437   2.549   1.867
 8539SOL    HW126516   0.501   2.542   1.791
 8539SOL    HW226517   0.351   2.590   1.835
 8540SOL     OW26518   3.217   0.538   0.539
 8540SOL    HW126519   3.312   0.568   0.530
 8540SOL    HW226520   3.197   0.467   0.471
 8541SOL     OW26521   2.937   1.481   4.641
 8541SOL    HW126522   2.882   1.476   4.558
 8541SOL    HW226523   2.929   1.396   4.693
 8542SOL     OW26524   2.153   4.607   6.547
 8542SOL    HW126525   2.082   4.544   6.515
 8542SOL    HW226526   2.114   4.671   6.613
 8543SOL     OW26527   2.023   2.418   5.623
 8543SOL    HW126528   2.071   2.436   5.538
 8543SOL    HW226529   2.089   2.397   5.696
 8544SOL     OW26530   4.990   3.950   5.521
 8544SOL    HW126531   5.084   3.951   5.554
 8544SOL    HW226532   4.935   4.015   5.574
 8545SOL     OW26533   3.463   6.861   5.747
 8545SOL    HW126534   3.507   6.919   5.816
 8545SOL    HW226535   3.412   6.788   5.794
 8546SOL     OW26536   5.310   0.653   1.672
 8546SOL    HW126537   5.368   0.572   1.673
 8546SOL    HW226538   5.354   0.725   1.618
 8547SOL     OW26539   6.352   6.532   5.855
 8547SOL    HW126540   6.351   6.437   5.888
 8547SOL    HW226541   6.265   6.552   5.810
 8548SOL     OW26542   0.738   3.450   5.769
 8548SOL    HW126543   0.790   3.415   5.846
 8548SOL    HW226544   0.800   3.474   5.695
 8549SOL     OW26545   2.235   0.895   3.150
 8549SOL    HW126546   2.322   0.918   3.195
 8549SOL    HW226547   2.209   0.802   3.174
 8550SOL     OW26548   0.744   4.262   0.036
 8550SOL    HW126549   0.662   4.205   0.026
 8550SOL    HW226550   0.820   4.219   7.013
 8551SOL     OW26551   1.952   1.997   6.200
 8551SOL    HW126552   1.994   1.936   6.132
 8551SOL    HW226553   1.859   1.966   6.219
 8552SOL     OW26554   2.414   1.498   2.728
 8552SOL    HW126555   2.469   1.565   2.679
 8552SOL    HW226556   2.421   1.514   2.827
 8553SOL     OW26557   5.090   3.226   0.957
 8553SOL    HW126558   5.139   3.150   0.913
 8553SOL    HW226559   5.049   3.284   0.887
 8554SOL     OW26560   0.851   6.639   0.618
 8554SOL    HW126561   0.935   6.605   0.660
 8554SOL    HW226562   0.854   6.623   0.520
 8555SOL     OW26563   4.586   1.237   3.823
 8555SOL    HW126564   4.491   1.271   3.822
 8555SOL    HW226565   4.598   1.171   3.749
 8556SOL     OW26566   1.789   6.340   0.089
 8556SOL    HW126567   1.822   6.246   0.095
 8556SOL    HW226568   1.694   6.345   0.120
 8557SOL     OW26569   6.948   1.044   0.230
 8557SOL    HW126570   7.018   1.027   0.299
 8557SOL    HW226571   6.990   1.082   0.148
 8558SOL     OW26572   2.771   4.941   3.383
 8558SOL    HW126573   2.850   5.000   3.366
 8558SOL    HW226574   2.720   4.928   3.297
 8559SOL     OW26575   0.822   5.217   2.553
 8559SOL    HW126576   0.843   5.151   2.481
 8559SOL    HW226577   0.775   5.169   2.628
 8560SOL     OW26578   2.349   4.718   1.346
 8560SOL    HW126579   2.396   4.768   1.420
 8560SOL    HW226580   2.261   4.762   1.328
 8561SOL     OW26581   4.238   0.007   2.181
 8561SOL    HW126582   4.171   6.970   2.140
 8561SOL    HW226583   4.232   0.096   2.137
 8562SOL     OW26584   3.903   1.363   6.760
 8562SOL    HW126585   3.817   1.406   6.786
 8562SOL    HW226586   3.931   1.396   6.670
 8563SOL     OW26587   1.547   5.719   3.345
 8563SOL    HW126588   1.469   5.678   3.298
 8563SOL    HW226589   1.632   5.677   3.312
 8564SOL     OW26590   4.032   0.373   6.837
 8564SOL    HW126591   3.940   0.410   6.844
 8564SOL    HW226592   4.085   0.427   6.771
 8565SOL     OW26593   2.777   5.572   1.159
 8565SOL    HW126594   2.724   5.526   1.088
 8565SOL    HW226595   2.865   5.599   1.122
 8566SOL     OW26596   3.323   1.340   3.429
 8566SOL    HW126597   3.319   1.349   3.529
 8566SOL    HW226598   3.250   1.280   3.398
 8567SOL     OW26599   1.611   2.091   1.797
 8567SOL    HW126600   1.710   2.106   1.788
 8567SOL    HW226601   1.566   2.112   1.710
 8568SOL     OW26602   6.998   1.592   6.789
 8568SOL    HW126603   0.012   1.660   6.727
 8568SOL    HW226604   6.955   1.638   6.866
 8569SOL     OW26605   5.503   2.608   6.230
 8569SOL    HW126606   5.562   2.528   6.235
 8569SOL    HW226607   5.408   2.582   6.250
 8570SOL     OW26608   1.561   2.841   3.886
 8570SOL    HW126609   1.624   2.766   3.867
 8570SOL    HW226610   1.497   2.814   3.958
 8571SOL     OW26611   1.807   0.582   3.736
 8571SOL    HW126612   1.760   0.652   3.682
 8571SOL    HW226613   1.874   0.624   3.796
 8572SOL     OW26614   3.019   4.395   5.826
 8572SOL    HW126615   3.039   4.481   5.872
 8572SOL    HW226616   2.929   4.362   5.855
 8573SOL     OW26617   3.493   6.290   0.657
 8573SOL    HW126618   3.501   6.334   0.568
 8573SOL    HW226619   3.564   6.220   0.666
 8574SOL     OW26620   6.770   6.500   5.748
 8574SOL    HW126621   6.693   6.474   5.689
 8574SOL    HW226622   6.856   6.473   5.704
 8575SOL     OW26623   3.441   5.988   2.687
 8575SOL    HW126624   3.502   5.981   2.607
 8575SOL    HW226625   3.424   6.084   2.708
 8576SOL     OW26626   0.579   3.873   3.385
 8576SOL    HW126627   0.660   3.872   3.443
 8576SOL    HW226628   0.555   3.968   3.363
 8577SOL     OW26629   1.910   1.416   6.749
 8577SOL    HW126630   1.966   1.368   6.816
 8577SOL    HW226631   1.928   1.514   6.754
 8578SOL     OW26632   6.255   0.023   5.152
 8578SOL    HW126633   6.333   7.016   5.206
 8578SOL    HW226634   6.288   0.070   5.070
 8579SOL     OW26635   2.960   5.971   2.790
 8579SOL    HW126636   3.039   5.926   2.831
 8579SOL    HW226637   2.901   5.902   2.747
 8580SOL     OW26638   1.571   6.638   1.378
 8580SOL    HW126639   1.541   6.577   1.305
 8580SOL    HW226640   1.671   6.635   1.385
 8581SOL     OW26641   3.573   5.100   1.336
 8581SOL    HW126642   3.499   5.106   1.269
 8581SOL    HW226643   3.594   5.004   1.353
 8582SOL     OW26644   3.941   4.498   5.740
 8582SOL    HW126645   3.850   4.463   5.759
 8582SOL    HW226646   3.988   4.435   5.678
 8583SOL     OW26647   4.184   0.889   2.821
 8583SOL    HW126648   4.246   0.845   2.887
 8583SOL    HW226649   4.174   0.985   2.845
 8584SOL     OW26650   6.681   1.035   4.550
 8584SOL    HW126651   6.602   1.021   4.491
 8584SOL    HW226652   6.680   1.128   4.586
 8585SOL     OW26653   5.741   2.224   1.656
 8585SOL    HW126654   5.835   2.256   1.650
 8585SOL    HW226655   5.680   2.290   1.613
 8586SOL     OW26656   5.652   6.026   1.119
 8586SOL    HW126657   5.585   6.073   1.177
 8586SOL    HW226658   5.737   6.079   1.116
 8587SOL     OW26659   1.344   1.358   5.886
 8587SOL    HW126660   1.250   1.328   5.873
 8587SOL    HW226661   1.406   1.299   5.833
 8588SOL     OW26662   3.107   1.731   6.940
 8588SOL    HW126663   3.177   1.786   6.986
 8588SOL    HW226664   3.084   1.773   6.853
 8589SOL     OW26665   0.563   3.027   5.807
 8589SOL    HW126666   0.659   3.016   5.782
 8589SOL    HW226667   0.518   3.084   5.738
 8590SOL     OW26668   0.790   1.902   2.861
 8590SOL    HW126669   0.803   1.813   2.817
 8590SOL    HW226670   0.722   1.955   2.810
 8591SOL     OW26671   6.703   5.126   0.166
 8591SOL    HW126672   6.747   5.068   0.235
 8591SOL    HW226673   6.774   5.170   0.111
 8592SOL     OW26674   0.898   2.418   6.626
 8592SOL    HW126675   0.902   2.517   6.633
 8592SOL    HW226676   0.830   2.382   6.690
 8593SOL     OW26677   2.837   0.309   6.666
 8593SOL    HW126678   2.791   0.320   6.754
 8593SOL    HW226679   2.771   0.323   6.592
 8594SOL     OW26680   6.373   2.717   6.234
 8594SOL    HW126681   6.357   2.787   6.304
 8594SOL    HW226682   6.305   2.725   6.161
 8595SOL     OW26683   4.859   6.751   1.915
 8595SOL    HW126684   4.954   6.756   1.944
 8595SOL    HW226685   4.844   6.812   1.838
 8596SOL     OW26686   0.844   2.873   3.480
 8596SOL    HW126687   0.779   2.829   3.419
 8596SOL    HW226688   0.932   2.827   3.474
 8597SOL     OW26689   5.654   3.419   1.344
 8597SOL    HW126690   5.704   3.333   1.355
 8597SOL    HW226691   5.652   3.467   1.432
 8598SOL     OW26692   5.720   0.452   4.448
 8598SOL    HW126693   5.757   0.392   4.377
 8598SOL    HW226694   5.632   0.489   4.418
 8599SOL     OW26695   1.651   2.633   3.656
 8599SOL    HW126696   1.651   2.547   3.708
 8599SOL    HW226697   1.557   2.654   3.627
 8600SOL     OW26698   4.825   3.185   1.549
 8600SOL    HW126699   4.745   3.138   1.586
 8600SOL    HW226700   4.810   3.284   1.551
 8601SOL     OW26701   1.063   0.735   3.573
 8601SOL    HW126702   1.023   0.726   3.664
 8601SOL    HW226703   1.096   0.828   3.559
 8602SOL     OW26704   2.601   7.024   4.320
 8602SOL    HW126705   2.576   7.006   4.225
 8602SOL    HW226706   2.659   6.949   4.354
 8603SOL     OW26707   6.850   0.605   0.379
 8603SOL    HW126708   6.905   0.523   0.398
 8603SOL    HW226709   6.908   0.675   0.337
 8604SOL     OW26710   1.404   4.040   6.085
 8604SOL    HW126711   1.357   4.024   6.172
 8604SOL    HW226712   1.362   3.985   6.014
 8605SOL     OW26713   6.736   4.766   4.513
 8605SOL    HW126714   6.683   4.819   4.446
 8605SOL    HW226715   6.829   4.753   4.478
 8606SOL     OW26716   2.073   2.315   6.502
 8606SOL    HW126717   2.054   2.236   6.560
 8606SOL    HW226718   2.044   2.296   6.409
 8607SOL     OW26719   1.932   4.830   1.555
 8607SOL    HW126720   1.880   4.803   1.473
 8607SOL    HW226721   1.985   4.752   1.588
 8608SOL     OW26722   2.555   4.860   3.211
 8608SOL    HW126723   2.540   4.936   3.147
 8608SOL    HW226724   2.499   4.875   3.293
 8609SOL     OW26725   5.128   1.231   3.557
 8609SOL    HW126726   5.215   1.189   3.531
 8609SOL    HW226727   5.059   1.159   3.567
 8610SOL     OW26728   0.471   6.387   3.276
 8610SOL    HW126729   0.545   6.365   3.339
 8610SOL    HW226730   0.482   6.480   3.243
 8611SOL     OW26731   3.112   1.495   3.797
 8611SOL    HW126732   3.118   1.565   3.867
 8611SOL    HW226733   3.060   1.530   3.719
 8612SOL     OW26734   4.080   3.226   3.365
 8612SOL    HW126735   4.019   3.198   3.438
 8612SOL    HW226736   4.049   3.313   3.327
 8613SOL     OW26737   2.997   2.533   1.460
 8613SOL    HW126738   2.929   2.606   1.454
 8613SOL    HW226739   3.057   2.538   1.380
 8614SOL     OW26740   0.936   2.127   1.180
 8614SOL    HW126741   0.997   2.186   1.233
 8614SOL    HW226742   0.982   2.041   1.160
 8615SOL     OW26743   4.282   1.195   3.561
 8615SOL    HW126744   4.274   1.274   3.621
 8615SOL    HW226745   4.313   1.225   3.470
 8616SOL     OW26746   4.328   5.048   2.540
 8616SOL    HW126747   4.351   5.020   2.633
 8616SOL    HW226748   4.333   4.969   2.479
 8617SOL     OW26749   4.780   0.039   3.905
 8617SOL    HW126750   4.729   7.001   3.963
 8617SOL    HW226751   4.719   0.080   3.837
 8618SOL     OW26752   5.469   4.053   1.560
 8618SOL    HW126753   5.392   3.990   1.550
 8618SOL    HW226754   5.447   4.121   1.630
 8619SOL     OW26755   5.281   4.384   1.960
 8619SOL    HW126756   5.194   4.426   1.933
 8619SOL    HW226757   5.310   4.422   2.048
 8620SOL     OW26758   2.338   0.901   4.609
 8620SOL    HW126759   2.290   0.818   4.583
 8620SOL    HW226760   2.417   0.878   4.666
 8621SOL     OW26761   5.011   2.312   2.087
 8621SOL    HW126762   4.999   2.215   2.066
 8621SOL    HW226763   5.028   2.363   2.002
 8622SOL     OW26764   6.813   5.226   2.664
 8622SOL    HW126765   6.784   5.164   2.736
 8622SOL    HW226766   6.897   5.191   2.622
 8623SOL     OW26767   6.827   2.955   5.394
 8623SOL    HW126768   6.849   2.863   5.362
 8623SOL    HW226769   6.865   3.022   5.330
 8624SOL     OW26770   3.613   4.014   6.275
 8624SOL    HW126771   3.639   4.071   6.197
 8624SOL    HW226772   3.514   4.000   6.275
 8625SOL     OW26773   3.718   1.634   5.309
 8625SOL    HW126774   3.666   1.558   5.269
 8625SOL    HW226775   3.715   1.712   5.247
 8626SOL     OW26776   4.653   3.473   0.119
 8626SOL    HW126777   4.591   3.445   0.192
 8626SOL    HW226778   4.734   3.414   0.119
 8627SOL     OW26779   1.746   1.267   2.359
 8627SOL    HW126780   1.717   1.279   2.454
 8627SOL    HW226781   1.666   1.274   2.299
 8628SOL     OW26782   0.442   6.403   0.499
 8628SOL    HW126783   0.370   6.345   0.460
 8628SOL    HW226784   0.518   6.408   0.435
 8629SOL     OW26785   0.571   0.071   4.242
 8629SOL    HW126786   0.643   0.032   4.299
 8629SOL    HW226787   0.484   0.026   4.263
 8630SOL     OW26788   4.914   3.498   3.383
 8630SOL    HW126789   4.885   3.426   3.320
 8630SOL    HW226790   4.997   3.469   3.430
 8631SOL     OW26791   2.868   6.406   6.654
 8631SOL    HW126792   2.856   6.449   6.743
 8631SOL    HW226793   2.966   6.390   6.638
 8632SOL     OW26794   4.552   4.817   5.218
 8632SOL    HW126795   4.501   4.895   5.180
 8632SOL    HW226796   4.647   4.845   5.236
 8633SOL     OW26797   5.489   4.015   5.618
 8633SOL    HW126798   5.429   4.048   5.545
 8633SOL    HW226799   5.440   4.015   5.705
 8634SOL     OW26800   5.425   5.105   1.047
 8634SOL    HW126801   5.517   5.143   1.051
 8634SOL    HW226802   5.358   5.178   1.034
 8635SOL     OW26803   6.567   3.241   6.600
 8635SOL    HW126804   6.552   3.142   6.605
 8635SOL    HW226805   6.581   3.277   6.693
 8636SOL     OW26806   4.732   6.076   1.060
 8636SOL    HW126807   4.642   6.054   1.022
 8636SOL    HW226808   4.721   6.119   1.149
 8637SOL     OW26809   2.222   1.921   6.416
 8637SOL    HW126810   2.156   1.959   6.352
 8637SOL    HW226811   2.311   1.964   6.401
 8638SOL     OW26812   4.293   2.924   5.390
 8638SOL    HW126813   4.380   2.881   5.367
 8638SOL    HW226814   4.233   2.858   5.434
 8639SOL     OW26815   4.207   3.362   6.728
 8639SOL    HW126816   4.175   3.272   6.758
 8639SOL    HW226817   4.298   3.353   6.687
 8640SOL     OW26818   2.937   3.298   1.360
 8640SOL    HW126819   2.997   3.336   1.430
 8640SOL    HW226820   2.935   3.198   1.369
 8641SOL     OW26821   4.749   5.369   2.748
 8641SOL    HW126822   4.825   5.433   2.738
 8641SOL    HW226823   4.725   5.332   2.659
 8642SOL     OW26824   1.275   6.398   4.560
 8642SOL    HW126825   1.269   6.497   4.571
 8642SOL    HW226826   1.310   6.358   4.645
 8643SOL     OW26827   3.395   6.945   0.714
 8643SOL    HW126828   3.450   6.982   0.639
 8643SOL    HW226829   3.448   6.876   0.763
 8644SOL     OW26830   6.148   1.900   6.689
 8644SOL    HW126831   6.234   1.913   6.737
 8644SOL    HW226832   6.076   1.879   6.755
 8645SOL     OW26833   6.164   4.139   2.053
 8645SOL    HW126834   6.075   4.118   2.013
 8645SOL    HW226835   6.210   4.054   2.079
 8646SOL     OW26836   0.053   2.063   5.623
 8646SOL    HW126837   0.136   2.119   5.622
 8646SOL    HW226838   0.032   2.034   5.716
 8647SOL     OW26839   2.076   4.824   1.225
 8647SOL    HW126840   1.988   4.857   1.258
 8647SOL    HW226841   2.085   4.844   1.128
 8648SOL     OW26842   5.547   5.785   1.316
 8648SOL    HW126843   5.541   5.885   1.314
 8648SOL    HW226844   5.628   5.756   1.265
 8649SOL     OW26845   4.176   6.794   0.505
 8649SOL    HW126846   4.088   6.798   0.457
 8649SOL    HW226847   4.179   6.864   0.576
 8650SOL     OW26848   2.240   6.937   4.246
 8650SOL    HW126849   2.291   7.012   4.288
 8650SOL    HW226850   2.224   6.957   4.150
 8651SOL     OW26851   2.462   1.680   0.677
 8651SOL    HW126852   2.485   1.777   0.687
 8651SOL    HW226853   2.523   1.625   0.733
 8652SOL     OW26854   1.205   4.231   4.062
 8652SOL    HW126855   1.264   4.307   4.089
 8652SOL    HW226856   1.231   4.200   3.971
 8653SOL     OW26857   6.944   1.457   5.968
 8653SOL    HW126858   6.896   1.508   5.896
 8653SOL    HW226859   6.879   1.430   6.039
 8654SOL     OW26860   0.884   5.003   2.069
 8654SOL    HW126861   0.981   4.980   2.075
 8654SOL    HW226862   0.874   5.102   2.060
 8655SOL     OW26863   6.724   1.479   5.510
 8655SOL    HW126864   6.641   1.422   5.512
 8655SOL    HW226865   6.741   1.510   5.417
 8656SOL     OW26866   4.526   6.879   1.688
 8656SOL    HW126867   4.537   6.834   1.600
 8656SOL    HW226868   4.613   6.921   1.715
 8657SOL     OW26869   5.219   0.596   2.411
 8657SOL    HW126870   5.235   0.687   2.451
 8657SOL    HW226871   5.263   0.527   2.468
 8658SOL     OW26872   6.053   4.824   1.667
 8658SOL    HW126873   5.970   4.837   1.721
 8658SOL    HW226874   6.108   4.751   1.708
 8659SOL     OW26875   5.032   1.247   2.391
 8659SOL    HW126876   5.112   1.271   2.446
 8659SOL    HW226877   4.949   1.275   2.439
 8660SOL     OW26878   1.097   2.607   1.378
 8660SOL    HW126879   1.126   2.633   1.285
 8660SOL    HW226880   1.123   2.680   1.442
 8661SOL     OW26881   5.934   3.274   2.964
 8661SOL    HW126882   5.960   3.248   3.057
 8661SOL    HW226883   6.008   3.252   2.901
 8662SOL     OW26884   3.201   5.440   2.862
 8662SOL    HW126885   3.112   5.395   2.857
 8662SOL    HW226886   3.271   5.380   2.823
 8663SOL     OW26887   3.713   5.355   3.415
 8663SOL    HW126888   3.706   5.360   3.515
 8663SOL    HW226889   3.766   5.275   3.389
 8664SOL     OW26890   2.629   5.651   3.188
 8664SOL    HW126891   2.648   5.632   3.284
 8664SOL    HW226892   2.530   5.662   3.174
 8665SOL     OW26893   6.204   4.145   6.205
 8665SOL    HW126894   6.254   4.131   6.120
 8665SOL    HW226895   6.235   4.078   6.273
 8666SOL     OW26896   5.525   0.317   3.262
 8666SOL    HW126897   5.549   0.236   3.316
 8666SOL    HW226898   5.568   0.398   3.301
 8667SOL     OW26899   5.041   1.859   4.272
 8667SOL    HW126900   4.974   1.798   4.231
 8667SOL    HW226901   5.030   1.951   4.234
 8668SOL     OW26902   5.292   2.914   5.270
 8668SOL    HW126903   5.225   2.887   5.200
 8668SOL    HW226904   5.300   3.014   5.271
 8669SOL     OW26905   5.951   6.490   6.061
 8669SOL    HW126906   6.030   6.546   6.086
 8669SOL    HW226907   5.900   6.467   6.144
 8670SOL     OW26908   6.285   4.720   5.646
 8670SOL    HW126909   6.220   4.740   5.719
 8670SOL    HW226910   6.354   4.656   5.680
 8671SOL     OW26911   0.300   2.379   2.458
 8671SOL    HW126912   0.360   2.305   2.490
 8671SOL    HW226913   0.353   2.463   2.449
 8672SOL     OW26914   0.211   0.421   3.413
 8672SOL    HW126915   0.221   0.340   3.471
 8672SOL    HW226916   0.267   0.411   3.331
 8673SOL     OW26917   0.917   1.568   0.312
 8673SOL    HW126918   0.962   1.486   0.276
 8673SOL    HW226919   0.910   1.560   0.411
 8674SOL     OW26920   0.300   4.365   3.242
 8674SOL    HW126921   0.342   4.323   3.323
 8674SOL    HW226922   0.216   4.317   3.219
 8675SOL     OW26923   3.496   1.918   5.839
 8675SOL    HW126924   3.473   2.012   5.815
 8675SOL    HW226925   3.577   1.917   5.897
 8676SOL     OW26926   5.730   1.033   1.090
 8676SOL    HW126927   5.779   1.112   1.128
 8676SOL    HW226928   5.785   0.993   1.016
 8677SOL     OW26929   1.515   6.798   5.679
 8677SOL    HW126930   1.450   6.871   5.696
 8677SOL    HW226931   1.467   6.719   5.641
 8678SOL     OW26932   1.500   0.442   0.857
 8678SOL    HW126933   1.408   0.478   0.846
 8678SOL    HW226934   1.499   0.366   0.921
 8679SOL     OW26935   2.390   1.212   4.106
 8679SOL    HW126936   2.401   1.113   4.103
 8679SOL    HW226937   2.477   1.256   4.084
 8680SOL     OW26938   6.522   2.595   6.424
 8680SOL    HW126939   6.489   2.638   6.340
 8680SOL    HW226940   6.498   2.652   6.503
 8681SOL     OW26941   5.130   5.759   1.059
 8681SOL    HW126942   5.103   5.679   1.005
 8681SOL    HW226943   5.203   5.734   1.122
 8682SOL     OW26944   0.080   0.150   1.250
 8682SOL    HW126945   0.044   0.240   1.273
 8682SOL    HW226946   0.154   0.160   1.184
 8683SOL     OW26947   1.846   3.978   4.924
 8683SOL    HW126948   1.782   3.933   4.986
 8683SOL    HW226949   1.923   4.015   4.976
 8684SOL     OW26950   0.625   4.084   4.607
 8684SOL    HW126951   0.698   4.017   4.595
 8684SOL    HW226952   0.575   4.095   4.521
 8685SOL     OW26953   4.951   2.383   5.810
 8685SOL    HW126954   5.029   2.400   5.871
 8685SOL    HW226955   4.950   2.287   5.783
 8686SOL     OW26956   6.478   6.428   2.471
 8686SOL    HW126957   6.556   6.389   2.421
 8686SOL    HW226958   6.416   6.354   2.498
 8687SOL     OW26959   5.977   3.081   3.182
 8687SOL    HW126960   5.893   3.039   3.218
 8687SOL    HW226961   6.001   3.037   3.096
 8688SOL     OW26962   1.259   4.120   6.314
 8688SOL    HW126963   1.321   4.197   6.330
 8688SOL    HW226964   1.264   4.056   6.390
 8689SOL     OW26965   4.323   3.215   0.758
 8689SOL    HW126966   4.297   3.224   0.662
 8689SOL    HW226967   4.422   3.197   0.764
 8690SOL     OW26968   1.855   1.764   3.358
 8690SOL    HW126969   1.876   1.670   3.331
 8690SOL    HW226970   1.847   1.770   3.457
 8691SOL     OW26971   2.842   2.000   4.886
 8691SOL    HW126972   2.882   2.066   4.823
 8691SOL    HW226973   2.796   1.928   4.835
 8692SOL     OW26974   4.511   2.314   5.893
 8692SOL    HW126975   4.468   2.265   5.968
 8692SOL    HW226976   4.593   2.361   5.926
 8693SOL     OW26977   6.024   0.797   6.549
 8693SOL    HW126978   5.924   0.795   6.541
 8693SOL    HW226979   6.064   0.752   6.469
 8694SOL     OW26980   5.909   3.196   3.708
 8694SOL    HW126981   5.895   3.198   3.609
 8694SOL    HW226982   5.909   3.290   3.743
 8695SOL     OW26983   3.934   3.741   6.729
 8695SOL    HW126984   3.900   3.683   6.655
 8695SOL    HW226985   4.019   3.703   6.765
 8696SOL     OW26986   2.796   5.715   6.070
 8696SOL    HW126987   2.793   5.682   6.164
 8696SOL    HW226988   2.722   5.780   6.056
 8697SOL     OW26989   1.794   4.028   5.772
 8697SOL    HW126990   1.720   4.017   5.707
 8697SOL    HW226991   1.874   4.065   5.726
 8698SOL     OW26992   5.257   6.081   5.193
 8698SOL    HW126993   5.344   6.096   5.240
 8698SOL    HW226994   5.188   6.055   5.260
 8699SOL     OW26995   2.366   3.016   6.978
 8699SOL    HW126996   2.276   3.003   7.019
 8699SOL    HW226997   2.411   2.928   6.967
 8700SOL     OW26998   0.504   0.303   5.296
 8700SOL    HW126999   0.440   0.336   5.366
 8700SOL    HW227000   0.568   0.239   5.337
 8701SOL     OW27001   0.974   2.082   6.438
 8701SOL    HW127002   1.031   2.144   6.491
 8701SOL    HW227003   0.986   2.100   6.340
 8702SOL     OW27004   4.987   4.461   1.789
 8702SOL    HW127005   4.940   4.375   1.767
 8702SOL    HW227006   5.032   4.495   1.706
 8703SOL     OW27007   2.394   4.503   1.131
 8703SOL    HW127008   2.447   4.584   1.158
 8703SOL    HW227009   2.303   4.507   1.172
 8704SOL     OW27010   0.742   2.403   4.023
 8704SOL    HW127011   0.725   2.312   4.060
 8704SOL    HW227012   0.827   2.402   3.969
 8705SOL     OW27013   4.551   2.739   0.021
 8705SOL    HW127014   4.548   2.838   0.009
 8705SOL    HW227015   4.464   2.707   0.061
 8706SOL     OW27016   5.005   3.659   6.509
 8706SOL    HW127017   4.911   3.670   6.541
 8706SOL    HW227018   5.063   3.634   6.587
 8707SOL     OW27019   1.333   2.061   4.491
 8707SOL    HW127020   1.303   1.966   4.484
 8707SOL    HW227021   1.379   2.087   4.406
 8708SOL     OW27022   6.153   2.180   2.629
 8708SOL    HW127023   6.155   2.266   2.681
 8708SOL    HW227024   6.060   2.162   2.597
 8709SOL     OW27025   6.358   0.402   5.634
 8709SOL    HW127026   6.450   0.432   5.609
 8709SOL    HW227027   6.353   0.302   5.632
 8710SOL     OW27028   2.074   1.103   3.341
 8710SOL    HW127029   1.975   1.098   3.326
 8710SOL    HW227030   2.118   1.143   3.261
 8711SOL     OW27031   1.137   0.682   1.615
 8711SOL    HW127032   1.142   0.624   1.534
 8711SOL    HW227033   1.051   0.664   1.663
 8712SOL     OW27034   2.008   2.759   5.551
 8712SOL    HW127035   1.987   2.677   5.605
 8712SOL    HW227036   1.999   2.739   5.454
 8713SOL     OW27037   0.829   4.647   2.034
 8713SOL    HW127038   0.804   4.740   2.007
 8713SOL    HW227039   0.810   4.584   1.958
 8714SOL     OW27040   6.631   6.311   6.745
 8714SOL    HW127041   6.690   6.243   6.703
 8714SOL    HW227042   6.611   6.285   6.839
 8715SOL     OW27043   2.700   2.162   0.401
 8715SOL    HW127044   2.777   2.209   0.444
 8715SOL    HW227045   2.638   2.127   0.471
 8716SOL     OW27046   6.466   6.665   1.305
 8716SOL    HW127047   6.549   6.624   1.266
 8716SOL    HW227048   6.433   6.737   1.244
 8717SOL     OW27049   2.196   4.730   0.200
 8717SOL    HW127050   2.127   4.659   0.182
 8717SOL    HW227051   2.287   4.692   0.185
 8718SOL     OW27052   2.039   4.194   6.474
 8718SOL    HW127053   1.945   4.178   6.503
 8718SOL    HW227054   2.071   4.282   6.509
 8719SOL     OW27055   3.714   1.055   5.977
 8719SOL    HW127056   3.754   1.125   5.917
 8719SOL    HW227057   3.614   1.058   5.970
 8720SOL     OW27058   6.601   4.000   4.943
 8720SOL    HW127059   6.671   3.958   5.000
 8720SOL    HW227060   6.524   4.030   4.999
 8721SOL     OW27061   7.016   6.517   6.596
 8721SOL    HW127062   6.934   6.555   6.639
 8721SOL    HW227063   0.011   6.427   6.635
 8722SOL     OW27064   3.864   1.075   1.162
 8722SOL    HW127065   3.822   1.067   1.252
 8722SOL    HW227066   3.956   1.037   1.164
 8723SOL     OW27067   4.974   6.932   2.266
 8723SOL    HW127068   5.035   6.869   2.218
 8723SOL    HW227069   4.966   7.016   2.214
 8724SOL     OW27070   4.220   0.502   4.566
 8724SOL    HW127071   4.231   0.601   4.568
 8724SOL    HW227072   4.127   0.478   4.594
 8725SOL     OW27073   0.365   6.525   4.760
 8725SOL    HW127074   0.460   6.494   4.755
 8725SOL    HW227075   0.362   6.624   4.743
 8726SOL     OW27076   0.736   0.801   0.438
 8726SOL    HW127077   0.808   0.854   0.483
 8726SOL    HW227078   0.719   0.838   0.347
 8727SOL     OW27079   5.611   5.988   6.288
 8727SOL    HW127080   5.704   6.021   6.271
 8727SOL    HW227081   5.585   5.924   6.215
 8728SOL     OW27082   5.915   0.431   3.064
 8728SOL    HW127083   5.822   0.430   3.026
 8728SOL    HW227084   5.963   0.348   3.037
 8729SOL     OW27085   3.687   5.276   6.334
 8729SOL    HW127086   3.641   5.332   6.265
 8729SOL    HW227087   3.683   5.180   6.307
 8730SOL     OW27088   5.645   4.821   2.198
 8730SOL    HW127089   5.592   4.758   2.256
 8730SOL    HW227090   5.601   4.827   2.108
 8731SOL     OW27091   0.283   2.032   3.412
 8731SOL    HW127092   0.252   2.123   3.386
 8731SOL    HW227093   0.359   2.039   3.476
 8732SOL     OW27094   5.015   5.456   1.000
 8732SOL    HW127095   4.983   5.473   0.907
 8732SOL    HW227096   4.939   5.426   1.056
 8733SOL     OW27097   0.376   4.566   2.002
 8733SOL    HW127098   0.419   4.479   1.979
 8733SOL    HW227099   0.414   4.600   2.089
 8734SOL     OW27100   6.822   3.675   1.915
 8734SOL    HW127101   6.889   3.608   1.883
 8734SOL    HW227102   6.738   3.628   1.942
 8735SOL     OW27103   2.089   3.929   5.624
 8735SOL    HW127104   2.188   3.915   5.622
 8735SOL    HW227105   2.069   4.027   5.618
 8736SOL     OW27106   0.655   5.846   2.565
 8736SOL    HW127107   0.739   5.876   2.611
 8736SOL    HW227108   0.579   5.905   2.593
 8737SOL     OW27109   1.457   5.396   6.331
 8737SOL    HW127110   1.369   5.369   6.368
 8737SOL    HW227111   1.456   5.384   6.231
 8738SOL     OW27112   1.100   3.968   3.499
 8738SOL    HW127113   1.141   3.896   3.443
 8738SOL    HW227114   1.156   4.051   3.492
 8739SOL     OW27115   5.277   4.252   5.196
 8739SOL    HW127116   5.197   4.271   5.253
 8739SOL    HW227117   5.279   4.155   5.172
 8740SOL     OW27118   3.614   1.516   3.938
 8740SOL    HW127119   3.574   1.547   3.852
 8740SOL    HW227120   3.571   1.564   4.015
 8741SOL     OW27121   1.326   6.975   2.157
 8741SOL    HW127122   1.366   0.041   2.164
 8741SOL    HW227123   1.398   6.909   2.137
 8742SOL     OW27124   3.124   1.576   2.578
 8742SOL    HW127125   3.150   1.564   2.483
 8742SOL    HW227126   3.185   1.523   2.637
 8743SOL     OW27127   1.729   0.660   2.039
 8743SOL    HW127128   1.734   0.618   1.948
 8743SOL    HW227129   1.732   0.760   2.030
 8744SOL     OW27130   3.847   4.016   6.733
 8744SOL    HW127131   3.834   4.053   6.641
 8744SOL    HW227132   3.888   3.925   6.727
 8745SOL     OW27133   6.478   1.699   6.224
 8745SOL    HW127134   6.474   1.721   6.321
 8745SOL    HW227135   6.431   1.771   6.172
 8746SOL     OW27136   5.146   5.555   4.319
 8746SOL    HW127137   5.185   5.629   4.264
 8746SOL    HW227138   5.219   5.509   4.369
 8747SOL     OW27139   6.918   0.716   2.064
 8747SOL    HW127140   6.894   0.805   2.026
 8747SOL    HW227141   6.859   0.696   2.142
 8748SOL     OW27142   0.549   1.846   3.497
 8748SOL    HW127143   0.555   1.902   3.580
 8748SOL    HW227144   0.492   1.766   3.515
 8749SOL     OW27145   2.845   1.582   5.607
 8749SOL    HW127146   2.757   1.608   5.646
 8749SOL    HW227147   2.877   1.654   5.546
 8750SOL     OW27148   4.449   2.648   6.165
 8750SOL    HW127149   4.495   2.705   6.097
 8750SOL    HW227150   4.414   2.705   6.239
 8751SOL     OW27151   0.546   6.374   1.686
 8751SOL    HW127152   0.612   6.302   1.665
 8751SOL    HW227153   0.464   6.333   1.727
 8752SOL     OW27154   4.766   3.059   6.813
 8752SOL    HW127155   4.829   3.017   6.878
 8752SOL    HW227156   4.695   2.993   6.788
 8753SOL     OW27157   1.789   3.054   0.016
 8753SOL    HW127158   1.799   3.050   6.942
 8753SOL    HW227159   1.826   2.971   0.057
 8754SOL     OW27160   2.921   5.103   0.034
 8754SOL    HW127161   2.850   5.052   0.084
 8754SOL    HW227162   2.998   5.042   0.015
 8755SOL     OW27163   0.464   1.786   2.217
 8755SOL    HW127164   0.439   1.731   2.297
 8755SOL    HW227165   0.492   1.726   2.143
 8756SOL     OW27166   2.440   2.627   3.792
 8756SOL    HW127167   2.352   2.587   3.768
 8756SOL    HW227168   2.433   2.674   3.880
 8757SOL     OW27169   4.895   6.687   5.560
 8757SOL    HW127170   4.907   6.610   5.496
 8757SOL    HW227171   4.965   6.681   5.631
 8758SOL     OW27172   3.661   6.376   3.747
 8758SOL    HW127173   3.743   6.401   3.695
 8758SOL    HW227174   3.659   6.276   3.758
 8759SOL     OW27175   5.922   1.180   6.955
 8759SOL    HW127176   6.017   1.153   6.973
 8759SOL    HW227177   5.915   1.217   6.863
 8760SOL     OW27178   1.938   1.945   4.483
 8760SOL    HW127179   1.947   2.041   4.456
 8760SOL    HW227180   2.019   1.918   4.536
 8761SOL     OW27181   4.570   1.138   2.247
 8761SOL    HW127182   4.477   1.144   2.284
 8761SOL    HW227183   4.619   1.223   2.267
 8762SOL     OW27184   1.219   5.096   3.620
 8762SOL    HW127185   1.122   5.121   3.618
 8762SOL    HW227186   1.261   5.116   3.531
 8763SOL     OW27187   0.251   0.851   5.940
 8763SOL    HW127188   0.206   0.772   5.898
 8763SOL    HW227189   0.233   0.933   5.886
 8764SOL     OW27190   3.889   4.989   5.457
 8764SOL    HW127191   3.816   4.962   5.520
 8764SOL    HW227192   3.952   4.912   5.445
 8765SOL     OW27193   4.974   0.107   4.891
 8765SOL    HW127194   5.068   0.141   4.889
 8765SOL    HW227195   4.973   0.008   4.879
 8766SOL     OW27196   5.291   4.755   5.973
 8766SOL    HW127197   5.350   4.717   5.902
 8766SOL    HW227198   5.281   4.689   6.047
 8767SOL     OW27199   3.030   0.383   3.736
 8767SOL    HW127200   3.113   0.438   3.733
 8767SOL    HW227201   3.041   0.310   3.805
 8768SOL     OW27202   6.744   2.736   0.288
 8768SOL    HW127203   6.673   2.790   0.243
 8768SOL    HW227204   6.771   2.780   0.373
 8769SOL     OW27205   6.503   1.072   1.281
 8769SOL    HW127206   6.579   1.093   1.342
 8769SOL    HW227207   6.528   0.995   1.222
 8770SOL     OW27208   4.978   3.394   2.535
 8770SOL    HW127209   5.058   3.453   2.526
 8770SOL    HW227210   4.952   3.387   2.631
 8771SOL     OW27211   0.573   3.776   6.323
 8771SOL    HW127212   0.638   3.828   6.268
 8771SOL    HW227213   0.608   3.685   6.341
 8772SOL     OW27214   5.877   0.179   4.364
 8772SOL    HW127215   5.964   0.207   4.324
 8772SOL    HW227216   5.884   0.086   4.400
 8773SOL     OW27217   6.762   1.903   4.166
 8773SOL    HW127218   6.834   1.857   4.114
 8773SOL    HW227219   6.789   1.998   4.182
 8774SOL     OW27220   1.190   0.146   0.089
 8774SOL    HW127221   1.150   0.181   0.173
 8774SOL    HW227222   1.126   0.084   0.044
 8775SOL     OW27223   5.583   1.945   4.147
 8775SOL    HW127224   5.596   1.971   4.243
 8775SOL    HW227225   5.490   1.911   4.134
 8776SOL     OW27226   5.081   2.903   0.159
 8776SOL    HW127227   5.084   2.828   0.224
 8776SOL    HW227228   5.084   2.991   0.207
 8777SOL     OW27229   1.356   2.354   3.183
 8777SOL    HW127230   1.436   2.341   3.125
 8777SOL    HW227231   1.282   2.295   3.151
 8778SOL     OW27232   4.416   4.517   5.528
 8778SOL    HW127233   4.384   4.517   5.622
 8778SOL    HW227234   4.411   4.609   5.490
 8779SOL     OW27235   3.531   4.927   2.831
 8779SOL    HW127236   3.479   4.936   2.746
 8779SOL    HW227237   3.469   4.900   2.905
 8780SOL     OW27238   6.828   5.488   2.781
 8780SOL    HW127239   6.825   5.395   2.745
 8780SOL    HW227240   6.912   5.501   2.834
 8781SOL     OW27241   3.680   6.390   1.996
 8781SOL    HW127242   3.621   6.355   1.924
 8781SOL    HW227243   3.625   6.441   2.063
 8782SOL     OW27244   4.884   1.070   1.961
 8782SOL    HW127245   4.935   1.079   2.047
 8782SOL    HW227246   4.806   1.133   1.962
 8783SOL     OW27247   4.978   3.476   4.857
 8783SOL    HW127248   4.910   3.529   4.908
 8783SOL    HW227249   4.953   3.473   4.760
 8784SOL     OW27250   5.457   6.217   0.872
 8784SOL    HW127251   5.387   6.198   0.942
 8784SOL    HW227252   5.481   6.314   0.875
 8785SOL     OW27253   0.676   5.510   6.319
 8785SOL    HW127254   0.589   5.560   6.328
 8785SOL    HW227255   0.704   5.476   6.409
 8786SOL     OW27256   4.030   2.194   2.128
 8786SOL    HW127257   3.955   2.192   2.195
 8786SOL    HW227258   3.994   2.223   2.039
 8787SOL     OW27259   3.859   0.768   2.078
 8787SOL    HW127260   3.792   0.841   2.069
 8787SOL    HW227261   3.837   0.694   2.014
 8788SOL     OW27262   0.463   0.185   5.051
 8788SOL    HW127263   0.559   0.173   5.026
 8788SOL    HW227264   0.457   0.228   5.141
 8789SOL     OW27265   0.429   3.621   4.586
 8789SOL    HW127266   0.470   3.540   4.544
 8789SOL    HW227267   0.501   3.681   4.620
 8790SOL     OW27268   6.075   2.901   0.047
 8790SOL    HW127269   6.079   2.843   6.991
 8790SOL    HW227270   5.998   2.873   0.105
 8791SOL     OW27271   4.578   5.580   5.254
 8791SOL    HW127272   4.503   5.547   5.312
 8791SOL    HW227273   4.615   5.503   5.202
 8792SOL     OW27274   4.805   5.169   1.756
 8792SOL    HW127275   4.803   5.077   1.716
 8792SOL    HW227276   4.714   5.193   1.790
 8793SOL     OW27277   0.598   4.814   4.553
 8793SOL    HW127278   0.556   4.733   4.594
 8793SOL    HW227279   0.583   4.893   4.612
 8794SOL     OW27280   0.027   0.149   2.045
 8794SOL    HW127281   7.017   0.062   2.011
 8794SOL    HW227282   6.982   0.193   2.102
 8795SOL     OW27283   1.768   5.250   5.638
 8795SOL    HW127284   1.824   5.247   5.720
 8795SOL    HW227285   1.826   5.260   5.557
 8796SOL     OW27286   6.538   3.251   3.485
 8796SOL    HW127287   6.516   3.322   3.418
 8796SOL    HW227288   6.492   3.166   3.460
 8797SOL     OW27289   6.186   6.994   3.924
 8797SOL    HW127290   6.175   0.031   3.847
 8797SOL    HW227291   6.109   6.931   3.928
 8798SOL     OW27292   4.649   6.337   5.714
 8798SOL    HW127293   4.678   6.320   5.620
 8798SOL    HW227294   4.643   6.436   5.730
 8799SOL     OW27295   2.212   4.803   2.096
 8799SOL    HW127296   2.257   4.866   2.159
 8799SOL    HW227297   2.224   4.709   2.128
 8800SOL     OW27298   6.933   5.917   5.406
 8800SOL    HW127299   6.882   5.886   5.326
 8800SOL    HW227300   7.022   5.953   5.377
 8801SOL     OW27301   6.160   2.329   4.849
 8801SOL    HW127302   6.222   2.403   4.874
 8801SOL    HW227303   6.196   2.242   4.883
 8802SOL     OW27304   0.973   6.344   5.833
 8802SOL    HW127305   1.015   6.259   5.800
 8802SOL    HW227306   0.886   6.358   5.786
 8803SOL     OW27307   6.182   0.737   6.300
 8803SOL    HW127308   6.242   0.672   6.252
 8803SOL    HW227309   6.087   0.720   6.274
 8804SOL     OW27310   1.467   5.768   1.702
 8804SOL    HW127311   1.513   5.782   1.614
 8804SOL    HW227312   1.376   5.808   1.698
 8805SOL     OW27313   4.445   5.727   2.377
 8805SOL    HW127314   4.445   5.637   2.421
 8805SOL    HW227315   4.519   5.783   2.414
 8806SOL     OW27316   2.240   6.492   0.077
 8806SOL    HW127317   2.318   6.434   0.054
 8806SOL    HW227318   2.218   6.551   7.025
 8807SOL     OW27319   5.183   2.164   1.313
 8807SOL    HW127320   5.126   2.089   1.345
 8807SOL    HW227321   5.144   2.202   1.228
 8808SOL     OW27322   2.144   2.389   0.416
 8808SOL    HW127323   2.237   2.403   0.449
 8808SOL    HW227324   2.145   2.371   0.318
 8809SOL     OW27325   1.553   3.815   3.667
 8809SOL    HW127326   1.556   3.841   3.764
 8809SOL    HW227327   1.479   3.865   3.622
 8810SOL     OW27328   6.853   1.603   5.750
 8810SOL    HW127329   6.910   1.671   5.704
 8810SOL    HW227330   6.781   1.572   5.688
 8811SOL     OW27331   4.043   5.999   2.331
 8811SOL    HW127332   4.132   6.015   2.288
 8811SOL    HW227333   4.018   5.902   2.321
 8812SOL     OW27334   3.490   1.496   6.677
 8812SOL    HW127335   3.436   1.576   6.701
 8812SOL    HW227336   3.490   1.484   6.578
 8813SOL     OW27337   2.713   4.649   3.232
 8813SOL    HW127338   2.658   4.732   3.217
 8813SOL    HW227339   2.657   4.579   3.275
 8814SOL     OW27340   5.707   0.080   0.258
 8814SOL    HW127341   5.796   0.051   0.224
 8814SOL    HW227342   5.689   0.037   0.346
 8815SOL     OW27343   5.118   1.340   0.479
 8815SOL    HW127344   5.041   1.369   0.422
 8815SOL    HW227345   5.123   1.399   0.560
 8816SOL     OW27346   0.682   6.196   5.966
 8816SOL    HW127347   0.697   6.251   5.883
 8816SOL    HW227348   0.586   6.170   5.972
 8817SOL     OW27349   1.535   3.068   4.219
 8817SOL    HW127350   1.607   3.001   4.202
 8817SOL    HW227351   1.573   3.160   4.210
 8818SOL     OW27352   2.468   6.848   3.860
 8818SOL    HW127353   2.534   6.880   3.791
 8818SOL    HW227354   2.517   6.825   3.944
 8819SOL     OW27355   5.192   4.496   5.766
 8819SOL    HW127356   5.263   4.479   5.835
 8819SOL    HW227357   5.102   4.487   5.809
 8820SOL     OW27358   3.069   0.894   4.676
 8820SOL    HW127359   3.027   0.967   4.622
 8820SOL    HW227360   3.146   0.930   4.727
 8821SOL     OW27361   1.322   4.821   0.513
 8821SOL    HW127362   1.394   4.870   0.465
 8821SOL    HW227363   1.274   4.884   0.574
 8822SOL     OW27364   6.706   6.703   3.887
 8822SOL    HW127365   6.737   6.646   3.962
 8822SOL    HW227366   6.699   6.798   3.917
 8823SOL     OW27367   3.714   0.932   3.016
 8823SOL    HW127368   3.671   0.950   3.104
 8823SOL    HW227369   3.716   1.016   2.962
 8824SOL     OW27370   1.970   1.041   1.146
 8824SOL    HW127371   1.950   1.129   1.102
 8824SOL    HW227372   1.982   0.971   1.076
 8825SOL     OW27373   0.196   6.798   6.972
 8825SOL    HW127374   0.097   6.812   6.979
 8825SOL    HW227375   0.219   6.772   6.879
 8826SOL     OW27376   1.118   3.192   0.798
 8826SOL    HW127377   1.059   3.112   0.783
 8826SOL    HW227378   1.214   3.166   0.788
 8827SOL     OW27379   4.019   0.329   2.665
 8827SOL    HW127380   4.075   0.280   2.731
 8827SOL    HW227381   3.982   0.412   2.707
 8828SOL     OW27382   4.177   3.574   6.325
 8828SOL    HW127383   4.149   3.612   6.413
 8828SOL    HW227384   4.152   3.477   6.322
 8829SOL     OW27385   6.984   1.829   1.928
 8829SOL    HW127386   6.982   1.730   1.941
 8829SOL    HW227387   0.054   1.860   1.933
 8830SOL     OW27388   2.511   2.162   2.851
 8830SOL    HW127389   2.426   2.162   2.903
 8830SOL    HW227390   2.570   2.236   2.883
 8831SOL     OW27391   0.804   2.101   1.924
 8831SOL    HW127392   0.791   2.154   2.008
 8831SOL    HW227393   0.817   2.164   1.847
 8832SOL     OW27394   6.992   6.818   4.087
 8832SOL    HW127395   0.050   6.785   4.133
 8832SOL    HW227396   7.013   6.843   3.993
 8833SOL     OW27397   3.579   2.548   1.152
 8833SOL    HW127398   3.501   2.556   1.214
 8833SOL    HW227399   3.624   2.460   1.166
 8834SOL     OW27400   5.843   3.610   5.298
 8834SOL    HW127401   5.836   3.697   5.348
 8834SOL    HW227402   5.873   3.538   5.361
 8835SOL     OW27403   6.336   0.866   5.539
 8835SOL    HW127404   6.327   0.880   5.440
 8835SOL    HW227405   6.400   0.934   5.576
 8836SOL     OW27406   4.972   2.202   6.309
 8836SOL    HW127407   5.022   2.117   6.326
 8836SOL    HW227408   4.891   2.183   6.253
 8837SOL     OW27409   5.798   0.041   1.955
 8837SOL    HW127410   5.773   0.087   1.870
 8837SOL    HW227411   5.761   6.973   1.954
 8838SOL     OW27412   0.055   4.255   3.178
 8838SOL    HW127413   0.031   4.161   3.152
 8838SOL    HW227414   0.010   4.319   3.116
 8839SOL     OW27415   5.442   6.203   3.291
 8839SOL    HW127416   5.471   6.130   3.353
 8839SOL    HW227417   5.344   6.220   3.302
 8840SOL     OW27418   0.118   1.008   1.309
 8840SOL    HW127419   0.171   1.083   1.348
 8840SOL    HW227420   0.177   0.952   1.251
 8841SOL     OW27421   3.586   1.465   2.088
 8841SOL    HW127422   3.537   1.516   2.159
 8841SOL    HW227423   3.661   1.413   2.130
 8842SOL     OW27424   3.371   2.916   4.213
 8842SOL    HW127425   3.364   2.887   4.117
 8842SOL    HW227426   3.297   2.979   4.235
 8843SOL     OW27427   2.013   3.686   5.195
 8843SOL    HW127428   2.054   3.607   5.150
 8843SOL    HW227429   2.084   3.750   5.224
 8844SOL     OW27430   5.102   1.976   5.059
 8844SOL    HW127431   5.133   1.889   5.019
 8844SOL    HW227432   5.047   1.958   5.140
 8845SOL     OW27433   0.941   5.272   1.597
 8845SOL    HW127434   0.857   5.326   1.600
 8845SOL    HW227435   0.942   5.208   1.673
 8846SOL     OW27436   5.293   4.651   3.526
 8846SOL    HW127437   5.366   4.703   3.481
 8846SOL    HW227438   5.234   4.714   3.576
 8847SOL     OW27439   2.391   2.478   2.932
 8847SOL    HW127440   2.377   2.505   2.837
 8847SOL    HW227441   2.345   2.391   2.949
 8848SOL     OW27442   3.173   1.740   1.098
 8848SOL    HW127443   3.138   1.772   1.010
 8848SOL    HW227444   3.182   1.818   1.160
 8849SOL     OW27445   3.323   6.007   4.549
 8849SOL    HW127446   3.299   5.918   4.512
 8849SOL    HW227447   3.399   6.045   4.497
 8850SOL     OW27448   2.947   2.187   0.550
 8850SOL    HW127449   2.986   2.257   0.611
 8850SOL    HW227450   3.019   2.150   0.491
 8851SOL     OW27451   1.034   4.773   3.510
 8851SOL    HW127452   1.123   4.728   3.522
 8851SOL    HW227453   0.961   4.708   3.532
 8852SOL     OW27454   5.759   2.870   5.886
 8852SOL    HW127455   5.697   2.798   5.917
 8852SOL    HW227456   5.717   2.959   5.902
 8853SOL     OW27457   4.207   1.622   5.126
 8853SOL    HW127458   4.120   1.612   5.176
 8853SOL    HW227459   4.231   1.718   5.119
 8854SOL     OW27460   1.573   1.672   5.989
 8854SOL    HW127461   1.595   1.769   6.004
 8854SOL    HW227462   1.483   1.651   6.028
 8855SOL     OW27463   6.329   6.097   6.655
 8855SOL    HW127464   6.328   6.117   6.753
 8855SOL    HW227465   6.252   6.037   6.632
 8856SOL     OW27466   5.907   1.149   5.119
 8856SOL    HW127467   5.861   1.237   5.132
 8856SOL    HW227468   6.000   1.154   5.153
 8857SOL     OW27469   6.161   2.167   3.484
 8857SOL    HW127470   6.181   2.129   3.574
 8857SOL    HW227471   6.148   2.266   3.491
 8858SOL     OW27472   0.906   3.744   5.620
 8858SOL    HW127473   0.973   3.816   5.637
 8858SOL    HW227474   0.816   3.774   5.652
 8859SOL     OW27475   1.277   6.298   5.035
 8859SOL    HW127476   1.280   6.390   4.996
 8859SOL    HW227477   1.315   6.300   5.128
 8860SOL     OW27478   1.142   2.092   2.284
 8860SOL    HW127479   1.165   2.079   2.380
 8860SOL    HW227480   1.109   2.006   2.245
 8861SOL     OW27481   3.831   3.310   0.182
 8861SOL    HW127482   3.895   3.348   0.115
 8861SOL    HW227483   3.870   3.227   0.222
 8862SOL     OW27484   5.990   1.642   5.018
 8862SOL    HW127485   6.068   1.608   5.069
 8862SOL    HW227486   6.020   1.713   4.954
 8863SOL     OW27487   2.287   5.833   4.826
 8863SOL    HW127488   2.358   5.769   4.795
 8863SOL    HW227489   2.232   5.790   4.897
 8864SOL     OW27490   2.354   3.196   6.419
 8864SOL    HW127491   2.316   3.181   6.511
 8864SOL    HW227492   2.448   3.228   6.427
 8865SOL     OW27493   2.468   2.007   5.406
 8865SOL    HW127494   2.520   2.043   5.484
 8865SOL    HW227495   2.525   2.006   5.324
 8866SOL     OW27496   3.545   6.755   3.290
 8866SOL    HW127497   3.552   6.827   3.221
 8866SOL    HW227498   3.462   6.769   3.344
 8867SOL     OW27499   5.850   1.636   2.983
 8867SOL    HW127500   5.921   1.689   2.937
 8867SOL    HW227501   5.892   1.564   3.038
 8868SOL     OW27502   4.742   4.033   0.441
 8868SOL    HW127503   4.643   4.041   0.437
 8868SOL    HW227504   4.767   3.945   0.480
 8869SOL     OW27505   4.927   3.843   3.642
 8869SOL    HW127506   4.864   3.854   3.718
 8869SOL    HW227507   4.952   3.932   3.605
 8870SOL     OW27508   3.982   1.141   0.794
 8870SOL    HW127509   3.932   1.127   0.880
 8870SOL    HW227510   4.062   1.198   0.812
 8871SOL     OW27511   1.851   1.587   3.801
 8871SOL    HW127512   1.848   1.547   3.893
 8871SOL    HW227513   1.916   1.537   3.745
 8872SOL     OW27514   1.746   4.120   4.230
 8872SOL    HW127515   1.840   4.153   4.233
 8872SOL    HW227516   1.743   4.031   4.184
 8873SOL     OW27517   0.590   5.753   4.238
 8873SOL    HW127518   0.536   5.793   4.312
 8873SOL    HW227519   0.599   5.654   4.252
 8874SOL     OW27520   2.551   0.747   1.174
 8874SOL    HW127521   2.521   0.811   1.244
 8874SOL    HW227522   2.587   0.665   1.217
 8875SOL     OW27523   1.732   2.894   4.168
 8875SOL    HW127524   1.693   2.809   4.134
 8875SOL    HW227525   1.780   2.940   4.093
 8876SOL     OW27526   0.454   0.970   5.002
 8876SOL    HW127527   0.488   0.959   4.908
 8876SOL    HW227528   0.436   1.066   5.020
 8877SOL     OW27529   2.861   0.936   4.304
 8877SOL    HW127530   2.768   0.937   4.268
 8877SOL    HW227531   2.926   0.938   4.228
 8878SOL     OW27532   6.947   4.428   0.107
 8878SOL    HW127533   0.021   4.425   0.097
 8878SOL    HW227534   6.918   4.521   0.126
 8879SOL     OW27535   5.480   6.080   0.491
 8879SOL    HW127536   5.468   6.116   0.398
 8879SOL    HW227537   5.496   5.981   0.487
 8880SOL     OW27538   6.570   4.899   4.308
 8880SOL    HW127539   6.505   4.974   4.295
 8880SOL    HW227540   6.662   4.932   4.289
 8881SOL     OW27541   0.167   1.262   1.962
 8881SOL    HW127542   0.150   1.320   2.042
 8881SOL    HW227543   0.185   1.168   1.993
 8882SOL     OW27544   5.369   2.233   6.465
 8882SOL    HW127545   5.377   2.184   6.379
 8882SOL    HW227546   5.359   2.331   6.447
 8883SOL     OW27547   6.138   0.857   6.017
 8883SOL    HW127548   6.194   0.843   5.935
 8883SOL    HW227549   6.113   0.769   6.056
 8884SOL     OW27550   5.499   0.070   6.142
 8884SOL    HW127551   5.531   7.001   6.147
 8884SOL    HW227552   5.576   0.132   6.125
 8885SOL     OW27553   5.811   3.741   1.982
 8885SOL    HW127554   5.811   3.645   1.954
 8885SOL    HW227555   5.728   3.760   2.035
 8886SOL     OW27556   2.824   6.758   5.809
 8886SOL    HW127557   2.792   6.853   5.807
 8886SOL    HW227558   2.896   6.745   5.740
 8887SOL     OW27559   2.618   1.357   1.271
 8887SOL    HW127560   2.618   1.318   1.364
 8887SOL    HW227561   2.524   1.377   1.244
 8888SOL     OW27562   1.905   1.365   1.123
 8888SOL    HW127563   1.893   1.349   1.221
 8888SOL    HW227564   1.972   1.438   1.109
 8889SOL     OW27565   4.849   0.370   4.569
 8889SOL    HW127566   4.947   0.385   4.582
 8889SOL    HW227567   4.806   0.455   4.540
 8890SOL     OW27568   0.077   5.617   4.856
 8890SOL    HW127569   0.059   5.644   4.951
 8890SOL    HW227570   0.163   5.566   4.853
 8891SOL     OW27571   5.746   3.396   6.597
 8891SOL    HW127572   5.731   3.298   6.579
 8891SOL    HW227573   5.780   3.440   6.514
 8892SOL     OW27574   1.985   0.405   3.243
 8892SOL    HW127575   1.974   0.398   3.342
 8892SOL    HW227576   1.945   0.324   3.200
 8893SOL     OW27577   6.757   1.144   0.882
 8893SOL    HW127578   6.771   1.204   0.960
 8893SOL    HW227579   6.815   1.174   0.806
 8894SOL     OW27580   4.210   2.452   6.082
 8894SOL    HW127581   4.277   2.525   6.096
 8894SOL    HW227582   4.128   2.490   6.041
 8895SOL     OW27583   0.545   6.698   1.282
 8895SOL    HW127584   0.637   6.674   1.250
 8895SOL    HW227585   0.484   6.709   1.204
 8896SOL     OW27586   1.450   4.046   4.937
 8896SOL    HW127587   1.421   4.118   4.874
 8896SOL    HW227588   1.469   4.087   5.027
 8897SOL     OW27589   1.468   1.416   1.579
 8897SOL    HW127590   1.427   1.331   1.547
 8897SOL    HW227591   1.424   1.443   1.666
 8898SOL     OW27592   5.997   3.228   4.365
 8898SOL    HW127593   6.077   3.209   4.309
 8898SOL    HW227594   5.984   3.153   4.431
 8899SOL     OW27595   1.852   4.357   0.324
 8899SOL    HW127596   1.782   4.302   0.278
 8899SOL    HW227597   1.942   4.319   0.306
 8900SOL     OW27598   4.746   2.294   3.015
 8900SOL    HW127599   4.672   2.228   3.025
 8900SOL    HW227600   4.718   2.366   2.951
 8901SOL     OW27601   1.328   0.321   2.808
 8901SOL    HW127602   1.318   0.235   2.758
 8901SOL    HW227603   1.368   0.390   2.748
 8902SOL     OW27604   1.846   5.447   6.283
 8902SOL    HW127605   1.812   5.538   6.258
 8902SOL    HW227606   1.816   5.426   6.377
 8903SOL     OW27607   2.158   1.598   3.819
 8903SOL    HW127608   2.239   1.540   3.834
 8903SOL    HW227609   2.108   1.564   3.740
 8904SOL     OW27610   0.169   5.758   4.077
 8904SOL    HW127611   0.235   5.805   4.018
 8904SOL    HW227612   0.112   5.825   4.124
 8905SOL     OW27613   2.311   3.393   5.531
 8905SOL    HW127614   2.374   3.471   5.542
 8905SOL    HW227615   2.224   3.425   5.495
 8906SOL     OW27616   6.563   6.452   6.094
 8906SOL    HW127617   6.485   6.461   6.155
 8906SOL    HW227618   6.551   6.372   6.035
 8907SOL     OW27619   3.336   2.697   5.237
 8907SOL    HW127620   3.308   2.600   5.239
 8907SOL    HW227621   3.254   2.754   5.228
 8908SOL     OW27622   1.592   2.078   1.496
 8908SOL    HW127623   1.515   2.034   1.541
 8908SOL    HW227624   1.629   2.018   1.425
 8909SOL     OW27625   2.742   0.855   6.185
 8909SOL    HW127626   2.731   0.888   6.091
 8909SOL    HW227627   2.785   0.765   6.185
 8910SOL     OW27628   3.134   3.176   6.624
 8910SOL    HW127629   3.120   3.114   6.701
 8910SOL    HW227630   3.047   3.190   6.576
 8911SOL     OW27631   3.263   2.122   4.714
 8911SOL    HW127632   3.310   2.118   4.803
 8911SOL    HW227633   3.320   2.172   4.649
 8912SOL     OW27634   4.343   1.662   6.126
 8912SOL    HW127635   4.313   1.731   6.061
 8912SOL    HW227636   4.282   1.583   6.121
 8913SOL     OW27637   4.895   4.231   1.680
 8913SOL    HW127638   4.875   4.140   1.716
 8913SOL    HW227639   4.932   4.223   1.588
 8914SOL     OW27640   3.777   1.571   5.007
 8914SOL    HW127641   3.779   1.472   5.021
 8914SOL    HW227642   3.859   1.600   4.958
 8915SOL     OW27643   2.160   3.359   3.656
 8915SOL    HW127644   2.170   3.277   3.714
 8915SOL    HW227645   2.120   3.433   3.710
 8916SOL     OW27646   6.794   4.623   2.612
 8916SOL    HW127647   6.870   4.603   2.673
 8916SOL    HW227648   6.822   4.607   2.517
 8917SOL     OW27649   6.122   6.264   6.417
 8917SOL    HW127650   6.171   6.324   6.481
 8917SOL    HW227651   6.104   6.176   6.461
 8918SOL     OW27652   5.778   6.265   6.814
 8918SOL    HW127653   5.680   6.262   6.793
 8918SOL    HW227654   5.802   6.356   6.845
 8919SOL     OW27655   3.210   4.334   0.882
 8919SOL    HW127656   3.118   4.294   0.875
 8919SOL    HW227657   3.236   4.372   0.793
 8920SOL     OW27658   5.924   5.228   6.063
 8920SOL    HW127659   5.860   5.263   6.132
 8920SOL    HW227660   5.874   5.206   5.979
 8921SOL     OW27661   1.527   1.223   3.781
 8921SOL    HW127662   1.434   1.212   3.746
 8921SOL    HW227663   1.583   1.146   3.751
 8922SOL     OW27664   1.846   4.823   0.807
 8922SOL    HW127665   1.926   4.770   0.835
 8922SOL    HW227666   1.768   4.762   0.794
 8923SOL     OW27667   2.008   3.713   6.778
 8923SOL    HW127668   2.042   3.784   6.716
 8923SOL    HW227669   2.061   3.714   6.863
 8924SOL     OW27670   3.214   5.128   5.227
 8924SOL    HW127671   3.183   5.138   5.133
 8924SOL    HW227672   3.298   5.180   5.241
 8925SOL     OW27673   6.604   6.921   2.244
 8925SOL    HW127674   6.621   6.824   2.226
 8925SOL    HW227675   6.506   6.940   2.234
 8926SOL     OW27676   5.537   1.933   2.050
 8926SOL    HW127677   5.458   1.930   1.988
 8926SOL    HW227678   5.505   1.939   2.144
 8927SOL     OW27679   2.316   2.753   5.117
 8927SOL    HW127680   2.380   2.733   5.191
 8927SOL    HW227681   2.322   2.850   5.093
 8928SOL     OW27682   0.437   0.600   5.655
 8928SOL    HW127683   0.518   0.652   5.630
 8928SOL    HW227684   0.443   0.572   5.751
 8929SOL     OW27685   6.940   3.854   4.062
 8929SOL    HW127686   7.007   3.868   3.990
 8929SOL    HW227687   6.970   3.780   4.122
 8930SOL     OW27688   1.170   5.232   4.865
 8930SOL    HW127689   1.162   5.283   4.950
 8930SOL    HW227690   1.139   5.288   4.789
 8931SOL     OW27691   5.093   1.688   1.497
 8931SOL    HW127692   5.019   1.639   1.542
 8931SOL    HW227693   5.179   1.640   1.512
 8932SOL     OW27694   5.946   0.580   6.708
 8932SOL    HW127695   5.926   0.631   6.792
 8932SOL    HW227696   6.040   0.548   6.710
 8933SOL     OW27697   1.569   0.985   4.872
 8933SOL    HW127698   1.567   1.064   4.811
 8933SOL    HW227699   1.494   0.923   4.849
 8934SOL     OW27700   3.767   5.533   3.154
 8934SOL    HW127701   3.731   5.510   3.245
 8934SOL    HW227702   3.798   5.450   3.108
 8935SOL     OW27703   4.588   2.357   2.589
 8935SOL    HW127704   4.498   2.314   2.591
 8935SOL    HW227705   4.597   2.413   2.507
 8936SOL     OW27706   0.597   4.813   1.444
 8936SOL    HW127707   0.604   4.750   1.521
 8936SOL    HW227708   0.547   4.769   1.369
 8937SOL     OW27709   0.177   6.769   4.246
 8937SOL    HW127710   0.269   6.768   4.285
 8937SOL    HW227711   0.137   6.678   4.252
 8938SOL     OW27712   6.129   0.828   0.561
 8938SOL    HW127713   6.193   0.878   0.621
 8938SOL    HW227714   6.157   0.732   0.556
 8939SOL     OW27715   0.317   2.836   4.387
 8939SOL    HW127716   0.384   2.766   4.411
 8939SOL    HW227717   0.228   2.811   4.426
 8940SOL     OW27718   0.174   3.127   0.805
 8940SOL    HW127719   0.175   3.038   0.760
 8940SOL    HW227720   0.206   3.117   0.899
 8941SOL     OW27721   5.358   2.398   2.472
 8941SOL    HW127722   5.365   2.357   2.381
 8941SOL    HW227723   5.275   2.454   2.476
 8942SOL     OW27724   6.515   4.773   3.645
 8942SOL    HW127725   6.479   4.688   3.683
 8942SOL    HW227726   6.441   4.839   3.633
 8943SOL     OW27727   4.451   3.789   0.213
 8943SOL    HW127728   4.523   3.856   0.193
 8943SOL    HW227729   4.492   3.710   0.260
 8944SOL     OW27730   4.665   5.321   4.249
 8944SOL    HW127731   4.635   5.416   4.259
 8944SOL    HW227732   4.624   5.265   4.321
 8945SOL     OW27733   6.381   3.779   4.800
 8945SOL    HW127734   6.369   3.878   4.793
 8945SOL    HW227735   6.317   3.732   4.739
 8946SOL     OW27736   5.500   1.103   4.129
 8946SOL    HW127737   5.450   1.078   4.046
 8946SOL    HW227738   5.529   1.198   4.123
 8947SOL     OW27739   1.289   4.664   5.998
 8947SOL    HW127740   1.324   4.746   5.953
 8947SOL    HW227741   1.308   4.669   6.097
 8948SOL     OW27742   6.699   0.111   3.537
 8948SOL    HW127743   6.726   0.188   3.479
 8948SOL    HW227744   6.774   0.088   3.598
 8949SOL     OW27745   3.168   6.485   0.315
 8949SOL    HW127746   3.103   6.557   0.339
 8949SOL    HW227747   3.250   6.527   0.275
 8950SOL     OW27748   4.508   4.719   1.264
 8950SOL    HW127749   4.592   4.678   1.228
 8950SOL    HW227750   4.468   4.779   1.196
 8951SOL     OW27751   2.382   1.386   4.409
 8951SOL    HW127752   2.329   1.321   4.354
 8951SOL    HW227753   2.333   1.472   4.416
 8952SOL     OW27754   2.108   4.550   3.556
 8952SOL    HW127755   2.145   4.579   3.468
 8952SOL    HW227756   2.132   4.454   3.572
 8953SOL     OW27757   2.380   4.944   2.291
 8953SOL    HW127758   2.480   4.939   2.283
 8953SOL    HW227759   2.353   5.040   2.303
 8954SOL     OW27760   1.014   5.259   5.326
 8954SOL    HW127761   1.006   5.167   5.289
 8954SOL    HW227762   0.936   5.278   5.386
 8955SOL     OW27763   5.105   2.730   3.809
 8955SOL    HW127764   5.106   2.630   3.807
 8955SOL    HW227765   5.062   2.765   3.726
 8956SOL     OW27766   1.183   6.035   6.063
 8956SOL    HW127767   1.255   5.990   6.010
 8956SOL    HW227768   1.098   6.036   6.010
 8957SOL     OW27769   0.879   5.286   2.211
 8957SOL    HW127770   0.895   5.384   2.195
 8957SOL    HW227771   0.803   5.275   2.275
 8958SOL     OW27772   1.457   3.514   5.471
 8958SOL    HW127773   1.516   3.575   5.525
 8958SOL    HW227774   1.512   3.467   5.402
 8959SOL     OW27775   0.611   3.241   2.469
 8959SOL    HW127776   0.576   3.253   2.562
 8959SOL    HW227777   0.709   3.219   2.474
 8960SOL     OW27778   5.816   4.010   4.272
 8960SOL    HW127779   5.791   4.102   4.242
 8960SOL    HW227780   5.754   3.944   4.230
 8961SOL     OW27781   3.472   6.942   4.932
 8961SOL    HW127782   3.462   6.875   5.006
 8961SOL    HW227783   3.405   6.923   4.861
 8962SOL     OW27784   0.817   5.688   1.584
 8962SOL    HW127785   0.890   5.640   1.632
 8962SOL    HW227786   0.795   5.641   1.499
 8963SOL     OW27787   3.567   6.143   4.437
 8963SOL    HW127788   3.617   6.059   4.417
 8963SOL    HW227789   3.497   6.158   4.368
 8964SOL     OW27790   0.169   3.579   4.051
 8964SOL    HW127791   0.180   3.668   4.095
 8964SOL    HW227792   0.082   3.576   4.002
 8965SOL     OW27793   4.347   5.084   0.207
 8965SOL    HW127794   4.269   5.058   0.264
 8965SOL    HW227795   4.343   5.181   0.187
 8966SOL     OW27796   5.238   5.589   5.777
 8966SOL    HW127797   5.157   5.531   5.767
 8966SOL    HW227798   5.282   5.572   5.865
 8967SOL     OW27799   3.547   0.455   3.231
 8967SOL    HW127800   3.615   0.529   3.236
 8967SOL    HW227801   3.470   0.485   3.176
 8968SOL     OW27802   3.424   5.024   1.951
 8968SOL    HW127803   3.455   5.119   1.942
 8968SOL    HW227804   3.461   4.985   2.035
 8969SOL     OW27805   0.020   1.145   2.793
 8969SOL    HW127806   6.947   1.155   2.808
 8969SOL    HW227807   0.040   1.166   2.697
 8970SOL     OW27808   1.558   1.343   6.481
 8970SOL    HW127809   1.614   1.301   6.553
 8970SOL    HW227810   1.520   1.429   6.514
 8971SOL     OW27811   4.440   5.782   0.394
 8971SOL    HW127812   4.508   5.723   0.439
 8971SOL    HW227813   4.357   5.785   0.449
 8972SOL     OW27814   5.803   4.602   0.578
 8972SOL    HW127815   5.780   4.509   0.552
 8972SOL    HW227816   5.789   4.663   0.500
 8973SOL     OW27817   0.487   2.199   2.126
 8973SOL    HW127818   0.514   2.295   2.122
 8973SOL    HW227819   0.445   2.172   2.040
 8974SOL     OW27820   2.233   4.197   4.495
 8974SOL    HW127821   2.311   4.245   4.455
 8974SOL    HW227822   2.264   4.141   4.572
 8975SOL     OW27823   0.409   0.234   6.302
 8975SOL    HW127824   0.490   0.245   6.360
 8975SOL    HW227825   0.337   0.296   6.334
 8976SOL     OW27826   6.609   6.802   1.521
 8976SOL    HW127827   6.556   6.738   1.465
 8976SOL    HW227828   6.705   6.773   1.525
 8977SOL     OW27829   7.020   5.126   6.331
 8977SOL    HW127830   6.989   5.044   6.282
 8977SOL    HW227831   6.952   5.199   6.321
 8978SOL     OW27832   5.906   5.583   5.611
 8978SOL    HW127833   5.943   5.669   5.576
 8978SOL    HW227834   5.901   5.516   5.537
 8979SOL     OW27835   1.024   5.483   5.863
 8979SOL    HW127836   1.030   5.394   5.818
 8979SOL    HW227837   0.987   5.471   5.955
 8980SOL     OW27838   3.711   0.993   4.875
 8980SOL    HW127839   3.745   1.080   4.838
 8980SOL    HW227840   3.612   0.988   4.859
 8981SOL     OW27841   4.286   2.895   6.685
 8981SOL    HW127842   4.268   2.973   6.625
 8981SOL    HW227843   4.203   2.841   6.696
 8982SOL     OW27844   6.986   1.565   1.286
 8982SOL    HW127845   6.975   1.635   1.356
 8982SOL    HW227846   0.056   1.534   1.285
 8983SOL     OW27847   1.136   6.276   3.138
 8983SOL    HW127848   1.207   6.346   3.146
 8983SOL    HW227849   1.146   6.230   3.050
 8984SOL     OW27850   5.977   0.491   4.094
 8984SOL    HW127851   5.882   0.520   4.105
 8984SOL    HW227852   6.038   0.567   4.118
 8985SOL     OW27853   4.653   2.495   0.883
 8985SOL    HW127854   4.562   2.530   0.861
 8985SOL    HW227855   4.721   2.568   0.870
 8986SOL     OW27856   6.407   4.512   1.373
 8986SOL    HW127857   6.449   4.511   1.464
 8986SOL    HW227858   6.367   4.602   1.356
 8987SOL     OW27859   2.143   6.928   1.406
 8987SOL    HW127860   2.110   6.864   1.476
 8987SOL    HW227861   2.151   7.020   1.446
 8988SOL     OW27862   1.405   5.131   1.434
 8988SOL    HW127863   1.383   5.039   1.401
 8988SOL    HW227864   1.359   5.146   1.522
 8989SOL     OW27865   5.795   1.933   1.936
 8989SOL    HW127866   5.706   1.930   1.982
 8989SOL    HW227867   5.780   1.930   1.837
 8990SOL     OW27868   3.282   6.954   1.621
 8990SOL    HW127869   3.366   7.008   1.615
 8990SOL    HW227870   3.203   7.015   1.629
 8991SOL     OW27871   2.100   2.384   0.813
 8991SOL    HW127872   2.141   2.475   0.809
 8991SOL    HW227873   2.003   2.391   0.789
 8992SOL     OW27874   0.516   3.483   6.644
 8992SOL    HW127875   0.520   3.561   6.706
 8992SOL    HW227876   0.581   3.413   6.674
 8993SOL     OW27877   5.447   2.529   3.288
 8993SOL    HW127878   5.349   2.543   3.274
 8993SOL    HW227879   5.498   2.600   3.241
 8994SOL     OW27880   0.957   5.022   3.641
 8994SOL    HW127881   0.895   4.971   3.701
 8994SOL    HW227882   1.021   4.959   3.597
 8995SOL     OW27883   1.764   3.790   5.149
 8995SOL    HW127884   1.776   3.869   5.209
 8995SOL    HW227885   1.853   3.748   5.131
 8996SOL     OW27886   0.463   3.814   2.674
 8996SOL    HW127887   0.551   3.856   2.652
 8996SOL    HW227888   0.438   3.750   2.602
 8997SOL     OW27889   4.179   1.345   4.883
 8997SOL    HW127890   4.148   1.306   4.970
 8997SOL    HW227891   4.276   1.326   4.870
 8998SOL     OW27892   1.422   2.206   5.791
 8998SOL    HW127893   1.446   2.301   5.770
 8998SOL    HW227894   1.461   2.146   5.721
 8999SOL     OW27895   5.751   1.372   5.152
 8999SOL    HW127896   5.774   1.434   5.077
 8999SOL    HW227897   5.760   1.421   5.239
 9000SOL     OW27898   3.213   4.071   0.445
 9000SOL    HW127899   3.274   4.004   0.486
 9000SOL    HW227900   3.266   4.137   0.392
 9001SOL     OW27901   2.345   4.880   3.937
 9001SOL    HW127902   2.391   4.946   3.877
 9001SOL    HW227903   2.247   4.880   3.917
 9002SOL     OW27904   5.791   4.547   6.299
 9002SOL    HW127905   5.773   4.449   6.289
 9002SOL    HW227906   5.862   4.575   6.234
 9003SOL     OW27907   6.533   3.005   6.972
 9003SOL    HW127908   6.623   3.009   6.928
 9003SOL    HW227909   6.463   2.998   6.901
 9004SOL     OW27910   4.638   6.513   1.184
 9004SOL    HW127911   4.660   6.442   1.117
 9004SOL    HW227912   4.610   6.471   1.270
 9005SOL     OW27913   5.127   1.980   3.421
 9005SOL    HW127914   5.179   2.062   3.398
 9005SOL    HW227915   5.029   1.997   3.409
 9006SOL     OW27916   1.303   5.500   1.453
 9006SOL    HW127917   1.259   5.493   1.543
 9006SOL    HW227918   1.233   5.501   1.382
 9007SOL     OW27919   3.220   5.959   3.792
 9007SOL    HW127920   3.248   5.903   3.715
 9007SOL    HW227921   3.183   6.046   3.759
 9008SOL     OW27922   0.089   4.365   2.188
 9008SOL    HW127923   0.028   4.340   2.113
 9008SOL    HW227924   0.150   4.438   2.158
 9009SOL     OW27925   2.778   6.361   0.504
 9009SOL    HW127926   2.706   6.318   0.559
 9009SOL    HW227927   2.765   6.337   0.408
 9010SOL     OW27928   0.425   6.170   5.064
 9010SOL    HW127929   0.359   6.219   5.007
 9010SOL    HW227930   0.506   6.149   5.009
 9011SOL     OW27931   4.259   1.662   1.064
 9011SOL    HW127932   4.271   1.692   0.970
 9011SOL    HW227933   4.228   1.739   1.120
 9012SOL     OW27934   0.407   5.220   1.798
 9012SOL    HW127935   0.464   5.252   1.873
 9012SOL    HW227936   0.457   5.230   1.712
 9013SOL     OW27937   6.370   6.038   3.118
 9013SOL    HW127938   6.370   6.130   3.157
 9013SOL    HW227939   6.452   6.024   3.062
 9014SOL     OW27940   1.422   0.430   1.298
 9014SOL    HW127941   1.446   0.353   1.357
 9014SOL    HW227942   1.491   0.440   1.226
 9015SOL     OW27943   0.144   1.288   6.360
 9015SOL    HW127944   0.158   1.191   6.338
 9015SOL    HW227945   0.215   1.318   6.423
 9016SOL     OW27946   6.544   6.012   6.123
 9016SOL    HW127947   6.447   6.035   6.111
 9016SOL    HW227948   6.586   6.079   6.184
 9017SOL     OW27949   6.264   2.393   3.806
 9017SOL    HW127950   6.305   2.397   3.897
 9017SOL    HW227951   6.229   2.300   3.790
 9018SOL     OW27952   3.645   2.264   5.352
 9018SOL    HW127953   3.698   2.195   5.304
 9018SOL    HW227954   3.669   2.355   5.317
 9019SOL     OW27955   2.597   6.542   0.194
 9019SOL    HW127956   2.542   6.489   0.129
 9019SOL    HW227957   2.599   6.638   0.164
 9020SOL     OW27958   1.507   3.936   2.690
 9020SOL    HW127959   1.553   3.954   2.603
 9020SOL    HW227960   1.472   3.842   2.690
 9021SOL     OW27961   6.719   5.634   4.492
 9021SOL    HW127962   6.732   5.582   4.576
 9021SOL    HW227963   6.798   5.693   4.476
 9022SOL     OW27964   2.653   0.755   0.453
 9022SOL    HW127965   2.571   0.702   0.429
 9022SOL    HW227966   2.703   0.777   0.369
 9023SOL     OW27967   3.337   2.950   3.939
 9023SOL    HW127968   3.409   3.007   3.899
 9023SOL    HW227969   3.293   2.896   3.867
 9024SOL     OW27970   1.654   6.592   6.213
 9024SOL    HW127971   1.628   6.672   6.269
 9024SOL    HW227972   1.579   6.568   6.153
 9025SOL     OW27973   5.863   4.781   1.917
 9025SOL    HW127974   5.781   4.754   1.966
 9025SOL    HW227975   5.944   4.752   1.969
 9026SOL     OW27976   3.503   2.849   5.035
 9026SOL    HW127977   3.483   2.753   5.049
 9026SOL    HW227978   3.485   2.900   5.119
 9027SOL     OW27979   2.792   2.227   3.318
 9027SOL    HW127980   2.815   2.299   3.383
 9027SOL    HW227981   2.779   2.267   3.227
 9028SOL     OW27982   2.732   4.817   5.213
 9028SOL    HW127983   2.789   4.787   5.136
 9028SOL    HW227984   2.725   4.744   5.280
 9029SOL     OW27985   4.766   6.100   3.174
 9029SOL    HW127986   4.679   6.129   3.135
 9029SOL    HW227987   4.768   6.001   3.181
 9030SOL     OW27988   2.004   0.732   2.704
 9030SOL    HW127989   1.992   0.828   2.682
 9030SOL    HW227990   1.939   0.705   2.775
 9031SOL     OW27991   2.376   6.279   5.852
 9031SOL    HW127992   2.325   6.282   5.766
 9031SOL    HW227993   2.425   6.365   5.864
 9032SOL     OW27994   2.851   1.999   1.171
 9032SOL    HW127995   2.913   2.044   1.235
 9032SOL    HW227996   2.811   1.919   1.214
 9033SOL     OW27997   1.758   3.384   3.440
 9033SOL    HW127998   1.708   3.468   3.460
 9033SOL    HW227999   1.723   3.310   3.497
 9034SOL     OW28000   2.812   6.354   5.665
 9034SOL    HW128001   2.755   6.414   5.722
 9034SOL    HW228002   2.839   6.401   5.582
 9035SOL     OW28003   6.951   0.877   3.934
 9035SOL    HW128004   6.935   0.945   4.005
 9035SOL    HW228005   0.023   0.876   3.910
 9036SOL     OW28006   0.871   2.995   5.731
 9036SOL    HW128007   0.896   3.067   5.666
 9036SOL    HW228008   0.891   3.026   5.824
 9037SOL     OW28009   2.596   4.531   6.459
 9037SOL    HW128010   2.515   4.563   6.508
 9037SOL    HW228011   2.660   4.607   6.447
 9038SOL     OW28012   4.632   6.289   4.932
 9038SOL    HW128013   4.636   6.289   4.832
 9038SOL    HW228014   4.655   6.198   4.966
 9039SOL     OW28015   2.038   5.220   4.714
 9039SOL    HW128016   2.052   5.262   4.624
 9039SOL    HW228017   2.120   5.235   4.770
 9040SOL     OW28018   1.856   1.830   2.609
 9040SOL    HW128019   1.895   1.803   2.521
 9040SOL    HW228020   1.767   1.874   2.594
 9041SOL     OW28021   1.244   2.738   1.014
 9041SOL    HW128022   1.173   2.669   1.000
 9041SOL    HW228023   1.243   2.803   0.938
 9042SOL     OW28024   2.778   5.167   2.920
 9042SOL    HW128025   2.742   5.225   2.847
 9042SOL    HW228026   2.786   5.073   2.888
 9043SOL     OW28027   0.678   2.661   5.924
 9043SOL    HW128028   0.742   2.697   5.992
 9043SOL    HW228029   0.588   2.703   5.938
 9044SOL     OW28030   6.056   0.481   0.997
 9044SOL    HW128031   6.027   0.518   1.085
 9044SOL    HW228032   6.005   0.398   0.977
 9045SOL     OW28033   2.794   7.011   3.510
 9045SOL    HW128034   2.848   0.065   3.539
 9045SOL    HW228035   2.848   6.955   3.448
 9046SOL     OW28036   3.208   4.395   5.638
 9046SOL    HW128037   3.156   4.408   5.722
 9046SOL    HW228038   3.151   4.418   5.559
 9047SOL     OW28039   1.237   3.990   4.185
 9047SOL    HW128040   1.213   4.080   4.147
 9047SOL    HW228041   1.176   3.921   4.147
 9048SOL     OW28042   1.085   3.854   4.666
 9048SOL    HW128043   1.179   3.825   4.649
 9048SOL    HW228044   1.071   3.868   4.764
 9049SOL     OW28045   5.914   6.023   6.219
 9049SOL    HW128046   5.918   5.950   6.151
 9049SOL    HW228047   5.962   6.104   6.184
 9050SOL     OW28048   0.136   5.082   6.904
 9050SOL    HW128049   0.139   5.028   6.988
 9050SOL    HW228050   0.161   5.025   6.826
 9051SOL     OW28051   5.770   5.848   0.145
 9051SOL    HW128052   5.693   5.874   0.087
 9051SOL    HW228053   5.736   5.790   0.220
 9052SOL     OW28054   2.552   4.897   4.240
 9052SOL    HW128055   2.465   4.911   4.193
 9052SOL    HW228056   2.561   4.800   4.265
 9053SOL     OW28057   2.412   2.736   4.093
 9053SOL    HW128058   2.428   2.640   4.117
 9053SOL    HW228059   2.425   2.793   4.174
 9054SOL     OW28060   1.964   0.522   2.328
 9054SOL    HW128061   1.884   0.516   2.269
 9054SOL    HW228062   1.972   0.614   2.365
 9055SOL     OW28063   0.519   2.577   4.022
 9055SOL    HW128064   0.614   2.546   4.013
 9055SOL    HW228065   0.503   2.607   4.116
 9056SOL     OW28066   4.631   0.075   2.919
 9056SOL    HW128067   4.674   0.120   2.841
 9056SOL    HW228068   4.630   7.001   2.904
 9057SOL     OW28069   6.438   5.826   7.019
 9057SOL    HW128070   6.414   5.918   0.026
 9057SOL    HW228071   6.538   5.817   7.018
 9058SOL     OW28072   1.987   2.808   4.829
 9058SOL    HW128073   1.946   2.883   4.777
 9058SOL    HW228074   1.997   2.836   4.925
 9059SOL     OW28075   6.566   1.733   2.893
 9059SOL    HW128076   6.540   1.827   2.911
 9059SOL    HW228077   6.558   1.714   2.795
 9060SOL     OW28078   0.071   3.476   2.042
 9060SOL    HW128079   7.015   3.447   2.093
 9060SOL    HW228080   0.051   3.472   1.944
 9061SOL     OW28081   4.743   5.594   2.276
 9061SOL    HW128082   4.838   5.561   2.272
 9061SOL    HW228083   4.723   5.625   2.369
 9062SOL     OW28084   0.938   4.331   3.601
 9062SOL    HW128085   1.003   4.406   3.604
 9062SOL    HW228086   0.936   4.284   3.689
 9063SOL     OW28087   2.949   0.738   2.495
 9063SOL    HW128088   2.957   0.643   2.466
 9063SOL    HW228089   2.858   0.773   2.474
 9064SOL     OW28090   0.504   4.424   3.507
 9064SOL    HW128091   0.489   4.328   3.484
 9064SOL    HW228092   0.565   4.429   3.587
 9065SOL     OW28093   2.836   6.062   4.902
 9065SOL    HW128094   2.830   6.153   4.943
 9065SOL    HW228095   2.865   6.070   4.807
 9066SOL     OW28096   5.650   5.705   6.252
 9066SOL    HW128097   5.718   5.726   6.323
 9066SOL    HW228098   5.687   5.636   6.191
 9067SOL     OW28099   6.561   0.419   4.591
 9067SOL    HW128100   6.509   0.418   4.677
 9067SOL    HW228101   6.506   0.378   4.519
 9068SOL     OW28102   5.239   0.188   4.914
 9068SOL    HW128103   5.219   0.279   4.950
 9068SOL    HW228104   5.286   0.197   4.826
 9069SOL     OW28105   4.801   2.020   2.255
 9069SOL    HW128106   4.762   2.025   2.163
 9069SOL    HW228107   4.739   1.970   2.315
 9070SOL     OW28108   1.171   2.012   5.760
 9070SOL    HW128109   1.153   1.916   5.781
 9070SOL    HW228110   1.152   2.067   5.842
 9071SOL     OW28111   4.435   1.348   5.525
 9071SOL    HW128112   4.342   1.381   5.537
 9071SOL    HW228113   4.499   1.419   5.555
 9072SOL     OW28114   4.966   0.338   1.928
 9072SOL    HW128115   4.912   0.351   1.845
 9072SOL    HW228116   5.057   0.378   1.916
 9073SOL     OW28117   3.805   0.509   6.769
 9073SOL    HW128118   3.749   0.555   6.838
 9073SOL    HW228119   3.755   0.509   6.682
 9074SOL     OW28120   1.484   6.771   1.065
 9074SOL    HW128121   1.470   6.780   0.966
 9074SOL    HW228122   1.557   6.832   1.094
 9075SOL     OW28123   6.743   0.799   1.242
 9075SOL    HW128124   6.763   0.778   1.338
 9075SOL    HW228125   6.785   0.886   1.217
 9076SOL     OW28126   5.387   6.924   2.604
 9076SOL    HW128127   5.419   7.018   2.596
 9076SOL    HW228128   5.370   6.886   2.513
 9077SOL     OW28129   5.092   1.381   5.842
 9077SOL    HW128130   5.189   1.373   5.861
 9077SOL    HW228131   5.074   1.349   5.749
 9078SOL     OW28132   5.034   5.739   0.146
 9078SOL    HW128133   5.083   5.704   0.066
 9078SOL    HW228134   4.936   5.735   0.129
 9079SOL     OW28135   1.025   0.258   5.679
 9079SOL    HW128136   1.124   0.251   5.695
 9079SOL    HW228137   1.002   0.353   5.659
 9080SOL     OW28138   6.602   3.516   0.838
 9080SOL    HW128139   6.596   3.574   0.757
 9080SOL    HW228140   6.687   3.464   0.836
 9081SOL     OW28141   3.616   1.658   1.604
 9081SOL    HW128142   3.606   1.648   1.703
 9081SOL    HW228143   3.670   1.739   1.583
 9082SOL     OW28144   3.262   5.812   6.203
 9082SOL    HW128145   3.273   5.766   6.292
 9082SOL    HW228146   3.174   5.859   6.201
 9083SOL     OW28147   4.747   4.854   6.216
 9083SOL    HW128148   4.791   4.944   6.210
 9083SOL    HW228149   4.666   4.853   6.158
 9084SOL     OW28150   1.028   2.810   5.601
 9084SOL    HW128151   1.021   2.715   5.630
 9084SOL    HW228152   0.958   2.864   5.648
 9085SOL     OW28153   2.954   5.364   6.990
 9085SOL    HW128154   2.943   5.268   7.017
 9085SOL    HW228155   3.051   5.388   6.992
 9086SOL     OW28156   6.628   4.568   0.911
 9086SOL    HW128157   6.634   4.578   1.011
 9086SOL    HW228158   6.647   4.473   0.886
 9087SOL     OW28159   6.034   2.557   2.050
 9087SOL    HW128160   6.088   2.554   1.965
 9087SOL    HW228161   5.956   2.496   2.043
 9088SOL     OW28162   6.191   0.605   1.718
 9088SOL    HW128163   6.151   0.644   1.635
 9088SOL    HW228164   6.285   0.576   1.700
 9089SOL     OW28165   4.457   5.493   3.670
 9089SOL    HW128166   4.527   5.528   3.732
 9089SOL    HW228167   4.372   5.478   3.720
 9090SOL     OW28168   5.782   6.257   4.567
 9090SOL    HW128169   5.717   6.243   4.493
 9090SOL    HW228170   5.837   6.174   4.579
 9091SOL     OW28171   3.875   2.387   0.488
 9091SOL    HW128172   3.817   2.403   0.568
 9091SOL    HW228173   3.871   2.290   0.463
 9092SOL     OW28174   1.283   6.651   5.547
 9092SOL    HW128175   1.220   6.612   5.480
 9092SOL    HW228176   1.265   6.611   5.637
 9093SOL     OW28177   1.393   5.782   0.442
 9093SOL    HW128178   1.481   5.735   0.442
 9093SOL    HW228179   1.378   5.825   0.353
 9094SOL     OW28180   0.284   5.999   1.890
 9094SOL    HW128181   0.381   6.007   1.868
 9094SOL    HW228182   0.230   6.004   1.806
 9095SOL     OW28183   5.084   3.353   6.576
 9095SOL    HW128184   5.018   3.360   6.501
 9095SOL    HW228185   5.137   3.438   6.582
 9096SOL     OW28186   5.462   3.250   2.857
 9096SOL    HW128187   5.443   3.254   2.955
 9096SOL    HW228188   5.384   3.287   2.807
 9097SOL     OW28189   1.123   3.742   6.818
 9097SOL    HW128190   1.069   3.662   6.793
 9097SOL    HW228191   1.097   3.820   6.761
 9098SOL     OW28192   3.723   3.889   2.059
 9098SOL    HW128193   3.652   3.954   2.033
 9098SOL    HW228194   3.787   3.933   2.123
 9099SOL     OW28195   3.228   3.279   1.038
 9099SOL    HW128196   3.202   3.191   1.078
 9099SOL    HW228197   3.290   3.264   0.961
 9100SOL     OW28198   0.837   3.084   1.469
 9100SOL    HW128199   0.761   3.091   1.404
 9100SOL    HW228200   0.805   3.040   1.553
 9101SOL     OW28201   2.174   3.034   2.817
 9101SOL    HW128202   2.258   2.980   2.808
 9101SOL    HW228203   2.103   2.978   2.860
 9102SOL     OW28204   3.689   5.427   2.423
 9102SOL    HW128205   3.625   5.465   2.357
 9102SOL    HW228206   3.774   5.404   2.377
 9103SOL     OW28207   7.023   3.890   0.912
 9103SOL    HW128208   7.000   3.800   0.948
 9103SOL    HW228209   0.031   3.881   0.819
 9104SOL     OW28210   3.791   6.106   1.985
 9104SOL    HW128211   3.868   6.044   2.000
 9104SOL    HW228212   3.824   6.200   1.980
 9105SOL     OW28213   1.691   0.607   6.882
 9105SOL    HW128214   1.689   0.510   6.859
 9105SOL    HW228215   1.598   0.644   6.880
 9106SOL     OW28216   5.667   4.287   0.254
 9106SOL    HW128217   5.625   4.204   0.217
 9106SOL    HW228218   5.621   4.313   0.339
 9107SOL     OW28219   4.098   6.902   6.665
 9107SOL    HW128220   4.132   6.987   6.625
 9107SOL    HW228221   4.010   6.879   6.625
 9108SOL     OW28222   4.822   4.566   5.187
 9108SOL    HW128223   4.802   4.540   5.281
 9108SOL    HW228224   4.910   4.527   5.159
 9109SOL     OW28225   2.226   1.787   3.095
 9109SOL    HW128226   2.152   1.854   3.100
 9109SOL    HW228227   2.287   1.809   3.019
 9110SOL     OW28228   2.665   4.702   3.701
 9110SOL    HW128229   2.723   4.672   3.625
 9110SOL    HW228230   2.650   4.801   3.695
 9111SOL     OW28231   3.549   3.981   1.328
 9111SOL    HW128232   3.624   3.979   1.262
 9111SOL    HW228233   3.573   3.927   1.408
 9112SOL     OW28234   0.496   3.530   3.530
 9112SOL    HW128235   0.417   3.569   3.482
 9112SOL    HW228236   0.494   3.430   3.520
 9113SOL     OW28237   4.440   1.077   6.801
 9113SOL    HW128238   4.439   1.071   6.901
 9113SOL    HW228239   4.367   1.020   6.763
 9114SOL     OW28240   1.956   4.767   2.576
 9114SOL    HW128241   2.039   4.818   2.554
 9114SOL    HW228242   1.939   4.772   2.675
 9115SOL     OW28243   1.089   5.003   4.515
 9115SOL    HW128244   1.021   4.952   4.567
 9115SOL    HW228245   1.168   5.022   4.574
 9116SOL     OW28246   6.895   1.742   7.018
 9116SOL    HW128247   6.974   1.800   0.014
 9116SOL    HW228248   6.811   1.794   0.007
 9117SOL     OW28249   6.460   3.465   6.480
 9117SOL    HW128250   6.371   3.479   6.524
 9117SOL    HW228251   6.499   3.379   6.511
 9118SOL     OW28252   5.811   6.970   1.089
 9118SOL    HW128253   5.787   0.038   1.114
 9118SOL    HW228254   5.749   6.906   1.134
 9119SOL     OW28255   5.903   1.282   2.389
 9119SOL    HW128256   5.933   1.302   2.296
 9119SOL    HW228257   5.803   1.284   2.393
 9120SOL     OW28258   5.888   2.711   6.044
 9120SOL    HW128259   5.870   2.737   6.139
 9120SOL    HW228260   5.828   2.764   5.983
 9121SOL     OW28261   1.022   3.453   5.024
 9121SOL    HW128262   1.107   3.445   5.076
 9121SOL    HW228263   0.947   3.412   5.077
 9122SOL     OW28264   1.832   2.692   1.654
 9122SOL    HW128265   1.819   2.604   1.609
 9122SOL    HW228266   1.845   2.678   1.752
 9123SOL     OW28267   3.498   6.546   5.291
 9123SOL    HW128268   3.515   6.517   5.385
 9123SOL    HW228269   3.558   6.495   5.229
 9124SOL     OW28270   5.992   5.777   5.419
 9124SOL    HW128271   6.058   5.709   5.387
 9124SOL    HW228272   5.970   5.840   5.344
 9125SOL     OW28273   4.346   4.605   3.980
 9125SOL    HW128274   4.379   4.621   3.887
 9125SOL    HW228275   4.395   4.527   4.019
 9126SOL     OW28276   6.020   1.505   2.506
 9126SOL    HW128277   5.963   1.545   2.577
 9126SOL    HW228278   5.981   1.418   2.477
 9127SOL     OW28279   5.819   0.569   5.292
 9127SOL    HW128280   5.882   0.635   5.334
 9127SOL    HW228281   5.779   0.511   5.363
 9128SOL     OW28282   4.147   1.895   5.222
 9128SOL    HW128283   4.114   1.954   5.296
 9128SOL    HW228284   4.247   1.893   5.224
 9129SOL     OW28285   1.875   3.500   1.035
 9129SOL    HW128286   1.878   3.582   0.977
 9129SOL    HW228287   1.968   3.469   1.053
 9130SOL     OW28288   0.135   4.400   6.887
 9130SOL    HW128289   0.092   4.332   6.828
 9130SOL    HW228290   0.220   4.433   6.845
 9131SOL     OW28291   0.349   4.160   4.871
 9131SOL    HW128292   0.387   4.068   4.876
 9131SOL    HW228293   0.254   4.155   4.839
 9132SOL     OW28294   6.887   4.533   3.786
 9132SOL    HW128295   6.846   4.576   3.866
 9132SOL    HW228296   6.816   4.513   3.718
 9133SOL     OW28297   3.443   5.424   0.950
 9133SOL    HW128298   3.541   5.433   0.936
 9133SOL    HW228299   3.424   5.399   1.045
 9134SOL     OW28300   3.589   7.020   0.509
 9134SOL    HW128301   3.550   0.087   0.519
 9134SOL    HW228302   3.557   6.979   0.424
 9135SOL     OW28303   0.108   6.429   2.072
 9135SOL    HW128304   0.064   6.519   2.075
 9135SOL    HW228305   0.208   6.440   2.071
 9136SOL     OW28306   4.934   5.211   5.313
 9136SOL    HW128307   4.970   5.298   5.278
 9136SOL    HW228308   4.855   5.183   5.257
 9137SOL     OW28309   5.368   1.617   0.918
 9137SOL    HW128310   5.407   1.653   1.003
 9137SOL    HW228311   5.272   1.591   0.934
 9138SOL     OW28312   6.584   5.217   6.178
 9138SOL    HW128313   6.594   5.297   6.119
 9138SOL    HW228314   6.601   5.134   6.125
 9139SOL     OW28315   2.497   1.068   4.454
 9139SOL    HW128316   2.430   1.002   4.488
 9139SOL    HW228317   2.449   1.151   4.424
 9140SOL     OW28318   6.683   2.751   2.716
 9140SOL    HW128319   6.652   2.675   2.774
 9140SOL    HW228320   6.740   2.813   2.770
 9141SOL     OW28321   5.569   0.160   6.546
 9141SOL    HW128322   5.488   0.102   6.530
 9141SOL    HW228323   5.601   0.147   6.639
 9142SOL     OW28324   0.235   2.574   5.732
 9142SOL    HW128325   0.224   2.674   5.729
 9142SOL    HW228326   0.324   2.549   5.693
 9143SOL     OW28327   4.930   4.118   6.835
 9143SOL    HW128328   5.005   4.138   6.899
 9143SOL    HW228329   4.961   4.049   6.769
 9144SOL     OW28330   2.364   5.654   6.052
 9144SOL    HW128331   2.363   5.607   6.140
 9144SOL    HW228332   2.416   5.599   5.986
 9145SOL     OW28333   6.546   5.199   1.480
 9145SOL    HW128334   6.459   5.184   1.432
 9145SOL    HW228335   6.611   5.243   1.418
 9146SOL     OW28336   5.207   1.832   2.168
 9146SOL    HW128337   5.143   1.891   2.119
 9146SOL    HW228338   5.241   1.761   2.106
 9147SOL     OW28339   6.015   6.962   4.429
 9147SOL    HW128340   6.079   6.978   4.353
 9147SOL    HW228341   6.012   6.864   4.450
 9148SOL     OW28342   5.199   0.158   1.114
 9148SOL    HW128343   5.108   0.146   1.153
 9148SOL    HW228344   5.191   0.202   1.024
 9149SOL     OW28345   4.867   2.653   3.956
 9149SOL    HW128346   4.945   2.651   3.894
 9149SOL    HW228347   4.883   2.591   4.033
 9150SOL     OW28348   3.842   5.081   3.406
 9150SOL    HW128349   3.862   4.997   3.357
 9150SOL    HW228350   3.880   5.077   3.498
 9151SOL     OW28351   1.371   4.274   2.995
 9151SOL    HW128352   1.451   4.269   3.054
 9151SOL    HW228353   1.386   4.343   2.923
 9152SOL     OW28354   2.965   5.160   4.444
 9152SOL    HW128355   2.882   5.143   4.391
 9152SOL    HW228356   2.940   5.187   4.537
 9153SOL     OW28357   1.648   3.427   1.149
 9153SOL    HW128358   1.743   3.452   1.133
 9153SOL    HW228359   1.617   3.364   1.078
 9154SOL     OW28360   2.924   5.297   0.278
 9154SOL    HW128361   2.855   5.256   0.218
 9154SOL    HW228362   2.879   5.347   0.352
 9155SOL     OW28363   2.002   3.566   0.372
 9155SOL    HW128364   1.905   3.574   0.348
 9155SOL    HW228365   2.045   3.656   0.365
 9156SOL     OW28366   3.348   2.953   0.970
 9156SOL    HW128367   3.369   2.959   1.068
 9156SOL    HW228368   3.401   3.022   0.921
 9157SOL     OW28369   6.031   4.991   6.064
 9157SOL    HW128370   6.049   4.955   6.156
 9157SOL    HW228371   6.002   5.086   6.071
 9158SOL     OW28372   6.209   3.492   5.171
 9158SOL    HW128373   6.148   3.416   5.152
 9158SOL    HW228374   6.157   3.578   5.173
 9159SOL     OW28375   1.279   6.816   3.849
 9159SOL    HW128376   1.209   6.744   3.851
 9159SOL    HW228377   1.294   6.851   3.941
 9160SOL     OW28378   6.517   0.271   5.291
 9160SOL    HW128379   6.487   0.176   5.286
 9160SOL    HW228380   6.588   0.280   5.360
 9161SOL     OW28381   4.747   4.183   4.225
 9161SOL    HW128382   4.721   4.182   4.129
 9161SOL    HW228383   4.692   4.251   4.274
 9162SOL     OW28384   4.791   1.642   3.542
 9162SOL    HW128385   4.759   1.586   3.619
 9162SOL    HW228386   4.869   1.598   3.498
 9163SOL     OW28387   2.103   3.279   4.007
 9163SOL    HW128388   2.067   3.366   3.973
 9163SOL    HW228389   2.107   3.281   4.107
 9164SOL     OW28390   2.735   0.351   6.923
 9164SOL    HW128391   2.641   0.337   6.955
 9164SOL    HW228392   2.772   0.434   6.963
 9165SOL     OW28393   5.841   1.499   5.414
 9165SOL    HW128394   5.925   1.554   5.422
 9165SOL    HW228395   5.806   1.479   5.506
 9166SOL     OW28396   4.694   6.348   0.938
 9166SOL    HW128397   4.610   6.363   0.886
 9166SOL    HW228398   4.702   6.251   0.962
 9167SOL     OW28399   1.526   2.644   6.718
 9167SOL    HW128400   1.614   2.621   6.677
 9167SOL    HW228401   1.455   2.643   6.647
 9168SOL     OW28402   0.685   6.929   6.086
 9168SOL    HW128403   0.696   6.966   6.178
 9168SOL    HW228404   0.772   6.933   6.037
 9169SOL     OW28405   6.579   1.631   4.960
 9169SOL    HW128406   6.546   1.707   5.016
 9169SOL    HW228407   6.536   1.546   4.990
 9170SOL     OW28408   0.325   4.931   0.848
 9170SOL    HW128409   0.337   4.907   0.751
 9170SOL    HW228410   0.410   4.913   0.897
 9171SOL     OW28411   3.132   5.007   0.665
 9171SOL    HW128412   3.217   5.002   0.612
 9171SOL    HW228413   3.090   5.097   0.651
 9172SOL     OW28414   3.310   0.622   5.186
 9172SOL    HW128415   3.349   0.697   5.131
 9172SOL    HW228416   3.252   0.565   5.128
 9173SOL     OW28417   5.901   4.029   4.587
 9173SOL    HW128418   5.813   3.981   4.595
 9173SOL    HW228419   5.931   4.028   4.492
 9174SOL     OW28420   5.850   4.615   1.336
 9174SOL    HW128421   5.758   4.652   1.337
 9174SOL    HW228422   5.907   4.668   1.274
 9175SOL     OW28423   1.315   6.554   4.913
 9175SOL    HW128424   1.366   6.604   4.843
 9175SOL    HW228425   1.335   6.594   5.003
 9176SOL     OW28426   3.008   0.741   4.981
 9176SOL    HW128427   3.070   0.664   4.991
 9176SOL    HW228428   2.937   0.737   5.052
 9177SOL     OW28429   1.500   4.801   4.914
 9177SOL    HW128430   1.540   4.802   4.822
 9177SOL    HW228431   1.574   4.803   4.982
 9178SOL     OW28432   2.409   5.840   0.440
 9178SOL    HW128433   2.457   5.921   0.472
 9178SOL    HW228434   2.329   5.867   0.387
 9179SOL     OW28435   3.190   5.241   3.747
 9179SOL    HW128436   3.204   5.253   3.846
 9179SOL    HW228437   3.276   5.259   3.699
 9180SOL     OW28438   5.679   2.233   2.816
 9180SOL    HW128439   5.711   2.140   2.831
 9180SOL    HW228440   5.639   2.269   2.900
 9181SOL     OW28441   3.888   1.855   3.820
 9181SOL    HW128442   3.862   1.828   3.912
 9181SOL    HW228443   3.856   1.785   3.755
 9182SOL     OW28444   2.488   6.215   2.277
 9182SOL    HW128445   2.497   6.253   2.369
 9182SOL    HW228446   2.404   6.162   2.270
 9183SOL     OW28447   5.093   6.438   0.519
 9183SOL    HW128448   5.118   6.489   0.437
 9183SOL    HW228449   5.176   6.402   0.562
 9184SOL     OW28450   5.277   1.947   6.921
 9184SOL    HW128451   5.328   1.923   6.838
 9184SOL    HW228452   5.295   1.879   6.992
 9185SOL     OW28453   4.276   6.859   5.239
 9185SOL    HW128454   4.363   6.853   5.288
 9185SOL    HW228455   4.287   6.821   5.147
 9186SOL     OW28456   5.937   0.329   3.854
 9186SOL    HW128457   5.885   0.244   3.845
 9186SOL    HW228458   5.918   0.370   3.944
 9187SOL     OW28459   2.819   1.354   1.096
 9187SOL    HW128460   2.758   1.360   1.175
 9187SOL    HW228461   2.901   1.303   1.121
 9188SOL     OW28462   2.082   6.343   1.756
 9188SOL    HW128463   1.996   6.294   1.770
 9188SOL    HW228464   2.144   6.285   1.703
 9189SOL     OW28465   4.927   5.880   1.219
 9189SOL    HW128466   4.857   5.934   1.171
 9189SOL    HW228467   4.991   5.843   1.152
 9190SOL     OW28468   1.589   4.456   6.974
 9190SOL    HW128469   1.642   4.380   7.011
 9190SOL    HW228470   1.594   4.533   0.013
 9191SOL     OW28471   5.663   0.891   5.929
 9191SOL    HW128472   5.599   0.966   5.948
 9191SOL    HW228473   5.748   0.928   5.893
 9192SOL     OW28474   0.319   4.176   6.226
 9192SOL    HW128475   0.368   4.247   6.276
 9192SOL    HW228476   0.379   4.137   6.156
 9193SOL     OW28477   4.482   4.643   0.481
 9193SOL    HW128478   4.488   4.559   0.427
 9193SOL    HW228479   4.566   4.653   0.535
 9194SOL     OW28480   2.818   0.360   3.301
 9194SOL    HW128481   2.863   0.423   3.238
 9194SOL    HW228482   2.757   0.412   3.361
 9195SOL     OW28483   1.915   2.208   4.434
 9195SOL    HW128484   1.818   2.211   4.414
 9195SOL    HW228485   1.951   2.302   4.440
 9196SOL     OW28486   4.427   0.335   4.324
 9196SOL    HW128487   4.397   0.313   4.417
 9196SOL    HW228488   4.358   0.307   4.259
 9197SOL     OW28489   2.042   4.267   2.084
 9197SOL    HW128490   2.105   4.312   2.147
 9197SOL    HW228491   2.078   4.177   2.060
 9198SOL     OW28492   6.587   4.862   6.463
 9198SOL    HW128493   6.577   4.832   6.368
 9198SOL    HW228494   6.550   4.792   6.524
 9199SOL     OW28495   1.675   3.714   5.842
 9199SOL    HW128496   1.740   3.789   5.853
 9199SOL    HW228497   1.679   3.680   5.748
 9200SOL     OW28498   2.949   0.226   0.646
 9200SOL    HW128499   2.854   0.204   0.624
 9200SOL    HW228500   3.000   0.142   0.664
 9201SOL     OW28501   0.389   2.622   0.492
 9201SOL    HW128502   0.339   2.593   0.573
 9201SOL    HW228503   0.341   2.590   0.410
 9202SOL     OW28504   1.520   6.487   2.741
 9202SOL    HW128505   1.535   6.535   2.655
 9202SOL    HW228506   1.432   6.515   2.780
 9203SOL     OW28507   0.441   5.101   0.097
 9203SOL    HW128508   0.475   5.016   0.057
 9203SOL    HW228509   0.517   5.161   0.119
 9204SOL     OW28510   4.127   2.802   6.393
 9204SOL    HW128511   4.155   2.720   6.443
 9204SOL    HW228512   4.205   2.864   6.384
 9205SOL     OW28513   5.983   4.857   2.711
 9205SOL    HW128514   6.045   4.842   2.634
 9205SOL    HW228515   5.909   4.917   2.682
 9206SOL     OW28516   4.322   5.478   1.966
 9206SOL    HW128517   4.270   5.414   1.910
 9206SOL    HW228518   4.335   5.439   2.057
 9207SOL     OW28519   4.357   5.237   6.728
 9207SOL    HW128520   4.452   5.260   6.746
 9207SOL    HW228521   4.352   5.169   6.654
 9208SOL     OW28522   5.697   3.472   4.031
 9208SOL    HW128523   5.780   3.427   4.065
 9208SOL    HW228524   5.621   3.406   4.031
 9209SOL     OW28525   2.779   0.583   0.032
 9209SOL    HW128526   2.828   0.668   0.010
 9209SOL    HW228527   2.681   0.602   0.034
 9210SOL     OW28528   0.105   0.764   3.189
 9210SOL    HW128529   0.021   0.710   3.185
 9210SOL    HW228530   0.148   0.753   3.279
 9211SOL     OW28531   6.759   2.937   4.769
 9211SOL    HW128532   6.689   2.906   4.833
 9211SOL    HW228533   6.717   2.957   4.681
 9212SOL     OW28534   4.492   5.440   4.575
 9212SOL    HW128535   4.580   5.480   4.599
 9212SOL    HW228536   4.425   5.463   4.645
 9213SOL     OW28537   5.505   3.605   5.788
 9213SOL    HW128538   5.410   3.627   5.765
 9213SOL    HW228539   5.560   3.608   5.705
 9214SOL     OW28540   0.245   4.808   6.058
 9214SOL    HW128541   0.162   4.804   6.003
 9214SOL    HW228542   0.285   4.899   6.053
 9215SOL     OW28543   1.262   2.177   0.013
 9215SOL    HW128544   1.354   2.213   0.028
 9215SOL    HW228545   1.261   2.079   0.033
 9216SOL     OW28546   2.557   0.089   2.582
 9216SOL    HW128547   2.508   0.037   2.652
 9216SOL    HW228548   2.518   0.069   2.492
 9217SOL     OW28549   0.411   1.297   6.458
 9217SOL    HW128550   0.464   1.294   6.374
 9217SOL    HW228551   0.451   1.234   6.525
 9218SOL     OW28552   3.170   6.618   0.979
 9218SOL    HW128553   3.206   6.542   0.925
 9218SOL    HW228554   3.239   6.650   1.043
 9219SOL     OW28555   0.345   2.558   1.311
 9219SOL    HW128556   0.424   2.509   1.347
 9219SOL    HW228557   0.356   2.573   1.213
 9220SOL     OW28558   2.176   6.626   0.573
 9220SOL    HW128559   2.260   6.650   0.524
 9220SOL    HW228560   2.107   6.595   0.508
 9221SOL     OW28561   2.788   1.079   4.562
 9221SOL    HW128562   2.688   1.086   4.553
 9221SOL    HW228563   2.825   1.029   4.484
 9222SOL     OW28564   2.228   0.059   6.438
 9222SOL    HW128565   2.171   0.101   6.509
 9222SOL    HW228566   2.302   0.007   6.481
 9223SOL     OW28567   1.919   1.473   4.039
 9223SOL    HW128568   1.898   1.381   4.070
 9223SOL    HW228569   2.013   1.497   4.066
 9224SOL     OW28570   2.350   5.009   5.021
 9224SOL    HW128571   2.354   4.940   4.949
 9224SOL    HW228572   2.426   4.996   5.085
 9225SOL     OW28573   3.759   6.691   6.189
 9225SOL    HW128574   3.845   6.660   6.229
 9225SOL    HW228575   3.769   6.786   6.159
 9226SOL     OW28576   5.419   6.775   2.019
 9226SOL    HW128577   5.474   6.757   2.101
 9226SOL    HW228578   5.413   6.874   2.005
 9227SOL     OW28579   0.619   5.036   1.303
 9227SOL    HW128580   0.714   5.069   1.307
 9227SOL    HW228581   0.616   4.939   1.326
 9228SOL     OW28582   1.634   0.924   6.062
 9228SOL    HW128583   1.704   0.975   6.112
 9228SOL    HW228584   1.543   0.956   6.090
 9229SOL     OW28585   1.594   5.550   4.703
 9229SOL    HW128586   1.597   5.581   4.608
 9229SOL    HW228587   1.684   5.518   4.731
 9230SOL     OW28588   5.524   0.836   3.522
 9230SOL    HW128589   5.453   0.890   3.478
 9230SOL    HW228590   5.533   0.866   3.618
 9231SOL     OW28591   1.258   4.818   4.804
 9231SOL    HW128592   1.247   4.913   4.774
 9231SOL    HW228593   1.344   4.808   4.854
 9232SOL     OW28594   3.565   5.311   0.587
 9232SOL    HW128595   3.625   5.391   0.592
 9232SOL    HW228596   3.516   5.311   0.499
 9233SOL     OW28597   5.401   5.029   1.684
 9233SOL    HW128598   5.306   5.028   1.717
 9233SOL    HW228599   5.446   5.113   1.714
 9234SOL     OW28600   3.767   5.565   5.014
 9234SOL    HW128601   3.745   5.485   4.958
 9234SOL    HW228602   3.823   5.628   4.961
 9235SOL     OW28603   1.316   2.456   3.812
 9235SOL    HW128604   1.337   2.465   3.909
 9235SOL    HW228605   1.325   2.360   3.785
 9236SOL     OW28606   2.678   4.188   5.367
 9236SOL    HW128607   2.634   4.276   5.350
 9236SOL    HW228608   2.767   4.185   5.321
 9237SOL     OW28609   2.157   5.057   5.246
 9237SOL    HW128610   2.218   5.036   5.169
 9237SOL    HW228611   2.089   4.984   5.255
 9238SOL     OW28612   3.821   1.455   6.289
 9238SOL    HW128613   3.847   1.534   6.233
 9238SOL    HW228614   3.826   1.372   6.233
 9239SOL     OW28615   0.388   3.940   0.707
 9239SOL    HW128616   0.454   3.905   0.773
 9239SOL    HW228617   0.423   3.930   0.614
 9240SOL     OW28618   5.291   1.820   0.530
 9240SOL    HW128619   5.210   1.797   0.476
 9240SOL    HW228620   5.362   1.856   0.469
 9241SOL     OW28621   0.891   5.241   6.408
 9241SOL    HW128622   0.929   5.161   6.456
 9241SOL    HW228623   0.878   5.315   6.474
 9242SOL     OW28624   6.835   5.361   0.669
 9242SOL    HW128625   6.737   5.351   0.685
 9242SOL    HW228626   6.878   5.405   0.748
 9243SOL     OW28627   5.818   6.640   2.597
 9243SOL    HW128628   5.756   6.581   2.544
 9243SOL    HW228629   5.769   6.677   2.676
 9244SOL     OW28630   4.513   5.484   6.175
 9244SOL    HW128631   4.513   5.401   6.231
 9244SOL    HW228632   4.525   5.459   6.079
 9245SOL     OW28633   1.246   5.450   3.379
 9245SOL    HW128634   1.207   5.501   3.303
 9245SOL    HW228635   1.234   5.502   3.464
 9246SOL     OW28636   0.137   4.608   3.179
 9246SOL    HW128637   0.201   4.677   3.214
 9246SOL    HW228638   0.175   4.517   3.193
 9247SOL     OW28639   1.296   0.132   3.457
 9247SOL    HW128640   1.313   0.110   3.361
 9247SOL    HW228641   1.201   0.108   3.481
 9248SOL     OW28642   1.735   2.941   6.165
 9248SOL    HW128643   1.772   2.864   6.112
 9248SOL    HW228644   1.801   2.967   6.235
 9249SOL     OW28645   5.377   3.519   6.083
 9249SOL    HW128646   5.400   3.593   6.020
 9249SOL    HW228647   5.307   3.550   6.147
 9250SOL     OW28648   5.288   3.350   4.998
 9250SOL    HW128649   5.233   3.356   4.914
 9250SOL    HW228650   5.378   3.390   4.982
 9251SOL     OW28651   3.808   2.131   3.022
 9251SOL    HW128652   3.767   2.105   3.109
 9251SOL    HW228653   3.900   2.166   3.038
 9252SOL     OW28654   6.102   0.282   4.260
 9252SOL    HW128655   6.092   0.361   4.200
 9252SOL    HW228656   6.121   0.313   4.353
 9253SOL     OW28657   5.254   6.247   6.415
 9253SOL    HW128658   5.349   6.218   6.425
 9253SOL    HW228659   5.195   6.166   6.406
 9254SOL     OW28660   6.269   4.533   2.165
 9254SOL    HW128661   6.333   4.462   2.135
 9254SOL    HW228662   6.321   4.613   2.197
 9255SOL     OW28663   5.264   3.761   0.537
 9255SOL    HW128664   5.301   3.746   0.445
 9255SOL    HW228665   5.255   3.860   0.553
 9256SOL     OW28666   4.073   4.980   2.810
 9256SOL    HW128667   4.123   4.917   2.751
 9256SOL    HW228668   4.129   5.061   2.827
 9257SOL     OW28669   0.768   3.483   2.297
 9257SOL    HW128670   0.697   3.429   2.251
 9257SOL    HW228671   0.811   3.545   2.232
 9258SOL     OW28672   3.920   3.122   3.972
 9258SOL    HW128673   3.960   3.080   3.890
 9258SOL    HW228674   3.992   3.148   4.035
 9259SOL     OW28675   1.711   2.176   0.958
 9259SOL    HW128676   1.632   2.219   0.915
 9259SOL    HW228677   1.715   2.080   0.931
 9260SOL     OW28678   4.924   1.408   4.947
 9260SOL    HW128679   4.837   1.456   4.937
 9260SOL    HW228680   4.941   1.388   5.043
 9261SOL     OW28681   4.815   0.732   6.138
 9261SOL    HW128682   4.898   0.678   6.152
 9261SOL    HW228683   4.813   0.807   6.205
 9262SOL     OW28684   6.617   3.280   5.426
 9262SOL    HW128685   6.702   3.331   5.437
 9262SOL    HW228686   6.566   3.317   5.348
 9263SOL     OW28687   6.119   4.433   1.257
 9263SOL    HW128688   6.128   4.454   1.354
 9263SOL    HW228689   6.205   4.455   1.209
 9264SOL     OW28690   5.560   3.962   0.473
 9264SOL    HW128691   5.623   3.963   0.396
 9264SOL    HW228692   5.482   4.022   0.454
 9265SOL     OW28693   2.860   1.910   0.314
 9265SOL    HW128694   2.862   1.929   0.216
 9265SOL    HW228695   2.785   1.960   0.356
 9266SOL     OW28696   1.980   6.153   2.102
 9266SOL    HW128697   1.939   6.142   2.011
 9266SOL    HW228698   1.923   6.215   2.156
 9267SOL     OW28699   6.749   4.590   5.893
 9267SOL    HW128700   6.708   4.502   5.919
 9267SOL    HW228701   6.681   4.645   5.845
 9268SOL     OW28702   1.455   5.829   1.185
 9268SOL    HW128703   1.506   5.848   1.101
 9268SOL    HW228704   1.420   5.735   1.182
 9269SOL     OW28705   3.371   2.604   5.971
 9269SOL    HW128706   3.432   2.626   5.895
 9269SOL    HW228707   3.281   2.579   5.934
 9270SOL     OW28708   5.195   0.205   5.588
 9270SOL    HW128709   5.152   0.119   5.562
 9270SOL    HW228710   5.273   0.187   5.648
 9271SOL     OW28711   1.711   5.294   6.447
 9271SOL    HW128712   1.621   5.314   6.409
 9271SOL    HW228713   1.730   5.196   6.438
 9272SOL     OW28714   3.023   5.583   6.003
 9272SOL    HW128715   3.014   5.502   5.944
 9272SOL    HW228716   2.936   5.631   6.007
 9273SOL     OW28717   5.649   6.157   4.327
 9273SOL    HW128718   5.677   6.244   4.287
 9273SOL    HW228719   5.679   6.082   4.267
 9274SOL     OW28720   6.547   2.871   0.177
 9274SOL    HW128721   6.455   2.875   0.217
 9274SOL    HW228722   6.545   2.911   0.086
 9275SOL     OW28723   0.350   2.084   6.894
 9275SOL    HW128724   0.380   2.163   6.840
 9275SOL    HW228725   0.298   2.115   6.973
 9276SOL     OW28726   2.874   4.813   3.892
 9276SOL    HW128727   2.847   4.717   3.897
 9276SOL    HW228728   2.795   4.871   3.913
 9277SOL     OW28729   3.997   3.664   0.661
 9277SOL    HW128730   3.899   3.654   0.643
 9277SOL    HW228731   4.049   3.628   0.584
 9278SOL     OW28732   1.812   1.185   4.395
 9278SOL    HW128733   1.724   1.180   4.347
 9278SOL    HW228734   1.837   1.094   4.429
 9279SOL     OW28735   4.352   0.457   1.964
 9279SOL    HW128736   4.447   0.455   1.995
 9279SOL    HW228737   4.296   0.502   2.033
 9280SOL     OW28738   1.549   0.533   3.268
 9280SOL    HW128739   1.517   0.461   3.330
 9280SOL    HW228740   1.511   0.518   3.177
 9281SOL     OW28741   3.298   4.212   1.652
 9281SOL    HW128742   3.253   4.173   1.571
 9281SOL    HW228743   3.340   4.299   1.629
 9282SOL     OW28744   4.438   1.898   4.365
 9282SOL    HW128745   4.521   1.952   4.382
 9282SOL    HW228746   4.357   1.953   4.387
 9283SOL     OW28747   5.693   0.573   3.229
 9283SOL    HW128748   5.669   0.539   3.138
 9283SOL    HW228749   5.792   0.588   3.234
 9284SOL     OW28750   3.381   5.316   6.575
 9284SOL    HW128751   3.409   5.301   6.670
 9284SOL    HW228752   3.427   5.397   6.539
 9285SOL     OW28753   5.136   3.168   0.289
 9285SOL    HW128754   5.225   3.158   0.333
 9285SOL    HW228755   5.145   3.222   0.206
 9286SOL     OW28756   5.340   0.088   5.811
 9286SOL    HW128757   5.337   7.019   5.778
 9286SOL    HW228758   5.358   0.089   5.909
 9287SOL     OW28759   2.845   5.876   0.463
 9287SOL    HW128760   2.920   5.820   0.498
 9287SOL    HW228761   2.770   5.877   0.530
 9288SOL     OW28762   2.955   1.324   5.195
 9288SOL    HW128763   2.876   1.331   5.256
 9288SOL    HW228764   3.036   1.358   5.241
 9289SOL     OW28765   3.700   1.821   2.272
 9289SOL    HW128766   3.792   1.813   2.311
 9289SOL    HW228767   3.639   1.864   2.339
 9290SOL     OW28768   5.355   1.774   4.011
 9290SOL    HW128769   5.299   1.855   3.994
 9290SOL    HW228770   5.295   1.694   4.016
 9291SOL     OW28771   2.709   0.154   5.236
 9291SOL    HW128772   2.664   0.112   5.158
 9291SOL    HW228773   2.784   0.212   5.203
 9292SOL     OW28774   0.066   3.530   6.250
 9292SOL    HW128775   0.079   3.481   6.336
 9292SOL    HW228776   0.132   3.606   6.245
 9293SOL     OW28777   6.325   3.805   1.007
 9293SOL    HW128778   6.392   3.733   1.026
 9293SOL    HW228779   6.300   3.851   1.091
 9294SOL     OW28780   3.408   6.306   5.705
 9294SOL    HW128781   3.331   6.369   5.711
 9294SOL    HW228782   3.474   6.328   5.777
 9295SOL     OW28783   5.786   2.335   3.825
 9295SOL    HW128784   5.806   2.318   3.729
 9295SOL    HW228785   5.785   2.248   3.875
 9296SOL     OW28786   0.393   6.115   6.578
 9296SOL    HW128787   0.419   6.125   6.482
 9296SOL    HW228788   0.456   6.052   6.623
 9297SOL     OW28789   6.811   0.613   0.965
 9297SOL    HW128790   6.732   0.577   1.016
 9297SOL    HW228791   6.799   0.711   0.950
 9298SOL     OW28792   1.474   0.229   5.288
 9298SOL    HW128793   1.558   0.179   5.270
 9298SOL    HW228794   1.413   0.173   5.344
 9299SOL     OW28795   1.037   2.695   4.422
 9299SOL    HW128796   1.074   2.787   4.414
 9299SOL    HW228797   0.984   2.673   4.339
 9300SOL     OW28798   0.322   4.863   4.826
 9300SOL    HW128799   0.235   4.817   4.843
 9300SOL    HW228800   0.305   4.958   4.801
 9301SOL     OW28801   4.702   4.200   3.355
 9301SOL    HW128802   4.685   4.208   3.453
 9301SOL    HW228803   4.753   4.116   3.336
 9302SOL     OW28804   2.243   3.094   4.448
 9302SOL    HW128805   2.276   3.068   4.538
 9302SOL    HW228806   2.161   3.150   4.457
 9303SOL     OW28807   3.771   6.487   0.632
 9303SOL    HW128808   3.831   6.549   0.684
 9303SOL    HW228809   3.706   6.445   0.694
 9304SOL     OW28810   4.449   4.081   0.755
 9304SOL    HW128811   4.506   4.113   0.831
 9304SOL    HW228812   4.353   4.081   0.784
 9305SOL     OW28813   3.956   1.706   1.961
 9305SOL    HW128814   3.861   1.678   1.948
 9305SOL    HW228815   3.966   1.751   2.050
 9306SOL     OW28816   0.682   4.698   5.002
 9306SOL    HW128817   0.593   4.739   5.022
 9306SOL    HW228818   0.672   4.634   4.925
 9307SOL     OW28819   1.119   3.489   1.996
 9307SOL    HW128820   1.182   3.429   1.947
 9307SOL    HW228821   1.162   3.521   2.080
 9308SOL     OW28822   1.221   3.873   0.987
 9308SOL    HW128823   1.248   3.915   0.900
 9308SOL    HW228824   1.303   3.841   1.035
 9309SOL     OW28825   3.355   4.939   5.381
 9309SOL    HW128826   3.290   5.000   5.336
 9309SOL    HW228827   3.441   4.939   5.331
 9310SOL     OW28828   4.576   5.687   6.596
 9310SOL    HW128829   4.582   5.600   6.548
 9310SOL    HW228830   4.658   5.742   6.576
 9311SOL     OW28831   5.541   4.551   1.888
 9311SOL    HW128832   5.494   4.482   1.944
 9311SOL    HW228833   5.628   4.513   1.855
 9312SOL     OW28834   0.916   3.890   1.829
 9312SOL    HW128835   0.937   3.945   1.909
 9312SOL    HW228836   0.878   3.949   1.757
 9313SOL     OW28837   0.215   0.459   0.922
 9313SOL    HW128838   0.146   0.454   0.849
 9313SOL    HW228839   0.195   0.537   0.981
 9314SOL     OW28840   3.916   5.473   6.041
 9314SOL    HW128841   3.994   5.526   6.011
 9314SOL    HW228842   3.907   5.391   5.984
 9315SOL     OW28843   6.683   0.843   5.160
 9315SOL    HW128844   6.741   0.782   5.108
 9315SOL    HW228845   6.637   0.907   5.098
 9316SOL     OW28846   4.127   5.331   5.260
 9316SOL    HW128847   4.034   5.365   5.246
 9316SOL    HW228848   4.158   5.285   5.177
 9317SOL     OW28849   6.485   5.577   3.300
 9317SOL    HW128850   6.541   5.564   3.218
 9317SOL    HW228851   6.542   5.567   3.381
 9318SOL     OW28852   6.265   0.891   4.909
 9318SOL    HW128853   6.244   0.848   4.821
 9318SOL    HW228854   6.291   0.822   4.976
 9319SOL     OW28855   0.566   2.741   5.595
 9319SOL    HW128856   0.639   2.717   5.531
 9319SOL    HW228857   0.599   2.729   5.688
 9320SOL     OW28858   4.520   1.743   6.324
 9320SOL    HW128859   4.542   1.683   6.401
 9320SOL    HW228860   4.441   1.706   6.275
 9321SOL     OW28861   6.121   7.005   2.378
 9321SOL    HW128862   6.108   6.973   2.472
 9321SOL    HW228863   6.137   0.079   2.378
 9322SOL     OW28864   0.101   5.673   6.529
 9322SOL    HW128865   0.115   5.612   6.451
 9322SOL    HW228866   0.045   5.626   6.598
 9323SOL     OW28867   1.790   0.085   5.240
 9323SOL    HW128868   1.791   0.061   5.338
 9323SOL    HW228869   1.809   0.182   5.229
 9324SOL     OW28870   2.151   5.317   0.590
 9324SOL    HW128871   2.092   5.236   0.584
 9324SOL    HW228872   2.182   5.329   0.684
 9325SOL     OW28873   4.984   1.734   0.020
 9325SOL    HW128874   4.937   1.650   0.046
 9325SOL    HW228875   4.941   1.812   0.067
 9326SOL     OW28876   2.334   0.253   0.611
 9326SOL    HW128877   2.278   0.275   0.531
 9326SOL    HW228878   2.422   0.215   0.581
 9327SOL     OW28879   4.991   6.436   2.558
 9327SOL    HW128880   5.081   6.432   2.515
 9327SOL    HW228881   4.936   6.358   2.528
 9328SOL     OW28882   3.507   0.792   6.401
 9328SOL    HW128883   3.547   0.869   6.352
 9328SOL    HW228884   3.413   0.815   6.428
 9329SOL     OW28885   0.016   4.062   2.196
 9329SOL    HW128886   0.001   3.999   2.120
 9329SOL    HW228887   0.081   4.132   2.169
 9330SOL     OW28888   0.531   6.289   0.036
 9330SOL    HW128889   0.442   6.318   0.001
 9330SOL    HW228890   0.598   6.294   6.987
 9331SOL     OW28891   1.320   1.501   6.118
 9331SOL    HW128892   1.245   1.565   6.099
 9331SOL    HW228893   1.330   1.439   6.040
 9332SOL     OW28894   3.626   4.061   2.968
 9332SOL    HW128895   3.527   4.061   2.961
 9332SOL    HW228896   3.653   4.082   3.062
 9333SOL     OW28897   4.452   3.899   1.180
 9333SOL    HW128898   4.387   3.941   1.243
 9333SOL    HW228899   4.538   3.882   1.228
 9334SOL     OW28900   4.312   6.596   3.955
 9334SOL    HW128901   4.225   6.547   3.956
 9334SOL    HW228902   4.343   6.607   3.860
 9335SOL     OW28903   0.809   1.433   5.766
 9335SOL    HW128904   0.738   1.369   5.736
 9335SOL    HW228905   0.766   1.515   5.804
 9336SOL     OW28906   3.537   5.438   6.167
 9336SOL    HW128907   3.603   5.476   6.103
 9336SOL    HW228908   3.446   5.439   6.125
 9337SOL     OW28909   5.007   0.986   3.633
 9337SOL    HW128910   4.939   0.966   3.562
 9337SOL    HW228911   5.012   0.909   3.696
 9338SOL     OW28912   4.104   0.905   1.956
 9338SOL    HW128913   4.056   0.845   2.021
 9338SOL    HW228914   4.128   0.853   1.875
 9339SOL     OW28915   5.240   6.863   1.014
 9339SOL    HW128916   5.156   6.917   1.027
 9339SOL    HW228917   5.244   6.790   1.082
 9340SOL     OW28918   5.216   3.614   5.086
 9340SOL    HW128919   5.141   3.638   5.025
 9340SOL    HW228920   5.231   3.515   5.084
 9341SOL     OW28921   0.271   5.851   6.670
 9341SOL    HW128922   0.212   5.780   6.631
 9341SOL    HW228923   0.272   5.930   6.609
 9342SOL     OW28924   2.320   0.721   3.865
 9342SOL    HW128925   2.394   0.784   3.839
 9342SOL    HW228926   2.334   0.633   3.820
 9343SOL     OW28927   6.040   4.363   2.914
 9343SOL    HW128928   6.099   4.369   2.995
 9343SOL    HW228929   6.021   4.455   2.880
 9344SOL     OW28930   4.421   5.708   1.611
 9344SOL    HW128931   4.489   5.753   1.553
 9344SOL    HW228932   4.467   5.641   1.669
 9345SOL     OW28933   6.585   3.991   2.054
 9345SOL    HW128934   6.492   3.955   2.068
 9345SOL    HW228935   6.649   3.939   2.110
 9346SOL     OW28936   6.229   0.668   0.880
 9346SOL    HW128937   6.161   0.609   0.924
 9346SOL    HW228938   6.219   0.761   0.913
 9347SOL     OW28939   0.785   5.367   0.979
 9347SOL    HW128940   0.725   5.293   1.008
 9347SOL    HW228941   0.736   5.428   0.918
 9348SOL     OW28942   3.800   5.338   1.703
 9348SOL    HW128943   3.843   5.385   1.625
 9348SOL    HW228944   3.864   5.271   1.740
 9349SOL     OW28945   0.830   6.765   2.428
 9349SOL    HW128946   0.777   6.692   2.385
 9349SOL    HW228947   0.923   6.764   2.391
 9350SOL     OW28948   0.869   3.313   5.208
 9350SOL    HW128949   0.948   3.252   5.215
 9350SOL    HW228950   0.794   3.277   5.263
 9351SOL     OW28951   3.344   1.408   6.214
 9351SOL    HW128952   3.274   1.399   6.285
 9351SOL    HW228953   3.337   1.499   6.172
 9352SOL     OW28954   2.943   3.027   0.151
 9352SOL    HW128955   2.913   2.950   0.094
 9352SOL    HW228956   2.907   3.016   0.244
 9353SOL     OW28957   0.672   5.400   1.516
 9353SOL    HW128958   0.686   5.465   1.441
 9353SOL    HW228959   0.605   5.436   1.580
 9354SOL     OW28960   6.675   2.269   6.937
 9354SOL    HW128961   6.663   2.300   6.843
 9354SOL    HW228962   6.586   2.261   6.981
 9355SOL     OW28963   0.753   2.483   4.862
 9355SOL    HW128964   0.734   2.385   4.868
 9355SOL    HW228965   0.804   2.512   4.944
 9356SOL     OW28966   3.569   7.019   1.011
 9356SOL    HW128967   3.501   0.008   1.083
 9356SOL    HW228968   3.558   6.927   0.973
 9357SOL     OW28969   1.281   3.138   6.221
 9357SOL    HW128970   1.380   3.128   6.220
 9357SOL    HW228971   1.239   3.053   6.254
 9358SOL     OW28972   0.525   4.039   2.406
 9358SOL    HW128973   0.437   3.996   2.385
 9358SOL    HW228974   0.521   4.084   2.495
 9359SOL     OW28975   1.740   4.706   6.428
 9359SOL    HW128976   1.805   4.767   6.472
 9359SOL    HW228977   1.710   4.747   6.342
 9360SOL     OW28978   1.561   6.305   6.500
 9360SOL    HW128979   1.633   6.346   6.445
 9360SOL    HW228980   1.590   6.300   6.596
 9361SOL     OW28981   2.049   5.602   3.259
 9361SOL    HW128982   2.041   5.667   3.336
 9361SOL    HW228983   2.038   5.509   3.293
 9362SOL     OW28984   1.372   1.772   2.263
 9362SOL    HW128985   1.305   1.803   2.331
 9362SOL    HW228986   1.454   1.828   2.269
 9363SOL     OW28987   3.314   5.265   1.777
 9363SOL    HW128988   3.251   5.288   1.852
 9363SOL    HW228989   3.262   5.259   1.691
 9364SOL     OW28990   2.354   1.823   1.453
 9364SOL    HW128991   2.403   1.907   1.475
 9364SOL    HW228992   2.334   1.774   1.538
 9365SOL     OW28993   3.067   1.866   3.747
 9365SOL    HW128994   3.073   1.779   3.796
 9365SOL    HW228995   3.065   1.942   3.813
 9366SOL     OW28996   3.304   6.288   0.141
 9366SOL    HW128997   3.246   6.349   0.195
 9366SOL    HW228998   3.253   6.256   0.061
 9367SOL     OW28999   5.672   0.267   1.419
 9367SOL    HW129000   5.706   0.334   1.486
 9367SOL    HW229001   5.575   0.252   1.433
 9368SOL     OW29002   3.705   6.904   2.251
 9368SOL    HW129003   3.629   6.932   2.309
 9368SOL    HW229004   3.751   6.986   2.216
 9369SOL     OW29005   0.705   5.983   5.096
 9369SOL    HW129006   0.701   6.070   5.047
 9369SOL    HW229007   0.709   6.000   5.194
 9370SOL     OW29008   5.001   0.764   3.365
 9370SOL    HW129009   4.949   0.794   3.445
 9370SOL    HW229010   5.078   0.707   3.395
 9371SOL     OW29011   3.078   5.440   1.358
 9371SOL    HW129012   3.170   5.446   1.319
 9371SOL    HW229013   3.016   5.401   1.290
 9372SOL     OW29014   4.144   6.942   1.518
 9372SOL    HW129015   4.061   6.898   1.553
 9372SOL    HW229016   4.192   6.988   1.592
 9373SOL     OW29017   6.425   2.562   0.593
 9373SOL    HW129018   6.421   2.548   0.494
 9373SOL    HW229019   6.332   2.562   0.631
 9374SOL     OW29020   0.267   3.988   5.683
 9374SOL    HW129021   0.246   4.085   5.670
 9374SOL    HW229022   0.331   3.959   5.612
 9375SOL     OW29023   0.264   1.875   0.523
 9375SOL    HW129024   0.304   1.890   0.613
 9375SOL    HW229025   0.166   1.895   0.526
 9376SOL     OW29026   2.096   3.536   2.263
 9376SOL    HW129027   2.171   3.513   2.326
 9376SOL    HW229028   2.126   3.520   2.169
 9377SOL     OW29029   2.776   5.528   2.986
 9377SOL    HW129030   2.762   5.626   2.999
 9377SOL    HW229031   2.687   5.483   2.971
 9378SOL     OW29032   3.429   1.148   3.743
 9378SOL    HW129033   3.401   1.244   3.746
 9378SOL    HW229034   3.521   1.141   3.705
 9379SOL     OW29035   4.725   6.888   4.856
 9379SOL    HW129036   4.771   6.800   4.856
 9379SOL    HW229037   4.736   6.931   4.767
 9380SOL     OW29038   3.409   5.508   5.665
 9380SOL    HW129039   3.347   5.561   5.722
 9380SOL    HW229040   3.470   5.454   5.723
 9381SOL     OW29041   5.320   2.011   4.277
 9381SOL    HW129042   5.264   1.948   4.224
 9381SOL    HW229043   5.262   2.078   4.322
 9382SOL     OW29044   3.781   0.642   4.046
 9382SOL    HW129045   3.787   0.640   3.946
 9382SOL    HW229046   3.718   0.572   4.077
 9383SOL     OW29047   4.652   4.213   3.962
 9383SOL    HW129048   4.617   4.121   3.944
 9383SOL    HW229049   4.641   4.270   3.881
 9384SOL     OW29050   1.723   6.835   1.689
 9384SOL    HW129051   1.723   6.785   1.602
 9384SOL    HW229052   1.636   6.823   1.735
 9385SOL     OW29053   3.784   1.601   4.202
 9385SOL    HW129054   3.865   1.552   4.233
 9385SOL    HW229055   3.727   1.541   4.147
 9386SOL     OW29056   3.453   5.956   5.401
 9386SOL    HW129057   3.441   5.857   5.407
 9386SOL    HW229058   3.422   5.988   5.311
 9387SOL     OW29059   3.782   2.225   0.150
 9387SOL    HW129060   3.726   2.171   0.213
 9387SOL    HW229061   3.879   2.214   0.174
 9388SOL     OW29062   1.581   6.656   4.269
 9388SOL    HW129063   1.581   6.655   4.169
 9388SOL    HW229064   1.626   6.573   4.303
 9389SOL     OW29065   3.202   5.135   2.705
 9389SOL    HW129066   3.176   5.137   2.802
 9389SOL    HW229067   3.133   5.086   2.652
 9390SOL     OW29068   5.353   4.671   5.566
 9390SOL    HW129069   5.392   4.597   5.512
 9390SOL    HW229070   5.308   4.634   5.647
 9391SOL     OW29071   0.536   6.876   5.252
 9391SOL    HW129072   0.483   6.793   5.239
 9391SOL    HW229073   0.485   6.939   5.311
 9392SOL     OW29074   4.983   4.637   3.580
 9392SOL    HW129075   5.010   4.552   3.536
 9392SOL    HW229076   4.900   4.673   3.537
 9393SOL     OW29077   3.523   6.202   6.123
 9393SOL    HW129078   3.593   6.234   6.187
 9393SOL    HW229079   3.559   6.126   6.068
 9394SOL     OW29080   5.509   0.833   1.512
 9394SOL    HW129081   5.592   0.863   1.464
 9394SOL    HW229082   5.514   0.861   1.608
 9395SOL     OW29083   2.637   1.305   0.896
 9395SOL    HW129084   2.682   1.313   0.985
 9395SOL    HW229085   2.668   1.221   0.851
 9396SOL     OW29086   2.016   6.406   6.087
 9396SOL    HW129087   1.965   6.491   6.091
 9396SOL    HW229088   2.075   6.398   6.168
 9397SOL     OW29089   3.642   0.091   6.441
 9397SOL    HW129090   3.608   0.011   6.490
 9397SOL    HW229091   3.678   0.063   6.352
 9398SOL     OW29092   6.191   1.184   6.510
 9398SOL    HW129093   6.123   1.112   6.515
 9398SOL    HW229094   6.189   1.238   6.595
 9399SOL     OW29095   1.845   2.627   3.898
 9399SOL    HW129096   1.798   2.550   3.856
 9399SOL    HW229097   1.918   2.593   3.958
 9400SOL     OW29098   5.164   1.378   7.019
 9400SOL    HW129099   5.078   1.329   0.009
 9400SOL    HW229100   5.240   1.313   7.021
 9401SOL     OW29101   0.672   2.895   2.803
 9401SOL    HW129102   0.585   2.944   2.789
 9401SOL    HW229103   0.655   2.813   2.858
 9402SOL     OW29104   1.900   5.530   3.584
 9402SOL    HW129105   1.845   5.602   3.542
 9402SOL    HW229106   1.992   5.565   3.603
 9403SOL     OW29107   6.861   1.102   2.133
 9403SOL    HW129108   6.811   1.046   2.199
 9403SOL    HW229109   6.883   1.190   2.174
 9404SOL     OW29110   1.056   2.901   1.136
 9404SOL    HW129111   1.103   2.830   1.082
 9404SOL    HW229112   0.960   2.904   1.109
 9405SOL     OW29113   0.397   4.651   4.664
 9405SOL    HW129114   0.393   4.562   4.710
 9405SOL    HW229115   0.355   4.721   4.723
 9406SOL     OW29116   0.617   3.032   6.371
 9406SOL    HW129117   0.556   3.006   6.446
 9406SOL    HW229118   0.567   3.027   6.285
 9407SOL     OW29119   2.914   5.165   4.694
 9407SOL    HW129120   2.977   5.206   4.760
 9407SOL    HW229121   2.821   5.165   4.732
 9408SOL     OW29122   6.571   3.776   5.622
 9408SOL    HW129123   6.533   3.699   5.570
 9408SOL    HW229124   6.496   3.838   5.647
 9409SOL     OW29125   6.741   5.630   2.111
 9409SOL    HW129126   6.758   5.628   2.210
 9409SOL    HW229127   6.758   5.722   2.076
 9410SOL     OW29128   4.493   0.847   1.807
 9410SOL    HW129129   4.499   0.816   1.902
 9410SOL    HW229130   4.404   0.820   1.769
 9411SOL     OW29131   3.508   2.923   3.684
 9411SOL    HW129132   3.582   2.981   3.649
 9411SOL    HW229133   3.548   2.847   3.735
 9412SOL     OW29134   0.094   0.827   0.900
 9412SOL    HW129135   7.022   0.851   0.908
 9412SOL    HW229136   0.122   0.776   0.982
 9413SOL     OW29137   4.456   4.818   4.101
 9413SOL    HW129138   4.465   4.789   4.196
 9413SOL    HW229139   4.409   4.747   4.048
 9414SOL     OW29140   2.239   2.474   4.678
 9414SOL    HW129141   2.238   2.530   4.761
 9414SOL    HW229142   2.332   2.441   4.661
 9415SOL     OW29143   3.415   0.309   2.531
 9415SOL    HW129144   3.470   0.311   2.448
 9415SOL    HW229145   3.327   0.352   2.513
 9416SOL     OW29146   0.501   6.683   6.296
 9416SOL    HW129147   0.580   6.655   6.241
 9416SOL    HW229148   0.504   6.637   6.384
 9417SOL     OW29149   3.243   6.687   1.353
 9417SOL    HW129150   3.197   6.772   1.377
 9417SOL    HW229151   3.214   6.615   1.415
 9418SOL     OW29152   3.233   1.950   3.966
 9418SOL    HW129153   3.309   1.986   3.912
 9418SOL    HW229154   3.245   1.974   4.062
 9419SOL     OW29155   2.732   2.379   6.561
 9419SOL    HW129156   2.816   2.397   6.510
 9419SOL    HW229157   2.738   2.289   6.604
 9420SOL     OW29158   5.694   3.549   0.465
 9420SOL    HW129159   5.747   3.516   0.543
 9420SOL    HW229160   5.600   3.566   0.494
 9421SOL     OW29161   3.942   6.310   5.369
 9421SOL    HW129162   3.891   6.230   5.337
 9421SOL    HW229163   3.880   6.389   5.372
 9422SOL     OW29164   2.636   5.866   4.468
 9422SOL    HW129165   2.665   5.962   4.469
 9422SOL    HW229166   2.693   5.814   4.532
 9423SOL     OW29167   4.489   6.112   3.092
 9423SOL    HW129168   4.472   6.034   3.151
 9423SOL    HW229169   4.424   6.113   3.016
 9424SOL     OW29170   5.449   1.574   4.449
 9424SOL    HW129171   5.359   1.617   4.451
 9424SOL    HW229172   5.439   1.477   4.472
 9425SOL     OW29173   6.096   4.594   1.477
 9425SOL    HW129174   6.086   4.684   1.518
 9425SOL    HW229175   6.009   4.564   1.440
 9426SOL     OW29176   0.568   2.112   6.302
 9426SOL    HW129177   0.633   2.174   6.258
 9426SOL    HW229178   0.567   2.025   6.254
 9427SOL     OW29179   3.556   5.701   3.106
 9427SOL    HW129180   3.627   5.632   3.121
 9427SOL    HW229181   3.543   5.715   3.008
 9428SOL     OW29182   6.217   6.712   6.740
 9428SOL    HW129183   6.149   6.691   6.670
 9428SOL    HW229184   6.308   6.687   6.708
 9429SOL     OW29185   1.632   2.414   3.817
 9429SOL    HW129186   1.704   2.357   3.856
 9429SOL    HW229187   1.550   2.359   3.801
 9430SOL     OW29188   0.481   1.996   4.316
 9430SOL    HW129189   0.464   1.899   4.299
 9430SOL    HW229190   0.403   2.035   4.365
 9431SOL     OW29191   0.214   4.444   0.468
 9431SOL    HW129192   0.212   4.377   0.394
 9431SOL    HW229193   0.207   4.397   0.556
 9432SOL     OW29194   6.804   1.457   3.535
 9432SOL    HW129195   6.867   1.404   3.478
 9432SOL    HW229196   6.750   1.517   3.477
 9433SOL     OW29197   4.235   6.334   2.786
 9433SOL    HW129198   4.190   6.276   2.718
 9433SOL    HW229199   4.215   6.430   2.767
 9434SOL     OW29200   5.262   5.752   3.852
 9434SOL    HW129201   5.276   5.839   3.898
 9434SOL    HW229202   5.350   5.706   3.838
 9435SOL     OW29203   0.754   2.679   2.532
 9435SOL    HW129204   0.728   2.759   2.478
 9435SOL    HW229205   0.853   2.666   2.527
 9436SOL     OW29206   0.493   0.960   2.312
 9436SOL    HW129207   0.443   0.874   2.298
 9436SOL    HW229208   0.431   1.037   2.297
 9437SOL     OW29209   0.475   5.396   4.038
 9437SOL    HW129210   0.383   5.419   4.071
 9437SOL    HW229211   0.481   5.298   4.021
 9438SOL     OW29212   2.294   6.191   1.604
 9438SOL    HW129213   2.361   6.264   1.590
 9438SOL    HW229214   2.238   6.181   1.522
 9439SOL     OW29215   1.171   2.954   0.209
 9439SOL    HW129216   1.209   2.942   0.118
 9439SOL    HW229217   1.185   3.049   0.239
 9440SOL     OW29218   3.356   4.998   3.374
 9440SOL    HW129219   3.383   4.925   3.437
 9440SOL    HW229220   3.283   5.052   3.416
 9441SOL     OW29221   6.460   5.689   4.483
 9441SOL    HW129222   6.402   5.608   4.489
 9441SOL    HW229223   6.555   5.663   4.496
 9442SOL     OW29224   4.799   3.558   0.930
 9442SOL    HW129225   4.841   3.504   0.857
 9442SOL    HW229226   4.712   3.516   0.956
 9443SOL     OW29227   3.102   4.996   1.871
 9443SOL    HW129228   3.052   4.982   1.786
 9443SOL    HW229229   3.195   4.961   1.861
 9444SOL     OW29230   2.095   3.812   0.327
 9444SOL    HW129231   2.012   3.865   0.343
 9444SOL    HW229232   2.171   3.874   0.306
 9445SOL     OW29233   0.579   1.428   3.735
 9445SOL    HW129234   0.624   1.505   3.780
 9445SOL    HW229235   0.484   1.424   3.765
 9446SOL     OW29236   6.531   5.068   3.326
 9446SOL    HW129237   6.512   4.978   3.286
 9446SOL    HW229238   6.627   5.073   3.353
 9447SOL     OW29239   5.581   5.305   2.505
 9447SOL    HW129240   5.569   5.265   2.414
 9447SOL    HW229241   5.520   5.260   2.570
 9448SOL     OW29242   5.500   0.448   5.865
 9448SOL    HW129243   5.558   0.443   5.946
 9448SOL    HW229244   5.511   0.539   5.823
 9449SOL     OW29245   5.463   6.950   0.883
 9449SOL    HW129246   5.459   0.023   0.905
 9449SOL    HW229247   5.388   6.903   0.930
 9450SOL     OW29248   1.577   5.840   4.340
 9450SOL    HW129249   1.477   5.844   4.345
 9450SOL    HW229250   1.616   5.865   4.428
 9451SOL     OW29251   3.777   5.644   6.180
 9451SOL    HW129252   3.730   5.696   6.109
 9451SOL    HW229253   3.834   5.574   6.138
 9452SOL     OW29254   0.496   4.348   0.966
 9452SOL    HW129255   0.587   4.324   0.931
 9452SOL    HW229256   0.494   4.445   0.989
 9453SOL     OW29257   3.745   5.118   3.134
 9453SOL    HW129258   3.775   5.075   3.219
 9453SOL    HW229259   3.648   5.100   3.119
 9454SOL     OW29260   4.354   4.366   0.645
 9454SOL    HW129261   4.442   4.349   0.689
 9454SOL    HW229262   4.301   4.281   0.642
 9455SOL     OW29263   2.807   2.261   2.333
 9455SOL    HW129264   2.805   2.161   2.332
 9455SOL    HW229265   2.805   2.296   2.240
 9456SOL     OW29266   6.264   3.342   2.467
 9456SOL    HW129267   6.179   3.339   2.415
 9456SOL    HW229268   6.269   3.263   2.528
 9457SOL     OW29269   1.370   4.698   4.118
 9457SOL    HW129270   1.443   4.753   4.077
 9457SOL    HW229271   1.301   4.759   4.157
 9458SOL     OW29272   6.672   4.528   0.383
 9458SOL    HW129273   6.771   4.520   0.394
 9458SOL    HW229274   6.651   4.608   0.326
 9459SOL     OW29275   5.180   4.767   4.508
 9459SOL    HW129276   5.274   4.733   4.500
 9459SOL    HW229277   5.165   4.800   4.601
 9460SOL     OW29278   1.201   3.149   3.423
 9460SOL    HW129279   1.114   3.142   3.373
 9460SOL    HW229280   1.274   3.176   3.361
 9461SOL     OW29281   1.309   2.361   1.148
 9461SOL    HW129282   1.404   2.354   1.118
 9461SOL    HW229283   1.248   2.342   1.070
 9462SOL     OW29284   2.093   1.752   4.225
 9462SOL    HW129285   2.102   1.807   4.142
 9462SOL    HW229286   2.055   1.808   4.299
 9463SOL     OW29287   5.235   6.831   1.485
 9463SOL    HW129288   5.312   6.841   1.548
 9463SOL    HW229289   5.250   6.889   1.405
 9464SOL     OW29290   0.055   0.682   1.579
 9464SOL    HW129291   7.013   0.687   1.505
 9464SOL    HW229292   0.008   0.659   1.665
 9465SOL     OW29293   0.207   4.160   1.227
 9465SOL    HW129294   0.252   4.237   1.272
 9465SOL    HW229295   0.225   4.164   1.128
 9466SOL     OW29296   3.938   5.281   6.267
 9466SOL    HW129297   3.948   5.326   6.179
 9466SOL    HW229298   3.847   5.299   6.304
 9467SOL     OW29299   2.165   3.084   1.227
 9467SOL    HW129300   2.143   3.181   1.216
 9467SOL    HW229301   2.189   3.066   1.323
 9468SOL     OW29302   6.457   3.578   0.099
 9468SOL    HW129303   6.400   3.540   0.026
 9468SOL    HW229304   6.409   3.568   0.187
 9469SOL     OW29305   0.117   6.121   0.945
 9469SOL    HW129306   0.190   6.072   0.993
 9469SOL    HW229307   0.149   6.211   0.917
 9470SOL     OW29308   5.026   3.868   0.210
 9470SOL    HW129309   4.996   3.780   0.245
 9470SOL    HW229310   5.014   3.871   0.111
 9471SOL     OW29311   6.331   2.004   5.238
 9471SOL    HW129312   6.283   2.018   5.151
 9471SOL    HW229313   6.269   2.023   5.314
 9472SOL     OW29314   1.390   4.254   5.919
 9472SOL    HW129315   1.308   4.298   5.956
 9472SOL    HW229316   1.413   4.174   5.974
 9473SOL     OW29317   2.814   4.261   0.406
 9473SOL    HW129318   2.848   4.238   0.498
 9473SOL    HW229319   2.878   4.228   0.337
 9474SOL     OW29320   6.092   3.375   1.878
 9474SOL    HW129321   6.161   3.419   1.935
 9474SOL    HW229322   6.073   3.431   1.798
 9475SOL     OW29323   4.878   3.529   5.590
 9475SOL    HW129324   4.795   3.563   5.635
 9475SOL    HW229325   4.933   3.478   5.656
 9476SOL     OW29326   3.694   4.393   5.800
 9476SOL    HW129327   3.611   4.417   5.749
 9476SOL    HW229328   3.674   4.396   5.899
 9477SOL     OW29329   1.690   3.679   1.929
 9477SOL    HW129330   1.605   3.714   1.890
 9477SOL    HW229331   1.737   3.753   1.976
 9478SOL     OW29332   5.082   2.728   0.372
 9478SOL    HW129333   5.066   2.790   0.449
 9478SOL    HW229334   5.025   2.647   0.382
 9479SOL     OW29335   4.860   1.018   1.554
 9479SOL    HW129336   4.778   1.072   1.534
 9479SOL    HW229337   4.839   0.948   1.622
 9480SOL     OW29338   6.028   5.803   6.662
 9480SOL    HW129339   5.977   5.844   6.738
 9480SOL    HW229340   6.015   5.859   6.580
 9481SOL     OW29341   4.627   1.734   3.355
 9481SOL    HW129342   4.534   1.724   3.391
 9481SOL    HW229343   4.692   1.694   3.420
 9482SOL     OW29344   5.939   1.310   0.579
 9482SOL    HW129345   6.026   1.322   0.626
 9482SOL    HW229346   5.938   1.222   0.532
 9483SOL     OW29347   0.652   0.459   0.001
 9483SOL    HW129348   0.744   0.434   0.030
 9483SOL    HW229349   0.586   0.393   0.037
 9484SOL     OW29350   2.706   6.480   4.697
 9484SOL    HW129351   2.643   6.557   4.703
 9484SOL    HW229352   2.777   6.500   4.630
 9485SOL     OW29353   6.514   1.285   0.380
 9485SOL    HW129354   6.527   1.262   0.476
 9485SOL    HW229355   6.584   1.239   0.325
 9486SOL     OW29356   4.745   5.616   0.098
 9486SOL    HW129357   4.665   5.673   0.117
 9486SOL    HW229358   4.759   5.608   7.025
 9487SOL     OW29359   2.920   3.709   4.337
 9487SOL    HW129360   2.942   3.615   4.310
 9487SOL    HW229361   2.826   3.712   4.372
 9488SOL     OW29362   1.456   1.412   1.092
 9488SOL    HW129363   1.417   1.322   1.078
 9488SOL    HW229364   1.474   1.455   1.003
 9489SOL     OW29365   5.065   4.405   1.003
 9489SOL    HW129366   5.157   4.424   1.038
 9489SOL    HW229367   5.005   4.382   1.080
 9490SOL     OW29368   6.181   4.835   3.729
 9490SOL    HW129369   6.148   4.756   3.678
 9490SOL    HW229370   6.224   4.900   3.667
 9491SOL     OW29371   5.124   6.473   3.537
 9491SOL    HW129372   5.190   6.545   3.561
 9491SOL    HW229373   5.098   6.423   3.620
 9492SOL     OW29374   4.702   2.865   4.795
 9492SOL    HW129375   4.772   2.921   4.750
 9492SOL    HW229376   4.633   2.925   4.835
 9493SOL     OW29377   4.269   6.183   4.138
 9493SOL    HW129378   4.177   6.208   4.168
 9493SOL    HW229379   4.318   6.142   4.215
 9494SOL     OW29380   5.085   2.824   2.360
 9494SOL    HW129381   5.006   2.847   2.303
 9494SOL    HW229382   5.168   2.825   2.305
 9495SOL     OW29383   0.343   0.582   1.728
 9495SOL    HW129384   0.295   0.495   1.722
 9495SOL    HW229385   0.288   0.654   1.687
 9496SOL     OW29386   4.161   1.586   2.529
 9496SOL    HW129387   4.208   1.591   2.441
 9496SOL    HW229388   4.226   1.605   2.602
 9497SOL     OW29389   5.887   5.483   4.879
 9497SOL    HW129390   5.790   5.480   4.855
 9497SOL    HW229391   5.900   5.542   4.959
 9498SOL     OW29392   6.677   5.095   4.719
 9498SOL    HW129393   6.667   5.148   4.803
 9498SOL    HW229394   6.639   5.146   4.643
 9499SOL     OW29395   6.369   5.347   5.082
 9499SOL    HW129396   6.459   5.386   5.100
 9499SOL    HW229397   6.298   5.408   5.117
 9500SOL     OW29398   4.241   0.103   1.093
 9500SOL    HW129399   4.251   0.005   1.107
 9500SOL    HW229400   4.307   0.152   1.149
 9501SOL     OW29401   1.758   1.512   4.562
 9501SOL    HW129402   1.825   1.474   4.499
 9501SOL    HW229403   1.785   1.493   4.657
 9502SOL     OW29404   5.261   4.869   5.166
 9502SOL    HW129405   5.187   4.865   5.099
 9502SOL    HW229406   5.342   4.911   5.125
 9503SOL     OW29407   0.662   2.076   6.986
 9503SOL    HW129408   0.683   2.161   6.936
 9503SOL    HW229409   0.627   2.008   6.921
 9504SOL     OW29410   0.079   4.402   1.349
 9504SOL    HW129411   0.148   4.459   1.304
 9504SOL    HW229412   0.005   4.460   1.383
 9505SOL     OW29413   4.181   4.788   5.467
 9505SOL    HW129414   4.279   4.806   5.479
 9505SOL    HW229415   4.136   4.787   5.556
 9506SOL     OW29416   2.454   2.304   1.125
 9506SOL    HW129417   2.369   2.257   1.101
 9506SOL    HW229418   2.449   2.400   1.098
 9507SOL     OW29419   6.028   0.387   1.381
 9507SOL    HW129420   6.025   0.485   1.401
 9507SOL    HW229421   6.103   0.367   1.319
 9508SOL     OW29422   4.574   1.637   2.240
 9508SOL    HW129423   4.621   1.552   2.262
 9508SOL    HW229424   4.597   1.706   2.309
 9509SOL     OW29425   6.495   0.483   2.913
 9509SOL    HW129426   6.455   0.407   2.862
 9509SOL    HW229427   6.426   0.553   2.928
 9510SOL     OW29428   0.276   3.268   3.522
 9510SOL    HW129429   0.370   3.237   3.535
 9510SOL    HW229430   0.220   3.239   3.600
 9511SOL     OW29431   1.288   0.884   1.080
 9511SOL    HW129432   1.222   0.915   1.012
 9511SOL    HW229433   1.277   0.786   1.095
 9512SOL     OW29434   6.650   3.198   1.092
 9512SOL    HW129435   6.601   3.119   1.055
 9512SOL    HW229436   6.641   3.275   1.029
 9513SOL     OW29437   4.195   4.807   6.386
 9513SOL    HW129438   4.253   4.749   6.329
 9513SOL    HW229439   4.119   4.754   6.423
 9514SOL     OW29440   3.330   2.870   6.910
 9514SOL    HW129441   3.412   2.916   6.878
 9514SOL    HW229442   3.249   2.922   6.881
 9515SOL     OW29443   2.841   5.170   3.895
 9515SOL    HW129444   2.917   5.179   3.959
 9515SOL    HW229445   2.773   5.107   3.932
 9516SOL     OW29446   6.190   4.483   0.410
 9516SOL    HW129447   6.278   4.454   0.374
 9516SOL    HW229448   6.201   4.568   0.461
 9517SOL     OW29449   0.875   4.138   1.156
 9517SOL    HW129450   0.827   4.067   1.105
 9517SOL    HW229451   0.842   4.139   1.251
 9518SOL     OW29452   2.337   1.487   0.535
 9518SOL    HW129453   2.377   1.553   0.598
 9518SOL    HW229454   2.410   1.429   0.499
 9519SOL     OW29455   1.302   2.241   5.298
 9519SOL    HW129456   1.283   2.193   5.384
 9519SOL    HW229457   1.360   2.321   5.317
 9520SOL     OW29458   2.411   6.972   2.819
 9520SOL    HW129459   2.391   0.035   2.862
 9520SOL    HW229460   2.333   6.911   2.830
 9521SOL     OW29461   6.044   5.821   3.836
 9521SOL    HW129462   6.006   5.857   3.751
 9521SOL    HW229463   6.012   5.876   3.913
 9522SOL     OW29464   3.409   5.960   1.288
 9522SOL    HW129465   3.461   6.011   1.220
 9522SOL    HW229466   3.311   5.970   1.271
 9523SOL     OW29467   3.921   5.198   4.018
 9523SOL    HW129468   3.929   5.099   4.009
 9523SOL    HW229469   3.881   5.221   4.107
 9524SOL     OW29470   3.446   2.980   1.242
 9524SOL    HW129471   3.524   2.931   1.203
 9524SOL    HW229472   3.440   2.960   1.340
 9525SOL     OW29473   2.094   1.433   6.314
 9525SOL    HW129474   2.135   1.399   6.229
 9525SOL    HW229475   2.114   1.369   6.388
 9526SOL     OW29476   4.937   6.487   3.064
 9526SOL    HW129477   4.868   6.522   3.127
 9526SOL    HW229478   5.028   6.500   3.104
 9527SOL     OW29479   0.785   0.943   2.262
 9527SOL    HW129480   0.702   0.980   2.304
 9527SOL    HW229481   0.845   0.905   2.332
 9528SOL     OW29482   6.055   0.166   1.116
 9528SOL    HW129483   6.049   0.068   1.098
 9528SOL    HW229484   5.962   0.203   1.129
 9529SOL     OW29485   1.049   3.075   6.511
 9529SOL    HW129486   1.077   3.024   6.592
 9529SOL    HW229487   1.092   3.165   6.511
 9530SOL     OW29488   1.537   2.883   2.562
 9530SOL    HW129489   1.566   2.805   2.507
 9530SOL    HW229490   1.514   2.851   2.654
 9531SOL     OW29491   3.902   6.584   3.227
 9531SOL    HW129492   3.904   6.503   3.168
 9531SOL    HW229493   3.897   6.667   3.171
 9532SOL     OW29494   1.929   6.568   1.149
 9532SOL    HW129495   2.017   6.615   1.148
 9532SOL    HW229496   1.894   6.561   1.056
 9533SOL     OW29497   1.337   1.354   5.516
 9533SOL    HW129498   1.425   1.400   5.529
 9533SOL    HW229499   1.353   1.258   5.489
 9534SOL     OW29500   5.144   1.880   4.734
 9534SOL    HW129501   5.093   1.956   4.773
 9534SOL    HW229502   5.238   1.882   4.770
 9535SOL     OW29503   2.640   1.165   5.870
 9535SOL    HW129504   2.710   1.200   5.807
 9535SOL    HW229505   2.614   1.237   5.934
 9536SOL     OW29506   1.660   5.545   5.457
 9536SOL    HW129507   1.714   5.461   5.461
 9536SOL    HW229508   1.696   5.611   5.523
 9537SOL     OW29509   3.186   0.222   1.993
 9537SOL    HW129510   3.125   0.145   1.976
 9537SOL    HW229511   3.281   0.190   1.988
 9538SOL     OW29512   6.503   2.220   4.337
 9538SOL    HW129513   6.544   2.244   4.249
 9538SOL    HW229514   6.407   2.245   4.337
 9539SOL     OW29515   1.212   5.467   0.217
 9539SOL    HW129516   1.271   5.508   0.148
 9539SOL    HW229517   1.161   5.538   0.265
 9540SOL     OW29518   4.456   4.988   4.831
 9540SOL    HW129519   4.387   4.923   4.862
 9540SOL    HW229520   4.417   5.079   4.825
 9541SOL     OW29521   2.096   2.893   4.216
 9541SOL    HW129522   2.037   2.882   4.296
 9541SOL    HW229523   2.192   2.884   4.244
 9542SOL     OW29524   4.979   3.209   4.879
 9542SOL    HW129525   4.917   3.189   4.955
 9542SOL    HW229526   4.985   3.308   4.867
 9543SOL     OW29527   4.397   0.957   3.683
 9543SOL    HW129528   4.387   0.971   3.781
 9543SOL    HW229529   4.333   1.016   3.634
 9544SOL     OW29530   5.559   0.948   1.742
 9544SOL    HW129531   5.618   0.924   1.819
 9544SOL    HW229532   5.490   1.013   1.773
 9545SOL     OW29533   6.770   0.487   2.961
 9545SOL    HW129534   6.793   0.411   3.021
 9545SOL    HW229535   6.670   0.495   2.954
 9546SOL     OW29536   2.771   5.463   6.550
 9546SOL    HW129537   2.818   5.411   6.479
 9546SOL    HW229538   2.754   5.402   6.629
 9547SOL     OW29539   1.229   5.974   4.606
 9547SOL    HW129540   1.196   6.067   4.586
 9547SOL    HW229541   1.279   5.939   4.527
 9548SOL     OW29542   5.905   5.856   4.386
 9548SOL    HW129543   5.906   5.805   4.472
 9548SOL    HW229544   5.823   5.831   4.334
 9549SOL     OW29545   3.071   5.668   0.470
 9549SOL    HW129546   3.009   5.638   0.543
 9549SOL    HW229547   3.055   5.612   0.389
 9550SOL     OW29548   0.891   1.169   0.205
 9550SOL    HW129549   0.888   1.155   0.106
 9550SOL    HW229550   0.940   1.253   0.226
 9551SOL     OW29551   0.227   0.105   4.922
 9551SOL    HW129552   0.313   0.111   4.973
 9551SOL    HW229553   0.243   0.128   4.826
 9552SOL     OW29554   1.694   6.430   3.304
 9552SOL    HW129555   1.744   6.359   3.353
 9552SOL    HW229556   1.621   6.389   3.251
 9553SOL     OW29557   6.103   4.857   6.299
 9553SOL    HW129558   6.081   4.776   6.353
 9553SOL    HW229559   6.197   4.885   6.317
 9554SOL     OW29560   2.275   1.255   2.149
 9554SOL    HW129561   2.215   1.177   2.136
 9554SOL    HW229562   2.346   1.256   2.079
 9555SOL     OW29563   6.574   2.320   0.867
 9555SOL    HW129564   6.589   2.416   0.892
 9555SOL    HW229565   6.570   2.312   0.767
 9556SOL     OW29566   2.273   1.092   1.125
 9556SOL    HW129567   2.320   1.112   1.039
 9556SOL    HW229568   2.181   1.058   1.106
 9557SOL     OW29569   5.529   0.268   2.149
 9557SOL    HW129570   5.454   0.331   2.129
 9557SOL    HW229571   5.570   0.236   2.063
 9558SOL     OW29572   6.830   5.194   3.045
 9558SOL    HW129573   6.770   5.142   2.985
 9558SOL    HW229574   6.926   5.175   3.022
 9559SOL     OW29575   6.873   3.447   2.182
 9559SOL    HW129576   6.819   3.410   2.258
 9559SOL    HW229577   6.812   3.475   2.108
 9560SOL     OW29578   2.503   1.260   3.104
 9560SOL    HW129579   2.405   1.275   3.113
 9560SOL    HW229580   2.543   1.245   3.195
 9561SOL     OW29581   4.168   6.546   0.948
 9561SOL    HW129582   4.264   6.537   0.972
 9561SOL    HW229583   4.136   6.461   0.907
 9562SOL     OW29584   4.758   5.294   2.476
 9562SOL    HW129585   4.812   5.334   2.402
 9562SOL    HW229586   4.781   5.197   2.485
 9563SOL     OW29587   6.873   5.952   6.241
 9563SOL    HW129588   6.872   5.958   6.141
 9563SOL    HW229589   6.797   6.005   6.278
 9564SOL     OW29590   2.989   6.706   6.671
 9564SOL    HW129591   3.018   6.793   6.712
 9564SOL    HW229592   3.046   6.632   6.707
 9565SOL     OW29593   3.590   6.324   4.631
 9565SOL    HW129594   3.529   6.394   4.595
 9565SOL    HW229595   3.595   6.248   4.566
 9566SOL     OW29596   2.779   4.732   5.867
 9566SOL    HW129597   2.821   4.691   5.786
 9566SOL    HW229598   2.715   4.667   5.908
 9567SOL     OW29599   6.213   5.779   6.325
 9567SOL    HW129600   6.261   5.766   6.411
 9567SOL    HW229601   6.262   5.731   6.252
 9568SOL     OW29602   4.961   3.884   6.164
 9568SOL    HW129603   4.922   3.970   6.197
 9568SOL    HW229604   4.894   3.810   6.175
 9569SOL     OW29605   6.624   0.511   0.310
 9569SOL    HW129606   6.710   0.552   0.340
 9569SOL    HW229607   6.548   0.572   0.331
 9570SOL     OW29608   0.840   1.388   7.004
 9570SOL    HW129609   0.871   1.482   7.019
 9570SOL    HW229610   0.817   1.376   6.907
 9571SOL     OW29611   1.898   3.387   0.080
 9571SOL    HW129612   1.991   3.425   0.074
 9571SOL    HW229613   1.900   3.304   0.137
 9572SOL     OW29614   1.192   4.323   2.041
 9572SOL    HW129615   1.250   4.395   2.003
 9572SOL    HW229616   1.246   4.265   2.102
 9573SOL     OW29617   1.914   1.321   0.151
 9573SOL    HW129618   1.980   1.373   0.206
 9573SOL    HW229619   1.963   1.264   0.085
 9574SOL     OW29620   3.136   3.235   5.872
 9574SOL    HW129621   3.143   3.282   5.960
 9574SOL    HW229622   3.074   3.285   5.812
 9575SOL     OW29623   5.276   0.940   2.045
 9575SOL    HW129624   5.211   1.003   2.087
 9575SOL    HW229625   5.231   0.852   2.030
 9576SOL     OW29626   3.371   1.376   4.551
 9576SOL    HW129627   3.330   1.287   4.532
 9576SOL    HW229628   3.305   1.435   4.596
 9577SOL     OW29629   1.029   6.436   2.804
 9577SOL    HW129630   0.979   6.356   2.770
 9577SOL    HW229631   0.970   6.516   2.800
 9578SOL     OW29632   6.752   2.941   2.228
 9578SOL    HW129633   6.837   2.988   2.252
 9578SOL    HW229634   6.729   2.875   2.300
 9579SOL     OW29635   1.076   6.805   2.348
 9579SOL    HW129636   1.053   6.865   2.271
 9579SOL    HW229637   1.155   6.840   2.396
 9580SOL     OW29638   4.127   3.572   6.867
 9580SOL    HW129639   4.156   3.488   6.821
 9580SOL    HW229640   4.207   3.619   6.905
 9581SOL     OW29641   0.991   4.223   6.319
 9581SOL    HW129642   1.082   4.187   6.300
 9581SOL    HW229643   0.998   4.297   6.386
 9582SOL     OW29644   4.171   4.787   4.335
 9582SOL    HW129645   4.231   4.751   4.406
 9582SOL    HW229646   4.186   4.886   4.326
 9583SOL     OW29647   2.205   3.849   2.124
 9583SOL    HW129648   2.177   3.859   2.219
 9583SOL    HW229649   2.237   3.755   2.108
 9584SOL     OW29650   6.101   5.644   0.025
 9584SOL    HW129651   6.135   5.688   0.108
 9584SOL    HW229652   6.175   5.592   7.007
 9585SOL     OW29653   6.517   0.354   4.149
 9585SOL    HW129654   6.577   0.389   4.221
 9585SOL    HW229655   6.552   0.383   4.060
 9586SOL     OW29656   5.379   3.686   3.563
 9586SOL    HW129657   5.295   3.674   3.615
 9586SOL    HW229658   5.416   3.597   3.538
 9587SOL     OW29659   4.978   0.290   2.543
 9587SOL    HW129660   5.041   0.294   2.621
 9587SOL    HW229661   4.991   0.203   2.495
 9588SOL     OW29662   0.331   0.624   1.317
 9588SOL    HW129663   0.349   0.681   1.397
 9588SOL    HW229664   0.417   0.587   1.283
 9589SOL     OW29665   2.299   0.797   6.334
 9589SOL    HW129666   2.397   0.788   6.356
 9589SOL    HW229667   2.254   0.851   6.405
 9590SOL     OW29668   6.985   4.324   3.433
 9590SOL    HW129669   6.996   4.289   3.340
 9590SOL    HW229670   0.021   4.274   3.495
 9591SOL     OW29671   1.517   5.210   0.665
 9591SOL    HW129672   1.616   5.222   0.658
 9591SOL    HW229673   1.497   5.117   0.695
 9592SOL     OW29674   4.715   5.493   2.027
 9592SOL    HW129675   4.778   5.522   1.955
 9592SOL    HW229676   4.742   5.534   2.114
 9593SOL     OW29677   6.884   2.450   4.445
 9593SOL    HW129678   6.946   2.383   4.405
 9593SOL    HW229679   6.802   2.403   4.478
 9594SOL     OW29680   6.353   6.890   2.290
 9594SOL    HW129681   6.346   6.797   2.256
 9594SOL    HW229682   6.262   6.923   2.316
 9595SOL     OW29683   1.870   5.557   3.919
 9595SOL    HW129684   1.887   5.478   3.860
 9595SOL    HW229685   1.956   5.603   3.938
 9596SOL     OW29686   5.834   6.081   5.039
 9596SOL    HW129687   5.830   6.180   5.052
 9596SOL    HW229688   5.809   6.058   4.945
 9597SOL     OW29689   1.661   4.005   1.597
 9597SOL    HW129690   1.573   4.053   1.591
 9597SOL    HW229691   1.729   4.066   1.638
 9598SOL     OW29692   0.040   5.642   6.068
 9598SOL    HW129693   0.055   5.545   6.048
 9598SOL    HW229694   6.986   5.652   6.128
 9599SOL     OW29695   4.511   1.669   5.416
 9599SOL    HW129696   4.558   1.677   5.504
 9599SOL    HW229697   4.552   1.594   5.363
 9600SOL     OW29698   1.262   0.571   6.767
 9600SOL    HW129699   1.179   0.547   6.818
 9600SOL    HW229700   1.238   0.592   6.673
 9601SOL     OW29701   0.281   5.370   5.771
 9601SOL    HW129702   0.289   5.405   5.677
 9601SOL    HW229703   0.349   5.416   5.829
 9602SOL     OW29704   1.117   5.566   6.750
 9602SOL    HW129705   1.068   5.623   6.683
 9602SOL    HW229706   1.196   5.617   6.785
 9603SOL     OW29707   1.909   6.092   4.499
 9603SOL    HW129708   1.814   6.113   4.479
 9603SOL    HW229709   1.954   6.056   4.417
 9604SOL     OW29710   5.964   1.826   6.918
 9604SOL    HW129711   6.011   1.742   6.946
 9604SOL    HW229712   5.867   1.807   6.905
 9605SOL     OW29713   1.430   6.022   6.674
 9605SOL    HW129714   1.520   5.985   6.651
 9605SOL    HW229715   1.440   6.087   6.749
 9606SOL     OW29716   0.137   6.487   4.254
 9606SOL    HW129717   0.106   6.440   4.171
 9606SOL    HW229718   0.078   6.461   4.331
 9607SOL     OW29719   1.122   2.032   1.898
 9607SOL    HW129720   1.089   2.009   1.807
 9607SOL    HW229721   1.177   1.957   1.934
 9608SOL     OW29722   0.676   6.958   2.060
 9608SOL    HW129723   0.610   0.007   2.044
 9608SOL    HW229724   0.683   6.901   1.978
 9609SOL     OW29725   1.422   4.392   4.561
 9609SOL    HW129726   1.470   4.309   4.530
 9609SOL    HW229727   1.418   4.392   4.661
 9610SOL     OW29728   2.281   1.988   5.821
 9610SOL    HW129729   2.249   2.044   5.745
 9610SOL    HW229730   2.297   2.046   5.901
 9611SOL     OW29731   6.206   0.204   0.822
 9611SOL    HW129732   6.126   0.148   0.800
 9611SOL    HW229733   6.179   0.276   0.887
 9612SOL     OW29734   5.967   2.647   1.695
 9612SOL    HW129735   6.009   2.708   1.627
 9612SOL    HW229736   5.871   2.631   1.670
 9613SOL     OW29737   6.170   6.821   4.999
 9613SOL    HW129738   6.082   6.787   5.032
 9613SOL    HW229739   6.182   6.916   5.030
 9614SOL     OW29740   3.672   3.431   2.595
 9614SOL    HW129741   3.625   3.507   2.551
 9614SOL    HW229742   3.632   3.344   2.565
 9615SOL     OW29743   0.942   5.731   2.560
 9615SOL    HW129744   0.943   5.633   2.538
 9615SOL    HW229745   0.935   5.742   2.659
 9616SOL     OW29746   3.695   3.036   0.952
 9616SOL    HW129747   3.633   3.105   0.989
 9616SOL    HW229748   3.694   2.955   1.010
 9617SOL     OW29749   0.812   2.959   3.753
 9617SOL    HW129750   0.888   2.930   3.812
 9617SOL    HW229751   0.831   2.931   3.659
 9618SOL     OW29752   3.855   6.058   6.612
 9618SOL    HW129753   3.921   6.013   6.671
 9618SOL    HW229754   3.871   6.032   6.517
 9619SOL     OW29755   2.627   6.247   0.717
 9619SOL    HW129756   2.601   6.172   0.777
 9619SOL    HW229757   2.608   6.335   0.762
 9620SOL     OW29758   3.554   1.441   6.399
 9620SOL    HW129759   3.647   1.424   6.365
 9620SOL    HW229760   3.489   1.426   6.325
 9621SOL     OW29761   0.590   0.540   1.248
 9621SOL    HW129762   0.630   0.613   1.303
 9621SOL    HW229763   0.663   0.488   1.203
 9622SOL     OW29764   5.996   0.585   6.159
 9622SOL    HW129765   6.016   0.511   6.096
 9622SOL    HW229766   5.961   0.547   6.245
 9623SOL     OW29767   4.596   6.087   6.356
 9623SOL    HW129768   4.689   6.119   6.334
 9623SOL    HW229769   4.547   6.068   6.271
 9624SOL     OW29770   4.097   5.046   4.982
 9624SOL    HW129771   4.018   4.984   4.979
 9624SOL    HW229772   4.116   5.078   4.889
 9625SOL     OW29773   4.892   4.512   5.857
 9625SOL    HW129774   4.902   4.587   5.923
 9625SOL    HW229775   4.800   4.514   5.819
 9626SOL     OW29776   2.178   4.128   6.251
 9626SOL    HW129777   2.150   4.043   6.208
 9626SOL    HW229778   2.129   4.139   6.338
 9627SOL     OW29779   0.872   4.938   0.292
 9627SOL    HW129780   0.804   4.913   0.361
 9627SOL    HW229781   0.958   4.890   0.311
 9628SOL     OW29782   5.575   3.523   6.784
 9628SOL    HW129783   5.647   3.487   6.724
 9628SOL    HW229784   5.486   3.491   6.752
 9629SOL     OW29785   0.452   5.674   3.355
 9629SOL    HW129786   0.551   5.677   3.338
 9629SOL    HW229787   0.407   5.622   3.283
 9630SOL     OW29788   6.585   5.804   5.967
 9630SOL    HW129789   6.607   5.745   6.045
 9630SOL    HW229790   6.589   5.900   5.996
 9631SOL     OW29791   4.223   1.039   0.662
 9631SOL    HW129792   4.132   1.073   0.683
 9631SOL    HW229793   4.222   0.939   0.659
 9632SOL     OW29794   3.351   6.338   1.113
 9632SOL    HW129795   3.384   6.245   1.096
 9632SOL    HW229796   3.304   6.342   1.201
 9633SOL     OW29797   3.300   2.955   2.856
 9633SOL    HW129798   3.238   2.984   2.929
 9633SOL    HW229799   3.391   2.939   2.894
 9634SOL     OW29800   5.309   4.488   2.207
 9634SOL    HW129801   5.291   4.452   2.299
 9634SOL    HW229802   5.390   4.546   2.209
 9635SOL     OW29803   0.963   3.705   3.258
 9635SOL    HW129804   0.945   3.767   3.181
 9635SOL    HW229805   0.877   3.672   3.296
 9636SOL     OW29806   4.414   2.442   4.567
 9636SOL    HW129807   4.383   2.383   4.641
 9636SOL    HW229808   4.432   2.534   4.604
 9637SOL     OW29809   2.926   3.163   0.985
 9637SOL    HW129810   2.856   3.191   1.050
 9637SOL    HW229811   3.005   3.127   1.036
 9638SOL     OW29812   6.950   4.824   5.594
 9638SOL    HW129813   0.013   4.815   5.639
 9638SOL    HW229814   6.958   4.886   5.515
 9639SOL     OW29815   4.229   1.515   2.126
 9639SOL    HW129816   4.284   1.488   2.205
 9639SOL    HW229817   4.278   1.495   2.042
 9640SOL     OW29818   3.506   0.057   2.321
 9640SOL    HW129819   3.468   0.050   2.229
 9640SOL    HW229820   3.438   0.027   2.388
 9641SOL     OW29821   6.070   4.402   2.515
 9641SOL    HW129822   5.982   4.451   2.517
 9641SOL    HW229823   6.084   4.363   2.424
 9642SOL     OW29824   2.356   0.323   3.386
 9642SOL    HW129825   2.429   0.361   3.329
 9642SOL    HW229826   2.369   0.225   3.396
 9643SOL     OW29827   5.448   4.564   4.188
 9643SOL    HW129828   5.393   4.560   4.105
 9643SOL    HW229829   5.420   4.491   4.250
 9644SOL     OW29830   1.478   5.320   4.890
 9644SOL    HW129831   1.469   5.407   4.842
 9644SOL    HW229832   1.490   5.246   4.823
 9645SOL     OW29833   1.386   5.541   0.017
 9645SOL    HW129834   1.479   5.506   0.005
 9645SOL    HW229835   1.364   5.604   6.968
 9646SOL     OW29836   3.570   6.127   5.573
 9646SOL    HW129837   3.554   6.066   5.495
 9646SOL    HW229838   3.483   6.154   5.613
 9647SOL     OW29839   6.091   6.607   3.447
 9647SOL    HW129840   6.190   6.618   3.448
 9647SOL    HW229841   6.067   6.511   3.460
 9648SOL     OW29842   4.597   2.311   1.079
 9648SOL    HW129843   4.618   2.369   1.000
 9648SOL    HW229844   4.601   2.366   1.163
 9649SOL     OW29845   2.662   3.518   0.458
 9649SOL    HW129846   2.747   3.571   0.452
 9649SOL    HW229847   2.586   3.579   0.477
 9650SOL     OW29848   6.881   4.780   4.764
 9650SOL    HW129849   6.830   4.797   4.679
 9650SOL    HW229850   6.846   4.698   4.809
 9651SOL     OW29851   3.048   1.376   0.187
 9651SOL    HW129852   3.123   1.414   0.242
 9651SOL    HW229853   3.029   1.283   0.216
 9652SOL     OW29854   6.770   4.292   0.707
 9652SOL    HW129855   6.804   4.219   0.767
 9652SOL    HW229856   6.670   4.294   0.712
 9653SOL     OW29857   4.551   4.024   5.776
 9653SOL    HW129858   4.620   3.987   5.714
 9653SOL    HW229859   4.584   4.018   5.870
 9654SOL     OW29860   3.421   3.476   4.286
 9654SOL    HW129861   3.474   3.482   4.201
 9654SOL    HW229862   3.484   3.473   4.364
 9655SOL     OW29863   5.318   1.107   1.816
 9655SOL    HW129864   5.297   1.043   1.890
 9655SOL    HW229865   5.253   1.095   1.741
 9656SOL     OW29866   5.205   4.325   1.302
 9656SOL    HW129867   5.290   4.289   1.264
 9656SOL    HW229868   5.196   4.422   1.277
 9657SOL     OW29869   5.952   3.577   3.361
 9657SOL    HW129870   5.873   3.577   3.299
 9657SOL    HW229871   5.990   3.485   3.368
 9658SOL     OW29872   5.058   1.727   2.371
 9658SOL    HW129873   5.137   1.761   2.321
 9658SOL    HW229874   4.984   1.707   2.306
 9659SOL     OW29875   3.330   2.745   0.814
 9659SOL    HW129876   3.351   2.827   0.867
 9659SOL    HW229877   3.232   2.724   0.823
 9660SOL     OW29878   0.372   5.761   1.092
 9660SOL    HW129879   0.338   5.705   1.017
 9660SOL    HW229880   0.341   5.856   1.081
 9661SOL     OW29881   4.690   4.643   0.640
 9661SOL    HW129882   4.629   4.649   0.719
 9661SOL    HW229883   4.759   4.715   0.645
 9662SOL     OW29884   4.918   4.297   6.471
 9662SOL    HW129885   4.901   4.344   6.385
 9662SOL    HW229886   5.015   4.304   6.495
 9663SOL     OW29887   0.704   4.434   3.677
 9663SOL    HW129888   0.781   4.374   3.655
 9663SOL    HW229889   0.686   4.429   3.775
 9664SOL     OW29890   5.431   4.271   3.175
 9664SOL    HW129891   5.402   4.181   3.142
 9664SOL    HW229892   5.395   4.342   3.116
 9665SOL     OW29893   5.878   6.507   6.854
 9665SOL    HW129894   5.817   6.565   6.909
 9665SOL    HW229895   5.971   6.516   6.887
 9666SOL     OW29896   5.949   4.200   1.243
 9666SOL    HW129897   5.991   4.291   1.242
 9666SOL    HW229898   5.993   4.143   1.173
 9667SOL     OW29899   4.912   5.438   0.735
 9667SOL    HW129900   4.969   5.358   0.712
 9667SOL    HW229901   4.862   5.467   0.653
 9668SOL     OW29902   0.913   6.633   5.831
 9668SOL    HW129903   0.977   6.558   5.812
 9668SOL    HW229904   0.965   6.719   5.837
 9669SOL     OW29905   3.496   6.873   0.279
 9669SOL    HW129906   3.489   6.795   0.341
 9669SOL    HW229907   3.561   6.853   0.206
 9670SOL     OW29908   0.073   0.043   6.253
 9670SOL    HW129909   0.144   0.035   6.183
 9670SOL    HW229910   0.071   6.985   6.308
 9671SOL     OW29911   1.372   5.041   6.275
 9671SOL    HW129912   1.310   5.103   6.227
 9671SOL    HW229913   1.337   5.026   6.368
 9672SOL     OW29914   0.564   4.176   4.294
 9672SOL    HW129915   0.525   4.197   4.204
 9672SOL    HW229916   0.572   4.261   4.347
 9673SOL     OW29917   2.357   4.111   1.439
 9673SOL    HW129918   2.314   4.111   1.350
 9673SOL    HW229919   2.450   4.149   1.432
 9674SOL     OW29920   3.450   6.073   3.161
 9674SOL    HW129921   3.531   6.065   3.103
 9674SOL    HW229922   3.377   6.119   3.109
 9675SOL     OW29923   4.754   4.022   1.486
 9675SOL    HW129924   4.667   4.019   1.535
 9675SOL    HW229925   4.751   4.093   1.417
 9676SOL     OW29926   1.380   2.923   5.705
 9676SOL    HW129927   1.445   2.860   5.661
 9676SOL    HW229928   1.288   2.885   5.700
 9677SOL     OW29929   6.342   5.160   0.475
 9677SOL    HW129930   6.300   5.218   0.405
 9677SOL    HW229931   6.324   5.198   0.566
 9678SOL     OW29932   3.410   3.834   5.011
 9678SOL    HW129933   3.393   3.854   5.107
 9678SOL    HW229934   3.460   3.748   5.002
 9679SOL     OW29935   1.901   1.350   5.229
 9679SOL    HW129936   1.839   1.418   5.268
 9679SOL    HW229937   1.874   1.259   5.260
 9680SOL     OW29938   4.700   6.191   2.843
 9680SOL    HW129939   4.628   6.254   2.873
 9680SOL    HW229940   4.783   6.242   2.822
 9681SOL     OW29941   1.937   1.037   1.789
 9681SOL    HW129942   1.848   1.056   1.830
 9681SOL    HW229943   2.005   1.020   1.860
 9682SOL     OW29944   5.763   5.929   4.783
 9682SOL    HW129945   5.682   5.988   4.781
 9682SOL    HW229946   5.734   5.834   4.797
 9683SOL     OW29947   2.435   0.325   0.848
 9683SOL    HW129948   2.472   0.418   0.846
 9683SOL    HW229949   2.383   0.308   0.765
 9684SOL     OW29950   1.611   4.448   5.560
 9684SOL    HW129951   1.593   4.520   5.493
 9684SOL    HW229952   1.525   4.404   5.586
 9685SOL     OW29953   3.715   4.242   1.052
 9685SOL    HW129954   3.732   4.238   0.954
 9685SOL    HW229955   3.736   4.333   1.086
 9686SOL     OW29956   6.344   2.030   5.861
 9686SOL    HW129957   6.298   2.117   5.875
 9686SOL    HW229958   6.350   2.010   5.763
 9687SOL     OW29959   6.226   0.230   2.351
 9687SOL    HW129960   6.269   0.258   2.266
 9687SOL    HW229961   6.293   0.238   2.426
 9688SOL     OW29962   1.337   4.783   1.776
 9688SOL    HW129963   1.320   4.779   1.677
 9688SOL    HW229964   1.267   4.838   1.820
 9689SOL     OW29965   1.136   6.093   0.223
 9689SOL    HW129966   1.203   6.018   0.213
 9689SOL    HW229967   1.179   6.179   0.198
 9690SOL     OW29968   5.944   5.845   5.129
 9690SOL    HW129969   5.987   5.813   5.045
 9690SOL    HW229970   5.902   5.934   5.113
 9691SOL     OW29971   3.358   3.467   2.077
 9691SOL    HW129972   3.265   3.502   2.089
 9691SOL    HW229973   3.424   3.535   2.109
 9692SOL     OW29974   4.544   4.868   0.278
 9692SOL    HW129975   4.487   4.949   0.276
 9692SOL    HW229976   4.496   4.795   0.327
 9693SOL     OW29977   5.588   4.008   4.064
 9693SOL    HW129978   5.565   3.911   4.071
 9693SOL    HW229979   5.528   4.052   3.997
 9694SOL     OW29980   2.994   6.641   1.877
 9694SOL    HW129981   3.039   6.689   1.803
 9694SOL    HW229982   2.926   6.577   1.840
 9695SOL     OW29983   0.609   3.237   4.302
 9695SOL    HW129984   0.665   3.233   4.385
 9695SOL    HW229985   0.632   3.161   4.242
 9696SOL     OW29986   6.202   2.069   2.882
 9696SOL    HW129987   6.174   2.096   2.790
 9696SOL    HW229988   6.170   2.138   2.948
 9697SOL     OW29989   6.824   6.114   0.429
 9697SOL    HW129990   6.778   6.202   0.441
 9697SOL    HW229991   6.884   6.118   0.349
 9698SOL     OW29992   5.142   3.395   0.123
 9698SOL    HW129993   5.105   3.456   0.052
 9698SOL    HW229994   5.242   3.393   0.116
 9699SOL     OW29995   0.991   5.214   0.603
 9699SOL    HW129996   0.988   5.314   0.596
 9699SOL    HW229997   1.086   5.183   0.594
 9700SOL     OW29998   5.816   6.642   4.153
 9700SOL    HW129999   5.775   6.551   4.160
 9700SOL    HW230000   5.882   6.654   4.228
 9701SOL     OW30001   5.258   3.110   6.563
 9701SOL    HW130002   5.187   3.165   6.607
 9701SOL    HW230003   5.272   3.026   6.614
 9702SOL     OW30004   3.747   2.910   0.721
 9702SOL    HW130005   3.727   2.976   0.793
 9702SOL    HW230006   3.735   2.954   0.632
 9703SOL     OW30007   6.046   3.733   5.127
 9703SOL    HW130008   5.973   3.695   5.184
 9703SOL    HW230009   6.015   3.738   5.032
 9704SOL     OW30010   2.778   4.899   2.810
 9704SOL    HW130011   2.683   4.874   2.828
 9704SOL    HW230012   2.816   4.836   2.742
 9705SOL     OW30013   6.151   4.088   5.017
 9705SOL    HW130014   6.161   3.997   4.978
 9705SOL    HW230015   6.104   4.082   5.105
 9706SOL     OW30016   1.076   1.539   2.109
 9706SOL    HW130017   1.013   1.462   2.123
 9706SOL    HW230018   1.102   1.577   2.197
 9707SOL     OW30019   6.055   4.650   2.058
 9707SOL    HW130020   5.985   4.629   2.126
 9707SOL    HW230021   6.138   4.599   2.077
 9708SOL     OW30022   1.460   0.465   2.497
 9708SOL    HW130023   1.488   0.511   2.581
 9708SOL    HW230024   1.435   0.533   2.429
 9709SOL     OW30025   5.820   2.947   2.324
 9709SOL    HW130026   5.732   2.966   2.279
 9709SOL    HW230027   5.894   2.953   2.257
 9710SOL     OW30028   5.891   6.131   5.438
 9710SOL    HW130029   5.879   6.210   5.377
 9710SOL    HW230030   5.806   6.115   5.488
 9711SOL     OW30031   4.009   6.493   6.731
 9711SOL    HW130032   3.956   6.522   6.652
 9711SOL    HW230033   3.988   6.398   6.752
 9712SOL     OW30034   6.153   2.836   0.558
 9712SOL    HW130035   6.122   2.805   0.468
 9712SOL    HW230036   6.140   2.762   0.625
 9713SOL     OW30037   1.755   6.196   3.445
 9713SOL    HW130038   1.773   6.111   3.395
 9713SOL    HW230039   1.838   6.223   3.494
 9714SOL     OW30040   3.905   5.020   4.331
 9714SOL    HW130041   3.878   5.016   4.234
 9714SOL    HW230042   3.842   4.964   4.385
 9715SOL     OW30043   6.150   4.689   0.939
 9715SOL    HW130044   6.248   4.708   0.926
 9715SOL    HW230045   6.106   4.679   0.850
 9716SOL     OW30046   3.345   4.794   6.982
 9716SOL    HW130047   3.404   4.872   6.959
 9716SOL    HW230048   3.402   4.716   7.009
 9717SOL     OW30049   4.368   0.768   5.830
 9717SOL    HW130050   4.299   0.700   5.857
 9717SOL    HW230051   4.412   0.804   5.912
 9718SOL     OW30052   3.210   2.230   0.119
 9718SOL    HW130053   3.270   2.310   0.123
 9718SOL    HW230054   3.160   2.222   0.205
 9719SOL     OW30055   4.591   6.019   5.012
 9719SOL    HW130056   4.579   5.938   5.069
 9719SOL    HW230057   4.512   6.030   4.953
 9720SOL     OW30058   1.666   4.423   2.892
 9720SOL    HW130059   1.761   4.409   2.864
 9720SOL    HW230060   1.649   4.375   2.978
 9721SOL     OW30061   1.011   1.880   0.248
 9721SOL    HW130062   1.093   1.879   0.190
 9721SOL    HW230063   0.978   1.786   0.259
 9722SOL     OW30064   3.718   2.743   5.535
 9722SOL    HW130065   3.788   2.812   5.554
 9722SOL    HW230066   3.633   2.787   5.507
 9723SOL     OW30067   6.214   4.536   4.535
 9723SOL    HW130068   6.136   4.554   4.476
 9723SOL    HW230069   6.242   4.620   4.581
 9724SOL     OW30070   1.216   5.309   6.996
 9724SOL    HW130071   1.262   5.375   6.937
 9724SOL    HW230072   1.204   5.350   0.062
 9725SOL     OW30073   3.415   5.367   4.980
 9725SOL    HW130074   3.470   5.354   4.898
 9725SOL    HW230075   3.446   5.304   5.051
 9726SOL     OW30076   6.201   0.705   4.071
 9726SOL    HW130077   6.290   0.723   4.112
 9726SOL    HW230078   6.135   0.774   4.102
 9727SOL     OW30079   0.505   2.296   6.738
 9727SOL    HW130080   0.594   2.292   6.784
 9727SOL    HW230081   0.490   2.212   6.687
 9728SOL     OW30082   5.122   0.374   6.025
 9728SOL    HW130083   5.137   0.389   5.927
 9728SOL    HW230084   5.209   0.366   6.072
 9729SOL     OW30085   0.825   4.299   3.355
 9729SOL    HW130086   0.805   4.380   3.300
 9729SOL    HW230087   0.868   4.326   3.441
 9730SOL     OW30088   0.380   4.469   2.984
 9730SOL    HW130089   0.312   4.419   2.932
 9730SOL    HW230090   0.395   4.425   3.072
 9731SOL     OW30091   5.011   3.766   2.853
 9731SOL    HW130092   4.962   3.748   2.767
 9731SOL    HW230093   5.098   3.718   2.853
 9732SOL     OW30094   1.781   2.676   2.369
 9732SOL    HW130095   1.717   2.732   2.316
 9732SOL    HW230096   1.739   2.647   2.454
 9733SOL     OW30097   6.017   5.514   2.654
 9733SOL    HW130098   5.934   5.492   2.602
 9733SOL    HW230099   5.994   5.580   2.726
 9734SOL     OW30100   6.171   6.775   6.418
 9734SOL    HW130101   6.127   6.704   6.473
 9734SOL    HW230102   6.114   6.796   6.338
 9735SOL     OW30103   0.987   1.276   2.641
 9735SOL    HW130104   0.993   1.264   2.740
 9735SOL    HW230105   1.048   1.351   2.613
 9736SOL     OW30106   4.867   2.302   5.036
 9736SOL    HW130107   4.815   2.217   5.028
 9736SOL    HW230108   4.908   2.306   5.127
 9737SOL     OW30109   6.185   1.660   2.368
 9737SOL    HW130110   6.153   1.694   2.280
 9737SOL    HW230111   6.112   1.607   2.412
 9738SOL     OW30112   2.109   5.929   1.065
 9738SOL    HW130113   2.135   5.991   0.991
 9738SOL    HW230114   2.011   5.913   1.062
 9739SOL     OW30115   4.941   0.128   0.400
 9739SOL    HW130116   5.028   0.178   0.399
 9739SOL    HW230117   4.899   0.135   0.490
 9740SOL     OW30118   6.921   0.673   2.454
 9740SOL    HW130119   6.832   0.676   2.410
 9740SOL    HW230120   6.957   0.579   2.451
 9741SOL     OW30121   3.179   1.842   4.634
 9741SOL    HW130122   3.137   1.807   4.718
 9741SOL    HW230123   3.277   1.854   4.648
 9742SOL     OW30124   4.235   1.394   6.564
 9742SOL    HW130125   4.140   1.427   6.555
 9742SOL    HW230126   4.267   1.361   6.475
 9743SOL     OW30127   6.435   2.915   3.668
 9743SOL    HW130128   6.521   2.957   3.640
 9743SOL    HW230129   6.386   2.883   3.588
 9744SOL     OW30130   1.912   6.575   3.558
 9744SOL    HW130131   1.887   6.595   3.464
 9744SOL    HW230132   1.868   6.641   3.619
 9745SOL     OW30133   5.709   1.232   5.805
 9745SOL    HW130134   5.773   1.179   5.749
 9745SOL    HW230135   5.631   1.174   5.830
 9746SOL     OW30136   5.106   6.000   6.653
 9746SOL    HW130137   5.043   5.982   6.729
 9746SOL    HW230138   5.198   6.012   6.689
 9747SOL     OW30139   2.213   2.031   1.883
 9747SOL    HW130140   2.225   2.010   1.980
 9747SOL    HW230141   2.302   2.029   1.837
 9748SOL     OW30142   0.903   0.740   3.129
 9748SOL    HW130143   0.837   0.670   3.157
 9748SOL    HW230144   0.862   0.797   3.058
 9749SOL     OW30145   0.685   1.618   2.440
 9749SOL    HW130146   0.591   1.589   2.426
 9749SOL    HW230147   0.710   1.605   2.536
 9750SOL     OW30148   6.212   4.873   4.171
 9750SOL    HW130149   6.137   4.898   4.110
 9750SOL    HW230150   6.293   4.850   4.117
 9751SOL     OW30151   2.445   0.463   1.950
 9751SOL    HW130152   2.470   0.540   1.892
 9751SOL    HW230153   2.521   0.441   2.011
 9752SOL     OW30154   4.497   2.540   0.527
 9752SOL    HW130155   4.438   2.573   0.600
 9752SOL    HW230156   4.468   2.579   0.440
 9753SOL     OW30157   6.991   6.221   6.386
 9753SOL    HW130158   7.012   6.281   6.309
 9753SOL    HW230159   6.969   6.129   6.352
 9754SOL     OW30160   4.044   0.645   0.658
 9754SOL    HW130161   3.960   0.647   0.713
 9754SOL    HW230162   4.022   0.670   0.564
 9755SOL     OW30163   3.293   4.148   5.548
 9755SOL    HW130164   3.367   4.153   5.482
 9755SOL    HW230165   3.290   4.232   5.602
 9756SOL     OW30166   5.455   1.383   5.913
 9756SOL    HW130167   5.521   1.453   5.884
 9756SOL    HW230168   5.406   1.416   5.994
 9757SOL     OW30169   5.532   4.123   4.301
 9757SOL    HW130170   5.440   4.085   4.315
 9757SOL    HW230171   5.566   4.096   4.211
 9758SOL     OW30172   1.266   0.661   0.794
 9758SOL    HW130173   1.322   0.740   0.768
 9758SOL    HW230174   1.197   0.644   0.723
 9759SOL     OW30175   0.957   1.248   0.621
 9759SOL    HW130176   1.043   1.266   0.669
 9759SOL    HW230177   0.911   1.335   0.603
 9760SOL     OW30178   5.003   2.031   6.990
 9760SOL    HW130179   4.973   2.087   6.912
 9760SOL    HW230180   5.073   1.967   6.960
 9761SOL     OW30181   1.465   1.066   1.929
 9761SOL    HW130182   1.399   1.033   1.861
 9761SOL    HW230183   1.557   1.061   1.891
 9762SOL     OW30184   2.996   1.705   4.805
 9762SOL    HW130185   2.965   1.621   4.761
 9762SOL    HW230186   2.925   1.775   4.798
 9763SOL     OW30187   6.514   1.655   1.814
 9763SOL    HW130188   6.417   1.645   1.788
 9763SOL    HW230189   6.551   1.738   1.773
 9764SOL     OW30190   5.813   2.361   2.260
 9764SOL    HW130191   5.880   2.423   2.300
 9764SOL    HW230192   5.831   2.352   2.162
 9765SOL     OW30193   6.534   1.190   2.061
 9765SOL    HW130194   6.448   1.149   2.031
 9765SOL    HW230195   6.570   1.251   1.990
 9766SOL     OW30196   2.350   0.708   3.498
 9766SOL    HW130197   2.258   0.740   3.476
 9766SOL    HW230198   2.417   0.752   3.437
 9767SOL     OW30199   2.013   3.317   5.863
 9767SOL    HW130200   1.957   3.338   5.783
 9767SOL    HW230201   1.955   3.281   5.937
 9768SOL     OW30202   6.121   2.536   0.671
 9768SOL    HW130203   6.152   2.448   0.708
 9768SOL    HW230204   6.033   2.524   0.626
 9769SOL     OW30205   3.197   1.629   5.249
 9769SOL    HW130206   3.154   1.616   5.160
 9769SOL    HW230207   3.188   1.545   5.303
 9770SOL     OW30208   3.826   2.444   6.423
 9770SOL    HW130209   3.904   2.392   6.387
 9770SOL    HW230210   3.851   2.540   6.431
 9771SOL     OW30211   2.785   6.275   2.437
 9771SOL    HW130212   2.809   6.183   2.469
 9771SOL    HW230213   2.698   6.303   2.479
 9772SOL     OW30214   1.609   6.154   1.987
 9772SOL    HW130215   1.535   6.099   2.026
 9772SOL    HW230216   1.660   6.197   2.061
 9773SOL     OW30217   5.177   5.869   2.575
 9773SOL    HW130218   5.094   5.901   2.620
 9773SOL    HW230219   5.245   5.846   2.644
 9774SOL     OW30220   0.528   5.210   3.724
 9774SOL    HW130221   0.481   5.161   3.797
 9774SOL    HW230222   0.461   5.254   3.665
 9775SOL     OW30223   2.629   0.466   3.512
 9775SOL    HW130224   2.656   0.517   3.594
 9775SOL    HW230225   2.535   0.435   3.523
 9776SOL     OW30226   1.517   4.905   5.914
 9776SOL    HW130227   1.582   4.829   5.926
 9776SOL    HW230228   1.523   4.967   5.992
 9777SOL     OW30229   5.324   6.776   6.432
 9777SOL    HW130230   5.272   6.690   6.437
 9777SOL    HW230231   5.341   6.809   6.525
 9778SOL     OW30232   0.405   1.786   4.717
 9778SOL    HW130233   0.469   1.855   4.682
 9778SOL    HW230234   0.346   1.828   4.786
 9779SOL     OW30235   0.774   1.741   3.320
 9779SOL    HW130236   0.850   1.779   3.373
 9779SOL    HW230237   0.696   1.803   3.325
 9780SOL     OW30238   1.669   1.928   1.288
 9780SOL    HW130239   1.765   1.900   1.286
 9780SOL    HW230240   1.615   1.869   1.228
 9781SOL     OW30241   1.174   3.660   3.618
 9781SOL    HW130242   1.188   3.666   3.716
 9781SOL    HW230243   1.228   3.584   3.581
 9782SOL     OW30244   0.559   2.282   0.355
 9782SOL    HW130245   0.590   2.290   0.450
 9782SOL    HW230246   0.514   2.194   0.341
 9783SOL     OW30247   4.092   1.827   3.298
 9783SOL    HW130248   4.074   1.890   3.374
 9783SOL    HW230249   4.007   1.811   3.247
 9784SOL     OW30250   2.934   1.307   6.853
 9784SOL    HW130251   3.022   1.260   6.864
 9784SOL    HW230252   2.947   1.405   6.862
 9785SOL     OW30253   6.875   2.534   4.804
 9785SOL    HW130254   6.941   2.607   4.787
 9785SOL    HW230255   6.900   2.453   4.750
 9786SOL     OW30256   2.588   4.432   0.638
 9786SOL    HW130257   2.610   4.334   0.648
 9786SOL    HW230258   2.554   4.467   0.725
 9787SOL     OW30259   3.788   3.616   3.714
 9787SOL    HW130260   3.696   3.645   3.741
 9787SOL    HW230261   3.783   3.571   3.624
 9788SOL     OW30262   0.554   6.027   1.925
 9788SOL    HW130263   0.556   6.116   1.971
 9788SOL    HW230264   0.578   5.955   1.989
 9789SOL     OW30265   3.036   6.975   6.372
 9789SOL    HW130266   3.013   6.990   6.276
 9789SOL    HW230267   2.967   6.915   6.414
 9790SOL     OW30268   6.868   4.060   4.640
 9790SOL    HW130269   6.772   4.032   4.632
 9790SOL    HW230270   6.918   4.029   4.559
 9791SOL     OW30271   0.667   6.422   0.363
 9791SOL    HW130272   0.743   6.487   0.358
 9791SOL    HW230273   0.694   6.337   0.318
 9792SOL     OW30274   3.684   5.466   0.892
 9792SOL    HW130275   3.762   5.498   0.946
 9792SOL    HW230276   3.708   5.469   0.795
 9793SOL     OW30277   4.822   1.370   1.832
 9793SOL    HW130278   4.889   1.306   1.795
 9793SOL    HW230279   4.758   1.321   1.891
 9794SOL     OW30280   4.851   4.580   4.607
 9794SOL    HW130281   4.905   4.546   4.530
 9794SOL    HW230282   4.824   4.674   4.590
 9795SOL     OW30283   0.639   3.146   3.953
 9795SOL    HW130284   0.668   3.098   3.871
 9795SOL    HW230285   0.713   3.204   3.986
 9796SOL     OW30286   3.671   3.960   3.602
 9796SOL    HW130287   3.758   3.966   3.552
 9796SOL    HW230288   3.689   3.962   3.701
 9797SOL     OW30289   3.093   6.396   6.337
 9797SOL    HW130290   3.154   6.340   6.281
 9797SOL    HW230291   3.147   6.452   6.400
 9798SOL     OW30292   1.560   2.958   1.012
 9798SOL    HW130293   1.466   2.951   1.046
 9798SOL    HW230294   1.606   2.870   1.025
 9799SOL     OW30295   2.916   5.114   6.307
 9799SOL    HW130296   2.962   5.079   6.388
 9799SOL    HW230297   2.903   5.213   6.316
 9800SOL     OW30298   5.593   3.063   3.719
 9800SOL    HW130299   5.671   3.121   3.694
 9800SOL    HW230300   5.626   2.971   3.742
 9801SOL     OW30301   5.433   4.892   6.821
 9801SOL    HW130302   5.377   4.862   6.899
 9801SOL    HW230303   5.530   4.890   6.848
 9802SOL     OW30304   3.956   5.309   0.719
 9802SOL    HW130305   3.944   5.220   0.762
 9802SOL    HW230306   4.037   5.308   0.661
 9803SOL     OW30307   1.845   3.207   6.541
 9803SOL    HW130308   1.769   3.167   6.591
 9803SOL    HW230309   1.863   3.299   6.577
 9804SOL     OW30310   6.709   5.586   3.095
 9804SOL    HW130311   6.711   5.676   3.139
 9804SOL    HW230312   6.749   5.593   3.004
 9805SOL     OW30313   0.612   6.497   3.845
 9805SOL    HW130314   0.620   6.463   3.939
 9805SOL    HW230315   0.703   6.497   3.802
 9806SOL     OW30316   4.083   2.047   6.075
 9806SOL    HW130317   4.134   2.108   6.014
 9806SOL    HW230318   4.019   2.102   6.130
 9807SOL     OW30319   3.393   2.986   2.367
 9807SOL    HW130320   3.465   3.052   2.386
 9807SOL    HW230321   3.332   2.980   2.446
 9808SOL     OW30322   4.213   6.169   3.859
 9808SOL    HW130323   4.197   6.151   3.957
 9808SOL    HW230324   4.280   6.104   3.824
 9809SOL     OW30325   0.395   2.894   0.565
 9809SOL    HW130326   0.389   2.951   0.482
 9809SOL    HW230327   0.417   2.800   0.539
 9810SOL     OW30328   2.376   1.774   5.477
 9810SOL    HW130329   2.394   1.712   5.400
 9810SOL    HW230330   2.409   1.865   5.455
 9811SOL     OW30331   6.652   3.835   4.084
 9811SOL    HW130332   6.741   3.877   4.070
 9811SOL    HW230333   6.588   3.903   4.121
 9812SOL     OW30334   2.530   6.812   4.871
 9812SOL    HW130335   2.513   6.892   4.813
 9812SOL    HW230336   2.611   6.827   4.927
 9813SOL     OW30337   5.555   2.524   0.626
 9813SOL    HW130338   5.515   2.432   0.625
 9813SOL    HW230339   5.505   2.582   0.691
 9814SOL     OW30340   5.648   1.919   0.227
 9814SOL    HW130341   5.560   1.937   0.270
 9814SOL    HW230342   5.675   1.825   0.246
 9815SOL     OW30343   4.579   2.637   4.736
 9815SOL    HW130344   4.643   2.562   4.753
 9815SOL    HW230345   4.623   2.723   4.760
 9816SOL     OW30346   1.136   0.107   6.618
 9816SOL    HW130347   1.063   0.052   6.579
 9816SOL    HW230348   1.097   0.184   6.669
 9817SOL     OW30349   0.632   0.108   3.228
 9817SOL    HW130350   0.590   0.179   3.285
 9817SOL    HW230351   0.561   0.051   3.187
 9818SOL     OW30352   5.865   1.781   5.231
 9818SOL    HW130353   5.897   1.732   5.150
 9818SOL    HW230354   5.766   1.777   5.235
 9819SOL     OW30355   4.137   2.248   3.343
 9819SOL    HW130356   4.185   2.324   3.299
 9819SOL    HW230357   4.177   2.161   3.313
 9820SOL     OW30358   3.115   4.489   6.448
 9820SOL    HW130359   3.195   4.443   6.408
 9820SOL    HW230360   3.040   4.489   6.382
 9821SOL     OW30361   5.669   6.649   6.998
 9821SOL    HW130362   5.589   6.592   6.984
 9821SOL    HW230363   5.665   6.729   6.937
 9822SOL     OW30364   0.680   6.773   2.944
 9822SOL    HW130365   0.748   6.734   2.882
 9822SOL    HW230366   0.653   6.863   2.911
 9823SOL     OW30367   3.428   0.658   1.766
 9823SOL    HW130368   3.452   0.617   1.854
 9823SOL    HW230369   3.352   0.721   1.779
 9824SOL     OW30370   1.028   4.215   5.790
 9824SOL    HW130371   0.977   4.278   5.731
 9824SOL    HW230372   1.122   4.248   5.801
 9825SOL     OW30373   3.682   5.615   5.445
 9825SOL    HW130374   3.734   5.647   5.366
 9825SOL    HW230375   3.600   5.672   5.457
 9826SOL     OW30376   4.921   6.059   6.112
 9826SOL    HW130377   4.889   6.154   6.104
 9826SOL    HW230378   4.967   6.033   6.027
 9827SOL     OW30379   1.612   4.288   4.843
 9827SOL    HW130380   1.514   4.292   4.865
 9827SOL    HW230381   1.628   4.215   4.778
 9828SOL     OW30382   3.311   2.720   6.582
 9828SOL    HW130383   3.306   2.735   6.681
 9828SOL    HW230384   3.367   2.791   6.540
 9829SOL     OW30385   3.603   6.679   0.450
 9829SOL    HW130386   3.585   6.586   0.483
 9829SOL    HW230387   3.664   6.726   0.514
 9830SOL     OW30388   6.211   1.765   1.419
 9830SOL    HW130389   6.161   1.761   1.332
 9830SOL    HW230390   6.269   1.684   1.428
 9831SOL     OW30391   1.252   5.774   0.979
 9831SOL    HW130392   1.269   5.769   0.881
 9831SOL    HW230393   1.317   5.715   1.027
 9832SOL     OW30394   4.644   4.848   2.522
 9832SOL    HW130395   4.575   4.851   2.594
 9832SOL    HW230396   4.599   4.849   2.432
 9833SOL     OW30397   3.301   3.155   5.121
 9833SOL    HW130398   3.356   3.104   5.187
 9833SOL    HW230399   3.213   3.109   5.108
 9834SOL     OW30400   2.723   3.700   5.845
 9834SOL    HW130401   2.820   3.723   5.856
 9834SOL    HW230402   2.712   3.600   5.850
 9835SOL     OW30403   4.805   1.695   4.241
 9835SOL    HW130404   4.817   1.621   4.175
 9835SOL    HW230405   4.734   1.758   4.209
 9836SOL     OW30406   6.178   3.680   3.227
 9836SOL    HW130407   6.100   3.644   3.278
 9836SOL    HW230408   6.166   3.778   3.213
 9837SOL     OW30409   1.584   6.876   3.434
 9837SOL    HW130410   1.587   6.957   3.376
 9837SOL    HW230411   1.582   6.903   3.530
 9838SOL     OW30412   0.505   6.561   5.684
 9838SOL    HW130413   0.464   6.550   5.774
 9838SOL    HW230414   0.562   6.643   5.683
 9839SOL     OW30415   6.480   1.387   2.610
 9839SOL    HW130416   6.500   1.483   2.629
 9839SOL    HW230417   6.564   1.339   2.589
 9840SOL     OW30418   0.238   0.387   0.581
 9840SOL    HW130419   0.337   0.396   0.574
 9840SOL    HW230420   0.195   0.471   0.549
 9841SOL     OW30421   1.342   4.429   4.172
 9841SOL    HW130422   1.366   4.517   4.131
 9841SOL    HW230423   1.347   4.437   4.272
 9842SOL     OW30424   3.419   3.272   3.882
 9842SOL    HW130425   3.483   3.205   3.920
 9842SOL    HW230426   3.453   3.364   3.901
 9843SOL     OW30427   6.695   1.870   1.388
 9843SOL    HW130428   6.609   1.871   1.336
 9843SOL    HW230429   6.764   1.924   1.340
 9844SOL     OW30430   4.625   6.824   2.930
 9844SOL    HW130431   4.528   6.840   2.908
 9844SOL    HW230432   4.647   6.728   2.911
 9845SOL     OW30433   2.181   1.326   5.260
 9845SOL    HW130434   2.257   1.339   5.196
 9845SOL    HW230435   2.094   1.340   5.213
 9846SOL     OW30436   3.321   4.148   3.186
 9846SOL    HW130437   3.403   4.125   3.238
 9846SOL    HW230438   3.247   4.171   3.250
 9847SOL     OW30439   2.515   2.871   6.059
 9847SOL    HW130440   2.602   2.854   6.014
 9847SOL    HW230441   2.514   2.827   6.148
 9848SOL     OW30442   3.859   2.447   6.692
 9848SOL    HW130443   3.835   2.373   6.755
 9848SOL    HW230444   3.841   2.418   6.598
 9849SOL     OW30445   5.662   0.616   6.792
 9849SOL    HW130446   5.756   0.594   6.766
 9849SOL    HW230447   5.599   0.585   6.720
 9850SOL     OW30448   4.780   5.850   2.177
 9850SOL    HW130449   4.696   5.899   2.199
 9850SOL    HW230450   4.783   5.763   2.227
 9851SOL     OW30451   4.451   1.942   5.036
 9851SOL    HW130452   4.444   1.925   5.135
 9851SOL    HW230453   4.375   2.000   5.006
 9852SOL     OW30454   4.264   2.036   3.249
 9852SOL    HW130455   4.358   2.010   3.270
 9852SOL    HW230456   4.206   1.955   3.246
 9853SOL     OW30457   4.610   4.350   3.117
 9853SOL    HW130458   4.668   4.317   3.043
 9853SOL    HW230459   4.629   4.297   3.200
 9854SOL     OW30460   5.940   4.954   5.281
 9854SOL    HW130461   6.007   4.906   5.337
 9854SOL    HW230462   5.851   4.910   5.291
 9855SOL     OW30463   1.052   4.219   1.495
 9855SOL    HW130464   0.992   4.154   1.541
 9855SOL    HW230465   1.062   4.301   1.550
 9856SOL     OW30466   4.311   3.715   7.002
 9856SOL    HW130467   4.324   3.768   6.919
 9856SOL    HW230468   4.353   3.763   0.054
 9857SOL     OW30469   5.253   2.201   3.330
 9857SOL    HW130470   5.296   2.176   3.243
 9857SOL    HW230471   5.176   2.263   3.312
 9858SOL     OW30472   5.613   0.652   1.228
 9858SOL    HW130473   5.661   0.632   1.314
 9858SOL    HW230474   5.678   0.646   1.152
 9859SOL     OW30475   6.329   6.926   1.052
 9859SOL    HW130476   6.424   6.900   1.033
 9859SOL    HW230477   6.327   6.993   1.126
 9860SOL     OW30478   0.432   1.070   1.572
 9860SOL    HW130479   0.461   1.102   1.662
 9860SOL    HW230480   0.501   1.092   1.504
 9861SOL     OW30481   3.502   6.761   4.212
 9861SOL    HW130482   3.437   6.720   4.147
 9861SOL    HW230483   3.511   6.858   4.192
 9862SOL     OW30484   2.879   3.537   0.934
 9862SOL    HW130485   2.899   3.455   0.880
 9862SOL    HW230486   2.887   3.514   1.031
 9863SOL     OW30487   3.371   6.852   2.940
 9863SOL    HW130488   3.281   6.894   2.951
 9863SOL    HW230489   3.442   6.916   2.969
 9864SOL     OW30490   4.020   5.731   3.424
 9864SOL    HW130491   3.991   5.736   3.328
 9864SOL    HW230492   3.987   5.811   3.473
 9865SOL     OW30493   1.098   1.048   4.088
 9865SOL    HW130494   1.184   1.046   4.037
 9865SOL    HW230495   1.116   1.025   4.184
 9866SOL     OW30496   5.116   4.383   4.615
 9866SOL    HW130497   5.130   4.421   4.706
 9866SOL    HW230498   5.190   4.413   4.555
 9867SOL     OW30499   4.637   0.790   1.490
 9867SOL    HW130500   4.551   0.840   1.488
 9867SOL    HW230501   4.695   0.820   1.415
 9868SOL     OW30502   1.639   4.375   6.010
 9868SOL    HW130503   1.703   4.336   5.944
 9868SOL    HW230504   1.546   4.344   5.988
 9869SOL     OW30505   2.077   3.808   2.678
 9869SOL    HW130506   2.027   3.790   2.764
 9869SOL    HW230507   2.119   3.723   2.647
 9870SOL     OW30508   3.672   5.996   2.434
 9870SOL    HW130509   3.718   6.082   2.412
 9870SOL    HW230510   3.587   5.989   2.382
 9871SOL     OW30511   1.004   6.670   6.142
 9871SOL    HW130512   1.033   6.744   6.082
 9871SOL    HW230513   1.040   6.583   6.107
 9872SOL     OW30514   2.752   5.306   3.150
 9872SOL    HW130515   2.777   5.397   3.120
 9872SOL    HW230516   2.761   5.241   3.075
 9873SOL     OW30517   2.085   2.530   1.223
 9873SOL    HW130518   1.989   2.556   1.237
 9873SOL    HW230519   2.122   2.492   1.307
 9874SOL     OW30520   0.685   2.403   4.348
 9874SOL    HW130521   0.692   2.358   4.258
 9874SOL    HW230522   0.776   2.431   4.378
 9875SOL     OW30523   0.368   6.747   2.272
 9875SOL    HW130524   0.277   6.745   2.232
 9875SOL    HW230525   0.378   6.828   2.329
 9876SOL     OW30526   6.953   0.964   1.901
 9876SOL    HW130527   6.900   1.017   1.967
 9876SOL    HW230528   0.024   0.967   1.926
 9877SOL     OW30529   1.545   6.076   2.771
 9877SOL    HW130530   1.478   6.133   2.724
 9877SOL    HW230531   1.508   5.983   2.781
 9878SOL     OW30532   2.268   5.237   4.894
 9878SOL    HW130533   2.338   5.215   4.826
 9878SOL    HW230534   2.303   5.217   4.986
 9879SOL     OW30535   5.754   5.013   4.902
 9879SOL    HW130536   5.749   5.093   4.962
 9879SOL    HW230537   5.683   4.947   4.927
 9880SOL     OW30538   1.793   2.212   5.260
 9880SOL    HW130539   1.710   2.165   5.286
 9880SOL    HW230540   1.868   2.186   5.321
 9881SOL     OW30541   1.955   1.467   5.003
 9881SOL    HW130542   1.940   1.565   5.013
 9881SOL    HW230543   1.928   1.420   5.087
 9882SOL     OW30544   0.963   2.038   3.837
 9882SOL    HW130545   0.903   2.089   3.776
 9882SOL    HW230546   1.027   2.101   3.881
 9883SOL     OW30547   1.376   5.387   0.423
 9883SOL    HW130548   1.327   5.430   0.499
 9883SOL    HW230549   1.330   5.409   0.337
 9884SOL     OW30550   4.317   1.722   3.194
 9884SOL    HW130551   4.376   1.731   3.274
 9884SOL    HW230552   4.226   1.755   3.216
 9885SOL     OW30553   0.275   3.411   5.312
 9885SOL    HW130554   0.286   3.455   5.222
 9885SOL    HW230555   0.336   3.332   5.318
 9886SOL     OW30556   1.008   4.099   1.982
 9886SOL    HW130557   1.043   4.068   2.071
 9886SOL    HW230558   1.077   4.155   1.937
 9887SOL     OW30559   3.024   1.807   6.648
 9887SOL    HW130560   3.071   1.721   6.626
 9887SOL    HW230561   3.071   1.883   6.602
 9888SOL     OW30562   6.748   4.308   1.387
 9888SOL    HW130563   6.810   4.240   1.347
 9888SOL    HW230564   6.657   4.299   1.345
 9889SOL     OW30565   6.329   4.880   1.585
 9889SOL    HW130566   6.289   4.791   1.609
 9889SOL    HW230567   6.369   4.921   1.667
 9890SOL     OW30568   1.515   2.232   0.061
 9890SOL    HW130569   1.603   2.185   0.049
 9890SOL    HW230570   1.530   2.319   0.108
 9891SOL     OW30571   5.477   3.098   1.165
 9891SOL    HW130572   5.463   3.089   1.264
 9891SOL    HW230573   5.564   3.142   1.147
 9892SOL     OW30574   6.827   5.195   0.433
 9892SOL    HW130575   6.847   5.212   0.529
 9892SOL    HW230576   6.755   5.125   0.425
 9893SOL     OW30577   1.299   0.004   0.781
 9893SOL    HW130578   1.290   7.018   0.880
 9893SOL    HW230579   1.213   7.003   0.737
 9894SOL     OW30580   1.876   2.096   1.719
 9894SOL    HW130581   1.904   2.088   1.623
 9894SOL    HW230582   1.957   2.102   1.777
 9895SOL     OW30583   5.828   3.379   5.569
 9895SOL    HW130584   5.897   3.340   5.507
 9895SOL    HW230585   5.792   3.307   5.628
 9896SOL     OW30586   5.879   0.202   5.854
 9896SOL    HW130587   5.891   0.294   5.891
 9896SOL    HW230588   5.957   0.180   5.794
 9897SOL     OW30589   6.150   5.498   3.757
 9897SOL    HW130590   6.179   5.483   3.662
 9897SOL    HW230591   6.199   5.577   3.794
 9898SOL     OW30592   2.244   6.373   5.600
 9898SOL    HW130593   2.295   6.412   5.524
 9898SOL    HW230594   2.191   6.444   5.646
 9899SOL     OW30595   0.268   5.538   7.011
 9899SOL    HW130596   0.253   5.532   0.084
 9899SOL    HW230597   0.306   5.452   6.977
 9900SOL     OW30598   1.928   3.795   3.632
 9900SOL    HW130599   1.967   3.888   3.632
 9900SOL    HW230600   1.941   3.753   3.543
 9901SOL     OW30601   3.346   1.718   6.600
 9901SOL    HW130602   3.288   1.796   6.622
 9901SOL    HW230603   3.402   1.739   6.519
 9902SOL     OW30604   3.326   4.673   0.252
 9902SOL    HW130605   3.267   4.619   0.311
 9902SOL    HW230606   3.368   4.613   0.184
 9903SOL     OW30607   5.129   1.310   1.466
 9903SOL    HW130608   5.212   1.331   1.416
 9903SOL    HW230609   5.077   1.394   1.483
 9904SOL     OW30610   0.660   3.673   0.071
 9904SOL    HW130611   0.626   3.662   0.164
 9904SOL    HW230612   0.760   3.674   0.072
 9905SOL     OW30613   2.488   0.514   6.828
 9905SOL    HW130614   2.424   0.450   6.871
 9905SOL    HW230615   2.478   0.604   6.870
 9906SOL     OW30616   2.987   2.983   1.748
 9906SOL    HW130617   3.010   3.075   1.778
 9906SOL    HW230618   3.064   2.922   1.767
 9907SOL     OW30619   6.602   0.480   0.676
 9907SOL    HW130620   6.502   0.480   0.666
 9907SOL    HW230621   6.634   0.573   0.695
 9908SOL     OW30622   5.781   1.747   4.045
 9908SOL    HW130623   5.805   1.681   4.116
 9908SOL    HW230624   5.731   1.823   4.086
 9909SOL     OW30625   4.015   0.498   3.991
 9909SOL    HW130626   4.037   0.418   4.046
 9909SOL    HW230627   3.951   0.556   4.041
 9910SOL     OW30628   1.424   3.660   2.722
 9910SOL    HW130629   1.400   3.622   2.811
 9910SOL    HW230630   1.518   3.635   2.699
 9911SOL     OW30631   3.286   6.282   2.015
 9911SOL    HW130632   3.215   6.241   2.072
 9911SOL    HW230633   3.260   6.376   1.993
 9912SOL     OW30634   3.964   1.550   2.230
 9912SOL    HW130635   4.049   1.542   2.178
 9912SOL    HW230636   3.983   1.597   2.317
 9913SOL     OW30637   6.503   4.294   0.843
 9913SOL    HW130638   6.459   4.272   0.929
 9913SOL    HW230639   6.453   4.251   0.768
 9914SOL     OW30640   5.597   2.577   4.829
 9914SOL    HW130641   5.534   2.619   4.894
 9914SOL    HW230642   5.553   2.568   4.740
 9915SOL     OW30643   5.554   0.843   3.809
 9915SOL    HW130644   5.565   0.747   3.836
 9915SOL    HW230645   5.624   0.899   3.852
 9916SOL     OW30646   1.803   2.156   3.244
 9916SOL    HW130647   1.751   2.187   3.324
 9916SOL    HW230648   1.867   2.227   3.216
 9917SOL     OW30649   5.755   3.966   0.279
 9917SOL    HW130650   5.827   4.015   0.329
 9917SOL    HW230651   5.744   4.007   0.188
 9918SOL     OW30652   2.851   1.360   3.181
 9918SOL    HW130653   2.787   1.332   3.110
 9918SOL    HW230654   2.818   1.443   3.227
 9919SOL     OW30655   6.270   5.180   1.414
 9919SOL    HW130656   6.189   5.229   1.383
 9919SOL    HW230657   6.242   5.102   1.470
 9920SOL     OW30658   5.175   1.501   2.473
 9920SOL    HW130659   5.122   1.576   2.433
 9920SOL    HW230660   5.175   1.511   2.573
 9921SOL     OW30661   4.129   7.008   5.985
 9921SOL    HW130662   4.109   6.999   5.888
 9921SOL    HW230663   4.199   6.941   6.010
 9922SOL     OW30664   2.029   4.439   0.724
 9922SOL    HW130665   2.116   4.390   0.728
 9922SOL    HW230666   2.045   4.535   0.703
 9923SOL     OW30667   4.817   4.486   0.226
 9923SOL    HW130668   4.764   4.566   0.196
 9923SOL    HW230669   4.882   4.461   0.155
 9924SOL     OW30670   6.515   2.117   4.846
 9924SOL    HW130671   6.444   2.069   4.897
 9924SOL    HW230672   6.547   2.196   4.898
 9925SOL     OW30673   6.444   3.504   4.042
 9925SOL    HW130674   6.534   3.545   4.052
 9925SOL    HW230675   6.450   3.427   3.979
 9926SOL     OW30676   4.032   2.951   0.731
 9926SOL    HW130677   4.036   3.044   0.769
 9926SOL    HW230678   3.939   2.932   0.700
 9927SOL     OW30679   6.590   6.841   1.059
 9927SOL    HW130680   6.672   6.897   1.045
 9927SOL    HW230681   6.612   6.765   1.120
 9928SOL     OW30682   5.451   6.033   1.739
 9928SOL    HW130683   5.449   6.123   1.696
 9928SOL    HW230684   5.528   6.029   1.803
 9929SOL     OW30685   3.076   5.149   4.947
 9929SOL    HW130686   2.992   5.170   4.998
 9929SOL    HW230687   3.085   5.051   4.935
 9930SOL     OW30688   6.723   0.064   4.614
 9930SOL    HW130689   6.676   0.026   4.535
 9930SOL    HW230690   6.666   0.052   4.696
 9931SOL     OW30691   0.865   4.569   4.335
 9931SOL    HW130692   0.863   4.591   4.433
 9931SOL    HW230693   0.944   4.612   4.293
 9932SOL     OW30694   2.215   5.194   6.947
 9932SOL    HW130695   2.143   5.126   6.960
 9932SOL    HW230696   2.200   5.241   6.860
 9933SOL     OW30697   1.265   5.402   4.025
 9933SOL    HW130698   1.269   5.332   4.096
 9933SOL    HW230699   1.177   5.395   3.977
 9934SOL     OW30700   5.035   1.390   5.197
 9934SOL    HW130701   5.099   1.314   5.210
 9934SOL    HW230702   5.082   1.476   5.212
 9935SOL     OW30703   3.011   6.704   0.217
 9935SOL    HW130704   2.918   6.741   0.217
 9935SOL    HW230705   3.012   6.620   0.162
 9936SOL     OW30706   6.715   5.161   6.420
 9936SOL    HW130707   6.636   5.153   6.360
 9936SOL    HW230708   6.754   5.254   6.413
 9937SOL     OW30709   6.585   1.626   0.245
 9937SOL    HW130710   6.641   1.553   0.206
 9937SOL    HW230711   6.524   1.588   0.314
 9938SOL     OW30712   0.052   5.382   2.434
 9938SOL    HW130713   0.083   5.288   2.451
 9938SOL    HW230714   0.063   5.436   2.518
 9939SOL     OW30715   4.291   2.344   1.001
 9939SOL    HW130716   4.366   2.293   0.958
 9939SOL    HW230717   4.216   2.355   0.936
 9940SOL     OW30718   0.692   0.803   1.323
 9940SOL    HW130719   0.665   0.884   1.273
 9940SOL    HW230720   0.792   0.796   1.324
 9941SOL     OW30721   2.983   4.065   5.515
 9941SOL    HW130722   3.074   4.098   5.540
 9941SOL    HW230723   2.952   4.113   5.433
 9942SOL     OW30724   2.462   5.229   2.359
 9942SOL    HW130725   2.507   5.229   2.270
 9942SOL    HW230726   2.427   5.320   2.379
 9943SOL     OW30727   7.014   5.455   5.420
 9943SOL    HW130728   6.926   5.433   5.378
 9943SOL    HW230729   7.001   5.473   5.518
 9944SOL     OW30730   1.922   4.477   6.452
 9944SOL    HW130731   1.865   4.559   6.454
 9944SOL    HW230732   1.863   4.396   6.448
 9945SOL     OW30733   6.432   5.557   6.473
 9945SOL    HW130734   6.370   5.612   6.530
 9945SOL    HW230735   6.382   5.480   6.435
 9946SOL     OW30736   4.672   0.944   4.008
 9946SOL    HW130737   4.663   1.043   3.994
 9946SOL    HW230738   4.691   0.926   4.105
 9947SOL     OW30739   1.474   3.226   5.105
 9947SOL    HW130740   1.437   3.222   5.012
 9947SOL    HW230741   1.458   3.139   5.151
 9948SOL     OW30742   5.443   4.734   4.432
 9948SOL    HW130743   5.486   4.715   4.344
 9948SOL    HW230744   5.513   4.759   4.499
 9949SOL     OW30745   6.065   4.985   3.956
 9949SOL    HW130746   6.137   4.946   3.899
 9949SOL    HW230747   6.074   5.085   3.958
 9950SOL     OW30748   5.779   6.354   5.040
 9950SOL    HW130749   5.847   6.416   5.001
 9950SOL    HW230750   5.699   6.350   4.981
 9951SOL     OW30751   6.069   1.325   4.865
 9951SOL    HW130752   6.093   1.391   4.936
 9951SOL    HW230753   5.990   1.272   4.894
 9952SOL     OW30754   1.052   3.116   1.305
 9952SOL    HW130755   1.058   3.020   1.278
 9952SOL    HW230756   0.968   3.131   1.357
 9953SOL     OW30757   6.354   2.615   4.072
 9953SOL    HW130758   6.429   2.612   4.138
 9953SOL    HW230759   6.296   2.694   4.090
 9954SOL     OW30760   6.048   0.400   5.988
 9954SOL    HW130761   6.122   0.438   5.933
 9954SOL    HW230762   6.085   0.333   6.053
 9955SOL     OW30763   6.193   3.648   5.665
 9955SOL    HW130764   6.182   3.686   5.573
 9955SOL    HW230765   6.241   3.714   5.723
 9956SOL     OW30766   1.617   0.041   1.570
 9956SOL    HW130767   1.694   7.017   1.609
 9956SOL    HW230768   1.554   7.002   1.526
 9957SOL     OW30769   5.463   5.660   2.959
 9957SOL    HW130770   5.555   5.685   2.988
 9957SOL    HW230771   5.431   5.581   3.012
 9958SOL     OW30772   3.344   5.124   1.201
 9958SOL    HW130773   3.314   5.078   1.118
 9958SOL    HW230774   3.305   5.216   1.204
 9959SOL     OW30775   4.219   3.608   5.453
 9959SOL    HW130776   4.291   3.664   5.494
 9959SOL    HW230777   4.252   3.569   5.367
 9960SOL     OW30778   6.684   6.655   2.289
 9960SOL    HW130779   6.694   6.693   2.381
 9960SOL    HW230780   6.651   6.561   2.295
 9961SOL     OW30781   1.491   5.324   3.851
 9961SOL    HW130782   1.530   5.409   3.815
 9961SOL    HW230783   1.455   5.340   3.943
 9962SOL     OW30784   6.796   0.086   2.821
 9962SOL    HW130785   6.735   0.138   2.881
 9962SOL    HW230786   6.835   0.009   2.872
 9963SOL     OW30787   3.196   2.531   0.053
 9963SOL    HW130788   3.221   2.533   6.981
 9963SOL    HW230789   3.278   2.514   0.108
 9964SOL     OW30790   4.768   5.116   5.136
 9964SOL    HW130791   4.781   5.030   5.185
 9964SOL    HW230792   4.765   5.099   5.037
 9965SOL     OW30793   3.756   0.012   6.859
 9965SOL    HW130794   3.777   6.944   6.831
 9965SOL    HW230795   3.797   0.077   6.795
 9966SOL     OW30796   1.534   5.029   1.672
 9966SOL    HW130797   1.629   5.023   1.702
 9966SOL    HW230798   1.529   5.079   1.585
 9967SOL     OW30799   6.999   5.971   2.150
 9967SOL    HW130800   0.061   6.019   2.150
 9967SOL    HW230801   6.998   5.902   2.223
 9968SOL     OW30802   3.355   3.790   1.323
 9968SOL    HW130803   3.412   3.869   1.302
 9968SOL    HW230804   3.334   3.741   1.238
 9969SOL     OW30805   1.535   3.048   2.000
 9969SOL    HW130806   1.607   2.999   1.953
 9969SOL    HW230807   1.455   3.057   1.939
 9970SOL     OW30808   4.856   4.231   2.981
 9970SOL    HW130809   4.945   4.273   2.997
 9970SOL    HW230810   4.857   4.138   3.016
 9971SOL     OW30811   1.791   5.062   1.228
 9971SOL    HW130812   1.781   4.966   1.253
 9971SOL    HW230813   1.740   5.080   1.144
 9972SOL     OW30814   5.666   5.199   1.084
 9972SOL    HW130815   5.762   5.193   1.057
 9972SOL    HW230816   5.659   5.219   1.181
 9973SOL     OW30817   6.144   1.585   3.602
 9973SOL    HW130818   6.153   1.527   3.682
 9973SOL    HW230819   6.180   1.538   3.521
 9974SOL     OW30820   1.274   2.387   2.661
 9974SOL    HW130821   1.349   2.448   2.685
 9974SOL    HW230822   1.243   2.406   2.568
 9975SOL     OW30823   5.946   3.599   0.614
 9975SOL    HW130824   5.962   3.696   0.634
 9975SOL    HW230825   6.030   3.559   0.578
 9976SOL     OW30826   1.146   6.384   5.474
 9976SOL    HW130827   1.205   6.350   5.401
 9976SOL    HW230828   1.155   6.326   5.555
 9977SOL     OW30829   6.771   5.789   5.580
 9977SOL    HW130830   6.814   5.838   5.504
 9977SOL    HW230831   6.678   5.823   5.594
 9978SOL     OW30832   0.988   2.689   4.695
 9978SOL    HW130833   0.963   2.756   4.765
 9978SOL    HW230834   1.019   2.736   4.613
 9979SOL     OW30835   6.595   4.987   5.744
 9979SOL    HW130836   6.638   4.906   5.705
 9979SOL    HW230837   6.501   4.994   5.712
 9980SOL     OW30838   2.081   0.471   6.848
 9980SOL    HW130839   2.159   0.412   6.824
 9980SOL    HW230840   2.030   0.494   6.765
 9981SOL     OW30841   2.462   1.573   2.990
 9981SOL    HW130842   2.499   1.659   3.025
 9981SOL    HW230843   2.377   1.551   3.037
 9982SOL     OW30844   6.412   5.978   4.125
 9982SOL    HW130845   6.486   6.031   4.084
 9982SOL    HW230846   6.434   5.881   4.122
 9983SOL     OW30847   0.056   2.371   2.830
 9983SOL    HW130848   0.131   2.331   2.777
 9983SOL    HW230849   7.022   2.422   2.768
 9984SOL     OW30850   2.706   1.188   6.974
 9984SOL    HW130851   2.626   1.220   7.024
 9984SOL    HW230852   2.758   1.266   6.940
 9985SOL     OW30853   1.486   0.777   0.678
 9985SOL    HW130854   1.563   0.772   0.741
 9985SOL    HW230855   1.510   0.836   0.601
 9986SOL     OW30856   6.139   4.252   5.746
 9986SOL    HW130857   6.086   4.244   5.661
 9986SOL    HW230858   6.117   4.339   5.790
 9987SOL     OW30859   6.908   3.100   4.450
 9987SOL    HW130860   6.859   3.185   4.470
 9987SOL    HW230861   7.005   3.119   4.438
 9988SOL     OW30862   0.412   5.899   4.420
 9988SOL    HW130863   0.383   5.958   4.345
 9988SOL    HW230864   0.458   5.954   4.489
 9989SOL     OW30865   6.446   3.280   3.880
 9989SOL    HW130866   6.364   3.225   3.865
 9989SOL    HW230867   6.512   3.261   3.807
 9990SOL     OW30868   1.988   4.929   3.401
 9990SOL    HW130869   2.048   4.997   3.359
 9990SOL    HW230870   2.030   4.838   3.394
 9991SOL     OW30871   2.817   2.032   4.096
 9991SOL    HW130872   2.767   2.067   4.175
 9991SOL    HW230873   2.817   1.932   4.097
 9992SOL     OW30874   5.637   4.845   0.109
 9992SOL    HW130875   5.628   4.763   0.167
 9992SOL    HW230876   5.593   4.922   0.154
 9993SOL     OW30877   3.019   0.932   0.779
 9993SOL    HW130878   2.937   0.888   0.815
 9993SOL    HW230879   3.045   1.007   0.840
 9994SOL     OW30880   6.226   4.573   3.054
 9994SOL    HW130881   6.241   4.486   3.102
 9994SOL    HW230882   6.251   4.649   3.115
 9995SOL     OW30883   4.773   1.694   3.126
 9995SOL    HW130884   4.704   1.706   3.197
 9995SOL    HW230885   4.820   1.781   3.110
 9996SOL     OW30886   3.209   3.822   0.074
 9996SOL    HW130887   3.233   3.769   0.155
 9996SOL    HW230888   3.287   3.880   0.048
 9997SOL     OW30889   3.030   1.690   5.845
 9997SOL    HW130890   3.013   1.772   5.789
 9997SOL    HW230891   3.051   1.613   5.785
 9998SOL     OW30892   6.121   4.883   5.827
 9998SOL    HW130893   6.093   4.915   5.918
 9998SOL    HW230894   6.052   4.908   5.760
 9999SOL     OW30895   6.394   3.021   6.001
 9999SOL    HW130896   6.380   3.097   6.066
 9999SOL    HW230897   6.333   3.033   5.923
10000SOL     OW30898   6.624   4.234   6.759
10000SOL    HW130899   6.682   4.211   6.681
10000SOL    HW230900   6.667   4.201   6.843
10001SOL     OW30901   4.503   0.155   1.953
10001SOL    HW130902   4.541   0.066   1.975
10001SOL    HW230903   4.539   0.224   2.016
10002SOL     OW30904   1.470   6.895   1.437
10002SOL    HW130905   1.378   6.870   1.406
10002SOL    HW230906   1.534   6.822   1.413
10003SOL     OW30907   3.460   2.022   3.796
10003SOL    HW130908   3.388   2.038   3.729
10003SOL    HW230909   3.545   2.064   3.765
10004SOL     OW30910   0.050   2.775   4.460
10004SOL    HW130911   0.042   2.676   4.474
10004SOL    HW230912   6.992   2.808   4.415
10005SOL     OW30913   5.672   0.585   3.839
10005SOL    HW130914   5.758   0.545   3.808
10005SOL    HW230915   5.597   0.523   3.816
10006SOL     OW30916   4.975   6.305   4.143
10006SOL    HW130917   4.888   6.281   4.186
10006SOL    HW230918   5.043   6.234   4.163
10007SOL     OW30919   0.478   3.905   4.962
10007SOL    HW130920   0.438   3.900   5.053
10007SOL    HW230921   0.452   3.824   4.909
10008SOL     OW30922   4.127   1.152   5.118
10008SOL    HW130923   4.174   1.143   5.205
10008SOL    HW230924   4.169   1.092   5.050
10009SOL     OW30925   1.704   3.220   2.106
10009SOL    HW130926   1.733   3.291   2.042
10009SOL    HW230927   1.637   3.160   2.062
10010SOL     OW30928   2.330   1.083   6.256
10010SOL    HW130929   2.299   1.103   6.349
10010SOL    HW230930   2.326   0.985   6.240
10011SOL     OW30931   6.660   0.677   5.878
10011SOL    HW130932   6.732   0.739   5.911
10011SOL    HW230933   6.634   0.703   5.785
10012SOL     OW30934   6.150   0.578   2.691
10012SOL    HW130935   6.105   0.595   2.603
10012SOL    HW230936   6.185   0.485   2.693
10013SOL     OW30937   0.303   1.128   3.194
10013SOL    HW130938   0.345   1.048   3.150
10013SOL    HW230939   0.310   1.207   3.133
10014SOL     OW30940   0.458   4.213   6.670
10014SOL    HW130941   0.499   4.136   6.719
10014SOL    HW230942   0.498   4.219   6.579
10015SOL     OW30943   2.367   4.785   0.805
10015SOL    HW130944   2.452   4.833   0.781
10015SOL    HW230945   2.311   4.775   0.723
10016SOL     OW30946   1.059   1.508   6.290
10016SOL    HW130947   1.100   1.418   6.277
10016SOL    HW230948   1.128   1.579   6.276
10017SOL     OW30949   3.208   2.054   3.593
10017SOL    HW130950   3.129   2.100   3.553
10017SOL    HW230951   3.180   1.966   3.630
10018SOL     OW30952   5.083   0.099   6.731
10018SOL    HW130953   5.016   0.139   6.793
10018SOL    HW230954   5.122   0.172   6.674
10019SOL     OW30955   1.370   1.638   3.133
10019SOL    HW130956   1.468   1.657   3.145
10019SOL    HW230957   1.348   1.549   3.172
10020SOL     OW30958   1.006   2.459   1.588
10020SOL    HW130959   1.053   2.504   1.513
10020SOL    HW230960   1.067   2.453   1.667
10021SOL     OW30961   6.887   3.446   1.190
10021SOL    HW130962   6.810   3.411   1.244
10021SOL    HW230963   6.924   3.372   1.134
10022SOL     OW30964   2.649   1.657   5.790
10022SOL    HW130965   2.644   1.737   5.851
10022SOL    HW230966   2.557   1.632   5.760
10023SOL     OW30967   6.636   4.669   0.634
10023SOL    HW130968   6.697   4.615   0.576
10023SOL    HW230969   6.557   4.614   0.661
10024SOL     OW30970   1.549   6.247   3.605
10024SOL    HW130971   1.563   6.188   3.685
10024SOL    HW230972   1.615   6.222   3.534
10025SOL     OW30973   1.819   0.664   1.440
10025SOL    HW130974   1.893   0.640   1.377
10025SOL    HW230975   1.848   0.739   1.499
10026SOL     OW30976   5.577   0.386   4.024
10026SOL    HW130977   5.624   0.468   4.055
10026SOL    HW230978   5.484   0.409   3.996
10027SOL     OW30979   5.360   2.922   4.399
10027SOL    HW130980   5.398   3.007   4.363
10027SOL    HW230981   5.410   2.845   4.360
10028SOL     OW30982   1.129   0.606   1.016
10028SOL    HW130983   1.051   0.669   1.018
10028SOL    HW230984   1.191   0.632   0.941
10029SOL     OW30985   5.605   1.868   3.412
10029SOL    HW130986   5.599   1.963   3.442
10029SOL    HW230987   5.687   1.856   3.356
10030SOL     OW30988   2.178   0.629   3.251
10030SOL    HW130989   2.271   0.632   3.290
10030SOL    HW230990   2.143   0.535   3.259
10031SOL     OW30991   5.523   4.731   3.752
10031SOL    HW130992   5.594   4.662   3.750
10031SOL    HW230993   5.435   4.690   3.727
10032SOL     OW30994   2.782   1.557   5.102
10032SOL    HW130995   2.751   1.652   5.100
10032SOL    HW230996   2.790   1.526   5.197
10033SOL     OW30997   6.424   3.160   4.403
10033SOL    HW130998   6.355   3.138   4.333
10033SOL    HW230999   6.451   3.256   4.394
10034SOL     OW31000   3.443   0.604   4.260
10034SOL    HW131001   3.533   0.592   4.302
10034SOL    HW231002   3.372   0.569   4.322
10035SOL     OW31003   6.322   5.222   1.822
10035SOL    HW131004   6.287   5.314   1.801
10035SOL    HW231005   6.422   5.226   1.829
10036SOL     OW31006   6.219   2.278   0.549
10036SOL    HW131007   6.159   2.205   0.515
10036SOL    HW231008   6.271   2.317   0.473
10037SOL     OW31009   6.499   1.430   6.272
10037SOL    HW131010   6.417   1.372   6.270
10037SOL    HW231011   6.475   1.523   6.247
10038SOL     OW31012   6.440   0.061   0.762
10038SOL    HW131013   6.358   0.095   0.809
10038SOL    HW231014   6.417   7.006   0.709
10039SOL     OW31015   3.055   6.803   3.606
10039SOL    HW131016   3.018   6.827   3.516
10039SOL    HW231017   2.997   6.734   3.648
10040SOL     OW31018   6.026   4.067   0.367
10040SOL    HW131019   6.046   4.113   0.453
10040SOL    HW231020   6.111   4.036   0.325
10041SOL     OW31021   3.304   6.631   0.113
10041SOL    HW131022   3.284   6.728   0.095
10041SOL    HW231023   3.397   6.611   0.082
10042SOL     OW31024   6.931   2.253   3.274
10042SOL    HW131025   6.883   2.228   3.190
10042SOL    HW231026   6.879   2.220   3.353
10043SOL     OW31027   6.658   2.036   5.896
10043SOL    HW131028   6.700   2.123   5.868
10043SOL    HW231029   6.568   2.027   5.853
10044SOL     OW31030   2.698   3.104   5.984
10044SOL    HW131031   2.664   3.194   5.956
10044SOL    HW231032   2.641   3.070   6.059
10045SOL     OW31033   4.449   0.827   0.883
10045SOL    HW131034   4.491   0.857   0.798
10045SOL    HW231035   4.353   0.806   0.867
10046SOL     OW31036   1.281   4.630   1.400
10046SOL    HW131037   1.251   4.554   1.343
10046SOL    HW231038   1.204   4.663   1.455
10047SOL     OW31039   0.934   3.377   6.023
10047SOL    HW131040   0.986   3.452   5.981
10047SOL    HW231041   0.990   3.295   6.025
10048SOL     OW31042   6.843   6.529   2.753
10048SOL    HW131043   6.852   6.544   2.852
10048SOL    HW231044   6.747   6.514   2.730
10049SOL     OW31045   0.193   2.833   5.777
10049SOL    HW131046   0.177   2.917   5.830
10049SOL    HW231047   0.146   2.840   5.689
10050SOL     OW31048   4.997   3.444   5.160
10050SOL    HW131049   4.913   3.491   5.132
10050SOL    HW231050   5.032   3.390   5.083
10051SOL     OW31051   1.019   4.343   4.672
10051SOL    HW131052   1.066   4.431   4.682
10051SOL    HW231053   1.086   4.269   4.675
10052SOL     OW31054   0.933   0.939   3.299
10052SOL    HW131055   1.014   0.946   3.356
10052SOL    HW231056   0.947   0.868   3.230
10053SOL     OW31057   4.882   5.299   4.594
10053SOL    HW131058   4.822   5.293   4.514
10053SOL    HW231059   4.842   5.360   4.662
10054SOL     OW31060   5.441   3.858   4.783
10054SOL    HW131061   5.345   3.852   4.754
10054SOL    HW231062   5.458   3.791   4.855
10055SOL     OW31063   6.661   2.355   6.682
10055SOL    HW131064   6.610   2.330   6.600
10055SOL    HW231065   6.743   2.406   6.656
10056SOL     OW31066   5.233   3.514   3.279
10056SOL    HW131067   5.200   3.473   3.193
10056SOL    HW231068   5.207   3.455   3.356
10057SOL     OW31069   5.202   4.582   6.178
10057SOL    HW131070   5.182   4.641   6.257
10057SOL    HW231071   5.131   4.593   6.109
10058SOL     OW31072   6.179   2.696   5.033
10058SOL    HW131073   6.208   2.774   4.978
10058SOL    HW231074   6.147   2.728   5.123
10059SOL     OW31075   6.814   1.471   0.133
10059SOL    HW131076   6.830   1.452   0.036
10059SOL    HW231077   6.888   1.528   0.168
10060SOL     OW31078   2.445   2.022   2.630
10060SOL    HW131079   2.470   2.079   2.708
10060SOL    HW231080   2.346   2.018   2.621
10061SOL     OW31081   3.651   0.911   3.575
10061SOL    HW131082   3.689   0.821   3.550
10061SOL    HW231083   3.684   0.937   3.665
10062SOL     OW31084   0.837   0.395   3.907
10062SOL    HW131085   0.845   0.491   3.931
10062SOL    HW231086   0.742   0.366   3.919
10063SOL     OW31087   1.631   2.777   4.996
10063SOL    HW131088   1.624   2.874   5.018
10063SOL    HW231089   1.693   2.765   4.918
10064SOL     OW31090   3.023   6.393   0.710
10064SOL    HW131091   3.068   6.342   0.637
10064SOL    HW231092   2.924   6.384   0.701
10065SOL     OW31093   0.840   0.841   2.017
10065SOL    HW131094   0.837   0.890   2.104
10065SOL    HW231095   0.762   0.778   2.011
10066SOL     OW31096   6.856   3.519   4.784
10066SOL    HW131097   6.847   3.428   4.824
10066SOL    HW231098   6.767   3.549   4.748
10067SOL     OW31099   0.255   2.226   5.578
10067SOL    HW131100   0.337   2.265   5.620
10067SOL    HW231101   0.182   2.295   5.576
10068SOL     OW31102   2.341   2.777   2.894
10068SOL    HW131103   2.315   2.697   2.840
10068SOL    HW231104   2.440   2.788   2.893
10069SOL     OW31105   3.576   5.284   1.885
10069SOL    HW131106   3.631   5.342   1.825
10069SOL    HW231107   3.486   5.268   1.844
10070SOL     OW31108   3.206   5.858   5.029
10070SOL    HW131109   3.128   5.853   5.092
10070SOL    HW231110   3.232   5.766   5.001
10071SOL     OW31111   6.732   6.963   3.151
10071SOL    HW131112   6.652   6.929   3.201
10071SOL    HW231113   6.807   6.980   3.214
10072SOL     OW31114   6.666   1.706   2.402
10072SOL    HW131115   6.591   1.720   2.337
10072SOL    HW231116   6.747   1.754   2.369
10073SOL     OW31117   6.242   3.280   4.619
10073SOL    HW131118   6.228   3.195   4.570
10073SOL    HW231119   6.263   3.261   4.715
10074SOL     OW31120   1.601   4.660   0.668
10074SOL    HW131121   1.655   4.605   0.604
10074SOL    HW231122   1.534   4.602   0.714
10075SOL     OW31123   1.680   2.859   2.187
10075SOL    HW131124   1.737   2.925   2.235
10075SOL    HW231125   1.636   2.903   2.108
10076SOL     OW31126   5.372   5.131   3.134
10076SOL    HW131127   5.354   5.223   3.168
10076SOL    HW231128   5.289   5.094   3.093
10077SOL     OW31129   6.640   3.391   6.835
10077SOL    HW131130   6.563   3.362   6.891
10077SOL    HW231131   6.627   3.486   6.806
10078SOL     OW31132   0.141   6.242   5.006
10078SOL    HW131133   0.045   6.253   5.029
10078SOL    HW231134   0.153   6.157   4.955
10079SOL     OW31135   4.680   2.681   3.073
10079SOL    HW131136   4.706   2.729   2.989
10079SOL    HW231137   4.618   2.605   3.051
10080SOL     OW31138   5.662   0.399   6.112
10080SOL    HW131139   5.645   0.434   6.204
10080SOL    HW231140   5.732   0.328   6.116
10081SOL     OW31141   1.472   2.406   0.593
10081SOL    HW131142   1.535   2.468   0.639
10081SOL    HW231143   1.524   2.334   0.546
10082SOL     OW31144   1.312   4.557   2.392
10082SOL    HW131145   1.359   4.572   2.479
10082SOL    HW231146   1.245   4.484   2.402
10083SOL     OW31147   4.191   5.376   3.452
10083SOL    HW131148   4.180   5.459   3.506
10083SOL    HW231149   4.289   5.357   3.440
10084SOL     OW31150   1.167   0.569   5.014
10084SOL    HW131151   1.159   0.494   5.079
10084SOL    HW231152   1.168   0.534   4.921
10085SOL     OW31153   4.353   6.818   0.308
10085SOL    HW131154   4.311   6.776   0.227
10085SOL    HW231155   4.293   6.807   0.387
10086SOL     OW31156   6.878   6.093   1.617
10086SOL    HW131157   6.870   6.091   1.517
10086SOL    HW231158   6.790   6.121   1.657
10087SOL     OW31159   1.433   6.689   4.697
10087SOL    HW131160   1.531   6.691   4.717
10087SOL    HW231161   1.402   6.782   4.677
10088SOL     OW31162   0.122   2.917   0.255
10088SOL    HW131163   0.126   2.884   0.160
10088SOL    HW231164   0.190   2.988   0.268
10089SOL     OW31165   3.943   1.820   2.419
10089SOL    HW131166   4.005   1.857   2.349
10089SOL    HW231167   3.947   1.878   2.500
10090SOL     OW31168   1.552   6.181   1.164
10090SOL    HW131169   1.558   6.108   1.096
10090SOL    HW231170   1.620   6.165   1.236
10091SOL     OW31171   6.514   4.468   6.181
10091SOL    HW131172   6.470   4.387   6.143
10091SOL    HW231173   6.480   4.483   6.274
10092SOL     OW31174   0.377   2.496   5.334
10092SOL    HW131175   0.426   2.531   5.254
10092SOL    HW231176   0.281   2.482   5.310
10093SOL     OW31177   5.473   4.583   5.843
10093SOL    HW131178   5.517   4.561   5.930
10093SOL    HW231179   5.539   4.569   5.768
10094SOL     OW31180   3.221   1.040   1.098
10094SOL    HW131181   3.262   1.077   1.015
10094SOL    HW231182   3.168   0.958   1.075
10095SOL     OW31183   4.782   2.553   5.142
10095SOL    HW131184   4.804   2.468   5.095
10095SOL    HW231185   4.731   2.532   5.226
10096SOL     OW31186   4.914   1.183   3.173
10096SOL    HW131187   4.942   1.278   3.182
10096SOL    HW231188   4.994   1.126   3.156
10097SOL     OW31189   1.280   1.521   6.981
10097SOL    HW131190   1.226   1.440   7.000
10097SOL    HW231191   1.338   1.505   6.901
10098SOL     OW31192   3.800   5.221   3.775
10098SOL    HW131193   3.831   5.214   3.870
10098SOL    HW231194   3.788   5.318   3.752
10099SOL     OW31195   6.793   4.690   1.709
10099SOL    HW131196   6.736   4.740   1.773
10099SOL    HW231197   6.878   4.663   1.754
10100SOL     OW31198   4.747   5.581   4.640
10100SOL    HW131199   4.836   5.605   4.680
10100SOL    HW231200   4.747   5.607   4.543
10101SOL     OW31201   1.132   2.277   1.327
10101SOL    HW131202   1.170   2.215   1.396
10101SOL    HW231203   1.204   2.339   1.295
10102SOL     OW31204   6.518   6.140   1.405
10102SOL    HW131205   6.422   6.116   1.415
10102SOL    HW231206   6.533   6.232   1.442
10103SOL     OW31207   6.829   6.521   6.085
10103SOL    HW131208   6.810   6.599   6.145
10103SOL    HW231209   6.744   6.473   6.065
10104SOL     OW31210   2.156   0.670   4.953
10104SOL    HW131211   2.248   0.673   4.992
10104SOL    HW231212   2.092   0.712   5.018
10105SOL     OW31213   2.387   0.595   6.098
10105SOL    HW131214   2.433   0.607   6.009
10105SOL    HW231215   2.336   0.678   6.120
10106SOL     OW31216   4.571   5.985   1.419
10106SOL    HW131217   4.497   5.985   1.351
10106SOL    HW231218   4.548   6.049   1.493
10107SOL     OW31219   4.857   4.040   6.533
10107SOL    HW131220   4.936   3.998   6.578
10107SOL    HW231221   4.864   4.139   6.538
10108SOL     OW31222   1.649   2.711   0.346
10108SOL    HW131223   1.673   2.616   0.328
10108SOL    HW231224   1.557   2.716   0.384
10109SOL     OW31225   1.451   1.946   0.797
10109SOL    HW131226   1.418   1.996   0.876
10109SOL    HW231227   1.390   1.962   0.719
10110SOL     OW31228   4.956   6.313   2.852
10110SOL    HW131229   4.959   6.373   2.932
10110SOL    HW231230   4.968   6.368   2.769
10111SOL     OW31231   1.303   1.248   2.049
10111SOL    HW131232   1.261   1.288   1.967
10111SOL    HW231233   1.354   1.165   2.023
10112SOL     OW31234   6.491   2.188   3.596
10112SOL    HW131235   6.418   2.256   3.593
10112SOL    HW231236   6.452   2.098   3.614
10113SOL     OW31237   5.709   1.060   6.655
10113SOL    HW131238   5.681   1.037   6.748
10113SOL    HW231239   5.658   1.003   6.590
10114SOL     OW31240   4.635   1.865   2.391
10114SOL    HW131241   4.572   1.939   2.415
10114SOL    HW231242   4.688   1.839   2.472
10115SOL     OW31243   3.419   2.580   5.635
10115SOL    HW131244   3.432   2.517   5.559
10115SOL    HW231245   3.323   2.608   5.639
10116SOL     OW31246   6.227   0.204   4.937
10116SOL    HW131247   6.271   0.138   4.875
10116SOL    HW231248   6.130   0.214   4.911
10117SOL     OW31249   6.402   4.849   3.960
10117SOL    HW131250   6.433   4.757   3.983
10117SOL    HW231251   6.343   4.845   3.879
10118SOL     OW31252   3.737   5.260   4.202
10118SOL    HW131253   3.688   5.333   4.252
10118SOL    HW231254   3.700   5.171   4.229
10119SOL     OW31255   0.238   5.298   5.031
10119SOL    HW131256   0.207   5.204   5.019
10119SOL    HW231257   0.205   5.332   5.120
10120SOL     OW31258   2.217   2.776   2.322
10120SOL    HW131259   2.303   2.736   2.290
10120SOL    HW231260   2.195   2.737   2.412
10121SOL     OW31261   6.034   4.035   1.000
10121SOL    HW131262   6.109   3.985   0.957
10121SOL    HW231263   5.947   3.990   0.979
10122SOL     OW31264   1.517   0.624   3.865
10122SOL    HW131265   1.489   0.586   3.777
10122SOL    HW231266   1.568   0.556   3.916
10123SOL     OW31267   5.721   5.659   0.369
10123SOL    HW131268   5.820   5.649   0.357
10123SOL    HW231269   5.678   5.569   0.368
10124SOL     OW31270   1.282   4.589   2.898
10124SOL    HW131271   1.323   4.613   2.986
10124SOL    HW231272   1.184   4.575   2.910
10125SOL     OW31273   1.139   1.734   6.069
10125SOL    HW131274   1.178   1.826   6.061
10125SOL    HW231275   1.040   1.739   6.058
10126SOL     OW31276   6.418   6.863   6.399
10126SOL    HW131277   6.472   6.787   6.363
10126SOL    HW231278   6.321   6.838   6.401
10127SOL     OW31279   2.079   5.777   5.999
10127SOL    HW131280   2.165   5.725   6.005
10127SOL    HW231281   2.100   5.874   6.007
10128SOL     OW31282   2.743   1.013   6.792
10128SOL    HW131283   2.709   1.071   6.866
10128SOL    HW231284   2.705   1.045   6.705
10129SOL     OW31285   6.169   1.476   3.845
10129SOL    HW131286   6.088   1.533   3.836
10129SOL    HW231287   6.164   1.425   3.931
10130SOL     OW31288   1.610   1.631   2.732
10130SOL    HW131289   1.642   1.704   2.792
10130SOL    HW231290   1.533   1.663   2.678
10131SOL     OW31291   1.981   0.457   4.601
10131SOL    HW131292   1.921   0.447   4.521
10131SOL    HW231293   1.932   0.503   4.674
10132SOL     OW31294   6.777   0.716   1.497
10132SOL    HW131295   6.767   0.635   1.554
10132SOL    HW231296   6.766   0.798   1.554
10133SOL     OW31297   5.290   0.057   0.521
10133SOL    HW131298   5.366   0.121   0.538
10133SOL    HW231299   5.205   0.108   0.510
10134SOL     OW31300   6.309   0.781   2.094
10134SOL    HW131301   6.321   0.808   1.999
10134SOL    HW231302   6.327   0.683   2.104
10135SOL     OW31303   6.341   0.111   2.621
10135SOL    HW131304   6.333   0.013   2.606
10135SOL    HW231305   6.414   0.148   2.564
10136SOL     OW31306   5.399   1.897   2.983
10136SOL    HW131307   5.473   1.839   3.018
10136SOL    HW231308   5.394   1.887   2.884
10137SOL     OW31309   6.457   5.500   5.616
10137SOL    HW131310   6.503   5.576   5.662
10137SOL    HW231311   6.491   5.414   5.654
10138SOL     OW31312   6.785   1.672   0.444
10138SOL    HW131313   6.726   1.676   0.364
10138SOL    HW231314   6.752   1.736   0.513
10139SOL     OW31315   3.469   3.078   6.187
10139SOL    HW131316   3.420   3.015   6.128
10139SOL    HW231317   3.404   3.136   6.236
10140SOL     OW31318   0.107   5.817   5.883
10140SOL    HW131319   0.166   5.879   5.936
10140SOL    HW231320   0.063   5.752   5.946
10141SOL     OW31321   2.184   1.907   4.659
10141SOL    HW131322   2.212   1.962   4.580
10141SOL    HW231323   2.264   1.859   4.695
10142SOL     OW31324   5.348   6.186   4.651
10142SOL    HW131325   5.299   6.153   4.733
10142SOL    HW231326   5.291   6.253   4.604
10143SOL     OW31327   5.242   3.600   6.614
10143SOL    HW131328   5.271   3.691   6.585
10143SOL    HW231329   5.293   3.531   6.563
10144SOL     OW31330   3.735   6.429   5.925
10144SOL    HW131331   3.733   6.334   5.895
10144SOL    HW231332   3.645   6.456   5.958
10145SOL     OW31333   5.863   5.806   6.888
10145SOL    HW131334   5.920   5.737   6.934
10145SOL    HW231335   5.844   5.881   6.952
10146SOL     OW31336   0.309   2.294   4.344
10146SOL    HW131337   0.317   2.219   4.410
10146SOL    HW231338   0.392   2.349   4.346
10147SOL     OW31339   5.128   5.329   5.699
10147SOL    HW131340   5.107   5.252   5.640
10147SOL    HW231341   5.170   5.296   5.784
10148SOL     OW31342   1.221   4.759   0.046
10148SOL    HW131343   1.183   4.833   7.015
10148SOL    HW231344   1.200   4.775   0.142
10149SOL     OW31345   4.055   4.449   0.004
10149SOL    HW131346   4.136   4.402   0.038
10149SOL    HW231347   4.079   4.542   7.002
10150SOL     OW31348   4.084   4.700   6.947
10150SOL    HW131349   4.036   4.757   7.013
10150SOL    HW231350   4.182   4.705   6.963
10151SOL     OW31351   5.605   6.876   5.352
10151SOL    HW131352   5.559   6.831   5.428
10151SOL    HW231353   5.541   6.891   5.277
10152SOL     OW31354   5.334   6.378   2.843
10152SOL    HW131355   5.412   6.360   2.902
10152SOL    HW231356   5.299   6.470   2.861
10153SOL     OW31357   4.692   4.141   3.642
10153SOL    HW131358   4.638   4.213   3.687
10153SOL    HW231359   4.721   4.073   3.709
10154SOL     OW31360   5.482   5.474   5.404
10154SOL    HW131361   5.471   5.548   5.338
10154SOL    HW231362   5.551   5.499   5.472
10155SOL     OW31363   3.996   1.647   4.877
10155SOL    HW131364   4.065   1.577   4.893
10155SOL    HW231365   4.041   1.737   4.872
10156SOL     OW31366   5.248   2.029   6.651
10156SOL    HW131367   5.264   2.109   6.593
10156SOL    HW231368   5.229   2.058   6.744
10157SOL     OW31369   0.612   2.542   0.744
10157SOL    HW131370   0.515   2.542   0.766
10157SOL    HW231371   0.623   2.539   0.644
10158SOL     OW31372   5.875   5.438   0.899
10158SOL    HW131373   5.905   5.345   0.920
10158SOL    HW231374   5.780   5.450   0.928
10159SOL     OW31375   3.825   3.392   3.105
10159SOL    HW131376   3.923   3.409   3.106
10159SOL    HW231377   3.779   3.466   3.054
10160SOL     OW31378   1.265   5.167   3.145
10160SOL    HW131379   1.210   5.251   3.140
10160SOL    HW231380   1.333   5.176   3.217
10161SOL     OW31381   5.205   3.397   5.610
10161SOL    HW131382   5.123   3.371   5.661
10161SOL    HW231383   5.253   3.470   5.658
10162SOL     OW31384   1.173   3.010   2.808
10162SOL    HW131385   1.267   3.039   2.824
10162SOL    HW231386   1.113   3.052   2.876
10163SOL     OW31387   1.342   5.887   5.183
10163SOL    HW131388   1.313   5.814   5.121
10163SOL    HW231389   1.431   5.864   5.221
10164SOL     OW31390   1.093   2.381   3.338
10164SOL    HW131391   1.104   2.330   3.253
10164SOL    HW231392   1.158   2.457   3.340
10165SOL     OW31393   0.110   3.594   4.759
10165SOL    HW131394   0.139   3.532   4.685
10165SOL    HW231395   0.011   3.586   4.771
10166SOL     OW31396   1.796   0.736   1.091
10166SOL    HW131397   1.779   0.651   1.142
10166SOL    HW231398   1.892   0.761   1.097
10167SOL     OW31399   2.105   0.094   6.668
10167SOL    HW131400   2.011   0.129   6.664
10167SOL    HW231401   2.166   0.168   6.698
10168SOL     OW31402   0.124   1.106   0.765
10168SOL    HW131403   0.142   1.198   0.800
10168SOL    HW231404   0.159   1.038   0.828
10169SOL     OW31405   6.265   2.813   3.449
10169SOL    HW131406   6.255   2.716   3.475
10169SOL    HW231407   6.175   2.853   3.436
10170SOL     OW31408   5.992   5.700   6.128
10170SOL    HW131409   6.016   5.742   6.216
10170SOL    HW231410   6.057   5.627   6.107
10171SOL     OW31411   2.606   3.780   6.158
10171SOL    HW131412   2.694   3.807   6.119
10171SOL    HW231413   2.534   3.794   6.090
10172SOL     OW31414   6.245   6.869   2.738
10172SOL    HW131415   6.308   6.827   2.673
10172SOL    HW231416   6.151   6.846   2.712
10173SOL     OW31417   3.143   4.450   5.328
10173SOL    HW131418   3.237   4.463   5.297
10173SOL    HW231419   3.081   4.495   5.264
10174SOL     OW31420   4.449   5.749   2.923
10174SOL    HW131421   4.521   5.818   2.911
10174SOL    HW231422   4.409   5.728   2.834
10175SOL     OW31423   0.443   1.120   3.806
10175SOL    HW131424   0.500   1.037   3.808
10175SOL    HW231425   0.390   1.121   3.721
10176SOL     OW31426   5.920   2.033   5.889
10176SOL    HW131427   5.901   2.047   5.987
10176SOL    HW231428   5.855   2.088   5.836
10177SOL     OW31429   2.265   0.487   2.930
10177SOL    HW131430   2.305   0.520   3.016
10177SOL    HW231431   2.169   0.464   2.946
10178SOL     OW31432   1.772   1.997   0.623
10178SOL    HW131433   1.774   1.970   0.720
10178SOL    HW231434   1.829   1.935   0.570
10179SOL     OW31435   1.057   4.548   1.064
10179SOL    HW131436   1.099   4.483   1.127
10179SOL    HW231437   0.974   4.586   1.106
10180SOL     OW31438   4.175   0.182   6.210
10180SOL    HW131439   4.254   0.240   6.193
10180SOL    HW231440   4.172   0.109   6.142
10181SOL     OW31441   0.005   3.510   1.783
10181SOL    HW131442   6.991   3.463   1.704
10181SOL    HW231443   0.093   3.550   1.758
10182SOL     OW31444   5.783   2.264   7.000
10182SOL    HW131445   5.870   2.217   7.013
10182SOL    HW231446   5.717   2.201   6.958
10183SOL     OW31447   6.093   2.283   6.913
10183SOL    HW131448   6.106   2.348   6.988
10183SOL    HW231449   6.163   2.299   6.843
10184SOL     OW31450   5.649   3.612   6.187
10184SOL    HW131451   5.564   3.559   6.193
10184SOL    HW231452   5.632   3.695   6.133
10185SOL     OW31453   3.823   5.782   2.336
10185SOL    HW131454   3.766   5.860   2.359
10185SOL    HW231455   3.790   5.740   2.252
10186SOL     OW31456   3.855   3.362   5.809
10186SOL    HW131457   3.775   3.348   5.868
10186SOL    HW231458   3.871   3.460   5.798
10187SOL     OW31459   1.617   5.769   6.216
10187SOL    HW131460   1.562   5.851   6.232
10187SOL    HW231461   1.688   5.789   6.148
10188SOL     OW31462   2.802   0.495   6.415
10188SOL    HW131463   2.871   0.490   6.487
10188SOL    HW231464   2.714   0.521   6.455
10189SOL     OW31465   1.227   2.012   6.225
10189SOL    HW131466   1.133   2.018   6.192
10189SOL    HW231467   1.247   2.090   6.284
10190SOL     OW31468   2.832   5.332   2.095
10190SOL    HW131469   2.828   5.414   2.038
10190SOL    HW231470   2.908   5.275   2.065
10191SOL     OW31471   5.705   5.564   0.005
10191SOL    HW131472   5.765   5.643   0.016
10191SOL    HW231473   5.760   5.482   7.020
10192SOL     OW31474   2.104   1.583   4.534
10192SOL    HW131475   2.174   1.636   4.487
10192SOL    HW231476   2.038   1.547   4.467
10193SOL     OW31477   3.295   4.159   3.687
10193SOL    HW131478   3.318   4.138   3.782
10193SOL    HW231479   3.267   4.075   3.640
10194SOL     OW31480   3.527   6.988   3.123
10194SOL    HW131481   3.524   7.013   3.220
10194SOL    HW231482   3.579   0.031   3.073
10195SOL     OW31483   3.902   6.398   1.824
10195SOL    HW131484   3.877   6.378   1.729
10195SOL    HW231485   3.820   6.422   1.875
10196SOL     OW31486   6.402   1.855   3.311
10196SOL    HW131487   6.426   1.777   3.254
10196SOL    HW231488   6.411   1.939   3.258
10197SOL     OW31489   5.595   0.622   2.176
10197SOL    HW131490   5.671   0.599   2.115
10197SOL    HW231491   5.524   0.551   2.170
10198SOL     OW31492   2.667   0.184   0.870
10198SOL    HW131493   2.668   0.101   0.814
10198SOL    HW231494   2.575   0.221   0.873
10199SOL     OW31495   0.736   0.890   0.174
10199SOL    HW131496   0.775   0.981   0.160
10199SOL    HW231497   0.648   0.884   0.127
10200SOL     OW31498   5.112   4.488   4.858
10200SOL    HW131499   5.033   4.426   4.854
10200SOL    HW231500   5.080   4.579   4.886
10201SOL     OW31501   1.375   4.657   2.151
10201SOL    HW131502   1.347   4.610   2.235
10201SOL    HW231503   1.384   4.590   2.077
10202SOL     OW31504   1.350   3.246   2.565
10202SOL    HW131505   1.302   3.333   2.553
10202SOL    HW231506   1.303   3.175   2.514
10203SOL     OW31507   2.179   2.794   2.594
10203SOL    HW131508   2.193   2.876   2.538
10203SOL    HW231509   2.083   2.791   2.623
10204SOL     OW31510   3.067   4.769   5.253
10204SOL    HW131511   3.014   4.825   5.316
10204SOL    HW231512   3.013   4.691   5.222
10205SOL     OW31513   5.040   2.351   3.297
10205SOL    HW131514   4.953   2.311   3.327
10205SOL    HW231515   5.022   2.434   3.244
10206SOL     OW31516   5.303   6.825   5.818
10206SOL    HW131517   5.402   6.831   5.808
10206SOL    HW231518   5.276   6.852   5.910
10207SOL     OW31519   3.732   0.675   2.644
10207SOL    HW131520   3.790   0.757   2.635
10207SOL    HW231521   3.736   0.622   2.560
10208SOL     OW31522   6.332   4.153   5.553
10208SOL    HW131523   6.397   4.153   5.477
10208SOL    HW231524   6.277   4.236   5.549
10209SOL     OW31525   6.166   6.893   6.110
10209SOL    HW131526   6.251   6.946   6.117
10209SOL    HW231527   6.186   6.796   6.123
10210SOL     OW31528   4.977   6.018   2.368
10210SOL    HW131529   4.924   6.070   2.435
10210SOL    HW231530   4.926   5.937   2.340
10211SOL     OW31531   3.866   5.801   4.895
10211SOL    HW131532   3.801   5.816   4.821
10211SOL    HW231533   3.856   5.873   4.964
10212SOL     OW31534   0.111   1.127   5.072
10212SOL    HW131535   0.204   1.141   5.037
10212SOL    HW231536   0.108   1.041   5.123
10213SOL     OW31537   6.557   1.388   3.161
10213SOL    HW131538   6.483   1.324   3.141
10213SOL    HW231539   6.643   1.338   3.169
10214SOL     OW31540   6.705   0.949   1.679
10214SOL    HW131541   6.782   0.970   1.738
10214SOL    HW231542   6.647   0.880   1.722
10215SOL     OW31543   3.945   4.485   6.347
10215SOL    HW131544   3.990   4.415   6.290
10215SOL    HW231545   3.853   4.502   6.312
10216SOL     OW31546   5.101   0.801   1.559
10216SOL    HW131547   5.016   0.789   1.611
10216SOL    HW231548   5.175   0.751   1.605
10217SOL     OW31549   2.420   1.895   4.848
10217SOL    HW131550   2.355   1.835   4.894
10217SOL    HW231551   2.504   1.844   4.829
10218SOL     OW31552   1.863   1.019   0.762
10218SOL    HW131553   1.812   0.955   0.819
10218SOL    HW231554   1.808   1.101   0.746
10219SOL     OW31555   1.096   2.792   1.639
10219SOL    HW131556   1.180   2.783   1.692
10219SOL    HW231557   1.060   2.885   1.647
10220SOL     OW31558   4.486   1.847   1.104
10220SOL    HW131559   4.396   1.860   1.145
10220SOL    HW231560   4.488   1.888   1.013
10221SOL     OW31561   2.915   0.325   5.315
10221SOL    HW131562   2.950   0.419   5.313
10221SOL    HW231563   2.831   0.323   5.369
10222SOL     OW31564   2.000   4.955   5.609
10222SOL    HW131565   1.997   5.023   5.681
10222SOL    HW231566   1.908   4.918   5.593
10223SOL     OW31567   1.313   3.998   0.054
10223SOL    HW131568   1.288   4.079   0.000
10223SOL    HW231569   1.243   3.982   0.124
10224SOL     OW31570   1.361   0.187   4.214
10224SOL    HW131571   1.384   0.282   4.234
10224SOL    HW231572   1.425   0.126   4.260
10225SOL     OW31573   6.765   5.495   4.729
10225SOL    HW131574   6.686   5.433   4.736
10225SOL    HW231575   6.800   5.514   4.820
10226SOL     OW31576   2.049   1.217   6.957
10226SOL    HW131577   1.998   1.136   6.930
10226SOL    HW231578   2.147   1.197   6.958
10227SOL     OW31579   5.005   5.252   6.794
10227SOL    HW131580   4.957   5.215   6.873
10227SOL    HW231581   4.941   5.267   6.719
10228SOL     OW31582   0.913   5.456   3.267
10228SOL    HW131583   0.964   5.538   3.292
10228SOL    HW231584   0.878   5.412   3.349
10229SOL     OW31585   1.115   0.265   3.100
10229SOL    HW131586   1.190   0.218   3.054
10229SOL    HW231587   1.115   0.362   3.073
10230SOL     OW31588   6.724   0.482   3.676
10230SOL    HW131589   6.804   0.536   3.650
10230SOL    HW231590   6.644   0.542   3.682
10231SOL     OW31591   5.642   0.037   4.955
10231SOL    HW131592   5.720   7.024   4.905
10231SOL    HW231593   5.675   0.097   5.027
10232SOL     OW31594   3.385   2.056   4.982
10232SOL    HW131595   3.457   1.990   5.009
10232SOL    HW231596   3.347   2.098   5.064
10233SOL     OW31597   4.622   1.871   5.630
10233SOL    HW131598   4.654   1.826   5.714
10233SOL    HW231599   4.522   1.870   5.628
10234SOL     OW31600   5.556   6.983   1.710
10234SOL    HW131601   5.620   0.034   1.722
10234SOL    HW231602   5.550   6.930   1.794
10235SOL     OW31603   5.399   1.233   6.990
10235SOL    HW131604   5.429   1.228   0.060
10235SOL    HW231605   5.475   1.262   6.932
10236SOL     OW31606   1.780   5.743   2.113
10236SOL    HW131607   1.725   5.669   2.151
10236SOL    HW231608   1.863   5.755   2.168
10237SOL     OW31609   6.244   3.666   2.410
10237SOL    HW131610   6.171   3.731   2.427
10237SOL    HW231611   6.206   3.573   2.412
10238SOL     OW31612   4.573   4.924   4.575
10238SOL    HW131613   4.542   4.963   4.661
10238SOL    HW231614   4.516   4.846   4.551
10239SOL     OW31615   0.252   3.959   4.141
10239SOL    HW131616   0.252   3.973   4.240
10239SOL    HW231617   0.203   4.035   4.097
10240SOL     OW31618   0.895   3.636   3.627
10240SOL    HW131619   0.885   3.565   3.556
10240SOL    HW231620   0.991   3.663   3.633
10241SOL     OW31621   1.060   1.836   2.248
10241SOL    HW131622   1.107   1.826   2.161
10241SOL    HW231623   0.964   1.810   2.237
10242SOL     OW31624   0.167   1.015   6.304
10242SOL    HW131625   0.126   0.932   6.342
10242SOL    HW231626   0.260   0.994   6.273
10243SOL     OW31627   0.532   5.624   1.911
10243SOL    HW131628   0.501   5.530   1.895
10243SOL    HW231629   0.631   5.626   1.921
10244SOL     OW31630   1.904   5.760   6.835
10244SOL    HW131631   1.960   5.823   6.888
10244SOL    HW231632   1.963   5.697   6.785
10245SOL     OW31633   2.164   2.723   6.076
10245SOL    HW131634   2.237   2.710   6.009
10245SOL    HW231635   2.152   2.821   6.094
10246SOL     OW31636   3.094   4.111   5.110
10246SOL    HW131637   3.048   4.039   5.058
10246SOL    HW231638   3.192   4.090   5.116
10247SOL     OW31639   6.869   5.261   5.916
10247SOL    HW131640   6.926   5.182   5.889
10247SOL    HW231641   6.929   5.336   5.944
10248SOL     OW31642   2.960   7.022   1.777
10248SOL    HW131643   3.033   0.048   1.733
10248SOL    HW231644   2.922   6.955   1.712
10249SOL     OW31645   4.644   1.522   5.622
10249SOL    HW131646   4.636   1.561   5.714
10249SOL    HW231647   4.737   1.535   5.588
10250SOL     OW31648   6.295   1.020   0.693
10250SOL    HW131649   6.363   1.052   0.759
10250SOL    HW231650   6.327   1.039   0.600
10251SOL     OW31651   2.582   3.243   6.820
10251SOL    HW131652   2.522   3.166   6.843
10251SOL    HW231653   2.669   3.208   6.785
10252SOL     OW31654   5.925   6.130   1.015
10252SOL    HW131655   6.009   6.080   0.995
10252SOL    HW231656   5.942   6.197   1.088
10253SOL     OW31657   4.848   4.865   6.797
10253SOL    HW131658   4.772   4.822   6.748
10253SOL    HW231659   4.814   4.941   6.852
10254SOL     OW31660   2.806   1.831   5.149
10254SOL    HW131661   2.734   1.898   5.130
10254SOL    HW231662   2.894   1.867   5.117
10255SOL     OW31663   2.505   5.510   2.469
10255SOL    HW131664   2.526   5.597   2.425
10255SOL    HW231665   2.419   5.518   2.520
10256SOL     OW31666   5.174   0.610   0.134
10256SOL    HW131667   5.188   0.643   0.228
10256SOL    HW231668   5.256   0.561   0.104
10257SOL     OW31669   1.236   5.669   5.864
10257SOL    HW131670   1.167   5.597   5.864
10257SOL    HW231671   1.280   5.674   5.953
10258SOL     OW31672   4.481   6.821   3.429
10258SOL    HW131673   4.516   6.735   3.393
10258SOL    HW231674   4.381   6.820   3.426
10259SOL     OW31675   0.063   3.876   3.828
10259SOL    HW131676   0.014   3.918   3.752
10259SOL    HW231677   0.145   3.831   3.794
10260SOL     OW31678   1.049   0.242   2.241
10260SOL    HW131679   1.138   0.227   2.284
10260SOL    HW231680   1.019   0.157   2.197
10261SOL     OW31681   1.038   6.018   2.045
10261SOL    HW131682   0.996   5.953   1.982
10261SOL    HW231683   1.128   6.046   2.010
10262SOL     OW31684   3.001   4.905   4.592
10262SOL    HW131685   2.963   4.834   4.532
10262SOL    HW231686   2.980   4.995   4.555
10263SOL     OW31687   5.134   1.687   5.548
10263SOL    HW131688   5.162   1.749   5.475
10263SOL    HW231689   5.074   1.735   5.612
10264SOL     OW31690   6.349   0.924   6.188
10264SOL    HW131691   6.291   0.887   6.260
10264SOL    HW231692   6.311   0.899   6.099
10265SOL     OW31693   3.653   1.450   3.017
10265SOL    HW131694   3.657   1.398   3.102
10265SOL    HW231695   3.647   1.386   2.940
10266SOL     OW31696   3.363   4.152   6.597
10266SOL    HW131697   3.452   4.196   6.609
10266SOL    HW231698   3.291   4.221   6.598
10267SOL     OW31699   0.181   2.261   6.696
10267SOL    HW131700   0.231   2.286   6.613
10267SOL    HW231701   0.146   2.343   6.741
10268SOL     OW31702   5.015   5.353   1.750
10268SOL    HW131703   5.078   5.323   1.822
10268SOL    HW231704   4.942   5.286   1.739
10269SOL     OW31705   2.230   2.515   6.423
10269SOL    HW131706   2.314   2.512   6.476
10269SOL    HW231707   2.170   2.440   6.452
10270SOL     OW31708   1.938   5.912   0.749
10270SOL    HW131709   1.935   5.928   0.848
10270SOL    HW231710   1.968   5.818   0.732
10271SOL     OW31711   4.025   3.796   1.636
10271SOL    HW131712   4.069   3.724   1.582
10271SOL    HW231713   4.090   3.872   1.648
10272SOL     OW31714   0.373   0.598   4.563
10272SOL    HW131715   0.349   0.608   4.659
10272SOL    HW231716   0.451   0.536   4.554
10273SOL     OW31717   4.073   5.602   4.472
10273SOL    HW131718   3.983   5.575   4.438
10273SOL    HW231719   4.137   5.525   4.462
10274SOL     OW31720   1.061   4.821   5.804
10274SOL    HW131721   0.980   4.805   5.747
10274SOL    HW231722   1.143   4.813   5.748
10275SOL     OW31723   0.689   6.647   3.216
10275SOL    HW131724   0.701   6.692   3.127
10275SOL    HW231725   0.596   6.664   3.249
10276SOL     OW31726   0.238   5.458   5.260
10276SOL    HW131727   0.268   5.553   5.257
10276SOL    HW231728   0.153   5.452   5.312
10277SOL     OW31729   2.712   6.786   4.390
10277SOL    HW131730   2.768   6.706   4.369
10277SOL    HW231731   2.639   6.759   4.453
10278SOL     OW31732   5.794   0.171   6.168
10278SOL    HW131733   5.883   0.155   6.125
10278SOL    HW231734   5.806   0.186   6.266
10279SOL     OW31735   2.871   0.383   4.407
10279SOL    HW131736   2.932   0.443   4.458
10279SOL    HW231737   2.799   0.438   4.364
10280SOL     OW31738   1.682   3.857   0.584
10280SOL    HW131739   1.658   3.886   0.677
10280SOL    HW231740   1.777   3.881   0.566
10281SOL     OW31741   4.680   1.273   3.300
10281SOL    HW131742   4.749   1.211   3.261
10281SOL    HW231743   4.659   1.243   3.393
10282SOL     OW31744   0.845   1.966   4.077
10282SOL    HW131745   0.788   1.884   4.077
10282SOL    HW231746   0.872   1.988   3.983
10283SOL     OW31747   1.381   3.571   0.754
10283SOL    HW131748   1.292   3.594   0.793
10283SOL    HW231749   1.388   3.472   0.744
10284SOL     OW31750   5.638   3.565   5.559
10284SOL    HW131751   5.564   3.546   5.494
10284SOL    HW231752   5.700   3.487   5.562
10285SOL     OW31753   5.150   0.859   0.603
10285SOL    HW131754   5.124   0.940   0.656
10285SOL    HW231755   5.078   0.839   0.536
10286SOL     OW31756   4.183   0.565   3.010
10286SOL    HW131757   4.227   0.654   2.996
10286SOL    HW231758   4.121   0.547   2.933
10287SOL     OW31759   2.029   6.939   1.742
10287SOL    HW131760   1.938   6.897   1.748
10287SOL    HW231761   2.099   6.870   1.756
10288SOL     OW31762   5.944   6.024   3.324
10288SOL    HW131763   5.931   5.975   3.238
10288SOL    HW231764   6.033   6.070   3.322
10289SOL     OW31765   2.918   1.312   1.654
10289SOL    HW131766   3.012   1.311   1.619
10289SOL    HW231767   2.872   1.394   1.621
10290SOL     OW31768   3.731   3.230   3.321
10290SOL    HW131769   3.786   3.281   3.255
10290SOL    HW231770   3.773   3.235   3.411
10291SOL     OW31771   3.504   0.752   4.737
10291SOL    HW131772   3.503   0.709   4.828
10291SOL    HW231773   3.465   0.844   4.743
10292SOL     OW31774   0.680   1.333   4.596
10292SOL    HW131775   0.767   1.383   4.593
10292SOL    HW231776   0.662   1.304   4.690
10293SOL     OW31777   2.348   6.164   3.248
10293SOL    HW131778   2.386   6.086   3.298
10293SOL    HW231779   2.314   6.232   3.314
10294SOL     OW31780   5.349   1.459   3.405
10294SOL    HW131781   5.297   1.461   3.490
10294SOL    HW231782   5.391   1.548   3.389
10295SOL     OW31783   0.392   5.041   6.102
10295SOL    HW131784   0.431   5.106   6.037
10295SOL    HW231785   0.465   4.991   6.147
10296SOL     OW31786   6.710   3.649   7.015
10296SOL    HW131787   6.683   3.639   6.919
10296SOL    HW231788   6.636   3.615   0.048
10297SOL     OW31789   1.123   5.385   4.626
10297SOL    HW131790   1.122   5.321   4.549
10297SOL    HW231791   1.048   5.450   4.616
10298SOL     OW31792   5.378   4.145   3.839
10298SOL    HW131793   5.338   4.082   3.773
10298SOL    HW231794   5.449   4.199   3.795
10299SOL     OW31795   4.360   4.587   3.476
10299SOL    HW131796   4.413   4.561   3.395
10299SOL    HW231797   4.301   4.665   3.454
10300SOL     OW31798   0.741   3.770   2.508
10300SOL    HW131799   0.810   3.720   2.562
10300SOL    HW231800   0.669   3.706   2.480
10301SOL     OW31801   5.898   1.081   2.579
10301SOL    HW131802   5.879   1.152   2.511
10301SOL    HW231803   5.992   1.090   2.612
10302SOL     OW31804   1.502   5.620   2.865
10302SOL    HW131805   1.413   5.580   2.890
10302SOL    HW231806   1.487   5.701   2.809
10303SOL     OW31807   4.168   3.874   1.001
10303SOL    HW131808   4.220   3.791   1.022
10303SOL    HW231809   4.092   3.882   1.064
10304SOL     OW31810   0.084   6.880   2.802
10304SOL    HW131811   0.008   6.881   2.867
10304SOL    HW231812   0.081   6.963   2.747
10305SOL     OW31813   1.348   5.742   6.846
10305SOL    HW131814   1.373   5.839   6.849
10305SOL    HW231815   1.356   5.708   6.752
10306SOL     OW31816   4.176   5.675   0.203
10306SOL    HW131817   4.225   5.653   0.118
10306SOL    HW231818   4.152   5.590   0.250
10307SOL     OW31819   1.738   1.235   6.652
10307SOL    HW131820   1.694   1.169   6.713
10307SOL    HW231821   1.797   1.296   6.706
10308SOL     OW31822   3.191   6.050   3.471
10308SOL    HW131823   3.181   5.979   3.401
10308SOL    HW231824   3.260   6.117   3.442
10309SOL     OW31825   0.197   6.653   2.651
10309SOL    HW131826   0.272   6.718   2.665
10309SOL    HW231827   0.119   6.680   2.708
10310SOL     OW31828   3.567   3.556   2.988
10310SOL    HW131829   3.545   3.461   2.965
10310SOL    HW231830   3.493   3.616   2.957
10311SOL     OW31831   0.654   5.265   0.202
10311SOL    HW131832   0.611   5.228   0.284
10311SOL    HW231833   0.753   5.259   0.211
10312SOL     OW31834   2.490   4.428   0.388
10312SOL    HW131835   2.546   4.430   0.471
10312SOL    HW231836   2.544   4.388   0.313
10313SOL     OW31837   4.877   0.548   2.523
10313SOL    HW131838   4.861   0.584   2.431
10313SOL    HW231839   4.914   0.455   2.515
10314SOL     OW31840   5.984   6.685   0.880
10314SOL    HW131841   5.966   6.589   0.856
10314SOL    HW231842   5.904   6.741   0.856
10315SOL     OW31843   6.178   5.863   4.665
10315SOL    HW131844   6.220   5.820   4.585
10315SOL    HW231845   6.105   5.925   4.636
10316SOL     OW31846   0.448   3.811   4.020
10316SOL    HW131847   0.366   3.845   4.065
10316SOL    HW231848   0.451   3.844   3.925
10317SOL     OW31849   4.246   5.470   6.650
10317SOL    HW131850   4.204   5.457   6.561
10317SOL    HW231851   4.297   5.389   6.676
10318SOL     OW31852   5.750   5.289   1.856
10318SOL    HW131853   5.776   5.381   1.885
10318SOL    HW231854   5.814   5.223   1.896
10319SOL     OW31855   6.706   5.878   3.687
10319SOL    HW131856   6.614   5.914   3.668
10319SOL    HW231857   6.734   5.816   3.614
10320SOL     OW31858   6.689   6.553   1.200
10320SOL    HW131859   6.737   6.517   1.280
10320SOL    HW231860   6.632   6.481   1.160
10321SOL     OW31861   4.841   5.670   4.100
10321SOL    HW131862   4.846   5.688   4.199
10321SOL    HW231863   4.873   5.576   4.082
10322SOL     OW31864   6.240   4.017   0.688
10322SOL    HW131865   6.333   4.010   0.652
10322SOL    HW231866   6.205   4.110   0.672
10323SOL     OW31867   5.082   3.134   5.957
10323SOL    HW131868   5.172   3.176   5.949
10323SOL    HW231869   5.029   3.183   6.027
10324SOL     OW31870   3.596   3.217   3.597
10324SOL    HW131871   3.554   3.231   3.687
10324SOL    HW231872   3.524   3.215   3.527
10325SOL     OW31873   0.559   2.644   2.864
10325SOL    HW131874   0.611   2.560   2.879
10325SOL    HW231875   0.507   2.635   2.779
10326SOL     OW31876   5.507   2.473   0.365
10326SOL    HW131877   5.415   2.468   0.326
10326SOL    HW231878   5.501   2.503   0.460
10327SOL     OW31879   0.386   0.415   3.092
10327SOL    HW131880   0.334   0.491   3.053
10327SOL    HW231881   0.465   0.395   3.034
10328SOL     OW31882   5.790   3.503   2.257
10328SOL    HW131883   5.758   3.579   2.312
10328SOL    HW231884   5.770   3.416   2.303
10329SOL     OW31885   3.114   6.918   3.004
10329SOL    HW131886   3.076   6.990   3.062
10329SOL    HW231887   3.042   6.852   2.982
10330SOL     OW31888   4.242   5.147   2.002
10330SOL    HW131889   4.304   5.069   2.001
10330SOL    HW231890   4.214   5.165   2.096
10331SOL     OW31891   5.355   1.064   3.497
10331SOL    HW131892   5.387   1.135   3.434
10331SOL    HW231893   5.284   1.009   3.453
10332SOL     OW31894   6.864   2.208   6.207
10332SOL    HW131895   6.950   2.164   6.234
10332SOL    HW231896   6.787   2.155   6.244
10333SOL     OW31897   5.886   5.504   4.155
10333SOL    HW131898   5.886   5.529   4.058
10333SOL    HW231899   5.817   5.433   4.171
10334SOL     OW31900   2.019   4.525   4.231
10334SOL    HW131901   1.956   4.533   4.308
10334SOL    HW231902   2.103   4.575   4.250
10335SOL     OW31903   1.650   5.232   1.418
10335SOL    HW131904   1.564   5.197   1.381
10335SOL    HW231905   1.726   5.176   1.385
10336SOL     OW31906   3.870   6.190   2.379
10336SOL    HW131907   3.921   6.115   2.337
10336SOL    HW231908   3.890   6.275   2.331
10337SOL     OW31909   1.005   4.991   4.937
10337SOL    HW131910   1.074   5.063   4.925
10337SOL    HW231911   1.048   4.902   4.918
10338SOL     OW31912   2.862   6.327   2.916
10338SOL    HW131913   2.949   6.371   2.940
10338SOL    HW231914   2.879   6.234   2.883
10339SOL     OW31915   2.433   6.401   1.582
10339SOL    HW131916   2.475   6.412   1.671
10339SOL    HW231917   2.502   6.369   1.516
10340SOL     OW31918   1.733   6.827   0.351
10340SOL    HW131919   1.776   6.762   0.414
10340SOL    HW231920   1.787   6.833   0.267
10341SOL     OW31921   1.953   1.824   2.343
10341SOL    HW131922   1.887   1.817   2.269
10341SOL    HW231923   1.989   1.917   2.347
10342SOL     OW31924   2.295   0.397   5.029
10342SOL    HW131925   2.236   0.319   5.009
10342SOL    HW231926   2.289   0.420   5.126
10343SOL     OW31927   2.860   3.585   6.162
10343SOL    HW131928   2.848   3.638   6.246
10343SOL    HW231929   2.777   3.531   6.145
10344SOL     OW31930   4.225   3.687   5.057
10344SOL    HW131931   4.281   3.607   5.080
10344SOL    HW231932   4.243   3.760   5.123
10345SOL     OW31933   2.275   1.588   6.674
10345SOL    HW131934   2.199   1.643   6.640
10345SOL    HW231935   2.334   1.561   6.598
10346SOL     OW31936   5.098   6.639   0.309
10346SOL    HW131937   5.117   6.726   0.354
10346SOL    HW231938   5.069   6.657   0.215
10347SOL     OW31939   5.935   1.720   1.617
10347SOL    HW131940   6.015   1.778   1.625
10347SOL    HW231941   5.883   1.745   1.535
10348SOL     OW31942   0.002   0.368   5.793
10348SOL    HW131943   0.010   0.466   5.808
10348SOL    HW231944   0.007   0.320   5.881
10349SOL     OW31945   6.853   1.686   1.515
10349SOL    HW131946   6.779   1.748   1.487
10349SOL    HW231947   6.813   1.606   1.560
10350SOL     OW31948   2.746   5.161   4.276
10350SOL    HW131949   2.725   5.067   4.249
10350SOL    HW231950   2.743   5.221   4.196
10351SOL     OW31951   5.676   4.875   5.222
10351SOL    HW131952   5.623   4.933   5.160
10351SOL    HW231953   5.633   4.875   5.312
10352SOL     OW31954   6.109   2.187   0.253
10352SOL    HW131955   6.205   2.216   0.252
10352SOL    HW231956   6.090   2.131   0.173
10353SOL     OW31957   6.853   2.617   3.514
10353SOL    HW131958   6.921   2.659   3.576
10353SOL    HW231959   6.889   2.617   3.421
10354SOL     OW31960   0.612   3.170   0.447
10354SOL    HW131961   0.513   3.181   0.450
10354SOL    HW231962   0.647   3.157   0.540
10355SOL     OW31963   1.063   0.190   1.111
10355SOL    HW131964   0.988   0.202   1.177
10355SOL    HW231965   1.049   0.252   1.034
10356SOL     OW31966   6.768   4.172   6.526
10356SOL    HW131967   6.801   4.187   6.432
10356SOL    HW231968   6.700   4.098   6.525
10357SOL     OW31969   0.916   3.024   6.018
10357SOL    HW131970   1.006   3.024   5.975
10357SOL    HW231971   0.923   3.056   6.112
10358SOL     OW31972   1.241   2.074   2.555
10358SOL    HW131973   1.162   2.022   2.587
10358SOL    HW231974   1.303   2.089   2.631
10359SOL     OW31975   6.220   1.960   2.171
10359SOL    HW131976   6.250   2.027   2.103
10359SOL    HW231977   6.288   1.955   2.245
10360SOL     OW31978   5.862   4.639   2.298
10360SOL    HW131979   5.870   4.618   2.395
10360SOL    HW231980   5.816   4.727   2.287
10361SOL     OW31981   0.506   1.500   1.212
10361SOL    HW131982   0.536   1.484   1.306
10361SOL    HW231983   0.563   1.448   1.149
10362SOL     OW31984   1.223   4.833   2.450
10362SOL    HW131985   1.219   4.828   2.550
10362SOL    HW231986   1.231   4.741   2.412
10363SOL     OW31987   5.201   4.244   0.826
10363SOL    HW131988   5.169   4.319   0.885
10363SOL    HW231989   5.159   4.159   0.856
10364SOL     OW31990   6.093   4.332   2.251
10364SOL    HW131991   6.108   4.418   2.202
10364SOL    HW231992   6.128   4.256   2.196
10365SOL     OW31993   6.331   6.050   0.115
10365SOL    HW131994   6.416   6.067   0.165
10365SOL    HW231995   6.267   6.001   0.174
10366SOL     OW31996   3.195   6.173   3.014
10366SOL    HW131997   3.160   6.096   2.961
10366SOL    HW231998   3.134   6.193   3.090
10367SOL     OW31999   6.349   2.086   0.722
10367SOL    HW132000   6.447   2.091   0.705
10367SOL    HW232001   6.302   2.153   0.664
10368SOL     OW32002   2.070   5.876   1.826
10368SOL    HW132003   1.979   5.836   1.820
10368SOL    HW232004   2.129   5.817   1.881
10369SOL     OW32005   3.479   6.814   6.144
10369SOL    HW132006   3.559   6.772   6.188
10369SOL    HW232007   3.399   6.801   6.202
10370SOL     OW32008   0.683   1.200   4.849
10370SOL    HW132009   0.603   1.260   4.851
10370SOL    HW232010   0.717   1.186   4.942
10371SOL     OW32011   3.243   5.623   3.416
10371SOL    HW132012   3.180   5.599   3.343
10371SOL    HW232013   3.329   5.573   3.404
10372SOL     OW32014   2.704   0.046   1.525
10372SOL    HW132015   2.636   0.055   1.453
10372SOL    HW232016   2.662   0.067   1.613
10373SOL     OW32017   0.010   1.732   5.552
10373SOL    HW132018   0.024   1.800   5.480
10373SOL    HW232019   0.082   1.742   5.621
10374SOL     OW32020   3.304   6.878   4.724
10374SOL    HW132021   3.224   6.818   4.736
10374SOL    HW232022   3.319   6.894   4.626
10375SOL     OW32023   3.400   3.429   0.121
10375SOL    HW132024   3.387   3.526   0.141
10375SOL    HW232025   3.342   3.374   0.181
10376SOL     OW32026   2.406   5.203   2.752
10376SOL    HW132027   2.426   5.286   2.804
10376SOL    HW232028   2.312   5.208   2.716
10377SOL     OW32029   1.069   0.995   2.592
10377SOL    HW132030   1.069   0.975   2.494
10377SOL    HW232031   1.030   1.086   2.607
10378SOL     OW32032   6.692   4.743   5.663
10378SOL    HW132033   6.784   4.779   5.675
10378SOL    HW232034   6.670   4.740   5.566
10379SOL     OW32035   2.204   6.678   4.550
10379SOL    HW132036   2.157   6.766   4.548
10379SOL    HW232037   2.206   6.639   4.458
10380SOL     OW32038   1.617   2.518   4.556
10380SOL    HW132039   1.566   2.436   4.581
10380SOL    HW232040   1.696   2.528   4.617
10381SOL     OW32041   4.403   4.480   1.374
10381SOL    HW132042   4.446   4.546   1.313
10381SOL    HW232043   4.422   4.505   1.469
10382SOL     OW32044   3.055   4.509   1.351
10382SOL    HW132045   3.129   4.577   1.351
10382SOL    HW232046   3.089   4.423   1.315
10383SOL     OW32047   1.799   4.539   0.514
10383SOL    HW132048   1.882   4.576   0.557
10383SOL    HW232049   1.824   4.467   0.450
10384SOL     OW32050   5.523   6.742   1.594
10384SOL    HW132051   5.536   6.838   1.616
10384SOL    HW232052   5.575   6.686   1.659
10385SOL     OW32053   3.731   4.995   6.312
10385SOL    HW132054   3.736   4.980   6.214
10385SOL    HW232055   3.718   4.908   6.359
10386SOL     OW32056   0.132   0.579   6.596
10386SOL    HW132057   0.144   0.552   6.501
10386SOL    HW232058   0.204   0.644   6.622
10387SOL     OW32059   4.787   2.980   2.812
10387SOL    HW132060   4.852   2.975   2.887
10387SOL    HW232061   4.836   2.999   2.727
10388SOL     OW32062   2.775   0.471   5.686
10388SOL    HW132063   2.712   0.404   5.646
10388SOL    HW232064   2.848   0.423   5.736
10389SOL     OW32065   0.641   3.405   0.234
10389SOL    HW132066   0.595   3.489   0.261
10389SOL    HW232067   0.691   3.368   0.313
10390SOL     OW32068   2.697   2.344   0.997
10390SOL    HW132069   2.723   2.300   0.911
10390SOL    HW232070   2.615   2.299   1.034
10391SOL     OW32071   0.460   6.712   3.637
10391SOL    HW132072   0.406   6.641   3.682
10391SOL    HW232073   0.532   6.669   3.582
10392SOL     OW32074   6.525   4.892   4.676
10392SOL    HW132075   6.554   4.987   4.682
10392SOL    HW232076   6.594   4.838   4.628
10393SOL     OW32077   1.734   3.927   4.036
10393SOL    HW132078   1.794   3.970   3.967
10393SOL    HW232079   1.639   3.937   4.007
10394SOL     OW32080   3.453   6.037   3.911
10394SOL    HW132081   3.423   6.132   3.905
10394SOL    HW232082   3.392   5.979   3.858
10395SOL     OW32083   6.339   6.503   0.843
10395SOL    HW132084   6.265   6.449   0.803
10395SOL    HW232085   6.319   6.600   0.831
10396SOL     OW32086   2.937   2.274   4.209
10396SOL    HW132087   3.001   2.217   4.259
10396SOL    HW232088   2.936   2.247   4.113
10397SOL     OW32089   3.044   2.180   2.431
10397SOL    HW132090   3.101   2.182   2.348
10397SOL    HW232091   2.965   2.240   2.418
10398SOL     OW32092   0.226   3.526   1.599
10398SOL    HW132093   0.161   3.529   1.523
10398SOL    HW232094   0.299   3.461   1.578
10399SOL     OW32095   5.976   2.479   2.441
10399SOL    HW132096   5.902   2.546   2.439
10399SOL    HW232097   6.029   2.491   2.525
10400SOL     OW32098   4.373   0.071   0.386
10400SOL    HW132099   4.413   7.005   0.376
10400SOL    HW232100   4.290   0.077   0.330
10401SOL     OW32101   6.970   0.536   3.949
10401SOL    HW132102   6.960   0.595   3.869
10401SOL    HW232103   6.902   0.561   4.018
10402SOL     OW32104   6.284   2.900   4.878
10402SOL    HW132105   6.330   2.862   4.797
10402SOL    HW232106   6.275   2.999   4.867
10403SOL     OW32107   3.234   0.667   3.284
10403SOL    HW132108   3.209   0.618   3.201
10403SOL    HW232109   3.274   0.756   3.260
10404SOL     OW32110   6.033   0.259   5.532
10404SOL    HW132111   6.030   0.262   5.432
10404SOL    HW232112   6.014   0.351   5.568
10405SOL     OW32113   1.113   1.765   5.730
10405SOL    HW132114   1.137   1.791   5.636
10405SOL    HW232115   1.147   1.672   5.747
10406SOL     OW32116   3.004   4.779   2.060
10406SOL    HW132117   3.082   4.760   2.001
10406SOL    HW232118   2.931   4.713   2.039
10407SOL     OW32119   3.396   5.688   5.419
10407SOL    HW132120   3.437   5.621   5.358
10407SOL    HW232121   3.388   5.649   5.511
10408SOL     OW32122   4.608   1.758   0.632
10408SOL    HW132123   4.706   1.740   0.639
10408SOL    HW232124   4.591   1.815   0.551
10409SOL     OW32125   0.124   4.620   0.795
10409SOL    HW132126   0.030   4.599   0.767
10409SOL    HW232127   0.152   4.707   0.753
10410SOL     OW32128   5.556   1.628   6.990
10410SOL    HW132129   5.592   1.549   0.014
10410SOL    HW232130   5.462   1.644   7.018
10411SOL     OW32131   3.361   6.236   2.808
10411SOL    HW132132   3.322   6.181   2.881
10411SOL    HW232133   3.386   6.326   2.844
10412SOL     OW32134   6.291   0.603   0.609
10412SOL    HW132135   6.264   0.511   0.582
10412SOL    HW232136   6.295   0.609   0.709
10413SOL     OW32137   6.926   2.070   1.354
10413SOL    HW132138   7.018   2.029   1.354
10413SOL    HW232139   6.929   2.159   1.309
10414SOL     OW32140   4.367   4.182   5.607
10414SOL    HW132141   4.347   4.256   5.672
10414SOL    HW232142   4.408   4.105   5.657
10415SOL     OW32143   0.192   4.835   5.688
10415SOL    HW132144   0.172   4.928   5.718
10415SOL    HW232145   0.279   4.834   5.638
10416SOL     OW32146   6.890   1.404   3.110
10416SOL    HW132147   6.983   1.433   3.085
10416SOL    HW232148   6.826   1.432   3.039
10417SOL     OW32149   4.237   5.378   4.447
10417SOL    HW132150   4.194   5.293   4.477
10417SOL    HW232151   4.334   5.378   4.472
10418SOL     OW32152   6.985   4.438   5.299
10418SOL    HW132153   6.886   4.453   5.306
10418SOL    HW232154   0.007   4.493   5.367
10419SOL     OW32155   1.305   0.385   7.006
10419SOL    HW132156   1.253   0.389   6.920
10419SOL    HW232157   1.264   0.315   0.040
10420SOL     OW32158   6.738   3.120   2.542
10420SOL    HW132159   6.662   3.055   2.545
10420SOL    HW232160   6.716   3.194   2.478
10421SOL     OW32161   0.523   1.980   3.222
10421SOL    HW132162   0.429   1.977   3.188
10421SOL    HW232163   0.523   1.960   3.320
10422SOL     OW32164   6.207   2.619   5.752
10422SOL    HW132165   6.182   2.612   5.849
10422SOL    HW232166   6.147   2.561   5.698
10423SOL     OW32167   4.904   5.038   4.694
10423SOL    HW132168   4.894   4.954   4.640
10423SOL    HW232169   4.898   5.118   4.633
10424SOL     OW32170   5.484   2.929   0.581
10424SOL    HW132171   5.458   2.860   0.648
10424SOL    HW232172   5.580   2.955   0.596
10425SOL     OW32173   2.382   6.549   2.040
10425SOL    HW132174   2.297   6.497   2.044
10425SOL    HW232175   2.459   6.486   2.055
10426SOL     OW32176   6.473   3.827   0.414
10426SOL    HW132177   6.374   3.833   0.397
10426SOL    HW232178   6.521   3.877   0.342
10427SOL     OW32179   4.344   1.355   0.455
10427SOL    HW132180   4.431   1.350   0.406
10427SOL    HW232181   4.288   1.427   0.415
10428SOL     OW32182   3.228   1.809   4.925
10428SOL    HW132183   3.234   1.907   4.943
10428SOL    HW232184   3.132   1.781   4.928
10429SOL     OW32185   6.973   5.419   1.144
10429SOL    HW132186   6.999   5.422   1.048
10429SOL    HW232187   6.874   5.433   1.153
10430SOL     OW32188   4.087   0.079   3.952
10430SOL    HW132189   4.111   7.008   3.964
10430SOL    HW232190   3.999   0.086   3.904
10431SOL     OW32191   3.194   6.960   5.141
10431SOL    HW132192   3.257   6.909   5.199
10431SOL    HW232193   3.161   0.016   5.190
10432SOL     OW32194   6.889   0.725   4.178
10432SOL    HW132195   6.861   0.797   4.242
10432SOL    HW232196   6.929   0.767   4.096
10433SOL     OW32197   1.263   5.949   1.613
10433SOL    HW132198   1.334   5.973   1.546
10433SOL    HW232199   1.183   5.912   1.565
10434SOL     OW32200   3.438   6.529   2.868
10434SOL    HW132201   3.394   6.582   2.796
10434SOL    HW232202   3.413   6.567   2.957
10435SOL     OW32203   6.474   0.675   4.960
10435SOL    HW132204   6.543   0.733   4.916
10435SOL    HW232205   6.518   0.615   5.026
10436SOL     OW32206   0.960   5.032   5.193
10436SOL    HW132207   0.974   5.034   5.094
10436SOL    HW232208   0.913   4.948   5.219
10437SOL     OW32209   6.268   5.080   5.116
10437SOL    HW132210   6.272   5.088   5.216
10437SOL    HW232211   6.297   5.166   5.074
10438SOL     OW32212   5.363   6.535   0.233
10438SOL    HW132213   5.418   6.563   0.312
10438SOL    HW232214   5.267   6.560   0.250
10439SOL     OW32215   3.600   1.310   6.112
10439SOL    HW132216   3.506   1.314   6.147
10439SOL    HW232217   3.604   1.353   6.022
10440SOL     OW32218   0.650   5.960   0.679
10440SOL    HW132219   0.652   5.903   0.597
10440SOL    HW232220   0.557   5.995   0.693
10441SOL     OW32221   5.184   1.789   6.540
10441SOL    HW132222   5.116   1.762   6.608
10441SOL    HW232223   5.253   1.848   6.583
10442SOL     OW32224   2.869   5.306   5.519
10442SOL    HW132225   2.857   5.242   5.443
10442SOL    HW232226   2.947   5.277   5.575
10443SOL     OW32227   4.923   3.459   4.601
10443SOL    HW132228   4.888   3.379   4.553
10443SOL    HW232229   5.015   3.479   4.568
10444SOL     OW32230   4.322   5.545   4.816
10444SOL    HW132231   4.350   5.582   4.905
10444SOL    HW232232   4.233   5.581   4.791
10445SOL     OW32233   0.751   4.823   4.329
10445SOL    HW132234   0.695   4.806   4.411
10445SOL    HW232235   0.823   4.754   4.323
10446SOL     OW32236   1.274   3.739   6.151
10446SOL    HW132237   1.223   3.814   6.109
10446SOL    HW232238   1.302   3.764   6.243
10447SOL     OW32239   0.368   1.473   1.843
10447SOL    HW132240   0.364   1.563   1.800
10447SOL    HW232241   0.276   1.434   1.847
10448SOL     OW32242   4.415   3.089   1.193
10448SOL    HW132243   4.362   3.118   1.113
10448SOL    HW232244   4.382   3.138   1.273
10449SOL     OW32245   2.734   5.453   4.485
10449SOL    HW132246   2.816   5.464   4.542
10449SOL    HW232247   2.668   5.395   4.532
10450SOL     OW32248   0.736   2.705   6.854
10450SOL    HW132249   0.673   2.659   6.791
10450SOL    HW232250   0.697   2.793   6.881
10451SOL     OW32251   2.838   5.143   2.617
10451SOL    HW132252   2.765   5.210   2.626
10451SOL    HW232253   2.805   5.054   2.649
10452SOL     OW32254   6.695   3.210   3.698
10452SOL    HW132255   6.717   3.115   3.676
10452SOL    HW232256   6.641   3.250   3.624
10453SOL     OW32257   5.649   6.010   1.976
10453SOL    HW132258   5.733   6.064   1.984
10453SOL    HW232259   5.575   6.055   2.026
10454SOL     OW32260   5.356   2.733   2.239
10454SOL    HW132261   5.407   2.656   2.280
10454SOL    HW232262   5.367   2.814   2.297
10455SOL     OW32263   0.624   5.107   3.309
10455SOL    HW132264   0.711   5.129   3.353
10455SOL    HW232265   0.552   5.103   3.378
10456SOL     OW32266   3.032   6.117   1.389
10456SOL    HW132267   3.027   6.061   1.472
10456SOL    HW232268   3.115   6.173   1.393
10457SOL     OW32269   3.639   3.169   4.259
10457SOL    HW132270   3.618   3.162   4.356
10457SOL    HW232271   3.663   3.079   4.223
10458SOL     OW32272   6.699   6.668   0.180
10458SOL    HW132273   6.779   6.608   0.188
10458SOL    HW232274   6.661   6.660   0.087
10459SOL     OW32275   5.625   5.458   2.771
10459SOL    HW132276   5.595   5.553   2.775
10459SOL    HW232277   5.611   5.423   2.678
10460SOL     OW32278   1.624   5.779   1.472
10460SOL    HW132279   1.598   5.706   1.410
10460SOL    HW232280   1.569   5.860   1.454
10461SOL     OW32281   1.437   6.325   5.860
10461SOL    HW132282   1.401   6.259   5.794
10461SOL    HW232283   1.521   6.288   5.901
10462SOL     OW32284   5.983   0.997   1.759
10462SOL    HW132285   5.884   0.987   1.765
10462SOL    HW232286   6.019   1.024   1.848
10463SOL     OW32287   3.257   3.971   5.761
10463SOL    HW132288   3.274   4.050   5.702
10463SOL    HW232289   3.159   3.963   5.779
10464SOL     OW32290   4.499   0.285   0.936
10464SOL    HW132291   4.568   0.354   0.960
10464SOL    HW232292   4.462   0.244   1.020
10465SOL     OW32293   0.025   0.215   6.462
10465SOL    HW132294   0.057   0.132   6.416
10465SOL    HW232295   7.007   0.276   6.394
10466SOL     OW32296   4.990   5.776   5.203
10466SOL    HW132297   4.924   5.851   5.204
10466SOL    HW232298   5.069   5.801   5.148
10467SOL     OW32299   1.852   1.768   5.489
10467SOL    HW132300   1.818   1.851   5.532
10467SOL    HW232301   1.951   1.761   5.502
10468SOL     OW32302   4.016   6.219   4.186
10468SOL    HW132303   3.969   6.221   4.274
10468SOL    HW232304   3.951   6.195   4.114
10469SOL     OW32305   2.296   3.884   0.987
10469SOL    HW132306   2.387   3.870   1.026
10469SOL    HW232307   2.229   3.830   1.037
10470SOL     OW32308   2.088   1.830   3.945
10470SOL    HW132309   2.087   1.907   3.882
10470SOL    HW232310   2.104   1.745   3.895
10471SOL     OW32311   2.369   4.021   1.724
10471SOL    HW132312   2.357   4.059   1.632
10471SOL    HW232313   2.380   3.922   1.719
10472SOL     OW32314   3.909   0.107   1.617
10472SOL    HW132315   3.878   0.015   1.594
10472SOL    HW232316   3.991   0.101   1.674
10473SOL     OW32317   5.584   6.724   0.757
10473SOL    HW132318   5.670   6.775   0.763
10473SOL    HW232319   5.512   6.775   0.805
10474SOL     OW32320   4.709   0.615   4.568
10474SOL    HW132321   4.784   0.657   4.617
10474SOL    HW232322   4.623   0.633   4.616
10475SOL     OW32323   4.146   5.743   1.277
10475SOL    HW132324   4.175   5.654   1.242
10475SOL    HW232325   4.214   5.812   1.254
10476SOL     OW32326   6.590   5.531   0.084
10476SOL    HW132327   6.530   5.475   0.028
10476SOL    HW232328   6.670   5.558   0.031
10477SOL     OW32329   5.599   3.318   5.078
10477SOL    HW132330   5.644   3.281   4.997
10477SOL    HW232331   5.623   3.263   5.158
10478SOL     OW32332   1.170   6.703   6.920
10478SOL    HW132333   1.178   6.771   6.848
10478SOL    HW232334   1.181   6.611   6.881
10479SOL     OW32335   1.472   2.677   2.200
10479SOL    HW132336   1.486   2.620   2.119
10479SOL    HW232337   1.526   2.761   2.192
10480SOL     OW32338   5.181   6.473   1.777
10480SOL    HW132339   5.258   6.409   1.773
10480SOL    HW232340   5.147   6.477   1.871
10481SOL     OW32341   2.503   1.093   4.888
10481SOL    HW132342   2.553   1.123   4.970
10481SOL    HW232343   2.480   1.173   4.832
10482SOL     OW32344   0.924   6.457   4.807
10482SOL    HW132345   0.948   6.363   4.783
10482SOL    HW232346   0.892   6.461   4.902
10483SOL     OW32347   6.312   5.647   0.677
10483SOL    HW132348   6.264   5.560   0.662
10483SOL    HW232349   6.410   5.633   0.666
10484SOL     OW32350   6.884   1.070   1.301
10484SOL    HW132351   6.975   1.028   1.299
10484SOL    HW232352   6.893   1.170   1.304
10485SOL     OW32353   3.114   4.005   2.815
10485SOL    HW132354   3.128   4.002   2.716
10485SOL    HW232355   3.028   3.960   2.839
10486SOL     OW32356   0.041   0.233   6.030
10486SOL    HW132357   0.111   0.304   6.036
10486SOL    HW232358   0.021   0.198   6.122
10487SOL     OW32359   4.942   1.636   1.851
10487SOL    HW132360   4.899   1.546   1.860
10487SOL    HW232361   4.875   1.701   1.815
10488SOL     OW32362   0.787   2.631   5.463
10488SOL    HW132363   0.808   2.707   5.402
10488SOL    HW232364   0.866   2.611   5.521
10489SOL     OW32365   6.464   5.257   4.229
10489SOL    HW132366   6.383   5.211   4.264
10489SOL    HW232367   6.497   5.208   4.147
10490SOL     OW32368   5.927   0.274   0.896
10490SOL    HW132369   5.831   0.301   0.892
10490SOL    HW232370   5.937   0.179   0.864
10491SOL     OW32371   1.654   3.110   6.734
10491SOL    HW132372   1.583   3.175   6.761
10491SOL    HW232373   1.622   3.017   6.750
10492SOL     OW32374   4.830   0.139   0.657
10492SOL    HW132375   4.835   0.039   0.663
10492SOL    HW232376   4.900   0.179   0.716
10493SOL     OW32377   4.185   5.351   1.158
10493SOL    HW132378   4.099   5.325   1.114
10493SOL    HW232379   4.217   5.438   1.122
10494SOL     OW32380   0.802   4.733   6.315
10494SOL    HW132381   0.776   4.676   6.237
10494SOL    HW232382   0.724   4.741   6.377
10495SOL     OW32383   0.036   6.400   6.170
10495SOL    HW132384   0.099   6.472   6.200
10495SOL    HW232385   6.975   6.442   6.140
10496SOL     OW32386   7.024   3.634   5.323
10496SOL    HW132387   0.028   3.691   5.400
10496SOL    HW232388   0.060   3.555   5.316
10497SOL     OW32389   2.601   0.144   2.049
10497SOL    HW132390   2.627   0.124   1.954
10497SOL    HW232391   2.502   0.136   2.059
10498SOL     OW32392   4.908   5.600   0.501
10498SOL    HW132393   4.941   5.684   0.457
10498SOL    HW232394   4.965   5.523   0.472
10499SOL     OW32395   6.027   5.789   1.715
10499SOL    HW132396   6.118   5.829   1.721
10499SOL    HW232397   6.026   5.717   1.645
10500SOL     OW32398   5.350   4.607   4.972
10500SOL    HW132399   5.366   4.547   4.893
10500SOL    HW232400   5.259   4.646   4.966
10501SOL     OW32401   2.176   5.746   2.051
10501SOL    HW132402   2.125   5.660   2.049
10501SOL    HW232403   2.164   5.790   2.140
10502SOL     OW32404   3.278   3.436   2.413
10502SOL    HW132405   3.180   3.441   2.393
10502SOL    HW232406   3.330   3.444   2.328
10503SOL     OW32407   0.031   3.844   6.230
10503SOL    HW132408   0.009   3.835   6.133
10503SOL    HW232409   0.109   3.787   6.253
10504SOL     OW32410   2.144   3.366   6.316
10504SOL    HW132411   2.204   3.286   6.313
10504SOL    HW232412   2.159   3.416   6.401
10505SOL     OW32413   5.888   6.391   2.028
10505SOL    HW132414   5.941   6.402   1.944
10505SOL    HW232415   5.934   6.438   2.103
10506SOL     OW32416   0.586   3.219   6.796
10506SOL    HW132417   0.510   3.176   6.844
10506SOL    HW232418   0.661   3.236   6.859
10507SOL     OW32419   2.490   4.861   0.053
10507SOL    HW132420   2.414   4.853   7.014
10507SOL    HW232421   2.455   4.864   0.147
10508SOL     OW32422   1.134   5.413   5.511
10508SOL    HW132423   1.101   5.349   5.441
10508SOL    HW232424   1.193   5.481   5.469
10509SOL     OW32425   4.985   3.482   4.191
10509SOL    HW132426   4.985   3.577   4.223
10509SOL    HW232427   5.053   3.472   4.118
10510SOL     OW32428   4.846   6.043   5.200
10510SOL    HW132429   4.903   6.103   5.143
10510SOL    HW232430   4.757   6.029   5.156
10511SOL     OW32431   2.819   1.192   2.062
10511SOL    HW132432   2.880   1.259   2.106
10511SOL    HW232433   2.785   1.128   2.131
10512SOL     OW32434   4.251   0.297   5.876
10512SOL    HW132435   4.216   0.223   5.820
10512SOL    HW232436   4.342   0.275   5.909
10513SOL     OW32437   5.334   2.966   2.367
10513SOL    HW132438   5.330   2.981   2.466
10513SOL    HW232439   5.293   3.045   2.320
10514SOL     OW32440   1.313   2.617   1.747
10514SOL    HW132441   1.368   2.607   1.830
10514SOL    HW232442   1.265   2.531   1.728
10515SOL     OW32443   2.074   3.199   4.764
10515SOL    HW132444   2.115   3.290   4.771
10515SOL    HW232445   1.987   3.198   4.813
10516SOL     OW32446   3.526   2.745   0.266
10516SOL    HW132447   3.578   2.800   0.201
10516SOL    HW232448   3.581   2.731   0.349
10517SOL     OW32449   1.240   2.927   3.614
10517SOL    HW132450   1.176   3.001   3.594
10517SOL    HW232451   1.319   2.934   3.552
10518SOL     OW32452   0.623   5.049   2.138
10518SOL    HW132453   0.715   5.048   2.175
10518SOL    HW232454   0.564   4.988   2.191
10519SOL     OW32455   2.128   6.151   1.407
10519SOL    HW132456   2.099   6.213   1.334
10519SOL    HW232457   2.089   6.060   1.391
10520SOL     OW32458   6.243   1.313   6.285
10520SOL    HW132459   6.212   1.271   6.370
10520SOL    HW232460   6.189   1.279   6.209
10521SOL     OW32461   5.821   3.121   1.802
10521SOL    HW132462   5.764   3.131   1.720
10521SOL    HW232463   5.851   3.211   1.833
10522SOL     OW32464   5.873   2.366   3.037
10522SOL    HW132465   5.914   2.275   3.040
10522SOL    HW232466   5.775   2.359   3.054
10523SOL     OW32467   0.682   4.109   3.587
10523SOL    HW132468   0.678   4.156   3.499
10523SOL    HW232469   0.740   4.028   3.580
10524SOL     OW32470   7.018   5.643   3.897
10524SOL    HW132471   0.057   5.686   3.960
10524SOL    HW232472   0.017   5.667   3.803
10525SOL     OW32473   4.213   0.864   4.143
10525SOL    HW132474   4.309   0.837   4.145
10525SOL    HW232475   4.206   0.964   4.147
10526SOL     OW32476   0.407   5.438   0.400
10526SOL    HW132477   0.480   5.494   0.360
10526SOL    HW232478   0.439   5.344   0.410
10527SOL     OW32479   0.792   1.487   5.084
10527SOL    HW132480   0.743   1.555   5.029
10527SOL    HW232481   0.887   1.481   5.053
10528SOL     OW32482   0.633   5.088   6.802
10528SOL    HW132483   0.643   5.158   6.873
10528SOL    HW232484   0.543   5.098   6.759
10529SOL     OW32485   1.914   6.673   6.140
10529SOL    HW132486   1.818   6.653   6.157
10529SOL    HW232487   1.947   6.740   6.207
10530SOL     OW32488   0.930   6.947   6.524
10530SOL    HW132489   1.010   6.925   6.468
10530SOL    HW232490   0.847   6.931   6.470
10531SOL     OW32491   3.129   2.528   5.418
10531SOL    HW132492   3.171   2.490   5.335
10531SOL    HW232493   3.034   2.553   5.398
10532SOL     OW32494   5.826   6.447   6.397
10532SOL    HW132495   5.813   6.363   6.450
10532SOL    HW232496   5.740   6.498   6.393
10533SOL     OW32497   3.629   5.404   3.970
10533SOL    HW132498   3.606   5.482   4.028
10533SOL    HW232499   3.680   5.336   4.023
10534SOL     OW32500   0.783   5.984   2.758
10534SOL    HW132501   0.719   6.055   2.787
10534SOL    HW232502   0.866   5.990   2.813
10535SOL     OW32503   2.626   1.324   2.363
10535SOL    HW132504   2.581   1.408   2.332
10535SOL    HW232505   2.655   1.334   2.458
10536SOL     OW32506   4.928   1.275   4.273
10536SOL    HW132507   4.962   1.359   4.315
10536SOL    HW232508   5.002   1.232   4.221
10537SOL     OW32509   4.978   6.843   2.970
10537SOL    HW132510   4.962   6.787   2.889
10537SOL    HW232511   4.925   6.807   3.047
10538SOL     OW32512   6.262   3.124   2.629
10538SOL    HW132513   6.196   3.060   2.587
10538SOL    HW232514   6.349   3.077   2.642
10539SOL     OW32515   6.065   6.040   2.587
10539SOL    HW132516   6.098   6.114   2.528
10539SOL    HW232517   6.069   5.953   2.538
10540SOL     OW32518   2.614   4.232   6.554
10540SOL    HW132519   2.690   4.269   6.501
10540SOL    HW232520   2.543   4.198   6.492
10541SOL     OW32521   3.023   3.151   5.183
10541SOL    HW132522   3.029   3.055   5.154
10541SOL    HW232523   2.969   3.157   5.267
10542SOL     OW32524   6.486   0.016   4.423
10542SOL    HW132525   6.518   6.947   4.431
10542SOL    HW232526   6.462   0.036   4.328
10543SOL     OW32527   6.796   2.780   5.677
10543SOL    HW132528   6.733   2.717   5.630
10543SOL    HW232529   6.885   2.736   5.689
10544SOL     OW32530   0.908   1.487   4.163
10544SOL    HW132531   0.888   1.391   4.185
10544SOL    HW232532   1.004   1.495   4.136
10545SOL     OW32533   1.968   2.332   2.931
10545SOL    HW132534   1.971   2.342   3.030
10545SOL    HW232535   1.958   2.236   2.906
10546SOL     OW32536   3.194   6.336   1.331
10546SOL    HW132537   3.099   6.333   1.298
10546SOL    HW232538   3.198   6.388   1.416
10547SOL     OW32539   4.356   0.072   5.053
10547SOL    HW132540   4.296   0.015   5.110
10547SOL    HW232541   4.403   0.014   4.986
10548SOL     OW32542   0.878   4.902   4.641
10548SOL    HW132543   0.831   4.961   4.575
10548SOL    HW232544   0.859   4.806   4.618
10549SOL     OW32545   0.332   1.304   0.635
10549SOL    HW132546   0.382   1.363   0.571
10549SOL    HW232547   0.372   1.212   0.632
10550SOL     OW32548   3.862   6.016   3.085
10550SOL    HW132549   3.781   6.067   3.058
10550SOL    HW232550   3.937   6.080   3.101
10551SOL     OW32551   2.798   1.953   5.756
10551SOL    HW132552   2.785   1.948   5.657
10551SOL    HW232553   2.885   1.999   5.776
10552SOL     OW32554   3.447   1.036   4.785
10552SOL    HW132555   3.356   1.013   4.820
10552SOL    HW232556   3.477   1.123   4.825
10553SOL     OW32557   0.290   5.184   0.749
10553SOL    HW132558   0.308   5.095   0.792
10553SOL    HW232559   0.373   5.240   0.753
10554SOL     OW32560   6.532   5.315   2.644
10554SOL    HW132561   6.616   5.353   2.682
10554SOL    HW232562   6.459   5.382   2.650
10555SOL     OW32563   3.476   2.229   0.589
10555SOL    HW132564   3.391   2.181   0.569
10555SOL    HW232565   3.456   2.319   0.627
10556SOL     OW32566   1.904   1.283   3.118
10556SOL    HW132567   1.900   1.188   3.090
10556SOL    HW232568   1.912   1.342   3.037
10557SOL     OW32569   1.772   3.647   4.137
10557SOL    HW132570   1.798   3.574   4.074
10557SOL    HW232571   1.755   3.731   4.086
10558SOL     OW32572   2.981   5.501   5.062
10558SOL    HW132573   2.918   5.578   5.053
10558SOL    HW232574   2.930   5.416   5.066
10559SOL     OW32575   3.443   0.333   6.978
10559SOL    HW132576   3.452   0.260   0.020
10559SOL    HW232577   3.496   0.310   6.896
10560SOL     OW32578   4.601   6.446   1.474
10560SOL    HW132579   4.581   6.379   1.545
10560SOL    HW232580   4.680   6.501   1.501
10561SOL     OW32581   5.430   4.223   1.192
10561SOL    HW132582   5.469   4.298   1.245
10561SOL    HW232583   5.497   4.150   1.183
10562SOL     OW32584   2.915   0.236   1.498
10562SOL    HW132585   2.847   0.163   1.488
10562SOL    HW232586   2.918   0.291   1.415
10563SOL     OW32587   0.468   0.066   0.777
10563SOL    HW132588   0.466   7.003   0.731
10563SOL    HW232589   0.509   0.056   0.868
10564SOL     OW32590   6.512   5.737   4.200
10564SOL    HW132591   6.607   5.734   4.167
10564SOL    HW232592   6.512   5.726   4.299
10565SOL     OW32593   6.555   6.749   5.538
10565SOL    HW132594   6.512   6.745   5.448
10565SOL    HW232595   6.538   6.839   5.579
10566SOL     OW32596   2.794   2.643   0.137
10566SOL    HW132597   2.883   2.658   0.181
10566SOL    HW232598   2.729   2.711   0.170
10567SOL     OW32599   1.836   2.681   6.110
10567SOL    HW132600   1.884   2.666   6.024
10567SOL    HW232601   1.902   2.707   6.181
10568SOL     OW32602   5.165   2.957   6.148
10568SOL    HW132603   5.096   2.940   6.218
10568SOL    HW232604   5.145   3.042   6.099
10569SOL     OW32605   5.012   0.173   2.175
10569SOL    HW132606   4.963   0.231   2.240
10569SOL    HW232607   5.005   0.212   2.083
10570SOL     OW32608   0.261   5.102   4.585
10570SOL    HW132609   0.335   5.124   4.649
10570SOL    HW232610   0.296   5.043   4.513
10571SOL     OW32611   6.620   4.739   6.225
10571SOL    HW132612   6.632   4.785   6.138
10571SOL    HW232613   6.585   4.646   6.209
10572SOL     OW32614   6.507   4.246   1.279
10572SOL    HW132615   6.462   4.332   1.303
10572SOL    HW232616   6.467   4.172   1.333
10573SOL     OW32617   5.902   0.447   3.611
10573SOL    HW132618   5.816   0.495   3.595
10573SOL    HW232619   5.910   0.424   3.708
10574SOL     OW32620   0.120   1.092   3.399
10574SOL    HW132621   0.178   1.100   3.318
10574SOL    HW232622   0.045   1.027   3.380
10575SOL     OW32623   6.223   1.201   2.349
10575SOL    HW132624   6.123   1.202   2.360
10575SOL    HW232625   6.257   1.295   2.341
10576SOL     OW32626   2.428   4.907   3.455
10576SOL    HW132627   2.453   4.837   3.522
10576SOL    HW232628   2.356   4.965   3.494
10577SOL     OW32629   4.107   5.976   0.759
10577SOL    HW132630   4.064   5.978   0.669
10577SOL    HW232631   4.038   5.956   0.829
10578SOL     OW32632   6.431   1.946   3.710
10578SOL    HW132633   6.453   1.875   3.643
10578SOL    HW232634   6.504   1.952   3.778
10579SOL     OW32635   2.629   3.069   1.041
10579SOL    HW132636   2.593   2.993   1.095
10579SOL    HW232637   2.619   3.154   1.092
10580SOL     OW32638   6.222   6.627   6.098
10580SOL    HW132639   6.267   6.572   6.168
10580SOL    HW232640   6.277   6.627   6.014
10581SOL     OW32641   5.499   6.843   3.747
10581SOL    HW132642   5.437   6.882   3.814
10581SOL    HW232643   5.560   6.915   3.712
10582SOL     OW32644   5.383   4.731   6.610
10582SOL    HW132645   5.454   4.775   6.554
10582SOL    HW232646   5.386   4.768   6.703
10583SOL     OW32647   2.856   6.875   3.908
10583SOL    HW132648   2.927   6.901   3.973
10583SOL    HW232649   2.837   6.951   3.846
10584SOL     OW32650   6.624   0.417   5.571
10584SOL    HW132651   6.658   0.444   5.480
10584SOL    HW232652   6.690   0.358   5.616
10585SOL     OW32653   0.665   1.931   6.141
10585SOL    HW132654   0.599   1.890   6.078
10585SOL    HW232655   0.705   1.860   6.198
10586SOL     OW32656   4.747   4.493   5.440
10586SOL    HW132657   4.771   4.565   5.506
10586SOL    HW232658   4.680   4.431   5.481
10587SOL     OW32659   0.901   5.661   5.702
10587SOL    HW132660   0.869   5.732   5.764
10587SOL    HW232661   0.967   5.602   5.749
10588SOL     OW32662   1.118   3.465   3.908
10588SOL    HW132663   1.129   3.418   3.820
10588SOL    HW232664   1.126   3.399   3.983
10589SOL     OW32665   4.968   6.554   3.993
10589SOL    HW132666   5.018   6.631   4.033
10589SOL    HW232667   4.997   6.469   4.036
10590SOL     OW32668   0.481   5.985   1.662
10590SOL    HW132669   0.537   6.033   1.730
10590SOL    HW232670   0.385   5.991   1.688
10591SOL     OW32671   1.021   1.497   1.183
10591SOL    HW132672   1.008   1.405   1.148
10591SOL    HW232673   1.066   1.493   1.272
10592SOL     OW32674   5.719   2.369   5.119
10592SOL    HW132675   5.805   2.416   5.100
10592SOL    HW232676   5.681   2.333   5.034
10593SOL     OW32677   2.465   6.904   0.976
10593SOL    HW132678   2.480   6.807   0.997
10593SOL    HW232679   2.397   6.941   1.039
10594SOL     OW32680   3.792   0.587   3.229
10594SOL    HW132681   3.833   0.497   3.244
10594SOL    HW232682   3.774   0.601   3.132
10595SOL     OW32683   5.869   0.890   0.877
10595SOL    HW132684   5.851   0.831   0.798
10595SOL    HW232685   5.963   0.923   0.873
10596SOL     OW32686   4.552   1.539   6.814
10596SOL    HW132687   4.485   1.469   6.791
10596SOL    HW232688   4.635   1.496   6.850
10597SOL     OW32689   2.060   0.306   6.194
10597SOL    HW132690   2.066   0.269   6.102
10597SOL    HW232691   2.112   0.247   6.256
10598SOL     OW32692   2.637   1.852   5.979
10598SOL    HW132693   2.672   1.806   6.060
10598SOL    HW232694   2.713   1.888   5.925
10599SOL     OW32695   6.785   4.140   5.980
10599SOL    HW132696   6.760   4.060   5.926
10599SOL    HW232697   6.797   4.112   6.076
10600SOL     OW32698   2.519   2.025   1.927
10600SOL    HW132699   2.492   2.086   2.001
10600SOL    HW232700   2.576   1.952   1.964
10601SOL     OW32701   0.196   6.690   6.734
10601SOL    HW132702   0.133   6.626   6.689
10601SOL    HW232703   0.290   6.667   6.708
10602SOL     OW32704   6.980   6.844   0.073
10602SOL    HW132705   6.947   6.938   0.068
10602SOL    HW232706   6.991   6.817   0.169
10603SOL     OW32707   4.116   6.619   1.984
10603SOL    HW132708   4.105   6.530   2.028
10603SOL    HW232709   4.209   6.629   1.950
10604SOL     OW32710   0.335   6.720   5.169
10604SOL    HW132711   0.253   6.774   5.192
10604SOL    HW232712   0.308   6.638   5.120
10605SOL     OW32713   2.796   0.833   0.883
10605SOL    HW132714   2.757   0.887   0.809
10605SOL    HW232715   2.789   0.736   0.861
10606SOL     OW32716   6.179   0.989   1.563
10606SOL    HW132717   6.189   0.894   1.533
10606SOL    HW232718   6.112   0.993   1.637
10607SOL     OW32719   4.367   4.656   6.243
10607SOL    HW132720   4.405   4.651   6.151
10607SOL    HW232721   4.414   4.590   6.303
10608SOL     OW32722   6.354   3.093   3.116
10608SOL    HW132723   6.337   3.007   3.068
10608SOL    HW232724   6.293   3.164   3.080
10609SOL     OW32725   3.519   0.530   0.118
10609SOL    HW132726   3.479   0.455   0.066
10609SOL    HW232727   3.589   0.575   0.062
10610SOL     OW32728   0.225   1.397   4.680
10610SOL    HW132729   0.227   1.481   4.627
10610SOL    HW232730   0.194   1.321   4.622
10611SOL     OW32731   2.868   5.780   5.057
10611SOL    HW132732   2.772   5.755   5.050
10611SOL    HW232733   2.889   5.852   4.991
10612SOL     OW32734   5.525   1.353   3.738
10612SOL    HW132735   5.576   1.392   3.815
10612SOL    HW232736   5.505   1.257   3.757
10613SOL     OW32737   6.762   6.203   4.161
10613SOL    HW132738   6.706   6.152   4.096
10613SOL    HW232739   6.722   6.197   4.252
10614SOL     OW32740   5.236   0.404   6.504
10614SOL    HW132741   5.205   0.313   6.474
10614SOL    HW232742   5.241   0.465   6.426
10615SOL     OW32743   2.680   2.394   6.302
10615SOL    HW132744   2.599   2.443   6.268
10615SOL    HW232745   2.687   2.406   6.401
10616SOL     OW32746   3.197   6.210   6.833
10616SOL    HW132747   3.177   6.120   6.795
10616SOL    HW232748   3.190   6.279   6.761
10617SOL     OW32749   2.752   3.538   1.649
10617SOL    HW132750   2.844   3.576   1.660
10617SOL    HW232751   2.740   3.461   1.711
10618SOL     OW32752   0.617   5.454   5.295
10618SOL    HW132753   0.576   5.494   5.378
10618SOL    HW232754   0.563   5.375   5.266
10619SOL     OW32755   0.920   1.896   3.105
10619SOL    HW132756   0.878   1.911   3.016
10619SOL    HW232757   0.851   1.904   3.176
10620SOL     OW32758   2.447   0.003   5.657
10620SOL    HW132759   2.380   0.077   5.646
10620SOL    HW232760   2.485   0.007   5.749
10621SOL     OW32761   1.155   3.765   2.884
10621SOL    HW132762   1.170   3.678   2.932
10621SOL    HW232763   1.220   3.833   2.917
10622SOL     OW32764   4.601   3.205   0.787
10622SOL    HW132765   4.636   3.116   0.815
10622SOL    HW232766   4.621   3.272   0.859
10623SOL     OW32767   6.129   5.942   5.836
10623SOL    HW132768   6.162   5.881   5.764
10623SOL    HW232769   6.031   5.926   5.851
10624SOL     OW32770   0.842   2.646   5.096
10624SOL    HW132771   0.836   2.554   5.135
10624SOL    HW232772   0.914   2.697   5.143
10625SOL     OW32773   6.802   3.897   7.005
10625SOL    HW132774   6.879   3.883   0.042
10625SOL    HW232775   6.764   3.808   6.978
10626SOL     OW32776   4.098   3.012   1.803
10626SOL    HW132777   4.176   2.978   1.751
10626SOL    HW232778   4.128   3.042   1.894
10627SOL     OW32779   5.669   6.572   5.863
10627SOL    HW132780   5.650   6.562   5.961
10627SOL    HW232781   5.768   6.579   5.850
10628SOL     OW32782   4.491   0.382   0.137
10628SOL    HW132783   4.510   0.329   0.220
10628SOL    HW232784   4.486   0.479   0.160
10629SOL     OW32785   3.852   5.321   5.226
10629SOL    HW132786   3.833   5.226   5.201
10629SOL    HW232787   3.786   5.352   5.293
10630SOL     OW32788   4.550   0.462   2.811
10630SOL    HW132789   4.599   0.379   2.837
10630SOL    HW232790   4.565   0.533   2.880
10631SOL     OW32791   4.770   5.646   6.871
10631SOL    HW132792   4.849   5.601   6.831
10631SOL    HW232793   4.765   5.740   6.837
10632SOL     OW32794   5.035   6.107   3.048
10632SOL    HW132795   4.941   6.080   3.069
10632SOL    HW232796   5.034   6.193   2.996
10633SOL     OW32797   2.085   3.033   2.267
10633SOL    HW132798   2.068   3.061   2.172
10633SOL    HW232799   2.148   2.955   2.268
10634SOL     OW32800   1.449   4.978   0.089
10634SOL    HW132801   1.542   5.015   0.089
10634SOL    HW232802   1.453   4.879   0.074
10635SOL     OW32803   2.286   3.474   0.469
10635SOL    HW132804   2.187   3.469   0.462
10635SOL    HW232805   2.328   3.404   0.412
10636SOL     OW32806   6.814   2.670   6.845
10636SOL    HW132807   6.847   2.628   6.760
10636SOL    HW232808   6.827   2.769   6.840
10637SOL     OW32809   2.656   6.445   6.346
10637SOL    HW132810   2.603   6.434   6.262
10637SOL    HW232811   2.743   6.395   6.338
10638SOL     OW32812   6.625   5.506   1.889
10638SOL    HW132813   6.667   5.546   1.970
10638SOL    HW232814   6.551   5.565   1.858
10639SOL     OW32815   2.378   3.749   1.731
10639SOL    HW132816   2.362   3.666   1.784
10639SOL    HW232817   2.470   3.746   1.691
10640SOL     OW32818   3.896   0.289   3.503
10640SOL    HW132819   3.889   0.190   3.512
10640SOL    HW232820   3.938   0.312   3.415
10641SOL     OW32821   1.481   0.328   3.462
10641SOL    HW132822   1.421   0.249   3.455
10641SOL    HW232823   1.450   0.388   3.536
10642SOL     OW32824   6.525   2.609   0.119
10642SOL    HW132825   6.546   2.609   0.021
10642SOL    HW232826   6.583   2.677   0.165
10643SOL     OW32827   1.792   5.305   5.082
10643SOL    HW132828   1.693   5.317   5.075
10643SOL    HW232829   1.823   5.241   5.012
10644SOL     OW32830   6.485   2.713   1.850
10644SOL    HW132831   6.437   2.710   1.937
10644SOL    HW232832   6.427   2.674   1.778
10645SOL     OW32833   1.935   3.093   3.188
10645SOL    HW132834   1.910   3.003   3.224
10645SOL    HW232835   1.972   3.149   3.262
10646SOL     OW32836   5.342   1.299   4.444
10646SOL    HW132837   5.271   1.287   4.513
10646SOL    HW232838   5.301   1.291   4.353
10647SOL     OW32839   4.286   5.045   5.209
10647SOL    HW132840   4.230   5.083   5.135
10647SOL    HW232841   4.234   4.975   5.257
10648SOL     OW32842   6.312   5.036   5.721
10648SOL    HW132843   6.263   5.109   5.673
10648SOL    HW232844   6.252   4.996   5.790
10649SOL     OW32845   0.301   3.420   3.884
10649SOL    HW132846   0.375   3.483   3.860
10649SOL    HW232847   0.233   3.468   3.939
10650SOL     OW32848   0.112   0.155   3.991
10650SOL    HW132849   0.162   0.108   4.064
10650SOL    HW232850   0.014   0.143   4.004
10651SOL     OW32851   5.358   6.639   6.077
10651SOL    HW132852   5.304   6.721   6.093
10651SOL    HW232853   5.304   6.558   6.100
10652SOL     OW32854   1.405   6.525   6.084
10652SOL    HW132855   1.368   6.442   6.043
10652SOL    HW232856   1.384   6.526   6.182
10653SOL     OW32857   3.808   6.278   4.799
10653SOL    HW132858   3.763   6.238   4.879
10653SOL    HW232859   3.741   6.290   4.726
10654SOL     OW32860   5.580   1.364   4.181
10654SOL    HW132861   5.640   1.331   4.254
10654SOL    HW232862   5.495   1.399   4.221
10655SOL     OW32863   1.605   4.753   1.515
10655SOL    HW132864   1.523   4.809   1.531
10655SOL    HW232865   1.628   4.704   1.599
10656SOL     OW32866   6.301   1.135   1.967
10656SOL    HW132867   6.328   1.086   1.884
10656SOL    HW232868   6.211   1.102   1.997
10657SOL     OW32869   6.046   0.813   4.370
10657SOL    HW132870   6.051   0.887   4.437
10657SOL    HW232871   6.074   0.727   4.412
10658SOL     OW32872   5.519   3.690   4.949
10658SOL    HW132873   5.445   3.663   5.011
10658SOL    HW232874   5.606   3.651   4.982
10659SOL     OW32875   0.871   4.819   1.000
10659SOL    HW132876   0.856   4.759   1.079
10659SOL    HW232877   0.945   4.883   1.020
10660SOL     OW32878   5.927   3.551   5.740
10660SOL    HW132879   5.903   3.509   5.652
10660SOL    HW232880   6.015   3.597   5.731
10661SOL     OW32881   1.442   4.581   0.321
10661SOL    HW132882   1.420   4.659   0.380
10661SOL    HW232883   1.494   4.514   0.373
10662SOL     OW32884   2.987   1.263   2.462
10662SOL    HW132885   3.065   1.201   2.469
10662SOL    HW232886   2.953   1.284   2.554
10663SOL     OW32887   1.078   1.270   3.562
10663SOL    HW132888   1.155   1.334   3.559
10663SOL    HW232889   0.992   1.320   3.567
10664SOL     OW32890   0.734   5.264   4.638
10664SOL    HW132891   0.754   5.308   4.725
10664SOL    HW232892   0.806   5.288   4.572
10665SOL     OW32893   2.306   3.090   6.721
10665SOL    HW132894   2.309   3.102   6.821
10665SOL    HW232895   2.370   3.018   6.695
10666SOL     OW32896   3.914   3.163   2.569
10666SOL    HW132897   3.858   3.114   2.636
10666SOL    HW232898   3.931   3.104   2.490
10667SOL     OW32899   4.953   1.488   3.208
10667SOL    HW132900   4.938   1.482   3.307
10667SOL    HW232901   4.877   1.538   3.166
10668SOL     OW32902   3.488   1.948   5.318
10668SOL    HW132903   3.439   2.034   5.300
10668SOL    HW232904   3.499   1.898   5.233
10669SOL     OW32905   5.752   0.751   0.666
10669SOL    HW132906   5.732   0.701   0.581
10669SOL    HW232907   5.686   0.825   0.678
10670SOL     OW32908   5.292   4.030   4.364
10670SOL    HW132909   5.281   4.061   4.459
10670SOL    HW232910   5.203   4.002   4.329
10671SOL     OW32911   0.913   1.616   4.507
10671SOL    HW132912   0.960   1.641   4.423
10671SOL    HW232913   0.814   1.610   4.490
10672SOL     OW32914   6.236   4.322   1.541
10672SOL    HW132915   6.154   4.318   1.599
10672SOL    HW232916   6.276   4.413   1.546
10673SOL     OW32917   2.144   0.263   0.827
10673SOL    HW132918   2.218   0.253   0.759
10673SOL    HW232919   2.138   0.359   0.855
10674SOL     OW32920   4.180   3.559   4.647
10674SOL    HW132921   4.133   3.546   4.735
10674SOL    HW232922   4.279   3.552   4.661
10675SOL     OW32923   3.380   1.132   6.407
10675SOL    HW132924   3.352   1.037   6.422
10675SOL    HW232925   3.456   1.155   6.468
10676SOL     OW32926   0.627   5.685   5.105
10676SOL    HW132927   0.669   5.776   5.105
10676SOL    HW232928   0.622   5.650   5.198
10677SOL     OW32929   1.632   1.301   1.240
10677SOL    HW132930   1.564   1.337   1.175
10677SOL    HW232931   1.721   1.294   1.194
10678SOL     OW32932   4.211   4.838   3.838
10678SOL    HW132933   4.190   4.823   3.935
10678SOL    HW232934   4.127   4.832   3.784
10679SOL     OW32935   3.765   4.928   6.967
10679SOL    HW132936   3.840   4.919   0.008
10679SOL    HW232937   3.802   4.925   6.874
10680SOL     OW32938   3.328   1.590   4.355
10680SOL    HW132939   3.337   1.502   4.403
10680SOL    HW232940   3.235   1.599   4.319
10681SOL     OW32941   0.137   3.428   0.220
10681SOL    HW132942   0.080   3.468   0.148
10681SOL    HW232943   0.188   3.351   0.182
10682SOL     OW32944   6.944   3.244   4.748
10682SOL    HW132945   0.006   3.238   4.699
10682SOL    HW232946   6.912   3.152   4.771
10683SOL     OW32947   4.239   0.502   3.360
10683SOL    HW132948   4.335   0.477   3.369
10683SOL    HW232949   4.224   0.593   3.399
10684SOL     OW32950   4.429   5.325   1.451
10684SOL    HW132951   4.481   5.400   1.410
10684SOL    HW232952   4.331   5.344   1.444
10685SOL     OW32953   6.792   5.704   1.179
10685SOL    HW132954   6.725   5.773   1.207
10685SOL    HW232955   6.881   5.748   1.165
10686SOL     OW32956   2.486   4.420   6.225
10686SOL    HW132957   2.489   4.330   6.182
10686SOL    HW232958   2.537   4.417   6.311
10687SOL     OW32959   6.051   4.938   3.383
10687SOL    HW132960   6.037   4.870   3.456
10687SOL    HW232961   6.098   5.018   3.421
10688SOL     OW32962   5.821   1.560   2.669
10688SOL    HW132963   5.769   1.638   2.632
10688SOL    HW232964   5.762   1.507   2.729
10689SOL     OW32965   6.963   6.947   1.253
10689SOL    HW132966   6.980   6.891   1.334
10689SOL    HW232967   7.001   0.013   1.266
10690SOL     OW32968   0.233   5.038   3.182
10690SOL    HW132969   0.298   5.105   3.146
10690SOL    HW232970   0.282   4.956   3.211
10691SOL     OW32971   1.901   1.477   1.640
10691SOL    HW132972   1.887   1.566   1.598
10691SOL    HW232973   1.996   1.469   1.670
10692SOL     OW32974   2.988   0.532   4.640
10692SOL    HW132975   3.083   0.533   4.670
10692SOL    HW232976   2.975   0.600   4.567
10693SOL     OW32977   0.854   6.381   1.462
10693SOL    HW132978   0.811   6.306   1.512
10693SOL    HW232979   0.912   6.343   1.390
10694SOL     OW32980   5.021   6.834   6.722
10694SOL    HW132981   5.110   6.860   6.761
10694SOL    HW232982   4.952   6.835   6.795
10695SOL     OW32983   1.341   2.795   1.302
10695SOL    HW132984   1.332   2.791   1.202
10695SOL    HW232985   1.422   2.847   1.327
10696SOL     OW32986   6.482   3.855   5.261
10696SOL    HW132987   6.402   3.895   5.217
10696SOL    HW232988   6.509   3.771   5.213
10697SOL     OW32989   6.889   6.711   5.888
10697SOL    HW132990   6.931   6.734   5.800
10697SOL    HW232991   6.850   6.619   5.883
10698SOL     OW32992   4.718   4.155   7.012
10698SOL    HW132993   4.697   4.252   7.009
10698SOL    HW232994   4.793   4.134   6.950
10699SOL     OW32995   3.696   4.571   0.798
10699SOL    HW132996   3.651   4.536   0.880
10699SOL    HW232997   3.650   4.655   0.768
10700SOL     OW32998   5.670   0.104   0.748
10700SOL    HW132999   5.647   0.013   0.781
10700SOL    HW233000   5.703   0.099   0.654
10701SOL     OW33001   3.121   0.266   6.137
10701SOL    HW133002   3.129   0.272   6.236
10701SOL    HW233003   3.161   0.180   6.105
10702SOL     OW33004   4.907   3.716   2.576
10702SOL    HW133005   4.926   3.691   2.481
10702SOL    HW233006   4.872   3.810   2.580
10703SOL     OW33007   2.033   2.972   5.337
10703SOL    HW133008   2.129   2.954   5.361
10703SOL    HW233009   1.979   2.889   5.352
10704SOL     OW33010   6.827   4.795   2.926
10704SOL    HW133011   6.916   4.779   2.968
10704SOL    HW233012   6.758   4.735   2.967
10705SOL     OW33013   5.684   5.290   1.397
10705SOL    HW133014   5.700   5.214   1.459
10705SOL    HW233015   5.586   5.312   1.394
10706SOL     OW33016   4.020   6.834   1.288
10706SOL    HW133017   4.057   6.891   1.362
10706SOL    HW233018   3.982   6.751   1.327
10707SOL     OW33019   0.815   6.971   4.034
10707SOL    HW133020   0.737   7.025   4.064
10707SOL    HW233021   0.786   6.903   3.967
10708SOL     OW33022   4.648   1.231   1.530
10708SOL    HW133023   4.621   1.201   1.622
10708SOL    HW233024   4.572   1.281   1.488
10709SOL     OW33025   5.569   4.767   4.897
10709SOL    HW133026   5.481   4.724   4.915
10709SOL    HW233027   5.641   4.716   4.944
10710SOL     OW33028   6.312   1.238   3.720
10710SOL    HW133029   6.297   1.306   3.792
10710SOL    HW233030   6.334   1.149   3.761
10711SOL     OW33031   2.558   6.569   3.840
10711SOL    HW133032   2.515   6.659   3.837
10711SOL    HW233033   2.648   6.576   3.882
10712SOL     OW33034   2.905   0.026   2.755
10712SOL    HW133035   2.997   7.022   2.781
10712SOL    HW233036   2.870   0.091   2.823
10713SOL     OW33037   1.133   2.740   0.452
10713SOL    HW133038   1.056   2.680   0.474
10713SOL    HW233039   1.123   2.776   0.360
10714SOL     OW33040   4.360   3.176   5.505
10714SOL    HW133041   4.332   3.092   5.459
10714SOL    HW233042   4.422   3.227   5.445
10715SOL     OW33043   4.211   0.244   2.055
10715SOL    HW133044   4.291   0.239   1.995
10715SOL    HW233045   4.209   0.333   2.101
10716SOL     OW33046   5.669   2.738   3.169
10716SOL    HW133047   5.654   2.834   3.147
10716SOL    HW233048   5.734   2.731   3.245
10717SOL     OW33049   1.827   2.800   1.033
10717SOL    HW133050   1.765   2.728   1.064
10717SOL    HW233051   1.857   2.780   0.940
10718SOL     OW33052   1.267   3.645   7.019
10718SOL    HW133053   1.217   3.687   6.943
10718SOL    HW233054   1.358   3.686   7.025
10719SOL     OW33055   6.801   5.768   3.444
10719SOL    HW133056   6.895   5.736   3.435
10719SOL    HW233057   6.738   5.691   3.436
10720SOL     OW33058   6.253   5.288   4.685
10720SOL    HW133059   6.285   5.205   4.639
10720SOL    HW233060   6.174   5.266   4.742
10721SOL     OW33061   5.162   3.794   5.274
10721SOL    HW133062   5.221   3.775   5.352
10721SOL    HW233063   5.158   3.713   5.215
10722SOL     OW33064   0.464   4.815   1.153
10722SOL    HW133065   0.520   4.815   1.070
10722SOL    HW233066   0.404   4.895   1.152
10723SOL     OW33067   0.191   2.111   6.342
10723SOL    HW133068   0.236   2.134   6.256
10723SOL    HW233069   0.135   2.030   6.329
10724SOL     OW33070   5.829   6.810   6.035
10724SOL    HW133071   5.810   6.720   5.994
10724SOL    HW233072   5.872   6.869   5.967
10725SOL     OW33073   2.086   5.995   5.163
10725SOL    HW133074   2.079   5.895   5.160
10725SOL    HW233075   2.068   6.032   5.072
10726SOL     OW33076   6.062   0.848   3.839
10726SOL    HW133077   6.025   0.904   3.913
10726SOL    HW233078   6.087   0.758   3.875
10727SOL     OW33079   0.817   5.183   5.876
10727SOL    HW133080   0.821   5.179   5.776
10727SOL    HW233081   0.902   5.147   5.914
10728SOL     OW33082   1.475   4.722   6.695
10728SOL    HW133083   1.384   4.762   6.692
10728SOL    HW233084   1.469   4.624   6.676
10729SOL     OW33085   5.774   1.151   2.817
10729SOL    HW133086   5.821   1.091   2.752
10729SOL    HW233087   5.739   1.231   2.770
10730SOL     OW33088   2.254   0.541   1.342
10730SOL    HW133089   2.353   0.560   1.345
10730SOL    HW233090   2.238   0.446   1.368
10731SOL     OW33091   3.303   1.412   0.643
10731SOL    HW133092   3.238   1.335   0.644
10731SOL    HW233093   3.267   1.485   0.585
10732SOL     OW33094   0.417   4.735   5.085
10732SOL    HW133095   0.373   4.796   5.019
10732SOL    HW233096   0.376   4.747   5.175
10733SOL     OW33097   6.895   1.921   6.540
10733SOL    HW133098   6.946   1.969   6.468
10733SOL    HW233099   6.933   1.946   6.629
10734SOL     OW33100   1.080   0.639   0.572
10734SOL    HW133101   1.024   0.602   0.498
10734SOL    HW233102   1.088   0.738   0.562
10735SOL     OW33103   0.236   3.100   2.290
10735SOL    HW133104   0.274   3.154   2.214
10735SOL    HW233105   0.237   3.155   2.373
10736SOL     OW33106   1.405   0.516   3.641
10736SOL    HW133107   1.410   0.566   3.554
10736SOL    HW233108   1.310   0.503   3.667
10737SOL     OW33109   1.268   1.623   0.208
10737SOL    HW133110   1.282   1.720   0.227
10737SOL    HW233111   1.284   1.605   0.111
10738SOL     OW33112   2.516   6.568   2.839
10738SOL    HW133113   2.447   6.569   2.767
10738SOL    HW233114   2.559   6.658   2.846
10739SOL     OW33115   1.905   1.059   1.468
10739SOL    HW133116   1.871   1.002   1.543
10739SOL    HW233117   1.862   1.030   1.383
10740SOL     OW33118   0.452   5.172   5.470
10740SOL    HW133119   0.353   5.166   5.456
10740SOL    HW233120   0.499   5.126   5.395
10741SOL     OW33121   4.366   0.915   1.438
10741SOL    HW133122   4.283   0.967   1.456
10741SOL    HW233123   4.342   0.825   1.401
10742SOL     OW33124   5.322   7.010   1.295
10742SOL    HW133125   5.404   6.953   1.288
10742SOL    HW233126   5.304   0.027   1.206
10743SOL     OW33127   1.427   2.429   5.432
10743SOL    HW133128   1.355   2.457   5.495
10743SOL    HW233129   1.509   2.485   5.447
10744SOL     OW33130   3.166   1.467   1.101
10744SOL    HW133131   3.240   1.418   1.056
10744SOL    HW233132   3.171   1.564   1.077
10745SOL     OW33133   6.707   5.581   5.791
10745SOL    HW133134   6.762   5.624   5.720
10745SOL    HW233135   6.646   5.649   5.831
10746SOL     OW33136   2.289   4.936   1.029
10746SOL    HW133137   2.362   4.959   1.094
10746SOL    HW233138   2.324   4.871   0.961
10747SOL     OW33139   3.823   1.185   4.733
10747SOL    HW133140   3.910   1.234   4.740
10747SOL    HW233141   3.752   1.248   4.702
10748SOL     OW33142   5.461   1.429   0.470
10748SOL    HW133143   5.386   1.447   0.533
10748SOL    HW233144   5.545   1.413   0.522
10749SOL     OW33145   0.326   5.416   3.762
10749SOL    HW133146   0.272   5.333   3.777
10749SOL    HW233147   0.379   5.437   3.844
10750SOL     OW33148   4.625   6.230   4.667
10750SOL    HW133149   4.699   6.272   4.613
10750SOL    HW233150   4.616   6.133   4.641
10751SOL     OW33151   1.873   4.585   4.468
10751SOL    HW133152   1.821   4.538   4.539
10751SOL    HW233153   1.897   4.677   4.500
10752SOL     OW33154   5.944   4.905   5.605
10752SOL    HW133155   6.028   4.900   5.552
10752SOL    HW233156   5.902   4.815   5.611
10753SOL     OW33157   5.890   4.680   4.598
10753SOL    HW133158   5.907   4.697   4.501
10753SOL    HW233159   5.927   4.756   4.652
10754SOL     OW33160   0.686   6.992   3.644
10754SOL    HW133161   0.635   0.025   3.707
10754SOL    HW233162   0.760   0.020   3.602
10755SOL     OW33163   0.256   0.183   0.996
10755SOL    HW133164   0.313   0.160   0.917
10755SOL    HW233165   0.208   0.269   0.978
10756SOL     OW33166   6.404   5.128   6.618
10756SOL    HW133167   6.346   5.054   6.584
10756SOL    HW233168   6.351   5.184   6.682
10757SOL     OW33169   1.830   2.805   0.119
10757SOL    HW133170   1.805   2.737   0.051
10757SOL    HW233171   1.781   2.787   0.204
10758SOL     OW33172   0.904   5.597   4.379
10758SOL    HW133173   0.826   5.554   4.424
10758SOL    HW233174   0.933   5.541   4.301
10759SOL     OW33175   1.516   3.807   1.768
10759SOL    HW133176   1.591   3.848   1.716
10759SOL    HW233177   1.433   3.862   1.756
10760SOL     OW33178   5.180   0.258   2.728
10760SOL    HW133179   5.275   0.230   2.714
10760SOL    HW233180   5.165   0.277   2.824
10761SOL     OW33181   0.444   5.947   6.155
10761SOL    HW133182   0.419   5.860   6.196
10761SOL    HW233183   0.468   5.934   6.059
10762SOL     OW33184   3.088   1.866   4.384
10762SOL    HW133185   3.117   1.955   4.347
10762SOL    HW233186   3.119   1.858   4.478
10763SOL     OW33187   4.276   6.460   2.458
10763SOL    HW133188   4.341   6.413   2.517
10763SOL    HW233189   4.303   6.450   2.362
10764SOL     OW33190   5.443   2.155   5.752
10764SOL    HW133191   5.396   2.165   5.664
10764SOL    HW233192   5.400   2.215   5.819
10765SOL     OW33193   4.964   2.886   0.570
10765SOL    HW133194   5.011   2.886   0.658
10765SOL    HW233195   4.899   2.810   0.566
10766SOL     OW33196   4.213   5.242   0.594
10766SOL    HW133197   4.256   5.203   0.512
10766SOL    HW233198   4.195   5.169   0.660
10767SOL     OW33199   2.143   0.270   1.323
10767SOL    HW133200   2.055   0.280   1.277
10767SOL    HW233201   2.131   0.220   1.409
10768SOL     OW33202   5.103   5.135   1.197
10768SOL    HW133203   5.130   5.041   1.217
10768SOL    HW233204   5.109   5.151   1.098
10769SOL     OW33205   2.352   4.130   5.397
10769SOL    HW133206   2.376   4.094   5.307
10769SOL    HW233207   2.365   4.059   5.466
10770SOL     OW33208   5.072   6.773   4.093
10770SOL    HW133209   5.038   6.867   4.086
10770SOL    HW233210   5.101   6.755   4.187
10771SOL     OW33211   4.989   0.019   4.098
10771SOL    HW133212   4.931   0.053   4.024
10771SOL    HW233213   4.954   0.053   4.185
10772SOL     OW33214   6.373   0.274   4.427
10772SOL    HW133215   6.386   0.293   4.329
10772SOL    HW233216   6.422   0.190   4.452
10773SOL     OW33217   5.859   5.643   6.505
10773SOL    HW133218   5.833   5.557   6.550
10773SOL    HW233219   5.926   5.690   6.561
10774SOL     OW33220   2.184   1.695   6.227
10774SOL    HW133221   2.203   1.757   6.303
10774SOL    HW233222   2.145   1.610   6.261
10775SOL     OW33223   0.191   4.308   2.857
10775SOL    HW133224   0.212   4.242   2.786
10775SOL    HW233225   0.106   4.283   2.903
10776SOL     OW33226   0.674   0.635   6.212
10776SOL    HW133227   0.611   0.599   6.282
10776SOL    HW233228   0.628   0.637   6.124
10777SOL     OW33229   4.080   5.371   1.887
10777SOL    HW133230   4.046   5.342   1.976
10777SOL    HW233231   4.092   5.291   1.828
10778SOL     OW33232   4.669   0.265   3.753
10778SOL    HW133233   4.585   0.245   3.703
10778SOL    HW233234   4.748   0.248   3.695
10779SOL     OW33235   5.761   2.946   3.361
10779SOL    HW133236   5.823   2.868   3.367
10779SOL    HW233237   5.670   2.918   3.393
10780SOL     OW33238   1.760   0.482   4.421
10780SOL    HW133239   1.710   0.546   4.363
10780SOL    HW233240   1.700   0.451   4.495
10781SOL     OW33241   4.465   1.281   4.117
10781SOL    HW133242   4.558   1.269   4.081
10781SOL    HW233243   4.452   1.377   4.142
10782SOL     OW33244   0.036   0.436   2.888
10782SOL    HW133245   6.967   0.446   2.922
10782SOL    HW233246   0.093   0.508   2.927
10783SOL     OW33247   0.845   2.080   2.456
10783SOL    HW133248   0.801   2.055   2.369
10783SOL    HW233249   0.898   2.164   2.443
10784SOL     OW33250   3.980   0.587   4.315
10784SOL    HW133251   4.079   0.584   4.302
10784SOL    HW233252   3.953   0.679   4.344
10785SOL     OW33253   0.434   4.257   0.285
10785SOL    HW133254   0.378   4.228   0.363
10785SOL    HW233255   0.494   4.332   0.313
10786SOL     OW33256   6.802   4.934   3.366
10786SOL    HW133257   6.862   4.996   3.316
10786SOL    HW233258   6.817   4.840   3.334
10787SOL     OW33259   1.498   1.297   6.238
10787SOL    HW133260   1.546   1.308   6.325
10787SOL    HW233261   1.443   1.378   6.219
10788SOL     OW33262   1.054   4.099   0.174
10788SOL    HW133263   0.992   4.043   0.228
10788SOL    HW233264   1.103   4.163   0.233
10789SOL     OW33265   6.713   3.644   6.730
10789SOL    HW133266   6.700   3.740   6.705
10789SOL    HW233267   6.775   3.601   6.664
10790SOL     OW33268   0.950   7.019   2.133
10790SOL    HW133269   0.851   7.006   2.126
10790SOL    HW233270   0.996   6.968   2.060
10791SOL     OW33271   0.270   5.798   1.521
10791SOL    HW133272   0.261   5.773   1.617
10791SOL    HW233273   0.320   5.727   1.472
10792SOL     OW33274   3.096   3.029   4.925
10792SOL    HW133275   3.061   3.076   4.844
10792SOL    HW233276   3.170   2.967   4.899
10793SOL     OW33277   6.065   3.634   6.046
10793SOL    HW133278   6.024   3.547   6.021
10793SOL    HW233279   6.079   3.637   6.145
10794SOL     OW33280   4.054   3.839   4.298
10794SOL    HW133281   3.988   3.771   4.330
10794SOL    HW233282   4.095   3.809   4.212
10795SOL     OW33283   0.266   4.849   2.564
10795SOL    HW133284   0.347   4.880   2.514
10795SOL    HW233285   0.259   4.898   2.651
10796SOL     OW33286   6.480   7.010   5.617
10796SOL    HW133287   6.400   0.045   5.625
10796SOL    HW233288   6.547   0.009   5.687
10797SOL     OW33289   2.890   2.437   1.205
10797SOL    HW133290   2.835   2.403   1.129
10797SOL    HW233291   2.855   2.526   1.234
10798SOL     OW33292   2.877   0.672   0.568
10798SOL    HW133293   2.939   0.647   0.494
10798SOL    HW233294   2.790   0.703   0.530
10799SOL     OW33295   4.363   1.017   2.633
10799SOL    HW133296   4.366   1.117   2.626
10799SOL    HW233297   4.292   0.990   2.698
10800SOL     OW33298   0.994   6.155   5.607
10800SOL    HW133299   0.999   6.063   5.570
10800SOL    HW233300   0.944   6.214   5.542
10801SOL     OW33301   1.039   6.950   6.989
10801SOL    HW133302   1.064   6.890   0.039
10801SOL    HW233303   0.987   6.899   6.921
10802SOL     OW33304   0.358   0.290   2.125
10802SOL    HW133305   0.313   0.227   2.188
10802SOL    HW233306   0.417   0.238   2.064
10803SOL     OW33307   1.385   5.526   5.376
10803SOL    HW133308   1.478   5.519   5.412
10803SOL    HW233309   1.374   5.464   5.299
10804SOL     OW33310   5.952   3.346   2.617
10804SOL    HW133311   5.897   3.263   2.617
10804SOL    HW233312   5.993   3.359   2.527
10805SOL     OW33313   4.906   0.696   4.945
10805SOL    HW133314   4.855   0.772   4.904
10805SOL    HW233315   4.975   0.732   5.008
10806SOL     OW33316   3.558   4.318   6.075
10806SOL    HW133317   3.460   4.333   6.059
10806SOL    HW233318   3.576   4.219   6.074
10807SOL     OW33319   1.304   6.554   3.565
10807SOL    HW133320   1.363   6.601   3.500
10807SOL    HW233321   1.242   6.620   3.608
10808SOL     OW33322   0.011   2.408   5.628
10808SOL    HW133323   0.086   2.474   5.618
10808SOL    HW233324   7.002   2.411   5.722
10809SOL     OW33325   2.543   4.529   3.549
10809SOL    HW133326   2.578   4.600   3.610
10809SOL    HW233327   2.527   4.445   3.601
10810SOL     OW33328   0.299   0.305   4.198
10810SOL    HW133329   0.286   0.207   4.180
10810SOL    HW233330   0.215   0.343   4.236
10811SOL     OW33331   4.457   4.793   5.488
10811SOL    HW133332   4.533   4.768   5.548
10811SOL    HW233333   4.490   4.799   5.394
10812SOL     OW33334   7.024   3.975   0.172
10812SOL    HW133335   0.021   4.023   0.257
10812SOL    HW233336   0.002   4.040   0.096
10813SOL     OW33337   0.773   3.367   6.240
10813SOL    HW133338   0.818   3.281   6.261
10813SOL    HW233339   0.805   3.400   6.151
10814SOL     OW33340   2.259   6.927   6.814
10814SOL    HW133341   2.169   6.956   6.781
10814SOL    HW233342   2.326   6.941   6.741
10815SOL     OW33343   5.174   3.134   3.205
10815SOL    HW133344   5.113   3.110   3.281
10815SOL    HW233345   5.237   3.058   3.188
10816SOL     OW33346   3.252   3.396   2.699
10816SOL    HW133347   3.342   3.380   2.741
10816SOL    HW233348   3.264   3.441   2.611
10817SOL     OW33349   3.572   0.259   3.840
10817SOL    HW133350   3.509   0.313   3.896
10817SOL    HW233351   3.577   0.299   3.749
10818SOL     OW33352   4.617   4.262   5.511
10818SOL    HW133353   4.525   4.276   5.548
10818SOL    HW233354   4.611   4.230   5.417
10819SOL     OW33355   6.154   5.504   6.678
10819SOL    HW133356   6.057   5.529   6.672
10819SOL    HW233357   6.199   5.563   6.745
10820SOL     OW33358   6.972   5.257   4.230
10820SOL    HW133359   0.001   5.261   4.146
10820SOL    HW233360   0.007   5.237   4.307
10821SOL     OW33361   4.263   6.976   2.460
10821SOL    HW133362   4.353   7.010   2.489
10821SOL    HW233363   4.254   6.986   2.361
10822SOL     OW33364   6.422   1.793   2.281
10822SOL    HW133365   6.423   1.791   2.181
10822SOL    HW233366   6.331   1.766   2.314
10823SOL     OW33367   0.592   0.295   2.698
10823SOL    HW133368   0.618   0.350   2.777
10823SOL    HW233369   0.499   0.318   2.670
10824SOL     OW33370   0.169   1.063   2.169
10824SOL    HW133371   0.100   1.005   2.213
10824SOL    HW233372   0.210   1.013   2.093
10825SOL     OW33373   1.631   2.208   0.491
10825SOL    HW133374   1.687   2.138   0.536
10825SOL    HW233375   1.677   2.240   0.408
10826SOL     OW33376   1.075   1.165   2.141
10826SOL    HW133377   1.167   1.189   2.107
10826SOL    HW233378   1.084   1.103   2.219
10827SOL     OW33379   0.175   3.432   4.549
10827SOL    HW133380   0.161   3.340   4.513
10827SOL    HW233381   0.269   3.462   4.530
10828SOL     OW33382   1.168   4.227   0.755
10828SOL    HW133383   1.143   4.197   0.847
10828SOL    HW233384   1.141   4.323   0.743
10829SOL     OW33385   4.656   3.084   0.143
10829SOL    HW133386   4.724   3.150   0.111
10829SOL    HW233387   4.573   3.091   0.087
10830SOL     OW33388   4.542   1.975   3.304
10830SOL    HW133389   4.584   1.887   3.327
10830SOL    HW233390   4.532   2.030   3.387
10831SOL     OW33391   2.804   6.329   2.159
10831SOL    HW133392   2.718   6.354   2.115
10831SOL    HW233393   2.785   6.281   2.245
10832SOL     OW33394   6.424   3.899   6.601
10832SOL    HW133395   6.390   3.849   6.680
10832SOL    HW233396   6.523   3.891   6.597
10833SOL     OW33397   0.742   1.982   0.204
10833SOL    HW133398   0.830   1.937   0.192
10833SOL    HW233399   0.705   2.008   0.115
10834SOL     OW33400   6.601   1.773   0.019
10834SOL    HW133401   6.578   1.723   0.102
10834SOL    HW233402   6.565   1.725   6.964
10835SOL     OW33403   5.281   3.716   0.263
10835SOL    HW133404   5.187   3.689   0.243
10835SOL    HW233405   5.343   3.672   0.197
10836SOL     OW33406   0.292   1.433   2.812
10836SOL    HW133407   0.330   1.359   2.867
10836SOL    HW233408   0.252   1.502   2.872
10837SOL     OW33409   6.840   4.797   2.141
10837SOL    HW133410   6.883   4.763   2.058
10837SOL    HW233411   6.905   4.795   2.217
10838SOL     OW33412   6.001   6.491   3.854
10838SOL    HW133413   6.022   6.423   3.924
10838SOL    HW233414   6.080   6.552   3.843
10839SOL     OW33415   4.691   3.330   0.552
10839SOL    HW133416   4.660   3.266   0.623
10839SOL    HW233417   4.788   3.351   0.566
10840SOL     OW33418   3.651   6.610   2.272
10840SOL    HW133419   3.553   6.604   2.256
10840SOL    HW233420   3.684   6.701   2.245
10841SOL     OW33421   6.454   4.788   5.153
10841SOL    HW133422   6.459   4.752   5.060
10841SOL    HW233423   6.380   4.855   5.159
10842SOL     OW33424   4.918   2.194   1.524
10842SOL    HW133425   4.819   2.178   1.529
10842SOL    HW233426   4.964   2.110   1.494
10843SOL     OW33427   1.625   1.039   1.361
10843SOL    HW133428   1.531   1.005   1.352
10843SOL    HW233429   1.635   1.123   1.308
10844SOL     OW33430   6.457   4.712   3.330
10844SOL    HW133431   6.435   4.620   3.362
10844SOL    HW233432   6.389   4.777   3.366
10845SOL     OW33433   4.554   5.997   5.382
10845SOL    HW133434   4.591   5.904   5.389
10845SOL    HW233435   4.627   6.064   5.396
10846SOL     OW33436   5.487   0.430   0.117
10846SOL    HW133437   5.427   0.442   0.038
10846SOL    HW233438   5.531   0.517   0.139
10847SOL     OW33439   2.947   2.387   0.148
10847SOL    HW133440   2.884   2.465   0.143
10847SOL    HW233441   3.019   2.397   0.079
10848SOL     OW33442   0.358   3.931   1.080
10848SOL    HW133443   0.308   3.989   1.017
10848SOL    HW233444   0.329   3.951   1.174
10849SOL     OW33445   2.493   4.602   4.027
10849SOL    HW133446   2.399   4.607   3.995
10849SOL    HW233447   2.546   4.543   3.965
10850SOL     OW33448   3.604   6.177   6.643
10850SOL    HW133449   3.545   6.139   6.714
10850SOL    HW233450   3.692   6.129   6.642
10851SOL     OW33451   3.020   3.786   1.070
10851SOL    HW133452   3.041   3.690   1.050
10851SOL    HW233453   3.083   3.845   1.019
10852SOL     OW33454   1.622   1.091   6.869
10852SOL    HW133455   1.710   1.046   6.887
10852SOL    HW233456   1.547   1.030   6.894
10853SOL     OW33457   2.498   3.339   5.946
10853SOL    HW133458   2.412   3.373   5.906
10853SOL    HW233459   2.478   3.268   6.013
10854SOL     OW33460   4.514   5.167   5.312
10854SOL    HW133461   4.538   5.249   5.259
10854SOL    HW233462   4.424   5.134   5.282
10855SOL     OW33463   3.852   0.956   0.392
10855SOL    HW133464   3.903   0.988   0.311
10855SOL    HW233465   3.841   1.033   0.455
10856SOL     OW33466   6.374   1.432   0.185
10856SOL    HW133467   6.403   1.366   0.115
10856SOL    HW233468   6.384   1.390   0.276
10857SOL     OW33469   0.260   2.610   2.702
10857SOL    HW133470   0.170   2.644   2.729
10857SOL    HW233471   0.318   2.686   2.675
10858SOL     OW33472   0.876   0.227   0.410
10858SOL    HW133473   0.921   0.282   0.482
10858SOL    HW233474   0.803   0.173   0.451
10859SOL     OW33475   0.321   4.409   4.320
10859SOL    HW133476   0.405   4.406   4.374
10859SOL    HW233477   0.256   4.472   4.362
10860SOL     OW33478   0.413   3.097   4.459
10860SOL    HW133479   0.458   3.145   4.383
10860SOL    HW233480   0.369   3.014   4.425
10861SOL     OW33481   3.328   3.290   3.355
10861SOL    HW133482   3.277   3.263   3.437
10861SOL    HW233483   3.264   3.320   3.284
10862SOL     OW33484   1.633   1.205   5.524
10862SOL    HW133485   1.698   1.180   5.452
10862SOL    HW233486   1.540   1.192   5.490
10863SOL     OW33487   2.306   0.348   4.534
10863SOL    HW133488   2.371   0.378   4.604
10863SOL    HW233489   2.248   0.426   4.507
10864SOL     OW33490   3.481   6.427   0.410
10864SOL    HW133491   3.559   6.388   0.360
10864SOL    HW233492   3.463   6.519   0.376
10865SOL     OW33493   6.598   1.205   0.627
10865SOL    HW133494   6.671   1.141   0.606
10865SOL    HW233495   6.586   1.211   0.726
10866SOL     OW33496   5.386   5.008   0.787
10866SOL    HW133497   5.399   5.035   0.882
10866SOL    HW233498   5.469   4.965   0.752
10867SOL     OW33499   2.934   4.257   0.886
10867SOL    HW133500   2.926   4.248   0.787
10867SOL    HW233501   2.871   4.193   0.931
10868SOL     OW33502   5.009   2.037   3.683
10868SOL    HW133503   4.928   1.978   3.674
10868SOL    HW233504   5.061   2.035   3.598
10869NA      NA33505   6.572   3.030   5.410
10870NA      NA33506   4.584   4.572   5.090
10871NA      NA33507   1.377   3.076   1.661
10872NA      NA33508   4.927   3.867   5.314
10873NA      NA33509   4.239   2.313   5.252
10874NA      NA33510   3.546   4.837   1.732
10875NA      NA33511   6.632   5.051   6.604
10876NA      NA33512   3.172   3.513   4.912
10877NA      NA33513   4.372   6.159   6.918
10878NA      NA33514   4.154   6.295   5.271
10879NA      NA33515   6.640   5.178   2.476
10880NA      NA33516   2.175   0.060   3.655
10881NA      NA33517   4.135   5.620   1.871
10882NA      NA33518   3.894   3.389   2.514
   7.02517   7.02517   7.02517
