Generated by trjconv : CNT in water t= 336.00000
33518
    1C        C    1   2.843   2.769   4.746
    1C        C    2   2.900   2.722   4.866
    1C        C    3   2.840   2.773   4.982
    1C        C    4   2.850   2.775   4.260
    1C        C    5   2.901   2.728   4.383
    1C        C    6   2.843   2.771   4.505
    1C        C    7   3.012   2.638   4.625
    1C        C    8   2.896   2.719   4.625
    1C        C    9   3.077   2.605   4.746
    1C        C   10   3.012   2.636   4.867
    1C        C   11   3.180   2.491   4.972
    1C        C   12   3.057   2.559   4.975
    1C        C   13   2.849   2.770   3.772
    1C        C   14   2.900   2.722   3.894
    1C        C   15   2.848   2.772   4.016
    1C        C   16   3.017   2.643   4.139
    1C        C   17   2.903   2.726   4.138
    1C        C   18   3.078   2.607   4.262
    1C        C   19   3.019   2.650   4.383
    1C        C   20   3.207   2.553   4.502
    1C        C   21   3.076   2.605   4.504
    1C        C   22   3.278   2.533   4.622
    1C        C   23   3.207   2.548   4.743
    1C        C   24   3.412   2.482   4.864
    1C        C   25   3.270   2.500   4.861
    1C        C   26   3.490   2.480   4.981
    1C        C   27   2.852   2.771   3.282
    1C        C   28   2.909   2.730   3.405
    1C        C   29   2.855   2.774   3.528
    1C        C   30   3.022   2.643   3.649
    1C        C   31   2.907   2.725   3.651
    1C        C   32   3.078   2.604   3.773
    1C        C   33   3.015   2.640   3.894
    1C        C   34   3.210   2.557   4.013
    1C        C   35   3.079   2.609   4.016
    1C        C   36   3.275   2.536   4.137
    1C        C   37   3.208   2.553   4.260
    1C        C   38   3.418   2.509   4.381
    1C        C   39   3.278   2.531   4.381
    1C        C   40   3.488   2.500   4.503
    1C        C   41   3.415   2.499   4.624
    1C        C   42   3.630   2.483   4.741
    1C        C   43   3.488   2.479   4.744
    1C        C   44   3.704   2.489   4.861
    1C        C   45   3.629   2.476   4.978
    1C        C   46   2.835   2.750   2.797
    1C        C   47   2.894   2.708   2.919
    1C        C   48   2.845   2.763   3.039
    1C        C   49   3.019   2.639   3.161
    1C        C   50   2.905   2.722   3.161
    1C        C   51   3.081   2.603   3.283
    1C        C   52   3.017   2.639   3.403
    1C        C   53   3.207   2.546   3.526
    1C        C   54   3.081   2.610   3.526
    1C        C   55   3.278   2.531   3.648
    1C        C   56   3.210   2.553   3.770
    1C        C   57   3.417   2.506   3.892
    1C        C   58   3.278   2.529   3.892
    1C        C   59   3.486   2.500   4.015
    1C        C   60   3.413   2.504   4.135
    1C        C   61   3.626   2.499   4.256
    1C        C   62   3.485   2.499   4.257
    1C        C   63   3.699   2.507   4.377
    1C        C   64   3.629   2.505   4.500
    1C        C   65   3.835   2.551   4.622
    1C        C   66   3.702   2.505   4.621
    1C        C   67   3.906   2.564   4.743
    1C        C   68   3.839   2.530   4.862
    1C        C   69   4.051   2.589   4.976
    1C        C   70   3.924   2.532   4.974
    1C        C   71   2.827   2.739   2.309
    1C        C   72   2.887   2.699   2.431
    1C        C   73   2.836   2.747   2.554
    1C        C   74   3.009   2.627   2.671
    1C        C   75   2.888   2.700   2.676
    1C        C   76   3.074   2.597   2.793
    1C        C   77   3.015   2.635   2.916
    1C        C   78   3.210   2.550   3.036
    1C        C   79   3.079   2.603   3.038
    1C        C   80   3.277   2.528   3.158
    1C        C   81   3.210   2.546   3.281
    1C        C   82   3.414   2.498   3.403
    1C        C   83   3.274   2.520   3.404
    1C        C   84   3.487   2.497   3.524
    1C        C   85   3.416   2.504   3.646
    1C        C   86   3.627   2.498   3.768
    1C        C   87   3.486   2.494   3.769
    1C        C   88   3.696   2.511   3.890
    1C        C   89   3.627   2.506   4.014
    1C        C   90   3.836   2.548   4.134
    1C        C   91   3.698   2.515   4.135
    1C        C   92   3.899   2.576   4.258
    1C        C   93   3.834   2.549   4.380
    1C        C   94   4.028   2.640   4.497
    1C        C   95   3.904   2.573   4.500
    1C        C   96   4.091   2.676   4.618
    1C        C   97   4.032   2.629   4.738
    1C        C   98   4.195   2.764   4.861
    1C        C   99   4.100   2.657   4.860
    1C        C  100   4.220   2.841   4.975
    1C        C  101   2.818   2.730   2.072
    1C        C  102   2.991   2.596   2.190
    1C        C  103   2.874   2.679   2.189
    1C        C  104   3.068   2.580   2.309
    1C        C  105   3.005   2.622   2.428
    1C        C  106   3.204   2.545   2.551
    1C        C  107   3.070   2.592   2.549
    1C        C  108   3.276   2.526   2.671
    1C        C  109   3.206   2.548   2.792
    1C        C  110   3.414   2.500   2.911
    1C        C  111   3.276   2.529   2.913
    1C        C  112   3.483   2.495   3.034
    1C        C  113   3.417   2.503   3.158
    1C        C  114   3.626   2.499   3.278
    1C        C  115   3.485   2.492   3.281
    1C        C  116   3.696   2.507   3.401
    1C        C  117   3.628   2.497   3.524
    1C        C  118   3.836   2.539   3.645
    1C        C  119   3.699   2.506   3.646
    1C        C  120   3.900   2.569   3.768
    1C        C  121   3.833   2.547   3.890
    1C        C  122   4.025   2.639   4.011
    1C        C  123   3.901   2.569   4.011
    1C        C  124   4.083   2.680   4.133
    1C        C  125   4.025   2.641   4.256
    1C        C  126   4.199   2.767   4.371
    1C        C  127   4.089   2.679   4.376
    1C        C  128   4.247   2.819   4.494
    1C        C  129   4.201   2.765   4.616
    1C        C  130   4.329   2.932   4.737
    1C        C  131   4.246   2.817   4.739
    1C        C  132   4.359   2.999   4.858
    1C        C  133   4.287   2.962   4.972
    1C        C  134   3.169   2.462   2.086
    1C        C  135   3.037   2.510   2.086
    1C        C  136   3.260   2.476   2.191
    1C        C  137   3.199   2.524   2.309
    1C        C  138   3.408   2.484   2.427
    1C        C  139   3.270   2.515   2.430
    1C        C  140   3.485   2.481   2.545
    1C        C  141   3.414   2.498   2.666
    1C        C  142   3.626   2.494   2.787
    1C        C  143   3.485   2.492   2.789
    1C        C  144   3.696   2.498   2.910
    1C        C  145   3.625   2.496   3.033
    1C        C  146   3.832   2.536   3.154
    1C        C  147   3.695   2.501   3.155
    1C        C  148   3.900   2.562   3.275
    1C        C  149   3.833   2.539   3.398
    1C        C  150   4.027   2.622   3.519
    1C        C  151   3.899   2.562   3.521
    1C        C  152   4.088   2.660   3.641
    1C        C  153   4.026   2.633   3.766
    1C        C  154   4.195   2.761   3.887
    1C        C  155   4.085   2.671   3.888
    1C        C  156   4.248   2.812   4.007
    1C        C  157   4.198   2.761   4.129
    1C        C  158   4.342   2.919   4.251
    1C        C  159   4.258   2.806   4.249
    1C        C  160   4.376   2.983   4.372
    1C        C  161   4.335   2.929   4.496
    1C        C  162   4.442   3.115   4.616
    1C        C  163   4.377   2.989   4.617
    1C        C  164   4.463   3.186   4.735
    1C        C  165   4.430   3.120   4.856
    1C        C  166   4.516   3.317   4.976
    1C        C  167   4.479   3.183   4.971
    1C        C  168   3.476   2.443   2.071
    1C        C  169   3.400   2.453   2.188
    1C        C  170   3.618   2.466   2.304
    1C        C  171   3.476   2.457   2.306
    1C        C  172   3.693   2.488   2.421
    1C        C  173   3.626   2.483   2.545
    1C        C  174   3.835   2.529   2.665
    1C        C  175   3.699   2.494   2.666
    1C        C  176   3.900   2.555   2.789
    1C        C  177   3.833   2.532   2.911
    1C        C  178   4.025   2.625   3.029
    1C        C  179   3.901   2.557   3.032
    1C        C  180   4.086   2.663   3.151
    1C        C  181   4.025   2.627   3.273
    1C        C  182   4.194   2.751   3.398
    1C        C  183   4.085   2.661   3.397
    1C        C  184   4.240   2.805   3.520
    1C        C  185   4.193   2.755   3.644
    1C        C  186   4.336   2.917   3.761
    1C        C  187   4.247   2.806   3.764
    1C        C  188   4.376   2.975   3.883
    1C        C  189   4.339   2.920   4.008
    1C        C  190   4.450   3.102   4.129
    1C        C  191   4.382   2.979   4.129
    1C        C  192   4.475   3.171   4.250
    1C        C  193   4.439   3.109   4.371
    1C        C  194   4.505   3.314   4.493
    1C        C  195   4.467   3.178   4.492
    1C        C  196   4.519   3.387   4.613
    1C        C  197   4.506   3.322   4.738
    1C        C  198   4.558   3.533   4.849
    1C        C  199   4.533   3.392   4.859
    1C        C  200   4.579   3.615   4.965
    1C        C  201   3.614   2.420   2.070
    1C        C  202   3.828   2.508   2.182
    1C        C  203   3.694   2.458   2.183
    1C        C  204   3.899   2.539   2.301
    1C        C  205   3.831   2.518   2.423
    1C        C  206   4.029   2.609   2.541
    1C        C  207   3.901   2.549   2.542
    1C        C  208   4.089   2.648   2.663
    1C        C  209   4.025   2.621   2.786
    1C        C  210   4.203   2.740   2.906
    1C        C  211   4.086   2.660   2.907
    1C        C  212   4.254   2.788   3.029
    1C        C  213   4.202   2.743   3.152
    1C        C  214   4.335   2.905   3.271
    1C        C  215   4.251   2.792   3.276
    1C        C  216   4.372   2.966   3.393
    1C        C  217   4.331   2.912   3.517
    1C        C  218   4.433   3.102   3.639
    1C        C  219   4.372   2.974   3.637
    1C        C  220   4.462   3.168   3.761
    1C        C  221   4.441   3.100   3.883
    1C        C  222   4.496   3.306   4.005
    1C        C  223   4.469   3.167   4.005
    1C        C  224   4.516   3.377   4.126
    1C        C  225   4.510   3.308   4.249
    1C        C  226   4.520   3.523   4.370
    1C        C  227   4.521   3.381   4.369
    1C        C  228   4.520   3.598   4.489
    1C        C  229   4.526   3.528   4.612
    1C        C  230   4.508   3.745   4.726
    1C        C  231   4.536   3.606   4.729
    1C        C  232   4.499   3.819   4.846
    1C        C  233   4.549   3.751   4.958
    1C        C  234   4.018   2.602   2.060
    1C        C  235   3.897   2.534   2.063
    1C        C  236   4.083   2.647   2.175
    1C        C  237   4.024   2.608   2.297
    1C        C  238   4.202   2.729   2.419
    1C        C  239   4.087   2.646   2.418
    1C        C  240   4.256   2.779   2.540
    1C        C  241   4.198   2.737   2.662
    1C        C  242   4.340   2.898   2.785
    1C        C  243   4.251   2.789   2.782
    1C        C  244   4.379   2.962   2.905
    1C        C  245   4.343   2.898   3.026
    1C        C  246   4.438   3.089   3.149
    1C        C  247   4.378   2.961   3.148
    1C        C  248   4.457   3.159   3.270
    1C        C  249   4.433   3.094   3.393
    1C        C  250   4.493   3.299   3.513
    1C        C  251   4.459   3.162   3.514
    1C        C  252   4.502   3.369   3.636
    1C        C  253   4.497   3.304   3.761
    1C        C  254   4.524   3.516   3.880
    1C        C  255   4.509   3.375   3.883
    1C        C  256   4.518   3.586   4.002
    1C        C  257   4.521   3.518   4.126
    1C        C  258   4.487   3.730   4.243
    1C        C  259   4.513   3.591   4.246
    1C        C  260   4.475   3.803   4.363
    1C        C  261   4.489   3.735   4.487
    1C        C  262   4.425   3.943   4.605
    1C        C  263   4.476   3.811   4.605
    1C        C  264   4.396   4.011   4.726
    1C        C  265   4.434   3.945   4.844
    1C        C  266   4.320   4.129   4.962
    1C        C  267   4.401   4.016   4.960
    1C        C  268   4.262   2.770   2.060
    1C        C  269   4.198   2.731   2.178
    1C        C  270   4.346   2.888   2.299
    1C        C  271   4.255   2.779   2.298
    1C        C  272   4.385   2.950   2.420
    1C        C  273   4.339   2.893   2.541
    1C        C  274   4.444   3.080   2.660
    1C        C  275   4.375   2.957   2.662
    1C        C  276   4.471   3.151   2.780
    1C        C  277   4.441   3.088   2.903
    1C        C  278   4.498   3.291   3.024
    1C        C  279   4.467   3.153   3.026
    1C        C  280   4.507   3.364   3.145
    1C        C  281   4.490   3.296   3.268
    1C        C  282   4.509   3.508   3.389
    1C        C  283   4.498   3.367   3.390
    1C        C  284   4.505   3.578   3.512
    1C        C  285   4.508   3.510   3.636
    1C        C  286   4.491   3.722   3.754
    1C        C  287   4.519   3.584   3.756
    1C        C  288   4.470   3.791   3.876
    1C        C  289   4.487   3.724   3.999
    1C        C  290   4.418   3.928   4.117
    1C        C  291   4.469   3.796   4.120
    1C        C  292   4.394   3.994   4.239
    1C        C  293   4.429   3.936   4.363
    1C        C  294   4.328   4.129   4.480
    1C        C  295   4.398   4.006   4.482
    1C        C  296   4.287   4.190   4.601
    1C        C  297   4.322   4.133   4.725
    1C        C  298   4.197   4.313   4.840
    1C        C  299   4.278   4.195   4.845
    1C        C  300   4.166   4.403   4.947
    1C        C  301   4.353   2.876   2.060
    1C        C  302   4.464   3.066   2.177
    1C        C  303   4.396   2.940   2.177
    1C        C  304   4.484   3.141   2.296
    1C        C  305   4.446   3.078   2.417
    1C        C  306   4.507   3.282   2.535
    1C        C  307   4.472   3.145   2.538
    1C        C  308   4.509   3.357   2.655
    1C        C  309   4.500   3.289   2.779
    1C        C  310   4.519   3.500   2.898
    1C        C  311   4.511   3.359   2.901
    1C        C  312   4.514   3.572   3.019
    1C        C  313   4.510   3.505   3.143
    1C        C  314   4.479   3.714   3.266
    1C        C  315   4.509   3.576   3.265
    1C        C  316   4.467   3.786   3.387
    1C        C  317   4.485   3.718   3.510
    1C        C  318   4.427   3.922   3.629
    1C        C  319   4.474   3.789   3.631
    1C        C  320   4.397   3.987   3.750
    1C        C  321   4.423   3.924   3.874
    1C        C  322   4.324   4.116   3.992
    1C        C  323   4.396   3.994   3.994
    1C        C  324   4.281   4.172   4.114
    1C        C  325   4.326   4.119   4.237
    1C        C  326   4.188   4.284   4.354
    1C        C  327   4.284   4.181   4.357
    1C        C  328   4.135   4.337   4.474
    1C        C  329   4.192   4.295   4.597
    1C        C  330   4.029   4.439   4.712
    1C        C  331   4.143   4.353   4.715
    1C        C  332   3.966   4.490   4.828
    1C        C  333   4.054   4.486   4.938
    1C        C  334   4.552   3.264   2.062
    1C        C  335   4.530   3.126   2.065
    1C        C  336   4.533   3.348   2.173
    1C        C  337   4.511   3.280   2.295
    1C        C  338   4.517   3.496   2.411
    1C        C  339   4.516   3.355   2.415
    1C        C  340   4.519   3.570   2.532
    1C        C  341   4.515   3.498   2.653
    1C        C  342   4.497   3.710   2.773
    1C        C  343   4.515   3.570   2.775
    1C        C  344   4.477   3.779   2.895
    1C        C  345   4.488   3.711   3.019
    1C        C  346   4.424   3.913   3.140
    1C        C  347   4.468   3.779   3.141
    1C        C  348   4.391   3.980   3.260
    1C        C  349   4.422   3.920   3.384
    1C        C  350   4.321   4.106   3.502
    1C        C  351   4.393   3.984   3.506
    1C        C  352   4.275   4.160   3.624
    1C        C  353   4.323   4.108   3.746
    1C        C  354   4.181   4.266   3.867
    1C        C  355   4.279   4.165   3.868
    1C        C  356   4.128   4.315   3.988
    1C        C  357   4.180   4.271   4.112
    1C        C  358   4.008   4.399   4.230
    1C        C  359   4.128   4.324   4.232
    1C        C  360   3.953   4.445   4.352
    1C        C  361   4.019   4.416   4.474
    1C        C  362   3.828   4.515   4.593
    1C        C  363   3.960   4.466   4.592
    1C        C  364   3.759   4.544   4.713
    1C        C  365   3.833   4.537   4.833
    1C        C  366   3.628   4.585   4.951
    1C        C  367   3.765   4.563   4.953
    1C        C  368   4.510   3.561   2.049
    1C        C  369   4.520   3.488   2.168
    1C        C  370   4.500   3.705   2.288
    1C        C  371   4.512   3.564   2.287
    1C        C  372   4.489   3.779   2.407
    1C        C  373   4.503   3.710   2.530
    1C        C  374   4.433   3.912   2.650
    1C        C  375   4.482   3.779   2.651
    1C        C  376   4.400   3.975   2.772
    1C        C  377   4.428   3.911   2.895
    1C        C  378   4.323   4.096   3.012
    1C        C  379   4.395   3.975   3.016
    1C        C  380   4.277   4.154   3.132
    1C        C  381   4.316   4.100   3.257
    1C        C  382   4.175   4.257   3.379
    1C        C  383   4.277   4.160   3.379
    1C        C  384   4.124   4.307   3.501
    1C        C  385   4.177   4.261   3.623
    1C        C  386   4.003   4.383   3.743
    1C        C  387   4.125   4.311   3.745
    1C        C  388   3.945   4.423   3.865
    1C        C  389   4.010   4.392   3.987
    1C        C  390   3.818   4.490   4.108
    1C        C  391   3.945   4.429   4.107
    1C        C  392   3.751   4.511   4.230
    1C        C  393   3.822   4.496   4.352
    1C        C  394   3.616   4.547   4.475
    1C        C  395   3.756   4.526   4.473
    1C        C  396   3.544   4.559   4.596
    1C        C  397   3.620   4.565   4.715
    1C        C  398   3.408   4.554   4.838
    1C        C  399   3.548   4.576   4.836
    1C        C  400   3.341   4.518   4.955
    1C        C  401   4.504   3.700   2.052
    1C        C  402   4.450   3.913   2.165
    1C        C  403   4.488   3.777   2.167
    1C        C  404   4.408   3.976   2.285
    1C        C  405   4.440   3.912   2.406
    1C        C  406   4.325   4.093   2.526
    1C        C  407   4.403   3.975   2.527
    1C        C  408   4.277   4.149   2.646
    1C        C  409   4.316   4.089   2.768
    1C        C  410   4.174   4.247   2.890
    1C        C  411   4.274   4.147   2.889
    1C        C  412   4.124   4.299   3.012
    1C        C  413   4.178   4.255   3.135
    1C        C  414   3.998   4.370   3.253
    1C        C  415   4.121   4.300   3.256
    1C        C  416   3.942   4.411   3.377
    1C        C  417   4.007   4.386   3.500
    1C        C  418   3.809   4.468   3.618
    1C        C  419   3.938   4.411   3.620
    1C        C  420   3.745   4.494   3.742
    1C        C  421   3.815   4.479   3.864
    1C        C  422   3.610   4.530   3.988
    1C        C  423   3.749   4.506   3.986
    1C        C  424   3.540   4.537   4.111
    1C        C  425   3.612   4.536   4.233
    1C        C  426   3.401   4.555   4.356
    1C        C  427   3.542   4.551   4.355
    1C        C  428   3.329   4.546   4.477
    1C        C  429   3.403   4.553   4.598
    1C        C  430   3.191   4.525   4.722
    1C        C  431   3.331   4.551   4.719
    1C        C  432   3.123   4.498   4.844
    1C        C  433   3.205   4.490   4.958
    1C        C  434   4.379   4.118   2.048
    1C        C  435   4.443   3.994   2.051
    1C        C  436   4.303   4.164   2.161
    1C        C  437   4.335   4.098   2.282
    1C        C  438   4.180   4.246   2.402
    1C        C  439   4.283   4.148   2.403
    1C        C  440   4.126   4.296   2.522
    1C        C  441   4.180   4.252   2.645
    1C        C  442   4.002   4.368   2.765
    1C        C  443   4.121   4.292   2.767
    1C        C  444   3.938   4.397   2.888
    1C        C  445   4.000   4.367   3.011
    1C        C  446   3.809   4.467   3.130
    1C        C  447   3.935   4.402   3.131
    1C        C  448   3.745   4.492   3.254
    1C        C  449   3.813   4.470   3.375
    1C        C  450   3.607   4.532   3.496
    1C        C  451   3.743   4.493   3.496
    1C        C  452   3.542   4.539   3.621
    1C        C  453   3.609   4.533   3.745
    1C        C  454   3.397   4.539   3.866
    1C        C  455   3.538   4.543   3.867
    1C        C  456   3.328   4.533   3.989
    1C        C  457   3.399   4.541   4.111
    1C        C  458   3.192   4.510   4.237
    1C        C  459   3.330   4.540   4.234
    1C        C  460   3.123   4.494   4.359
    1C        C  461   3.191   4.516   4.481
    1C        C  462   2.993   4.441   4.604
    1C        C  463   3.120   4.502   4.602
    1C        C  464   2.929   4.404   4.724
    1C        C  465   2.991   4.444   4.846
    1C        C  466   2.802   4.340   4.962
    1C        C  467   2.905   4.434   4.960
    1C        C  468   4.117   4.281   2.046
    1C        C  469   4.193   4.256   2.161
    1C        C  470   4.012   4.378   2.280
    1C        C  471   4.132   4.301   2.282
    1C        C  472   3.943   4.405   2.399
    1C        C  473   4.004   4.367   2.521
    1C        C  474   3.813   4.464   2.641
    1C        C  475   3.939   4.398   2.642
    1C        C  476   3.747   4.489   2.763
    1C        C  477   3.814   4.463   2.885
    1C        C  478   3.606   4.513   3.010
    1C        C  479   3.746   4.489   3.006
    1C        C  480   3.534   4.522   3.132
    1C        C  481   3.606   4.519   3.253
    1C        C  482   3.394   4.535   3.377
    1C        C  483   3.536   4.535   3.375
    1C        C  484   3.330   4.528   3.502
    1C        C  485   3.400   4.541   3.624
    1C        C  486   3.189   4.499   3.747
    1C        C  487   3.325   4.538   3.744
    1C        C  488   3.125   4.475   3.871
    1C        C  489   3.191   4.499   3.993
    1C        C  490   2.999   4.416   4.116
    1C        C  491   3.123   4.483   4.116
    1C        C  492   2.941   4.382   4.241
    1C        C  493   2.998   4.428   4.362
    1C        C  494   2.828   4.303   4.485
    1C        C  495   2.935   4.395   4.484
    1C        C  496   2.769   4.259   4.606
    1C        C  497   2.815   4.318   4.726
    1C        C  498   2.665   4.167   4.846
    1C        C  499   2.758   4.273   4.847
    1C        C  500   2.599   4.114   4.958
    1C        C  501   4.001   4.357   2.041
    1C        C  502   3.813   4.459   2.158
    1C        C  503   3.944   4.405   2.159
    1C        C  504   3.745   4.483   2.278
    1C        C  505   3.812   4.459   2.400
    1C        C  506   3.605   4.508   2.522
    1C        C  507   3.745   4.490   2.520
    1C        C  508   3.535   4.514   2.645
    1C        C  509   3.607   4.506   2.766
    1C        C  510   3.395   4.522   2.888
    1C        C  511   3.537   4.519   2.888
    1C        C  512   3.322   4.522   3.008
    1C        C  513   3.393   4.526   3.130
    1C        C  514   3.187   4.496   3.257
    1C        C  515   3.325   4.523   3.254
    1C        C  516   3.120   4.476   3.380
    1C        C  517   3.192   4.499   3.500
    1C        C  518   3.002   4.410   3.627
    1C        C  519   3.125   4.478   3.623
    1C        C  520   2.943   4.369   3.749
    1C        C  521   2.999   4.411   3.872
    1C        C  522   2.836   4.279   3.996
    1C        C  523   2.939   4.375   3.995
    1C        C  524   2.788   4.234   4.122
    1C        C  525   2.834   4.291   4.243
    1C        C  526   2.694   4.133   4.362
    1C        C  527   2.782   4.243   4.365
    1C        C  528   2.655   4.078   4.487
    1C        C  529   2.689   4.143   4.607
    1C        C  530   2.586   3.960   4.730
    1C        C  531   2.639   4.092   4.729
    1C        C  532   2.540   3.899   4.850
    1C        C  533   2.531   3.991   4.960
    1C        C  534   3.619   4.557   2.038
    1C        C  535   3.751   4.510   2.043
    1C        C  536   3.537   4.536   2.154
    1C        C  537   3.605   4.510   2.276
    1C        C  538   3.394   4.517   2.402
    1C        C  539   3.535   4.514   2.399
    1C        C  540   3.323   4.506   2.523
    1C        C  541   3.394   4.515   2.644
    1C        C  542   3.185   4.486   2.768
    1C        C  543   3.323   4.513   2.767
    1C        C  544   3.115   4.469   2.890
    1C        C  545   3.184   4.491   3.011
    1C        C  546   2.995   4.404   3.138
    1C        C  547   3.119   4.473   3.135
    1C        C  548   2.936   4.368   3.261
    1C        C  549   2.996   4.409   3.382
    1C        C  550   2.831   4.283   3.505
    1C        C  551   2.937   4.376   3.506
    1C        C  552   2.780   4.235   3.628
    1C        C  553   2.832   4.283   3.751
    1C        C  554   2.696   4.121   3.877
    1C        C  555   2.785   4.230   3.874
    1C        C  556   2.658   4.061   3.999
    1C        C  557   2.697   4.126   4.119
    1C        C  558   2.604   3.938   4.247
    1C        C  559   2.663   4.066   4.242
    1C        C  560   2.573   3.876   4.370
    1C        C  561   2.597   3.949   4.488
    1C        C  562   2.535   3.749   4.614
    1C        C  563   2.579   3.883   4.612
    1C        C  564   2.512   3.681   4.736
    1C        C  565   2.517   3.758   4.855
    1C        C  566   2.539   3.548   4.975
    1C        C  567   2.525   3.686   4.975
    1C        C  568   3.329   4.477   2.042
    1C        C  569   3.397   4.513   2.159
    1C        C  570   3.184   4.481   2.281
    1C        C  571   3.322   4.512   2.280
    1C        C  572   3.115   4.460   2.403
    1C        C  573   3.184   4.482   2.525
    1C        C  574   2.985   4.410   2.648
    1C        C  575   3.114   4.469   2.647
    1C        C  576   2.926   4.371   2.770
    1C        C  577   2.989   4.406   2.892
    1C        C  578   2.826   4.275   3.017
    1C        C  579   2.935   4.365   3.016
    1C        C  580   2.777   4.225   3.140
    1C        C  581   2.829   4.276   3.261
    1C        C  582   2.698   4.113   3.386
    1C        C  583   2.783   4.226   3.385
    1C        C  584   2.663   4.055   3.510
    1C        C  585   2.700   4.119   3.630
    1C        C  586   2.599   3.934   3.756
    1C        C  587   2.663   4.060   3.753
    1C        C  588   2.573   3.870   3.879
    1C        C  589   2.599   3.933   4.003
    1C        C  590   2.531   3.735   4.125
    1C        C  591   2.573   3.870   4.127
    1C        C  592   2.518   3.669   4.250
    1C        C  593   2.532   3.741   4.371
    1C        C  594   2.507   3.533   4.497
    1C        C  595   2.521   3.674   4.495
    1C        C  596   2.514   3.466   4.621
    1C        C  597   2.511   3.538   4.742
    1C        C  598   2.538   3.325   4.865
    1C        C  599   2.529   3.466   4.862
    1C        C  600   2.539   3.249   4.982
    1C        C  601   3.196   4.443   2.043
    1C        C  602   2.983   4.398   2.160
    1C        C  603   3.118   4.445   2.160
    1C        C  604   2.926   4.360   2.284
    1C        C  605   2.990   4.395   2.404
    1C        C  606   2.819   4.274   2.530
    1C        C  607   2.927   4.365   2.527
    1C        C  608   2.775   4.218   2.652
    1C        C  609   2.822   4.275   2.773
    1C        C  610   2.688   4.113   2.896
    1C        C  611   2.772   4.226   2.896
    1C        C  612   2.658   4.052   3.020
    1C        C  613   2.689   4.114   3.142
    1C        C  614   2.592   3.927   3.267
    1C        C  615   2.657   4.052   3.265
    1C        C  616   2.569   3.861   3.391
    1C        C  617   2.602   3.927   3.511
    1C        C  618   2.532   3.731   3.638
    1C        C  619   2.572   3.866   3.635
    1C        C  620   2.515   3.663   3.761
    1C        C  621   2.532   3.735   3.881
    1C        C  622   2.510   3.523   4.008
    1C        C  623   2.521   3.664   4.003
    1C        C  624   2.514   3.455   4.132
    1C        C  625   2.509   3.528   4.253
    1C        C  626   2.535   3.320   4.379
    1C        C  627   2.512   3.460   4.376
    1C        C  628   2.554   3.252   4.502
    1C        C  629   2.534   3.326   4.620
    1C        C  630   2.599   3.122   4.744
    1C        C  631   2.553   3.257   4.742
    1C        C  632   2.619   3.051   4.866
    1C        C  633   2.561   3.110   4.982
    1C        C  634   2.791   4.298   2.053
    1C        C  635   2.895   4.392   2.047
    1C        C  636   2.759   4.225   2.168
    1C        C  637   2.814   4.272   2.289
    1C        C  638   2.679   4.109   2.410
    1C        C  639   2.765   4.222   2.411
    1C        C  640   2.645   4.046   2.531
    1C        C  641   2.693   4.104   2.651
    1C        C  642   2.592   3.921   2.777
    1C        C  643   2.651   4.050   2.775
    1C        C  644   2.568   3.857   2.900
    1C        C  645   2.597   3.924   3.021
    1C        C  646   2.532   3.725   3.148
    1C        C  647   2.569   3.861   3.144
    1C        C  648   2.514   3.655   3.270
    1C        C  649   2.527   3.726   3.391
    1C        C  650   2.505   3.520   3.520
    1C        C  651   2.519   3.660   3.516
    1C        C  652   2.502   3.450   3.643
    1C        C  653   2.504   3.522   3.764
    1C        C  654   2.527   3.311   3.891
    1C        C  655   2.512   3.451   3.886
    1C        C  656   2.541   3.242   4.013
    1C        C  657   2.533   3.315   4.134
    1C        C  658   2.607   3.119   4.257
    1C        C  659   2.550   3.249   4.258
    1C        C  660   2.634   3.054   4.379
    1C        C  661   2.597   3.118   4.500
    1C        C  662   2.709   2.939   4.623
    1C        C  663   2.628   3.054   4.623
    1C        C  664   2.750   2.877   4.743
    1C        C  665   2.693   2.929   4.863
    1C        C  666   2.745   2.875   4.981
    1C        C  667   2.680   4.024   2.049
    1C        C  668   2.691   4.101   2.165
    1C        C  669   2.597   3.912   2.289
    1C        C  670   2.655   4.041   2.288
    1C        C  671   2.563   3.849   2.411
    1C        C  672   2.587   3.917   2.533
    1C        C  673   2.524   3.717   2.659
    1C        C  674   2.569   3.851   2.656
    1C        C  675   2.518   3.647   2.781
    1C        C  676   2.535   3.719   2.902
    1C        C  677   2.510   3.513   3.027
    1C        C  678   2.521   3.654   3.026
    1C        C  679   2.508   3.446   3.151
    1C        C  680   2.506   3.514   3.275
    1C        C  681   2.530   3.307   3.402
    1C        C  682   2.506   3.446   3.399
    1C        C  683   2.554   3.244   3.527
    1C        C  684   2.528   3.311   3.648
    1C        C  685   2.602   3.114   3.770
    1C        C  686   2.537   3.239   3.769
    1C        C  687   2.628   3.049   3.893
    1C        C  688   2.585   3.108   4.014
    1C        C  689   2.709   2.935   4.136
    1C        C  690   2.625   3.049   4.136
    1C        C  691   2.760   2.883   4.257
    1C        C  692   2.713   2.936   4.379
    1C        C  693   2.756   2.883   4.503
    1C        C  694   2.629   3.893   2.053
    1C        C  695   2.537   3.702   2.173
    1C        C  696   2.582   3.835   2.172
    1C        C  697   2.518   3.635   2.296
    1C        C  698   2.529   3.712   2.415
    1C        C  699   2.496   3.505   2.543
    1C        C  700   2.514   3.645   2.538
    1C        C  701   2.501   3.433   2.665
    1C        C  702   2.508   3.506   2.786
    1C        C  703   2.527   3.296   2.913
    1C        C  704   2.512   3.437   2.909
    1C        C  705   2.542   3.232   3.038
    1C        C  706   2.526   3.305   3.157
    1C        C  707   2.601   3.108   3.282
    1C        C  708   2.548   3.239   3.280
    1C        C  709   2.631   3.042   3.403
    1C        C  710   2.607   3.113   3.522
    1C        C  711   2.713   2.935   3.651
    1C        C  712   2.636   3.053   3.647
    1C        C  713   2.759   2.879   3.772
    1C        C  714   2.714   2.936   3.894
    1C        C  715   2.754   2.877   4.016
    1C        C  716   2.444   3.498   2.063
    1C        C  717   2.492   3.630   2.062
    1C        C  718   2.470   3.423   2.182
    1C        C  719   2.488   3.496   2.302
    1C        C  720   2.512   3.288   2.425
    1C        C  721   2.488   3.427   2.425
    1C        C  722   2.535   3.221   2.547
    1C        C  723   2.523   3.294   2.667
    1C        C  724   2.591   3.095   2.792
    1C        C  725   2.537   3.226   2.791
    1C        C  726   2.622   3.035   2.916
    1C        C  727   2.590   3.099   3.038
    1C        C  728   2.711   2.926   3.159
    1C        C  729   2.629   3.041   3.161
    1C        C  730   2.753   2.872   3.283
    1C        C  731   2.706   2.922   3.407
    1C        C  732   2.756   2.874   3.530
    1C        C  733   2.496   3.200   2.071
    1C        C  734   2.481   3.280   2.185
    1C        C  735   2.583   3.086   2.308
    1C        C  736   2.525   3.216   2.304
    1C        C  737   2.609   3.018   2.429
    1C        C  738   2.583   3.088   2.549
    1C        C  739   2.695   2.909   2.671
    1C        C  740   2.617   3.027   2.672
    1C        C  741   2.739   2.853   2.793
    1C        C  742   2.703   2.918   2.913
    1C        C  743   2.752   2.869   3.036
    1C        C  744   2.547   3.070   2.075
    1C        C  745   2.681   2.894   2.187
    1C        C  746   2.606   3.014   2.188
    1C        C  747   2.730   2.843   2.309
    1C        C  748   2.683   2.898   2.430
    1C        C  749   2.737   2.848   2.551
    1C        C  750   2.726   2.834   2.069
    1C        C  751   3.667   2.331   1.964
    1C        O  752   3.665   2.205   1.975
    1C        O  753   3.707   2.379   1.839
    1C        C  754   4.617   3.064   1.962
    1C        O  755   4.613   3.100   1.841
    1C        O  756   4.746   3.018   1.991
    1C        C  757   4.443   4.224   1.967
    1C        O  758   4.470   4.337   2.015
    1C        O  759   4.491   4.197   1.838
    1C        C  760   3.582   4.669   1.949
    1C        O  761   3.622   4.787   1.972
    1C        O  762   3.533   4.644   1.820
    1C        C  763   2.891   4.496   1.942
    1C        O  764   2.944   4.478   1.829
    1C        O  765   2.884   4.631   1.980
    1C        C  766   2.307   3.489   2.006
    1C        O  767   2.296   3.463   1.883
    1C        O  768   2.196   3.558   2.055
    1C        C  769   4.700   3.595   5.047
    1C        O  770   4.687   3.574   5.171
    1C        O  771   4.832   3.632   5.018
    1C        C  772   4.264   4.428   5.055
    1C        O  773   4.222   4.454   5.171
    1C        O  774   4.376   4.511   5.041
    1C        C  775   4.152   2.515   5.057
    1C        O  776   4.187   2.399   5.024
    1C        O  777   4.177   2.543   5.192
    1C        C  778   2.913   4.543   5.060
    1C        O  779   2.912   4.665   5.028
    1C        O  780   2.893   4.523   5.197
    1C        C  781   2.484   3.026   5.076
    1C        O  782   2.365   2.998   5.045
    1C        O  783   2.501   3.026   5.214
    1C        C  784   2.420   3.996   5.057
    1C        O  785   2.301   4.031   5.030
    1C        O  786   2.448   4.017   5.193
    1C        C  787   2.946   2.429   2.001
    1C        O  788   2.943   2.452   1.877
    1C        O  789   2.912   2.302   2.045
    1C        C  790   3.181   2.370   5.058
    1C        O  791   3.130   2.259   5.030
    1C        O  792   3.183   2.381   5.198
    1C        H  793   4.257   3.037   5.042
    1C        H  794   4.213   2.794   5.071
    1C        H  795   4.478   3.128   5.063
    1C        H  796   4.577   3.328   5.063
    1C        H  797   4.592   3.809   5.037
    1C        H  798   4.449   3.977   5.047
    1C        H  799   4.302   4.175   5.056
    1C        H  800   4.050   4.579   4.991
    1C        H  801   3.812   4.620   5.031
    1C        H  802   3.598   4.642   5.036
    1C        H  803   3.398   4.459   5.023
    1C        H  804   3.162   4.462   5.052
    1C        H  805   3.873   2.530   5.069
    1C        H  806   3.674   2.403   5.043
    1C        H  807   3.015   2.569   5.073
    1C        H  808   3.443   2.432   5.064
    1C        H  809   2.856   2.718   5.072
    1C        H  810   2.734   2.929   5.073
    1C        H  811   2.506   3.298   5.071
    1C        H  812   2.589   3.511   5.062
    1C        H  813   2.494   3.727   5.069
    1C        H  814   2.595   4.176   5.045
    1C        H  815   2.745   4.326   5.052
    1C        H  816   2.717   2.884   1.975
    1C        H  817   2.876   2.721   1.982
    1C        H  818   3.203   2.431   1.989
    1C        H  819   3.423   2.437   1.978
    1C        H  820   3.841   2.549   1.973
    1C        H  821   4.066   2.615   1.965
    1C        H  822   4.292   2.692   1.993
    1C        H  823   4.354   2.932   1.969
    1C        H  824   4.545   3.298   1.961
    1C        H  825   4.462   3.515   1.964
    1C        H  826   4.547   3.749   1.967
    1C        H  827   3.812   4.531   1.958
    1C        H  828   3.938   4.336   1.957
    1C        H  829   4.141   4.221   1.960
    1C        H  830   4.525   3.971   1.985
    1C        H  831   2.694   3.826   2.000
    1C        H  832   2.733   4.055   1.961
    1C        H  833   2.718   4.303   1.975
    1C        H  834   3.388   4.462   1.953
    1C        H  835   3.167   4.393   1.953
    1C        H  836   2.520   3.007   1.992
    1C        H  837   2.439   3.222   1.983
    1C        H  838   2.474   3.684   1.971
    2V3OU   H29  839   2.816   3.553   3.517
    2V3OU   C27  840   2.799   3.503   3.616
    2V3OU   H27  841   2.733   3.565   3.681
    2V3OU   H28  842   2.748   3.404   3.607
    2V3OU   O11  843   2.917   3.478   3.693
    2V3OU   C15  844   2.929   3.399   3.805
    2V3OU   C13  845   3.056   3.373   3.860
    2V3OU   C14  846   3.082   3.267   3.948
    2V3OU   C16  847   2.981   3.183   3.993
    2V3OU    H6  848   2.995   3.105   4.068
    2V3OU   C12  849   3.219   3.234   3.993
    2V3OU    O2  850   3.237   3.131   4.061
    2V3OU   C10  851   3.326   3.310   3.927
    2V3OU    C8  852   3.457   3.273   3.953
    2V3OU   O10  853   3.488   3.159   4.020
    2V3OU   H26  854   3.402   3.115   4.031
    2V3OU    C6  855   3.565   3.351   3.901
    2V3OU    C5  856   3.537   3.468   3.832
    2V3OU    C4  857   3.703   3.294   3.903
    2V3OU    H4  858   3.720   3.233   3.996
    2V3OU    H5  859   3.718   3.223   3.816
    2V3OU    C2  860   3.814   3.400   3.902
    2V3OU    O6  861   3.804   3.471   4.026
    2V3OU   H21  862   3.766   3.554   3.993
    2V3OU    C3  863   3.785   3.501   3.791
    2V3OU    H2  864   3.863   3.581   3.800
    2V3OU    H3  865   3.790   3.439   3.698
    2V3OU   C25  866   3.945   3.324   3.881
    2V3OU    O7  867   3.996   3.287   3.776
    2V3OU   C26  868   4.027   3.286   4.003
    2V3OU   H22  869   4.061   3.383   4.046
    2V3OU   H23  870   4.120   3.234   3.970
    2V3OU    O8  871   3.966   3.207   4.103
    2V3OU   H24  872   3.928   3.263   4.172
    2V3OU    C1  873   3.648   3.565   3.806
    2V3OU    H1  874   3.624   3.620   3.711
    2V3OU    O3  875   3.645   3.653   3.920
    2V3OU   C19  876   3.622   3.794   3.917
    2V3OU    H9  877   3.528   3.808   3.856
    2V3OU    O4  878   3.713   3.848   3.824
    2V3OU   C20  879   3.843   3.875   3.876
    2V3OU   H10  880   3.909   3.784   3.869
    2V3OU   C24  881   3.609   3.863   4.052
    2V3OU   H16  882   3.540   3.803   4.117
    2V3OU   H17  883   3.568   3.965   4.031
    2V3OU   C23  884   3.751   3.873   4.110
    2V3OU   H15  885   3.788   3.768   4.133
    2V3OU    N1  886   3.741   3.954   4.230
    2V3OU   H19  887   3.809   3.924   4.297
    2V3OU   H20  888   3.654   3.934   4.274
    2V3OU   C21  889   3.848   3.946   4.012
    2V3OU   H11  890   3.954   3.922   4.044
    2V3OU    O5  891   3.832   4.087   4.009
    2V3OU   H18  892   3.784   4.110   4.090
    2V3OU   C22  893   3.915   3.952   3.767
    2V3OU   H12  894   3.866   4.052   3.753
    2V3OU   H13  895   3.905   3.896   3.670
    2V3OU   H14  896   4.025   3.955   3.789
    2V3OU   C11  897   3.160   3.471   3.824
    2V3OU    O1  898   3.136   3.591   3.799
    2V3OU    C9  899   3.298   3.422   3.843
    2V3OU    C7  900   3.402   3.503   3.800
    2V3OU    O9  901   3.389   3.612   3.716
    2V3OU   H25  902   3.293   3.630   3.716
    2V3OU   C17  903   2.828   3.322   3.867
    2V3OU    H7  904   2.737   3.346   3.812
    2V3OU   C18  905   2.852   3.219   3.957
    2V3OU    H8  906   2.793   3.170   4.036
    3SOL     OW  907   2.980   4.110   5.504
    3SOL    HW1  908   3.030   4.196   5.516
    3SOL    HW2  909   3.011   4.064   5.421
    4SOL     OW  910   6.391   6.978   6.607
    4SOL    HW1  911   6.293   6.984   6.625
    4SOL    HW2  912   6.439   0.029   6.654
    5SOL     OW  913   5.047   1.885   2.791
    5SOL    HW1  914   5.003   1.815   2.847
    5SOL    HW2  915   5.019   1.976   2.823
    6SOL     OW  916   4.864   2.599   3.189
    6SOL    HW1  917   4.859   2.695   3.217
    6SOL    HW2  918   4.786   2.577   3.130
    7SOL     OW  919   1.072   4.057   3.816
    7SOL    HW1  920   1.078   4.074   3.915
    7SOL    HW2  921   1.088   3.960   3.798
    8SOL     OW  922   2.926   2.221   5.523
    8SOL    HW1  923   2.912   2.122   5.515
    8SOL    HW2  924   2.951   2.258   5.433
    9SOL     OW  925   6.193   2.038   6.254
    9SOL    HW1  926   6.189   1.952   6.304
    9SOL    HW2  927   6.200   2.114   6.319
   10SOL     OW  928   3.210   4.909   4.232
   10SOL    HW1  929   3.276   4.923   4.305
   10SOL    HW2  930   3.197   4.811   4.216
   11SOL     OW  931   1.669   1.461   6.852
   11SOL    HW1  932   1.735   1.461   6.926
   11SOL    HW2  933   1.627   1.370   6.844
   12SOL     OW  934   3.013   4.803   3.974
   12SOL    HW1  935   2.965   4.809   3.887
   12SOL    HW2  936   3.111   4.821   3.960
   13SOL     OW  937   3.963   6.214   3.106
   13SOL    HW1  938   4.008   6.243   3.022
   13SOL    HW2  939   4.031   6.199   3.177
   14SOL     OW  940   4.465   3.755   6.721
   14SOL    HW1  941   4.483   3.666   6.765
   14SOL    HW2  942   4.394   3.744   6.652
   15SOL     OW  943   0.761   6.673   6.425
   15SOL    HW1  944   0.694   6.603   6.450
   15SOL    HW2  945   0.844   6.629   6.391
   16SOL     OW  946   5.984   2.694   6.418
   16SOL    HW1  947   6.014   2.789   6.404
   16SOL    HW2  948   5.910   2.673   6.355
   17SOL     OW  949   5.086   0.399   6.527
   17SOL    HW1  950   5.032   0.455   6.590
   17SOL    HW2  951   5.060   0.422   6.433
   18SOL     OW  952   3.872   0.986   4.896
   18SOL    HW1  953   3.791   0.930   4.913
   18SOL    HW2  954   3.845   1.081   4.885
   19SOL     OW  955   0.854   2.358   1.911
   19SOL    HW1  956   0.946   2.347   1.872
   19SOL    HW2  957   0.858   2.346   2.010
   20SOL     OW  958   5.124   2.012   5.149
   20SOL    HW1  959   5.196   1.956   5.107
   20SOL    HW2  960   5.085   2.073   5.080
   21SOL     OW  961   2.618   0.392   3.352
   21SOL    HW1  962   2.704   0.360   3.313
   21SOL    HW2  963   2.629   0.483   3.390
   22SOL     OW  964   1.040   6.470   6.632
   22SOL    HW1  965   0.991   6.489   6.546
   22SOL    HW2  966   1.048   6.372   6.644
   23SOL     OW  967   3.621   5.277   2.380
   23SOL    HW1  968   3.614   5.299   2.477
   23SOL    HW2  969   3.574   5.191   2.361
   24SOL     OW  970   3.463   0.513   2.665
   24SOL    HW1  971   3.490   0.500   2.570
   24SOL    HW2  972   3.479   0.428   2.716
   25SOL     OW  973   2.371   6.993   3.981
   25SOL    HW1  974   2.283   7.018   3.940
   25SOL    HW2  975   2.364   7.002   4.081
   26SOL     OW  976   0.362   1.984   0.013
   26SOL    HW1  977   0.296   2.018   6.969
   26SOL    HW2  978   0.435   2.051   0.027
   27SOL     OW  979   1.759   1.409   2.021
   27SOL    HW1  980   1.745   1.468   1.941
   27SOL    HW2  981   1.851   1.371   2.019
   28SOL     OW  982   0.265   1.104   4.614
   28SOL    HW1  983   0.171   1.127   4.588
   28SOL    HW2  984   0.327   1.123   4.537
   29SOL     OW  985   6.565   0.918   1.159
   29SOL    HW1  986   6.624   0.840   1.179
   29SOL    HW2  987   6.553   0.973   1.241
   30SOL     OW  988   3.732   0.492   5.377
   30SOL    HW1  989   3.636   0.481   5.353
   30SOL    HW2  990   3.787   0.426   5.326
   31SOL     OW  991   0.331   2.231   5.547
   31SOL    HW1  992   0.428   2.207   5.555
   31SOL    HW2  993   0.323   2.327   5.522
   32SOL     OW  994   1.494   1.553   2.237
   32SOL    HW1  995   1.469   1.457   2.223
   32SOL    HW2  996   1.426   1.598   2.294
   33SOL     OW  997   0.857   4.261   5.220
   33SOL    HW1  998   0.834   4.358   5.231
   33SOL    HW2  999   0.956   4.249   5.219
   34SOL     OW 1000   2.401   5.762   4.885
   34SOL    HW1 1001   2.379   5.742   4.790
   34SOL    HW2 1002   2.475   5.702   4.916
   35SOL     OW 1003   4.377   1.990   5.465
   35SOL    HW1 1004   4.292   2.016   5.419
   35SOL    HW2 1005   4.361   1.911   5.523
   36SOL     OW 1006   5.089   1.475   3.744
   36SOL    HW1 1007   5.030   1.547   3.706
   36SOL    HW2 1008   5.072   1.467   3.842
   37SOL     OW 1009   1.958   1.577   4.895
   37SOL    HW1 1010   2.032   1.618   4.842
   37SOL    HW2 1011   1.996   1.516   4.965
   38SOL     OW 1012   2.322   4.007   1.944
   38SOL    HW1 1013   2.267   3.931   1.909
   38SOL    HW2 1014   2.417   3.995   1.917
   39SOL     OW 1015   6.379   4.834   6.086
   39SOL    HW1 1016   6.445   4.830   6.161
   39SOL    HW2 1017   6.400   4.762   6.019
   40SOL     OW 1018   3.513   1.945   6.759
   40SOL    HW1 1019   3.430   1.926   6.708
   40SOL    HW2 1020   3.559   2.025   6.721
   41SOL     OW 1021   6.610   3.411   2.729
   41SOL    HW1 1022   6.569   3.501   2.742
   41SOL    HW2 1023   6.551   3.356   2.669
   42SOL     OW 1024   3.267   5.798   4.402
   42SOL    HW1 1025   3.317   5.786   4.316
   42SOL    HW2 1026   3.168   5.794   4.384
   43SOL     OW 1027   4.291   0.328   5.432
   43SOL    HW1 1028   4.194   0.334   5.455
   43SOL    HW2 1029   4.345   0.374   5.503
   44SOL     OW 1030   5.940   2.307   4.997
   44SOL    HW1 1031   5.912   2.403   4.997
   44SOL    HW2 1032   5.899   2.260   5.075
   45SOL     OW 1033   4.134   5.382   1.145
   45SOL    HW1 1034   4.090   5.469   1.164
   45SOL    HW2 1035   4.065   5.309   1.141
   46SOL     OW 1036   0.569   2.742   4.153
   46SOL    HW1 1037   0.526   2.681   4.220
   46SOL    HW2 1038   0.665   2.758   4.179
   47SOL     OW 1039   4.474   3.856   1.572
   47SOL    HW1 1040   4.560   3.821   1.533
   47SOL    HW2 1041   4.400   3.844   1.505
   48SOL     OW 1042   0.160   2.690   6.157
   48SOL    HW1 1043   0.091   2.760   6.139
   48SOL    HW2 1044   0.169   2.677   6.256
   49SOL     OW 1045   5.591   2.623   1.262
   49SOL    HW1 1046   5.591   2.702   1.323
   49SOL    HW2 1047   5.682   2.581   1.262
   50SOL     OW 1048   5.952   1.462   5.428
   50SOL    HW1 1049   5.859   1.488   5.453
   50SOL    HW2 1050   6.008   1.455   5.511
   51SOL     OW 1051   1.975   6.182   2.987
   51SOL    HW1 1052   2.068   6.147   2.999
   51SOL    HW2 1053   1.971   6.235   2.902
   52SOL     OW 1054   5.216   3.096   1.778
   52SOL    HW1 1055   5.219   3.065   1.683
   52SOL    HW2 1056   5.148   3.043   1.829
   53SOL     OW 1057   5.568   0.226   3.419
   53SOL    HW1 1058   5.604   0.278   3.497
   53SOL    HW2 1059   5.614   0.137   3.414
   54SOL     OW 1060   5.373   6.893   0.258
   54SOL    HW1 1061   5.291   6.949   0.242
   54SOL    HW2 1062   5.358   6.802   0.219
   55SOL     OW 1063   2.314   2.122   5.312
   55SOL    HW1 1064   2.225   2.078   5.312
   55SOL    HW2 1065   2.334   2.159   5.403
   56SOL     OW 1066   1.415   1.841   0.978
   56SOL    HW1 1067   1.317   1.856   0.968
   56SOL    HW2 1068   1.457   1.921   1.021
   57SOL     OW 1069   3.374   1.166   0.339
   57SOL    HW1 1070   3.332   1.077   0.321
   57SOL    HW2 1071   3.455   1.153   0.396
   58SOL     OW 1072   0.566   6.594   5.865
   58SOL    HW1 1073   0.654   6.559   5.833
   58SOL    HW2 1074   0.580   6.647   5.949
   59SOL     OW 1075   6.664   3.842   5.880
   59SOL    HW1 1076   6.598   3.916   5.891
   59SOL    HW2 1077   6.678   3.795   5.967
   60SOL     OW 1078   5.186   2.488   3.872
   60SOL    HW1 1079   5.166   2.421   3.801
   60SOL    HW2 1080   5.204   2.577   3.829
   61SOL     OW 1081   7.004   1.082   4.499
   61SOL    HW1 1082   6.921   1.040   4.536
   61SOL    HW2 1083   0.043   1.010   4.467
   62SOL     OW 1084   1.917   1.074   1.425
   62SOL    HW1 1085   1.980   1.052   1.350
   62SOL    HW2 1086   1.951   1.154   1.474
   63SOL     OW 1087   3.889   0.165   4.003
   63SOL    HW1 1088   3.943   0.135   3.925
   63SOL    HW2 1089   3.792   0.169   3.977
   64SOL     OW 1090   0.578   3.747   6.422
   64SOL    HW1 1091   0.494   3.784   6.383
   64SOL    HW2 1092   0.656   3.775   6.366
   65SOL     OW 1093   1.027   6.001   5.654
   65SOL    HW1 1094   1.054   6.093   5.625
   65SOL    HW2 1095   1.082   5.933   5.604
   66SOL     OW 1096   3.382   0.082   3.082
   66SOL    HW1 1097   3.350   0.024   3.007
   66SOL    HW2 1098   3.348   0.175   3.070
   67SOL     OW 1099   0.340   2.983   5.754
   67SOL    HW1 1100   0.294   3.070   5.736
   67SOL    HW2 1101   0.350   2.971   5.852
   68SOL     OW 1102   0.024   1.780   6.062
   68SOL    HW1 1103   0.075   1.838   6.125
   68SOL    HW2 1104   0.078   1.765   5.980
   69SOL     OW 1105   2.169   3.045   5.717
   69SOL    HW1 1106   2.229   3.048   5.637
   69SOL    HW2 1107   2.078   3.079   5.692
   70SOL     OW 1108   5.579   5.141   4.774
   70SOL    HW1 1109   5.511   5.068   4.775
   70SOL    HW2 1110   5.658   5.114   4.830
   71SOL     OW 1111   4.606   1.754   3.272
   71SOL    HW1 1112   4.627   1.734   3.368
   71SOL    HW2 1113   4.614   1.671   3.217
   72SOL     OW 1114   0.240   1.001   3.232
   72SOL    HW1 1115   0.180   1.066   3.279
   72SOL    HW2 1116   0.204   0.983   3.140
   73SOL     OW 1117   2.883   0.336   1.147
   73SOL    HW1 1118   2.870   0.387   1.061
   73SOL    HW2 1119   2.817   0.262   1.152
   74SOL     OW 1120   2.688   1.257   6.509
   74SOL    HW1 1121   2.738   1.187   6.458
   74SOL    HW2 1122   2.686   1.342   6.456
   75SOL     OW 1123   3.669   1.581   1.529
   75SOL    HW1 1124   3.672   1.500   1.469
   75SOL    HW2 1125   3.575   1.598   1.557
   76SOL     OW 1126   1.850   4.002   5.969
   76SOL    HW1 1127   1.815   3.985   6.061
   76SOL    HW2 1128   1.877   4.098   5.960
   77SOL     OW 1129   1.675   5.944   3.052
   77SOL    HW1 1130   1.710   6.021   3.000
   77SOL    HW2 1131   1.678   5.964   3.149
   78SOL     OW 1132   4.008   1.364   1.355
   78SOL    HW1 1133   4.008   1.462   1.335
   78SOL    HW2 1134   3.975   1.314   1.275
   79SOL     OW 1135   2.669   5.841   1.843
   79SOL    HW1 1136   2.583   5.849   1.792
   79SOL    HW2 1137   2.649   5.828   1.940
   80SOL     OW 1138   4.205   1.721   4.732
   80SOL    HW1 1139   4.228   1.818   4.727
   80SOL    HW2 1140   4.242   1.682   4.817
   81SOL     OW 1141   2.100   6.572   1.068
   81SOL    HW1 1142   2.010   6.581   1.027
   81SOL    HW2 1143   2.116   6.476   1.092
   82SOL     OW 1144   6.837   6.170   1.921
   82SOL    HW1 1145   6.889   6.086   1.907
   82SOL    HW2 1146   6.824   6.216   1.834
   83SOL     OW 1147   0.418   1.722   6.237
   83SOL    HW1 1148   0.466   1.694   6.154
   83SOL    HW2 1149   0.348   1.789   6.214
   84SOL     OW 1150   6.519   4.418   3.045
   84SOL    HW1 1151   6.552   4.471   3.123
   84SOL    HW2 1152   6.542   4.322   3.057
   85SOL     OW 1153   1.203   0.453   3.372
   85SOL    HW1 1154   1.281   0.515   3.383
   85SOL    HW2 1155   1.231   0.360   3.396
   86SOL     OW 1156   6.775   1.110   6.702
   86SOL    HW1 1157   6.772   1.203   6.667
   86SOL    HW2 1158   6.818   1.110   6.792
   87SOL     OW 1159   3.586   3.888   0.944
   87SOL    HW1 1160   3.523   3.836   0.887
   87SOL    HW2 1161   3.680   3.864   0.919
   88SOL     OW 1162   3.122   2.125   6.482
   88SOL    HW1 1163   3.193   2.068   6.441
   88SOL    HW2 1164   3.133   2.219   6.451
   89SOL     OW 1165   3.315   3.689   0.902
   89SOL    HW1 1166   3.397   3.697   0.847
   89SOL    HW2 1167   3.236   3.673   0.843
   90SOL     OW 1168   4.806   4.667   2.367
   90SOL    HW1 1169   4.800   4.567   2.366
   90SOL    HW2 1170   4.750   4.703   2.442
   91SOL     OW 1171   5.963   4.753   6.064
   91SOL    HW1 1172   5.873   4.742   6.105
   91SOL    HW2 1173   5.969   4.698   5.980
   92SOL     OW 1174   5.177   4.169   0.868
   92SOL    HW1 1175   5.212   4.236   0.934
   92SOL    HW2 1176   5.123   4.216   0.798
   93SOL     OW 1177   3.272   3.638   0.110
   93SOL    HW1 1178   3.268   3.598   0.018
   93SOL    HW2 1179   3.282   3.566   0.178
   94SOL     OW 1180   2.365   6.000   0.836
   94SOL    HW1 1181   2.324   6.015   0.926
   94SOL    HW2 1182   2.299   5.952   0.778
   95SOL     OW 1183   1.554   0.764   3.052
   95SOL    HW1 1184   1.570   0.788   2.956
   95SOL    HW2 1185   1.458   0.780   3.074
   96SOL     OW 1186   5.171   5.857   6.883
   96SOL    HW1 1187   5.078   5.871   6.849
   96SOL    HW2 1188   5.170   5.786   6.953
   97SOL     OW 1189   2.169   4.285   4.993
   97SOL    HW1 1190   2.206   4.329   4.912
   97SOL    HW2 1191   2.207   4.193   5.002
   98SOL     OW 1192   0.944   2.300   1.137
   98SOL    HW1 1193   0.908   2.392   1.150
   98SOL    HW2 1194   0.926   2.245   1.219
   99SOL     OW 1195   3.227   3.902   2.615
   99SOL    HW1 1196   3.285   3.822   2.631
   99SOL    HW2 1197   3.281   3.985   2.624
  100SOL     OW 1198   6.755   0.258   4.496
  100SOL    HW1 1199   6.825   0.210   4.443
  100SOL    HW2 1200   6.665   0.225   4.469
  101SOL     OW 1201   0.415   5.445   2.263
  101SOL    HW1 1202   0.351   5.370   2.281
  101SOL    HW2 1203   0.435   5.493   2.348
  102SOL     OW 1204   3.361   5.707   2.609
  102SOL    HW1 1205   3.442   5.720   2.666
  102SOL    HW2 1206   3.378   5.632   2.545
  103SOL     OW 1207   1.693   1.725   2.499
  103SOL    HW1 1208   1.666   1.704   2.405
  103SOL    HW2 1209   1.793   1.719   2.506
  104SOL     OW 1210   1.513   5.056   2.194
  104SOL    HW1 1211   1.576   5.013   2.130
  104SOL    HW2 1212   1.489   4.991   2.266
  105SOL     OW 1213   4.929   1.695   5.792
  105SOL    HW1 1214   4.954   1.678   5.887
  105SOL    HW2 1215   5.011   1.715   5.739
  106SOL     OW 1216   4.773   5.145   1.998
  106SOL    HW1 1217   4.680   5.138   2.036
  106SOL    HW2 1218   4.821   5.058   2.012
  107SOL     OW 1219   6.251   0.740   6.759
  107SOL    HW1 1220   6.248   0.667   6.827
  107SOL    HW2 1221   6.174   0.730   6.696
  108SOL     OW 1222   3.489   6.912   5.456
  108SOL    HW1 1223   3.563   6.960   5.409
  108SOL    HW2 1224   3.454   6.969   5.531
  109SOL     OW 1225   2.821   0.623   2.407
  109SOL    HW1 1226   2.793   0.543   2.460
  109SOL    HW2 1227   2.740   0.665   2.366
  110SOL     OW 1228   2.275   5.384   4.880
  110SOL    HW1 1229   2.179   5.404   4.859
  110SOL    HW2 1230   2.286   5.285   4.894
  111SOL     OW 1231   1.059   1.225   2.893
  111SOL    HW1 1232   0.989   1.293   2.874
  111SOL    HW2 1233   1.077   1.171   2.811
  112SOL     OW 1234   4.922   6.632   6.650
  112SOL    HW1 1235   4.942   6.726   6.623
  112SOL    HW2 1236   4.823   6.620   6.661
  113SOL     OW 1237   0.035   6.277   2.672
  113SOL    HW1 1238   0.058   6.373   2.683
  113SOL    HW2 1239   6.959   6.266   2.670
  114SOL     OW 1240   1.401   5.496   1.866
  114SOL    HW1 1241   1.363   5.448   1.945
  114SOL    HW2 1242   1.379   5.446   1.783
  115SOL     OW 1243   6.053   0.829   3.347
  115SOL    HW1 1244   6.084   0.924   3.348
  115SOL    HW2 1245   5.995   0.813   3.267
  116SOL     OW 1246   6.997   6.082   1.333
  116SOL    HW1 1247   0.008   5.989   1.326
  116SOL    HW2 1248   0.011   6.125   1.416
  117SOL     OW 1249   2.343   0.796   0.267
  117SOL    HW1 1250   2.389   0.878   0.232
  117SOL    HW2 1251   2.410   0.725   0.286
  118SOL     OW 1252   1.972   1.962   3.101
  118SOL    HW1 1253   1.966   1.998   3.194
  118SOL    HW2 1254   1.893   1.903   3.083
  119SOL     OW 1255   0.124   6.939   6.362
  119SOL    HW1 1256   0.221   6.944   6.337
  119SOL    HW2 1257   0.093   6.844   6.356
  120SOL     OW 1258   4.513   0.513   4.203
  120SOL    HW1 1259   4.571   0.456   4.261
  120SOL    HW2 1260   4.484   0.595   4.254
  121SOL     OW 1261   1.697   4.053   0.274
  121SOL    HW1 1262   1.706   4.147   0.241
  121SOL    HW2 1263   1.690   3.991   0.195
  122SOL     OW 1264   1.540   3.472   0.148
  122SOL    HW1 1265   1.455   3.523   0.136
  122SOL    HW2 1266   1.611   3.534   0.181
  123SOL     OW 1267   1.131   0.976   2.192
  123SOL    HW1 1268   1.221   0.984   2.235
  123SOL    HW2 1269   1.069   0.927   2.254
  124SOL     OW 1270   3.297   1.908   0.700
  124SOL    HW1 1271   3.324   1.987   0.645
  124SOL    HW2 1272   3.371   1.885   0.762
  125SOL     OW 1273   3.147   2.462   0.303
  125SOL    HW1 1274   3.108   2.531   0.364
  125SOL    HW2 1275   3.153   2.499   0.210
  126SOL     OW 1276   3.412   3.185   3.251
  126SOL    HW1 1277   3.436   3.234   3.167
  126SOL    HW2 1278   3.443   3.237   3.330
  127SOL     OW 1279   6.523   6.396   5.926
  127SOL    HW1 1280   6.512   6.433   5.833
  127SOL    HW2 1281   6.561   6.467   5.985
  128SOL     OW 1282   5.290   3.463   2.126
  128SOL    HW1 1283   5.349   3.538   2.094
  128SOL    HW2 1284   5.237   3.427   2.050
  129SOL     OW 1285   3.055   4.452   0.932
  129SOL    HW1 1286   3.133   4.407   0.889
  129SOL    HW2 1287   3.080   4.545   0.960
  130SOL     OW 1288   6.361   0.735   4.730
  130SOL    HW1 1289   6.443   0.678   4.734
  130SOL    HW2 1290   6.332   0.745   4.635
  131SOL     OW 1291   6.104   1.134   4.664
  131SOL    HW1 1292   6.040   1.197   4.708
  131SOL    HW2 1293   6.114   1.052   4.719
  132SOL     OW 1294   3.495   3.335   1.562
  132SOL    HW1 1295   3.434   3.370   1.492
  132SOL    HW2 1296   3.494   3.235   1.561
  133SOL     OW 1297   5.222   1.440   3.509
  133SOL    HW1 1298   5.162   1.467   3.584
  133SOL    HW2 1299   5.173   1.446   3.422
  134SOL     OW 1300   0.745   0.150   2.441
  134SOL    HW1 1301   0.766   0.240   2.403
  134SOL    HW2 1302   0.790   0.140   2.530
  135SOL     OW 1303   5.216   3.091   4.294
  135SOL    HW1 1304   5.283   3.064   4.363
  135SOL    HW2 1305   5.150   3.017   4.282
  136SOL     OW 1306   2.514   6.497   4.113
  136SOL    HW1 1307   2.527   6.586   4.067
  136SOL    HW2 1308   2.497   6.427   4.044
  137SOL     OW 1309   4.162   0.913   4.350
  137SOL    HW1 1310   4.154   0.990   4.414
  137SOL    HW2 1311   4.128   0.830   4.393
  138SOL     OW 1312   1.083   4.503   3.344
  138SOL    HW1 1313   0.994   4.481   3.303
  138SOL    HW2 1314   1.089   4.602   3.358
  139SOL     OW 1315   2.534   5.622   6.492
  139SOL    HW1 1316   2.438   5.620   6.465
  139SOL    HW2 1317   2.564   5.529   6.514
  140SOL     OW 1318   2.000   6.311   2.743
  140SOL    HW1 1319   2.009   6.409   2.729
  140SOL    HW2 1320   1.991   6.265   2.655
  141SOL     OW 1321   6.800   3.109   5.813
  141SOL    HW1 1322   6.734   3.033   5.813
  141SOL    HW2 1323   6.819   3.136   5.718
  142SOL     OW 1324   2.380   3.751   1.601
  142SOL    HW1 1325   2.314   3.689   1.645
  142SOL    HW2 1326   2.333   3.834   1.572
  143SOL     OW 1327   5.892   5.451   1.188
  143SOL    HW1 1328   5.892   5.494   1.097
  143SOL    HW2 1329   5.973   5.480   1.238
  144SOL     OW 1330   2.969   4.840   4.528
  144SOL    HW1 1331   3.004   4.845   4.622
  144SOL    HW2 1332   2.942   4.746   4.508
  145SOL     OW 1333   1.370   5.225   2.006
  145SOL    HW1 1334   1.428   5.175   2.071
  145SOL    HW2 1335   1.290   5.169   1.984
  146SOL     OW 1336   5.302   0.918   5.619
  146SOL    HW1 1337   5.343   1.004   5.651
  146SOL    HW2 1338   5.218   0.938   5.568
  147SOL     OW 1339   4.920   1.199   5.022
  147SOL    HW1 1340   4.898   1.249   5.106
  147SOL    HW2 1341   5.019   1.187   5.015
  148SOL     OW 1342   1.235   5.564   1.204
  148SOL    HW1 1343   1.189   5.510   1.275
  148SOL    HW2 1344   1.239   5.660   1.232
  149SOL     OW 1345   3.259   1.877   4.885
  149SOL    HW1 1346   3.317   1.885   4.967
  149SOL    HW2 1347   3.247   1.967   4.844
  150SOL     OW 1348   4.598   0.772   6.046
  150SOL    HW1 1349   4.536   0.848   6.067
  150SOL    HW2 1350   4.641   0.740   6.130
  151SOL     OW 1351   3.712   0.702   1.880
  151SOL    HW1 1352   3.811   0.713   1.874
  151SOL    HW2 1353   3.669   0.739   1.798
  152SOL     OW 1354   6.713   1.329   0.430
  152SOL    HW1 1355   6.794   1.276   0.402
  152SOL    HW2 1356   6.670   1.283   0.508
  153SOL     OW 1357   2.393   0.240   3.618
  153SOL    HW1 1358   2.324   0.189   3.568
  153SOL    HW2 1359   2.349   0.302   3.683
  154SOL     OW 1360   6.657   2.414   0.044
  154SOL    HW1 1361   6.756   2.429   0.048
  154SOL    HW2 1362   6.611   2.478   0.105
  155SOL     OW 1363   1.095   6.718   1.910
  155SOL    HW1 1364   1.180   6.766   1.888
  155SOL    HW2 1365   1.043   6.771   1.977
  156SOL     OW 1366   6.110   1.483   0.128
  156SOL    HW1 1367   6.169   1.533   0.064
  156SOL    HW2 1368   6.139   1.504   0.222
  157SOL     OW 1369   5.787   2.410   0.184
  157SOL    HW1 1370   5.832   2.470   0.250
  157SOL    HW2 1371   5.842   2.405   0.101
  158SOL     OW 1372   1.461   2.294   1.626
  158SOL    HW1 1373   1.432   2.212   1.576
  158SOL    HW2 1374   1.430   2.288   1.721
  159SOL     OW 1375   4.370   4.762   1.057
  159SOL    HW1 1376   4.375   4.731   0.962
  159SOL    HW2 1377   4.276   4.785   1.080
  160SOL     OW 1378   6.663   0.239   1.556
  160SOL    HW1 1379   6.751   0.273   1.589
  160SOL    HW2 1380   6.662   0.241   1.456
  161SOL     OW 1381   1.527   6.828   1.783
  161SOL    HW1 1382   1.496   6.793   1.695
  161SOL    HW2 1383   1.615   6.787   1.806
  162SOL     OW 1384   2.550   6.965   0.162
  162SOL    HW1 1385   2.542   6.867   0.145
  162SOL    HW2 1386   2.465   6.999   0.202
  163SOL     OW 1387   0.603   4.969   3.175
  163SOL    HW1 1388   0.561   4.980   3.085
  163SOL    HW2 1389   0.670   4.894   3.172
  164SOL     OW 1390   0.860   2.377   2.542
  164SOL    HW1 1391   0.922   2.444   2.582
  164SOL    HW2 1392   0.766   2.399   2.567
  165SOL     OW 1393   6.168   5.565   1.258
  165SOL    HW1 1394   6.239   5.575   1.188
  165SOL    HW2 1395   6.109   5.646   1.257
  166SOL     OW 1396   6.721   3.671   1.850
  166SOL    HW1 1397   6.713   3.573   1.834
  166SOL    HW2 1398   6.632   3.708   1.877
  167SOL     OW 1399   5.787   1.538   6.513
  167SOL    HW1 1400   5.797   1.463   6.448
  167SOL    HW2 1401   5.719   1.513   6.583
  168SOL     OW 1402   4.054   2.101   1.499
  168SOL    HW1 1403   4.119   2.147   1.438
  168SOL    HW2 1404   3.973   2.158   1.511
  169SOL     OW 1405   6.109   3.352   6.851
  169SOL    HW1 1406   6.165   3.406   6.788
  169SOL    HW2 1407   6.054   3.414   6.907
  170SOL     OW 1408   0.046   5.695   3.263
  170SOL    HW1 1409   0.115   5.720   3.331
  170SOL    HW2 1410   6.978   5.695   3.306
  171SOL     OW 1411   1.636   3.675   6.824
  171SOL    HW1 1412   1.573   3.752   6.813
  171SOL    HW2 1413   1.648   3.629   6.736
  172SOL     OW 1414   6.635   2.443   1.905
  172SOL    HW1 1415   6.542   2.469   1.877
  172SOL    HW2 1416   6.679   2.393   1.830
  173SOL     OW 1417   5.973   1.612   4.428
  173SOL    HW1 1418   6.017   1.606   4.338
  173SOL    HW2 1419   6.009   1.539   4.487
  174SOL     OW 1420   5.203   4.962   4.576
  174SOL    HW1 1421   5.134   4.958   4.505
  174SOL    HW2 1422   5.185   5.040   4.636
  175SOL     OW 1423   2.992   0.728   1.890
  175SOL    HW1 1424   3.083   0.725   1.932
  175SOL    HW2 1425   2.932   0.786   1.944
  176SOL     OW 1426   5.096   4.540   3.517
  176SOL    HW1 1427   5.066   4.501   3.604
  176SOL    HW2 1428   5.161   4.614   3.535
  177SOL     OW 1429   5.264   2.575   5.261
  177SOL    HW1 1430   5.226   2.662   5.292
  177SOL    HW2 1431   5.317   2.589   5.177
  178SOL     OW 1432   3.445   4.918   4.746
  178SOL    HW1 1433   3.521   4.859   4.772
  178SOL    HW2 1434   3.433   4.989   4.815
  179SOL     OW 1435   4.622   6.493   6.615
  179SOL    HW1 1436   4.623   6.441   6.530
  179SOL    HW2 1437   4.629   6.429   6.692
  180SOL     OW 1438   2.535   6.669   0.129
  180SOL    HW1 1439   2.514   6.615   0.211
  180SOL    HW2 1440   2.504   6.619   0.048
  181SOL     OW 1441   3.666   2.698   5.660
  181SOL    HW1 1442   3.627   2.716   5.570
  181SOL    HW2 1443   3.723   2.616   5.656
  182SOL     OW 1444   5.284   2.777   6.755
  182SOL    HW1 1445   5.298   2.706   6.686
  182SOL    HW2 1446   5.208   2.836   6.726
  183SOL     OW 1447   4.058   2.244   3.754
  183SOL    HW1 1448   4.101   2.292   3.830
  183SOL    HW2 1449   4.123   2.237   3.678
  184SOL     OW 1450   0.602   6.601   3.755
  184SOL    HW1 1451   0.547   6.612   3.838
  184SOL    HW2 1452   0.571   6.665   3.685
  185SOL     OW 1453   0.984   1.744   3.676
  185SOL    HW1 1454   0.994   1.645   3.683
  185SOL    HW2 1455   0.894   1.771   3.711
  186SOL     OW 1456   5.645   6.686   4.556
  186SOL    HW1 1457   5.620   6.595   4.524
  186SOL    HW2 1458   5.598   6.705   4.642
  187SOL     OW 1459   4.928   5.951   2.005
  187SOL    HW1 1460   4.859   5.952   1.933
  187SOL    HW2 1461   4.932   6.040   2.049
  188SOL     OW 1462   1.051   2.486   3.223
  188SOL    HW1 1463   1.108   2.565   3.202
  188SOL    HW2 1464   1.005   2.455   3.140
  189SOL     OW 1465   0.271   4.608   6.438
  189SOL    HW1 1466   0.197   4.663   6.476
  189SOL    HW2 1467   0.326   4.664   6.376
  190SOL     OW 1468   6.124   4.887   6.783
  190SOL    HW1 1469   6.172   4.940   6.854
  190SOL    HW2 1470   6.029   4.918   6.776
  191SOL     OW 1471   6.902   1.400   5.622
  191SOL    HW1 1472   6.905   1.477   5.559
  191SOL    HW2 1473   6.819   1.347   5.607
  192SOL     OW 1474   0.207   4.776   1.753
  192SOL    HW1 1475   0.113   4.807   1.737
  192SOL    HW2 1476   0.269   4.854   1.750
  193SOL     OW 1477   4.820   4.086   5.260
  193SOL    HW1 1478   4.832   4.009   5.322
  193SOL    HW2 1479   4.723   4.093   5.234
  194SOL     OW 1480   4.320   0.576   2.480
  194SOL    HW1 1481   4.240   0.525   2.448
  194SOL    HW2 1482   4.397   0.513   2.494
  195SOL     OW 1483   1.591   0.867   3.693
  195SOL    HW1 1484   1.647   0.945   3.719
  195SOL    HW2 1485   1.538   0.889   3.611
  196SOL     OW 1486   3.467   6.835   7.011
  196SOL    HW1 1487   3.431   6.903   6.947
  196SOL    HW2 1488   3.528   6.879   0.053
  197SOL     OW 1489   3.054   6.049   0.136
  197SOL    HW1 1490   2.971   6.090   0.175
  197SOL    HW2 1491   3.097   6.115   0.075
  198SOL     OW 1492   4.766   6.895   1.031
  198SOL    HW1 1493   4.798   6.987   1.011
  198SOL    HW2 1494   4.712   6.861   0.954
  199SOL     OW 1495   6.742   0.935   2.551
  199SOL    HW1 1496   6.815   0.917   2.486
  199SOL    HW2 1497   6.746   0.867   2.625
  200SOL     OW 1498   0.959   4.052   2.651
  200SOL    HW1 1499   0.969   3.996   2.733
  200SOL    HW2 1500   1.009   4.009   2.575
  201SOL     OW 1501   3.057   6.628   6.006
  201SOL    HW1 1502   3.135   6.592   5.956
  201SOL    HW2 1503   2.980   6.641   5.944
  202SOL     OW 1504   4.912   0.510   5.232
  202SOL    HW1 1505   4.870   0.591   5.273
  202SOL    HW2 1506   4.845   0.436   5.228
  203SOL     OW 1507   4.770   2.481   5.001
  203SOL    HW1 1508   4.814   2.481   5.090
  203SOL    HW2 1509   4.838   2.501   4.930
  204SOL     OW 1510   0.522   0.159   6.558
  204SOL    HW1 1511   0.619   0.180   6.569
  204SOL    HW2 1512   0.498   0.165   6.461
  205SOL     OW 1513   0.991   1.325   1.789
  205SOL    HW1 1514   1.045   1.257   1.739
  205SOL    HW2 1515   1.045   1.407   1.802
  206SOL     OW 1516   0.561   4.774   2.711
  206SOL    HW1 1517   0.586   4.859   2.665
  206SOL    HW2 1518   0.540   4.703   2.643
  207SOL     OW 1519   3.766   0.710   5.518
  207SOL    HW1 1520   3.864   0.730   5.524
  207SOL    HW2 1521   3.751   0.632   5.458
  208SOL     OW 1522   4.878   3.666   5.998
  208SOL    HW1 1523   4.867   3.592   6.064
  208SOL    HW2 1524   4.815   3.651   5.921
  209SOL     OW 1525   1.133   5.577   5.698
  209SOL    HW1 1526   1.103   5.532   5.782
  209SOL    HW2 1527   1.063   5.641   5.667
  210SOL     OW 1528   4.241   2.019   2.768
  210SOL    HW1 1529   4.281   1.970   2.690
  210SOL    HW2 1530   4.271   2.114   2.765
  211SOL     OW 1531   0.938   6.221   3.305
  211SOL    HW1 1532   0.873   6.222   3.382
  211SOL    HW2 1533   0.908   6.153   3.238
  212SOL     OW 1534   1.945   4.200   1.957
  212SOL    HW1 1535   2.016   4.249   2.008
  212SOL    HW2 1536   1.984   4.162   1.873
  213SOL     OW 1537   4.402   0.816   6.841
  213SOL    HW1 1538   4.474   0.886   6.847
  213SOL    HW2 1539   4.335   0.843   6.772
  214SOL     OW 1540   2.452   5.843   2.497
  214SOL    HW1 1541   2.536   5.812   2.453
  214SOL    HW2 1542   2.455   5.942   2.510
  215SOL     OW 1543   3.075   4.046   1.777
  215SOL    HW1 1544   3.000   4.083   1.722
  215SOL    HW2 1545   3.042   4.024   1.868
  216SOL     OW 1546   1.618   6.649   4.618
  216SOL    HW1 1547   1.651   6.742   4.633
  216SOL    HW2 1548   1.677   6.584   4.667
  217SOL     OW 1549   2.139   2.858   5.080
  217SOL    HW1 1550   2.211   2.922   5.054
  217SOL    HW2 1551   2.049   2.897   5.058
  218SOL     OW 1552   1.412   2.282   5.218
  218SOL    HW1 1553   1.322   2.322   5.232
  218SOL    HW2 1554   1.479   2.355   5.203
  219SOL     OW 1555   3.614   5.039   6.006
  219SOL    HW1 1556   3.648   4.983   6.082
  219SOL    HW2 1557   3.565   5.118   6.042
  220SOL     OW 1558   3.384   5.383   0.049
  220SOL    HW1 1559   3.339   5.351   0.133
  220SOL    HW2 1560   3.453   5.452   0.072
  221SOL     OW 1561   6.349   4.094   2.566
  221SOL    HW1 1562   6.447   4.106   2.549
  221SOL    HW2 1563   6.311   4.181   2.598
  222SOL     OW 1564   2.105   4.894   5.847
  222SOL    HW1 1565   2.096   4.939   5.758
  222SOL    HW2 1566   2.080   4.797   5.838
  223SOL     OW 1567   0.352   3.734   0.674
  223SOL    HW1 1568   0.330   3.764   0.582
  223SOL    HW2 1569   0.327   3.638   0.686
  224SOL     OW 1570   2.901   2.185   3.829
  224SOL    HW1 1571   2.998   2.165   3.822
  224SOL    HW2 1572   2.869   2.166   3.922
  225SOL     OW 1573   5.324   1.789   6.290
  225SOL    HW1 1574   5.351   1.758   6.199
  225SOL    HW2 1575   5.366   1.729   6.359
  226SOL     OW 1576   0.176   6.615   6.820
  226SOL    HW1 1577   0.129   6.598   6.907
  226SOL    HW2 1578   0.180   6.714   6.803
  227SOL     OW 1579   1.098   4.605   2.516
  227SOL    HW1 1580   1.130   4.700   2.512
  227SOL    HW2 1581   1.130   4.562   2.600
  228SOL     OW 1582   3.003   6.967   3.937
  228SOL    HW1 1583   3.074   6.900   3.960
  228SOL    HW2 1584   2.957   6.997   4.021
  229SOL     OW 1585   6.111   5.679   0.640
  229SOL    HW1 1586   6.163   5.696   0.724
  229SOL    HW2 1587   6.100   5.580   0.628
  230SOL     OW 1588   3.380   4.981   3.496
  230SOL    HW1 1589   3.385   4.962   3.398
  230SOL    HW2 1590   3.472   4.980   3.535
  231SOL     OW 1591   6.284   2.515   5.957
  231SOL    HW1 1592   6.210   2.569   5.996
  231SOL    HW2 1593   6.372   2.555   5.982
  232SOL     OW 1594   0.681   4.350   6.256
  232SOL    HW1 1595   0.630   4.427   6.216
  232SOL    HW2 1596   0.625   4.305   6.325
  233SOL     OW 1597   2.524   1.308   4.429
  233SOL    HW1 1598   2.550   1.240   4.362
  233SOL    HW2 1599   2.594   1.379   4.435
  234SOL     OW 1600   2.729   6.086   5.134
  234SOL    HW1 1601   2.728   6.052   5.040
  234SOL    HW2 1602   2.761   6.014   5.196
  235SOL     OW 1603   3.487   2.902   2.969
  235SOL    HW1 1604   3.453   2.894   3.063
  235SOL    HW2 1605   3.420   2.950   2.913
  236SOL     OW 1606   5.830   3.253   6.676
  236SOL    HW1 1607   5.888   3.259   6.757
  236SOL    HW2 1608   5.785   3.164   6.673
  237SOL     OW 1609   0.240   6.604   0.412
  237SOL    HW1 1610   0.239   6.509   0.381
  237SOL    HW2 1611   0.318   6.618   0.474
  238SOL     OW 1612   6.893   2.965   0.230
  238SOL    HW1 1613   6.848   3.007   0.308
  238SOL    HW2 1614   6.826   2.948   0.158
  239SOL     OW 1615   6.689   4.537   0.340
  239SOL    HW1 1616   6.734   4.521   0.252
  239SOL    HW2 1617   6.732   4.615   0.386
  240SOL     OW 1618   0.576   3.222   5.179
  240SOL    HW1 1619   0.663   3.174   5.189
  240SOL    HW2 1620   0.544   3.216   5.085
  241SOL     OW 1621   0.910   0.898   3.524
  241SOL    HW1 1622   0.824   0.894   3.574
  241SOL    HW2 1623   0.931   0.808   3.487
  242SOL     OW 1624   1.884   2.703   6.052
  242SOL    HW1 1625   1.949   2.654   6.109
  242SOL    HW2 1626   1.928   2.728   5.965
  243SOL     OW 1627   4.699   0.372   5.530
  243SOL    HW1 1628   4.726   0.281   5.561
  243SOL    HW2 1629   4.775   0.436   5.541
  244SOL     OW 1630   4.857   2.963   4.177
  244SOL    HW1 1631   4.935   2.902   4.191
  244SOL    HW2 1632   4.773   2.909   4.173
  245SOL     OW 1633   6.642   3.147   4.659
  245SOL    HW1 1634   6.640   3.213   4.584
  245SOL    HW2 1635   6.557   3.154   4.711
  246SOL     OW 1636   5.235   3.549   3.687
  246SOL    HW1 1637   5.202   3.522   3.597
  246SOL    HW2 1638   5.335   3.549   3.687
  247SOL     OW 1639   2.694   1.730   2.581
  247SOL    HW1 1640   2.745   1.662   2.528
  247SOL    HW2 1641   2.720   1.722   2.678
  248SOL     OW 1642   4.527   2.471   3.877
  248SOL    HW1 1643   4.569   2.477   3.787
  248SOL    HW2 1644   4.598   2.451   3.946
  249SOL     OW 1645   3.782   0.275   5.007
  249SOL    HW1 1646   3.709   0.223   4.963
  249SOL    HW2 1647   3.790   0.365   4.964
  250SOL     OW 1648   5.173   2.003   5.599
  250SOL    HW1 1649   5.082   2.036   5.577
  250SOL    HW2 1650   5.240   2.048   5.539
  251SOL     OW 1651   4.009   4.223   6.254
  251SOL    HW1 1652   4.096   4.271   6.261
  251SOL    HW2 1653   3.959   4.257   6.174
  252SOL     OW 1654   0.062   1.286   6.013
  252SOL    HW1 1655   7.005   1.343   6.034
  252SOL    HW2 1656   0.056   1.252   5.919
  253SOL     OW 1657   2.538   4.382   0.024
  253SOL    HW1 1658   2.575   4.447   6.980
  253SOL    HW2 1659   2.479   4.316   7.001
  254SOL     OW 1660   6.740   2.499   3.533
  254SOL    HW1 1661   6.815   2.530   3.592
  254SOL    HW2 1662   6.766   2.510   3.437
  255SOL     OW 1663   2.484   1.735   4.065
  255SOL    HW1 1664   2.500   1.833   4.053
  255SOL    HW2 1665   2.563   1.684   4.030
  256SOL     OW 1666   6.551   4.689   6.796
  256SOL    HW1 1667   6.532   4.607   6.850
  256SOL    HW2 1668   6.510   4.680   6.706
  257SOL     OW 1669   3.509   5.035   5.690
  257SOL    HW1 1670   3.569   5.044   5.769
  257SOL    HW2 1671   3.414   5.028   5.721
  258SOL     OW 1672   5.312   3.574   4.895
  258SOL    HW1 1673   5.282   3.662   4.933
  258SOL    HW2 1674   5.378   3.591   4.821
  259SOL     OW 1675   1.722   2.616   2.428
  259SOL    HW1 1676   1.752   2.522   2.409
  259SOL    HW2 1677   1.714   2.629   2.527
  260SOL     OW 1678   4.462   0.203   0.898
  260SOL    HW1 1679   4.366   0.205   0.927
  260SOL    HW2 1680   4.467   0.190   0.799
  261SOL     OW 1681   0.321   3.624   1.080
  261SOL    HW1 1682   0.296   3.718   1.104
  261SOL    HW2 1683   0.260   3.560   1.126
  262SOL     OW 1684   0.999   3.998   2.191
  262SOL    HW1 1685   0.926   3.932   2.207
  262SOL    HW2 1686   1.044   3.978   2.104
  263SOL     OW 1687   0.311   1.708   4.400
  263SOL    HW1 1688   0.262   1.624   4.424
  263SOL    HW2 1689   0.391   1.685   4.345
  264SOL     OW 1690   6.326   4.227   6.084
  264SOL    HW1 1691   6.285   4.295   6.023
  264SOL    HW2 1692   6.369   4.155   6.031
  265SOL     OW 1693   5.167   4.105   3.406
  265SOL    HW1 1694   5.132   4.065   3.321
  265SOL    HW2 1695   5.199   4.032   3.466
  266SOL     OW 1696   3.621   2.658   6.838
  266SOL    HW1 1697   3.632   2.755   6.814
  266SOL    HW2 1698   3.667   2.601   6.770
  267SOL     OW 1699   0.741   3.182   0.085
  267SOL    HW1 1700   0.697   3.257   0.134
  267SOL    HW2 1701   0.738   3.099   0.140
  268SOL     OW 1702   4.949   5.331   5.120
  268SOL    HW1 1703   4.868   5.290   5.076
  268SOL    HW2 1704   4.987   5.266   5.186
  269SOL     OW 1705   1.736   2.216   0.120
  269SOL    HW1 1706   1.802   2.201   0.047
  269SOL    HW2 1707   1.657   2.155   0.107
  270SOL     OW 1708   5.613   0.928   2.054
  270SOL    HW1 1709   5.687   0.984   2.091
  270SOL    HW2 1710   5.635   0.831   2.066
  271SOL     OW 1711   2.382   2.113   1.136
  271SOL    HW1 1712   2.326   2.076   1.209
  271SOL    HW2 1713   2.442   2.184   1.172
  272SOL     OW 1714   3.614   5.422   3.861
  272SOL    HW1 1715   3.517   5.403   3.848
  272SOL    HW2 1716   3.649   5.472   3.782
  273SOL     OW 1717   1.009   5.599   5.337
  273SOL    HW1 1718   0.984   5.517   5.285
  273SOL    HW2 1719   0.931   5.628   5.393
  274SOL     OW 1720   5.323   2.396   3.622
  274SOL    HW1 1721   5.346   2.491   3.602
  274SOL    HW2 1722   5.235   2.373   3.579
  275SOL     OW 1723   1.111   5.733   6.601
  275SOL    HW1 1724   1.189   5.775   6.555
  275SOL    HW2 1725   1.134   5.639   6.626
  276SOL     OW 1726   6.368   5.304   4.286
  276SOL    HW1 1727   6.415   5.392   4.288
  276SOL    HW2 1728   6.341   5.283   4.191
  277SOL     OW 1729   3.145   0.907   6.119
  277SOL    HW1 1730   3.196   0.860   6.047
  277SOL    HW2 1731   3.058   0.860   6.134
  278SOL     OW 1732   5.680   3.525   2.200
  278SOL    HW1 1733   5.662   3.481   2.288
  278SOL    HW2 1734   5.635   3.475   2.127
  279SOL     OW 1735   6.494   3.397   3.706
  279SOL    HW1 1736   6.439   3.324   3.665
  279SOL    HW2 1737   6.590   3.385   3.681
  280SOL     OW 1738   4.804   6.938   3.865
  280SOL    HW1 1739   4.806   6.893   3.776
  280SOL    HW2 1740   4.887   6.914   3.916
  281SOL     OW 1741   3.108   5.224   3.763
  281SOL    HW1 1742   3.010   5.223   3.782
  281SOL    HW2 1743   3.159   5.243   3.847
  282SOL     OW 1744   3.589   2.305   5.737
  282SOL    HW1 1745   3.526   2.335   5.666
  282SOL    HW2 1746   3.680   2.345   5.721
  283SOL     OW 1747   6.028   0.309   5.388
  283SOL    HW1 1748   6.091   0.382   5.364
  283SOL    HW2 1749   6.037   0.287   5.485
  284SOL     OW 1750   1.250   4.477   4.328
  284SOL    HW1 1751   1.336   4.507   4.370
  284SOL    HW2 1752   1.208   4.554   4.279
  285SOL     OW 1753   5.762   6.365   0.514
  285SOL    HW1 1754   5.768   6.276   0.469
  285SOL    HW2 1755   5.668   6.381   0.544
  286SOL     OW 1756   3.974   4.903   5.541
  286SOL    HW1 1757   3.888   4.857   5.562
  286SOL    HW2 1758   4.006   4.950   5.623
  287SOL     OW 1759   1.632   5.428   6.624
  287SOL    HW1 1760   1.649   5.405   6.720
  287SOL    HW2 1761   1.534   5.418   6.605
  288SOL     OW 1762   4.189   0.763   0.848
  288SOL    HW1 1763   4.227   0.671   0.841
  288SOL    HW2 1764   4.103   0.761   0.899
  289SOL     OW 1765   1.352   5.344   5.939
  289SOL    HW1 1766   1.431   5.283   5.938
  289SOL    HW2 1767   1.364   5.412   6.012
  290SOL     OW 1768   4.599   0.758   3.637
  290SOL    HW1 1769   4.526   0.822   3.611
  290SOL    HW2 1770   4.677   0.770   3.577
  291SOL     OW 1771   4.191   0.988   3.678
  291SOL    HW1 1772   4.092   0.987   3.668
  291SOL    HW2 1773   4.215   1.026   3.768
  292SOL     OW 1774   4.463   1.131   3.420
  292SOL    HW1 1775   4.450   1.197   3.346
  292SOL    HW2 1776   4.514   1.174   3.495
  293SOL     OW 1777   4.304   6.118   1.568
  293SOL    HW1 1778   4.216   6.149   1.602
  293SOL    HW2 1779   4.356   6.196   1.533
  294SOL     OW 1780   6.494   5.531   6.595
  294SOL    HW1 1781   6.584   5.496   6.622
  294SOL    HW2 1782   6.459   5.476   6.520
  295SOL     OW 1783   2.084   2.194   5.785
  295SOL    HW1 1784   2.059   2.162   5.694
  295SOL    HW2 1785   2.005   2.185   5.846
  296SOL     OW 1786   6.580   2.265   1.112
  296SOL    HW1 1787   6.537   2.341   1.161
  296SOL    HW2 1788   6.536   2.253   1.023
  297SOL     OW 1789   4.140   4.719   3.526
  297SOL    HW1 1790   4.155   4.710   3.625
  297SOL    HW2 1791   4.228   4.724   3.479
  298SOL     OW 1792   4.165   0.328   0.233
  298SOL    HW1 1793   4.082   0.290   0.275
  298SOL    HW2 1794   4.141   0.401   0.170
  299SOL     OW 1795   3.636   1.935   0.329
  299SOL    HW1 1796   3.668   1.892   0.414
  299SOL    HW2 1797   3.669   2.030   0.326
  300SOL     OW 1798   3.999   0.779   2.789
  300SOL    HW1 1799   3.938   0.842   2.837
  300SOL    HW2 1800   3.947   0.728   2.720
  301SOL     OW 1801   5.130   0.829   1.287
  301SOL    HW1 1802   5.180   0.873   1.213
  301SOL    HW2 1803   5.156   0.733   1.292
  302SOL     OW 1804   0.917   0.526   1.998
  302SOL    HW1 1805   0.992   0.541   1.933
  302SOL    HW2 1806   0.847   0.597   1.986
  303SOL     OW 1807   6.221   6.168   1.657
  303SOL    HW1 1808   6.208   6.258   1.699
  303SOL    HW2 1809   6.319   6.154   1.640
  304SOL     OW 1810   1.938   6.091   6.302
  304SOL    HW1 1811   1.961   6.152   6.227
  304SOL    HW2 1812   1.927   5.998   6.267
  305SOL     OW 1813   1.572   3.200   0.851
  305SOL    HW1 1814   1.591   3.129   0.919
  305SOL    HW2 1815   1.491   3.175   0.799
  306SOL     OW 1816   0.338   1.337   2.738
  306SOL    HW1 1817   0.336   1.402   2.814
  306SOL    HW2 1818   0.323   1.244   2.773
  307SOL     OW 1819   3.779   3.813   0.178
  307SOL    HW1 1820   3.690   3.820   0.132
  307SOL    HW2 1821   3.850   3.795   0.111
  308SOL     OW 1822   6.278   2.861   4.108
  308SOL    HW1 1823   6.338   2.896   4.036
  308SOL    HW2 1824   6.221   2.935   4.142
  309SOL     OW 1825   1.653   6.421   0.611
  309SOL    HW1 1826   1.683   6.334   0.651
  309SOL    HW2 1827   1.609   6.477   0.680
  310SOL     OW 1828   5.239   6.448   4.015
  310SOL    HW1 1829   5.302   6.516   4.052
  310SOL    HW2 1830   5.287   6.362   4.001
  311SOL     OW 1831   2.542   4.572   2.621
  311SOL    HW1 1832   2.623   4.613   2.578
  311SOL    HW2 1833   2.545   4.589   2.719
  312SOL     OW 1834   3.904   2.183   4.302
  312SOL    HW1 1835   3.831   2.154   4.364
  312SOL    HW2 1836   3.866   2.239   4.229
  313SOL     OW 1837   3.124   3.569   2.738
  313SOL    HW1 1838   3.084   3.485   2.775
  313SOL    HW2 1839   3.051   3.633   2.715
  314SOL     OW 1840   1.991   4.741   4.525
  314SOL    HW1 1841   1.996   4.784   4.615
  314SOL    HW2 1842   2.044   4.795   4.459
  315SOL     OW 1843   0.577   2.104   3.942
  315SOL    HW1 1844   0.540   2.037   4.008
  315SOL    HW2 1845   0.551   2.077   3.849
  316SOL     OW 1846   4.085   1.088   4.549
  316SOL    HW1 1847   4.018   1.096   4.476
  316SOL    HW2 1848   4.079   1.168   4.610
  317SOL     OW 1849   1.188   1.598   1.369
  317SOL    HW1 1850   1.224   1.566   1.281
  317SOL    HW2 1851   1.098   1.557   1.384
  318SOL     OW 1852   6.145   0.901   6.443
  318SOL    HW1 1853   6.238   0.894   6.407
  318SOL    HW2 1854   6.124   0.820   6.497
  319SOL     OW 1855   6.765   2.214   3.555
  319SOL    HW1 1856   6.750   2.313   3.566
  319SOL    HW2 1857   6.688   2.173   3.507
  320SOL     OW 1858   6.322   3.468   6.749
  320SOL    HW1 1859   6.379   3.544   6.779
  320SOL    HW2 1860   6.337   3.452   6.651
  321SOL     OW 1861   4.092   2.142   0.437
  321SOL    HW1 1862   4.178   2.167   0.481
  321SOL    HW2 1863   4.051   2.223   0.394
  322SOL     OW 1864   3.764   2.963   4.410
  322SOL    HW1 1865   3.855   2.993   4.441
  322SOL    HW2 1866   3.710   2.933   4.488
  323SOL     OW 1867   1.143   2.230   4.834
  323SOL    HW1 1868   1.087   2.148   4.846
  323SOL    HW2 1869   1.231   2.204   4.795
  324SOL     OW 1870   2.467   6.883   3.495
  324SOL    HW1 1871   2.556   6.837   3.498
  324SOL    HW2 1872   2.480   6.979   3.471
  325SOL     OW 1873   0.902   3.870   2.882
  325SOL    HW1 1874   0.962   3.828   2.950
  325SOL    HW2 1875   0.827   3.807   2.859
  326SOL     OW 1876   0.905   4.178   6.164
  326SOL    HW1 1877   0.964   4.227   6.100
  326SOL    HW2 1878   0.837   4.241   6.201
  327SOL     OW 1879   2.443   4.421   3.062
  327SOL    HW1 1880   2.364   4.435   3.122
  327SOL    HW2 1881   2.474   4.510   3.027
  328SOL     OW 1882   1.984   4.654   1.389
  328SOL    HW1 1883   2.006   4.729   1.452
  328SOL    HW2 1884   2.014   4.679   1.297
  329SOL     OW 1885   2.564   3.655   5.821
  329SOL    HW1 1886   2.510   3.634   5.902
  329SOL    HW2 1887   2.516   3.724   5.766
  330SOL     OW 1888   3.352   5.887   0.401
  330SOL    HW1 1889   3.404   5.881   0.486
  330SOL    HW2 1890   3.317   5.797   0.377
  331SOL     OW 1891   5.598   5.740   1.082
  331SOL    HW1 1892   5.637   5.821   1.038
  331SOL    HW2 1893   5.578   5.671   1.013
  332SOL     OW 1894   6.024   2.366   4.136
  332SOL    HW1 1895   5.961   2.442   4.154
  332SOL    HW2 1896   6.041   2.317   4.221
  333SOL     OW 1897   3.962   0.669   5.170
  333SOL    HW1 1898   3.962   0.634   5.264
  333SOL    HW2 1899   3.994   0.763   5.170
  334SOL     OW 1900   3.337   2.112   0.523
  334SOL    HW1 1901   3.257   2.137   0.468
  334SOL    HW2 1902   3.414   2.170   0.498
  335SOL     OW 1903   3.764   0.693   6.825
  335SOL    HW1 1904   3.707   0.656   6.752
  335SOL    HW2 1905   3.860   0.687   6.800
  336SOL     OW 1906   2.769   0.640   3.234
  336SOL    HW1 1907   2.766   0.688   3.146
  336SOL    HW2 1908   2.860   0.602   3.248
  337SOL     OW 1909   0.656   3.115   5.687
  337SOL    HW1 1910   0.611   3.026   5.683
  337SOL    HW2 1911   0.740   3.107   5.741
  338SOL     OW 1912   3.109   2.769   1.488
  338SOL    HW1 1913   3.061   2.842   1.438
  338SOL    HW2 1914   3.045   2.725   1.551
  339SOL     OW 1915   4.857   4.972   4.891
  339SOL    HW1 1916   4.862   4.894   4.953
  339SOL    HW2 1917   4.800   4.949   4.813
  340SOL     OW 1918   4.763   2.945   4.598
  340SOL    HW1 1919   4.773   3.035   4.557
  340SOL    HW2 1920   4.747   2.954   4.696
  341SOL     OW 1921   5.041   6.680   4.668
  341SOL    HW1 1922   4.989   6.604   4.707
  341SOL    HW2 1923   5.120   6.643   4.619
  342SOL     OW 1924   4.784   2.947   0.339
  342SOL    HW1 1925   4.811   2.986   0.251
  342SOL    HW2 1926   4.690   2.911   0.332
  343SOL     OW 1927   0.268   6.525   2.596
  343SOL    HW1 1928   0.190   6.577   2.631
  343SOL    HW2 1929   0.266   6.526   2.496
  344SOL     OW 1930   0.617   2.879   2.004
  344SOL    HW1 1931   0.525   2.896   2.039
  344SOL    HW2 1932   0.650   2.791   2.040
  345SOL     OW 1933   6.114   2.293   4.400
  345SOL    HW1 1934   6.194   2.337   4.359
  345SOL    HW2 1935   6.136   2.264   4.494
  346SOL     OW 1936   1.727   0.583   2.423
  346SOL    HW1 1937   1.764   0.491   2.418
  346SOL    HW2 1938   1.755   0.626   2.510
  347SOL     OW 1939   3.016   5.432   0.310
  347SOL    HW1 1940   2.977   5.506   0.365
  347SOL    HW2 1941   2.979   5.344   0.340
  348SOL     OW 1942   5.086   4.400   3.281
  348SOL    HW1 1943   5.067   4.460   3.358
  348SOL    HW2 1944   5.160   4.337   3.305
  349SOL     OW 1945   6.876   4.701   2.315
  349SOL    HW1 1946   6.970   4.670   2.302
  349SOL    HW2 1947   6.814   4.624   2.302
  350SOL     OW 1948   2.767   3.037   0.847
  350SOL    HW1 1949   2.722   2.949   0.836
  350SOL    HW2 1950   2.858   3.034   0.807
  351SOL     OW 1951   2.161   3.597   0.781
  351SOL    HW1 1952   2.198   3.624   0.870
  351SOL    HW2 1953   2.222   3.628   0.709
  352SOL     OW 1954   3.544   6.929   3.705
  352SOL    HW1 1955   3.618   6.870   3.737
  352SOL    HW2 1956   3.583   7.008   3.657
  353SOL     OW 1957   2.751   0.027   6.539
  353SOL    HW1 1958   2.849   0.013   6.525
  353SOL    HW2 1959   2.699   6.983   6.487
  354SOL     OW 1960   4.471   2.409   1.411
  354SOL    HW1 1961   4.430   2.330   1.457
  354SOL    HW2 1962   4.570   2.398   1.409
  355SOL     OW 1963   1.663   3.937   2.841
  355SOL    HW1 1964   1.708   3.967   2.926
  355SOL    HW2 1965   1.637   3.841   2.849
  356SOL     OW 1966   2.778   0.773   5.607
  356SOL    HW1 1967   2.759   0.780   5.509
  356SOL    HW2 1968   2.693   0.779   5.659
  357SOL     OW 1969   6.164   6.190   4.946
  357SOL    HW1 1970   6.264   6.193   4.941
  357SOL    HW2 1971   6.133   6.095   4.952
  358SOL     OW 1972   5.043   6.729   0.917
  358SOL    HW1 1973   5.002   6.820   0.906
  358SOL    HW2 1974   4.974   6.659   0.905
  359SOL     OW 1975   3.244   1.594   2.032
  359SOL    HW1 1976   3.320   1.604   2.096
  359SOL    HW2 1977   3.228   1.681   1.985
  360SOL     OW 1978   1.805   3.584   4.625
  360SOL    HW1 1979   1.835   3.666   4.674
  360SOL    HW2 1980   1.883   3.543   4.577
  361SOL     OW 1981   6.498   6.614   2.681
  361SOL    HW1 1982   6.502   6.658   2.592
  361SOL    HW2 1983   6.565   6.539   2.685
  362SOL     OW 1984   3.328   2.847   1.637
  362SOL    HW1 1985   3.257   2.826   1.570
  362SOL    HW2 1986   3.366   2.763   1.674
  363SOL     OW 1987   5.799   4.441   3.463
  363SOL    HW1 1988   5.738   4.363   3.471
  363SOL    HW2 1989   5.754   4.514   3.412
  364SOL     OW 1990   0.031   5.110   6.522
  364SOL    HW1 1991   0.013   5.166   6.441
  364SOL    HW2 1992   0.046   5.170   6.601
  365SOL     OW 1993   4.898   0.267   1.186
  365SOL    HW1 1994   4.846   0.207   1.126
  365SOL    HW2 1995   4.867   0.255   1.281
  366SOL     OW 1996   5.912   2.112   6.627
  366SOL    HW1 1997   5.967   2.174   6.683
  366SOL    HW2 1998   5.961   2.025   6.616
  367SOL     OW 1999   5.704   2.307   6.675
  367SOL    HW1 2000   5.797   2.279   6.651
  367SOL    HW2 2001   5.696   2.406   6.666
  368SOL     OW 2002   0.168   2.443   5.457
  368SOL    HW1 2003   0.207   2.524   5.501
  368SOL    HW2 2004   0.215   2.426   5.371
  369SOL     OW 2005   5.901   5.409   2.808
  369SOL    HW1 2006   5.926   5.390   2.903
  369SOL    HW2 2007   5.849   5.494   2.804
  370SOL     OW 2008   0.837   1.936   4.433
  370SOL    HW1 2009   0.754   1.905   4.479
  370SOL    HW2 2010   0.914   1.934   4.497
  371SOL     OW 2011   1.926   4.719   6.680
  371SOL    HW1 2012   1.989   4.691   6.753
  371SOL    HW2 2013   1.848   4.766   6.719
  372SOL     OW 2014   2.093   6.784   5.819
  372SOL    HW1 2015   2.001   6.748   5.835
  372SOL    HW2 2016   2.113   6.779   5.721
  373SOL     OW 2017   5.601   6.109   5.233
  373SOL    HW1 2018   5.611   6.130   5.136
  373SOL    HW2 2019   5.683   6.139   5.282
  374SOL     OW 2020   2.526   1.945   3.318
  374SOL    HW1 2021   2.467   1.873   3.354
  374SOL    HW2 2022   2.542   1.930   3.221
  375SOL     OW 2023   1.131   3.954   4.064
  375SOL    HW1 2024   1.178   3.868   4.048
  375SOL    HW2 2025   1.133   3.976   4.162
  376SOL     OW 2026   1.202   1.144   5.123
  376SOL    HW1 2027   1.166   1.051   5.128
  376SOL    HW2 2028   1.224   1.176   5.214
  377SOL     OW 2029   1.458   2.042   0.060
  377SOL    HW1 2030   1.392   2.115   0.078
  377SOL    HW2 2031   1.504   2.017   0.145
  378SOL     OW 2032   3.995   1.903   0.413
  378SOL    HW1 2033   4.029   1.997   0.413
  378SOL    HW2 2034   4.070   1.840   0.394
  379SOL     OW 2035   5.568   2.841   0.353
  379SOL    HW1 2036   5.488   2.781   0.349
  379SOL    HW2 2037   5.557   2.907   0.427
  380SOL     OW 2038   2.842   1.490   0.969
  380SOL    HW1 2039   2.923   1.464   1.022
  380SOL    HW2 2040   2.861   1.479   0.872
  381SOL     OW 2041   1.512   3.580   3.734
  381SOL    HW1 2042   1.540   3.676   3.732
  381SOL    HW2 2043   1.460   3.558   3.651
  382SOL     OW 2044   5.976   0.956   0.106
  382SOL    HW1 2045   5.968   1.007   0.020
  382SOL    HW2 2046   6.002   1.019   0.179
  383SOL     OW 2047   3.421   3.086   6.423
  383SOL    HW1 2048   3.433   3.029   6.505
  383SOL    HW2 2049   3.365   3.037   6.357
  384SOL     OW 2050   6.545   5.778   4.448
  384SOL    HW1 2051   6.467   5.752   4.504
  384SOL    HW2 2052   6.549   5.877   4.440
  385SOL     OW 2053   3.025   5.086   5.355
  385SOL    HW1 2054   2.997   5.067   5.450
  385SOL    HW2 2055   2.987   5.016   5.295
  386SOL     OW 2056   3.006   6.034   4.227
  386SOL    HW1 2057   3.016   5.975   4.147
  386SOL    HW2 2058   2.958   6.118   4.201
  387SOL     OW 2059   0.911   5.621   2.592
  387SOL    HW1 2060   0.979   5.548   2.601
  387SOL    HW2 2061   0.820   5.583   2.605
  388SOL     OW 2062   1.644   1.959   6.249
  388SOL    HW1 2063   1.561   1.920   6.209
  388SOL    HW2 2064   1.693   2.010   6.179
  389SOL     OW 2065   3.801   3.627   2.151
  389SOL    HW1 2066   3.819   3.664   2.242
  389SOL    HW2 2067   3.862   3.550   2.133
  390SOL     OW 2068   2.966   1.233   2.823
  390SOL    HW1 2069   2.897   1.263   2.889
  390SOL    HW2 2070   3.057   1.258   2.855
  391SOL     OW 2071   2.284   2.033   6.413
  391SOL    HW1 2072   2.367   1.979   6.430
  391SOL    HW2 2073   2.309   2.120   6.371
  392SOL     OW 2074   2.111   4.839   1.017
  392SOL    HW1 2075   2.079   4.924   1.059
  392SOL    HW2 2076   2.168   4.789   1.082
  393SOL     OW 2077   1.055   4.306   6.523
  393SOL    HW1 2078   0.999   4.385   6.498
  393SOL    HW2 2079   1.060   4.242   6.447
  394SOL     OW 2080   6.837   1.186   6.969
  394SOL    HW1 2081   6.749   1.194   7.015
  394SOL    HW2 2082   6.861   1.274   6.928
  395SOL     OW 2083   4.878   3.678   3.193
  395SOL    HW1 2084   4.834   3.757   3.150
  395SOL    HW2 2085   4.899   3.699   3.288
  396SOL     OW 2086   3.658   4.115   2.026
  396SOL    HW1 2087   3.708   4.032   2.051
  396SOL    HW2 2088   3.710   4.166   1.957
  397SOL     OW 2089   4.678   2.028   5.550
  397SOL    HW1 2090   4.648   2.093   5.619
  397SOL    HW2 2091   4.599   1.993   5.500
  398SOL     OW 2092   0.722   6.547   2.494
  398SOL    HW1 2093   0.777   6.523   2.574
  398SOL    HW2 2094   0.781   6.549   2.413
  399SOL     OW 2095   5.427   6.253   2.789
  399SOL    HW1 2096   5.373   6.337   2.796
  399SOL    HW2 2097   5.376   6.185   2.738
  400SOL     OW 2098   6.323   0.016   6.009
  400SOL    HW1 2099   6.327   7.004   6.103
  400SOL    HW2 2100   6.402   0.075   5.992
  401SOL     OW 2101   4.952   0.806   5.330
  401SOL    HW1 2102   4.981   0.885   5.384
  401SOL    HW2 2103   5.007   0.801   5.247
  402SOL     OW 2104   5.833   0.426   3.458
  402SOL    HW1 2105   5.918   0.398   3.502
  402SOL    HW2 2106   5.758   0.420   3.523
  403SOL     OW 2107   4.231   1.864   4.350
  403SOL    HW1 2108   4.216   1.835   4.444
  403SOL    HW2 2109   4.143   1.884   4.307
  404SOL     OW 2110   1.241   5.667   4.220
  404SOL    HW1 2111   1.282   5.588   4.175
  404SOL    HW2 2112   1.144   5.673   4.196
  405SOL     OW 2113   1.731   3.262   1.925
  405SOL    HW1 2114   1.760   3.166   1.926
  405SOL    HW2 2115   1.810   3.321   1.944
  406SOL     OW 2116   1.377   4.582   4.768
  406SOL    HW1 2117   1.315   4.508   4.744
  406SOL    HW2 2118   1.348   4.623   4.855
  407SOL     OW 2119   1.348   0.715   3.437
  407SOL    HW1 2120   1.385   0.803   3.467
  407SOL    HW2 2121   1.290   0.677   3.509
  408SOL     OW 2122   1.206   2.538   2.804
  408SOL    HW1 2123   1.155   2.453   2.790
  408SOL    HW2 2124   1.142   2.610   2.831
  409SOL     OW 2125   6.919   2.546   0.941
  409SOL    HW1 2126   6.903   2.633   0.894
  409SOL    HW2 2127   6.977   2.562   1.021
  410SOL     OW 2128   1.534   0.893   1.504
  410SOL    HW1 2129   1.489   0.959   1.565
  410SOL    HW2 2130   1.633   0.903   1.513
  411SOL     OW 2131   5.185   0.310   0.679
  411SOL    HW1 2132   5.196   0.306   0.778
  411SOL    HW2 2133   5.164   0.404   0.651
  412SOL     OW 2134   4.709   6.344   3.483
  412SOL    HW1 2135   4.708   6.245   3.472
  412SOL    HW2 2136   4.733   6.387   3.395
  413SOL     OW 2137   5.302   5.053   1.901
  413SOL    HW1 2138   5.275   5.121   1.969
  413SOL    HW2 2139   5.331   4.969   1.948
  414SOL     OW 2140   3.417   5.388   3.617
  414SOL    HW1 2141   3.373   5.352   3.699
  414SOL    HW2 2142   3.378   5.477   3.595
  415SOL     OW 2143   1.185   5.489   6.686
  415SOL    HW1 2144   1.194   5.521   6.780
  415SOL    HW2 2145   1.248   5.413   6.670
  416SOL     OW 2146   5.080   5.717   4.481
  416SOL    HW1 2147   5.106   5.621   4.495
  416SOL    HW2 2148   5.163   5.772   4.476
  417SOL     OW 2149   3.001   5.005   0.205
  417SOL    HW1 2150   3.069   5.028   0.135
  417SOL    HW2 2151   2.972   4.910   0.193
  418SOL     OW 2152   4.152   6.123   0.814
  418SOL    HW1 2153   4.173   6.070   0.732
  418SOL    HW2 2154   4.222   6.107   0.884
  419SOL     OW 2155   1.546   0.600   0.945
  419SOL    HW1 2156   1.632   0.558   0.974
  419SOL    HW2 2157   1.566   0.681   0.890
  420SOL     OW 2158   5.922   1.642   6.789
  420SOL    HW1 2159   6.006   1.678   6.749
  420SOL    HW2 2160   5.845   1.700   6.764
  421SOL     OW 2161   0.026   4.294   6.250
  421SOL    HW1 2162   6.999   4.380   6.266
  421SOL    HW2 2163   0.124   4.312   6.246
  422SOL     OW 2164   5.794   3.883   0.527
  422SOL    HW1 2165   5.797   3.899   0.626
  422SOL    HW2 2166   5.879   3.914   0.485
  423SOL     OW 2167   1.012   2.244   6.966
  423SOL    HW1 2168   0.949   2.239   0.020
  423SOL    HW2 2169   0.962   2.228   6.881
  424SOL     OW 2170   2.288   4.245   0.724
  424SOL    HW1 2171   2.345   4.164   0.717
  424SOL    HW2 2172   2.328   4.309   0.790
  425SOL     OW 2173   5.782   1.303   2.689
  425SOL    HW1 2174   5.721   1.364   2.637
  425SOL    HW2 2175   5.868   1.350   2.709
  426SOL     OW 2176   4.480   1.851   4.294
  426SOL    HW1 2177   4.381   1.852   4.307
  426SOL    HW2 2178   4.524   1.819   4.379
  427SOL     OW 2179   4.884   5.663   3.075
  427SOL    HW1 2180   4.843   5.723   3.144
  427SOL    HW2 2181   4.968   5.704   3.041
  428SOL     OW 2182   4.458   0.741   4.335
  428SOL    HW1 2183   4.361   0.728   4.352
  428SOL    HW2 2184   4.474   0.829   4.291
  429SOL     OW 2185   1.419   3.320   1.306
  429SOL    HW1 2186   1.376   3.231   1.325
  429SOL    HW2 2187   1.356   3.376   1.252
  430SOL     OW 2188   6.928   0.092   5.155
  430SOL    HW1 2189   6.975   0.011   5.188
  430SOL    HW2 2190   6.878   0.135   5.230
  431SOL     OW 2191   3.506   6.933   0.600
  431SOL    HW1 2192   3.590   6.988   0.598
  431SOL    HW2 2193   3.502   6.877   0.518
  432SOL     OW 2194   6.565   1.515   1.117
  432SOL    HW1 2195   6.609   1.450   1.179
  432SOL    HW2 2196   6.471   1.484   1.099
  433SOL     OW 2197   2.802   6.369   5.169
  433SOL    HW1 2198   2.771   6.277   5.147
  433SOL    HW2 2199   2.774   6.432   5.096
  434SOL     OW 2200   3.577   5.794   2.791
  434SOL    HW1 2201   3.566   5.894   2.786
  434SOL    HW2 2202   3.652   5.767   2.730
  435SOL     OW 2203   5.201   2.676   6.477
  435SOL    HW1 2204   5.110   2.714   6.462
  435SOL    HW2 2205   5.193   2.580   6.506
  436SOL     OW 2206   3.147   6.417   1.210
  436SOL    HW1 2207   3.075   6.431   1.142
  436SOL    HW2 2208   3.120   6.346   1.274
  437SOL     OW 2209   1.254   0.669   0.211
  437SOL    HW1 2210   1.180   0.660   0.144
  437SOL    HW2 2211   1.321   0.735   0.179
  438SOL     OW 2212   2.032   3.897   2.632
  438SOL    HW1 2213   2.063   3.803   2.614
  438SOL    HW2 2214   2.105   3.961   2.607
  439SOL     OW 2215   5.772   4.876   2.975
  439SOL    HW1 2216   5.863   4.839   2.994
  439SOL    HW2 2217   5.715   4.867   3.057
  440SOL     OW 2218   2.072   1.145   5.562
  440SOL    HW1 2219   2.058   1.116   5.467
  440SOL    HW2 2220   2.117   1.072   5.613
  441SOL     OW 2221   0.644   2.901   4.440
  441SOL    HW1 2222   0.644   2.893   4.340
  441SOL    HW2 2223   0.733   2.875   4.476
  442SOL     OW 2224   3.259   4.855   5.891
  442SOL    HW1 2225   3.339   4.852   5.951
  442SOL    HW2 2226   3.187   4.909   5.935
  443SOL     OW 2227   5.884   3.944   4.556
  443SOL    HW1 2228   5.971   3.942   4.605
  443SOL    HW2 2229   5.897   3.910   4.463
  444SOL     OW 2230   4.948   1.336   5.260
  444SOL    HW1 2231   4.973   1.399   5.334
  444SOL    HW2 2232   4.876   1.274   5.293
  445SOL     OW 2233   0.575   5.334   2.607
  445SOL    HW1 2234   0.606   5.361   2.515
  445SOL    HW2 2235   0.556   5.416   2.661
  446SOL     OW 2236   3.847   4.838   3.530
  446SOL    HW1 2237   3.891   4.748   3.534
  446SOL    HW2 2238   3.888   4.892   3.457
  447SOL     OW 2239   0.430   2.836   6.182
  447SOL    HW1 2240   0.435   2.926   6.138
  447SOL    HW2 2241   0.362   2.780   6.134
  448SOL     OW 2242   1.751   0.407   3.403
  448SOL    HW1 2243   1.796   0.492   3.376
  448SOL    HW2 2244   1.799   0.329   3.361
  449SOL     OW 2245   3.874   1.472   4.045
  449SOL    HW1 2246   3.865   1.547   4.111
  449SOL    HW2 2247   3.846   1.386   4.088
  450SOL     OW 2248   1.129   5.685   3.709
  450SOL    HW1 2249   1.099   5.709   3.801
  450SOL    HW2 2250   1.182   5.761   3.671
  451SOL     OW 2251   1.716   1.777   3.559
  451SOL    HW1 2252   1.656   1.750   3.484
  451SOL    HW2 2253   1.779   1.848   3.527
  452SOL     OW 2254   6.219   6.020   0.950
  452SOL    HW1 2255   6.276   6.098   0.926
  452SOL    HW2 2256   6.255   5.976   1.033
  453SOL     OW 2257   3.983   0.995   5.580
  453SOL    HW1 2258   4.031   1.061   5.639
  453SOL    HW2 2259   3.956   1.041   5.495
  454SOL     OW 2260   6.779   4.778   6.419
  454SOL    HW1 2261   6.836   4.771   6.500
  454SOL    HW2 2262   6.829   4.824   6.346
  455SOL     OW 2263   6.185   2.710   3.332
  455SOL    HW1 2264   6.207   2.783   3.267
  455SOL    HW2 2265   6.184   2.622   3.285
  456SOL     OW 2266   5.702   6.378   4.186
  456SOL    HW1 2267   5.618   6.364   4.135
  456SOL    HW2 2268   5.757   6.448   4.141
  457SOL     OW 2269   1.461   2.693   4.446
  457SOL    HW1 2270   1.389   2.757   4.418
  457SOL    HW2 2271   1.435   2.600   4.422
  458SOL     OW 2272   4.242   5.771   3.779
  458SOL    HW1 2273   4.194   5.692   3.740
  458SOL    HW2 2274   4.340   5.761   3.763
  459SOL     OW 2275   2.046   6.539   5.317
  459SOL    HW1 2276   1.995   6.474   5.261
  459SOL    HW2 2277   1.993   6.623   5.329
  460SOL     OW 2278   1.912   6.577   3.701
  460SOL    HW1 2279   1.934   6.627   3.617
  460SOL    HW2 2280   1.835   6.622   3.747
  461SOL     OW 2281   6.475   0.218   6.681
  461SOL    HW1 2282   6.558   0.247   6.730
  461SOL    HW2 2283   6.395   0.256   6.727
  462SOL     OW 2284   3.829   2.800   6.304
  462SOL    HW1 2285   3.879   2.771   6.386
  462SOL    HW2 2286   3.847   2.896   6.286
  463SOL     OW 2287   5.922   6.160   3.585
  463SOL    HW1 2288   5.874   6.187   3.668
  463SOL    HW2 2289   6.019   6.148   3.605
  464SOL     OW 2290   2.588   1.797   4.893
  464SOL    HW1 2291   2.551   1.749   4.813
  464SOL    HW2 2292   2.512   1.820   4.954
  465SOL     OW 2293   0.754   2.814   5.805
  465SOL    HW1 2294   0.802   2.856   5.728
  465SOL    HW2 2295   0.662   2.785   5.776
  466SOL     OW 2296   0.598   5.646   2.460
  466SOL    HW1 2297   0.513   5.695   2.443
  466SOL    HW2 2298   0.664   5.667   2.387
  467SOL     OW 2299   2.268   1.022   0.576
  467SOL    HW1 2300   2.210   1.078   0.635
  467SOL    HW2 2301   2.347   1.076   0.547
  468SOL     OW 2302   3.430   0.368   6.154
  468SOL    HW1 2303   3.365   0.296   6.177
  468SOL    HW2 2304   3.493   0.381   6.230
  469SOL     OW 2305   2.482   3.331   6.604
  469SOL    HW1 2306   2.502   3.418   6.559
  469SOL    HW2 2307   2.537   3.258   6.564
  470SOL     OW 2308   4.378   0.215   1.838
  470SOL    HW1 2309   4.354   0.226   1.742
  470SOL    HW2 2310   4.294   0.199   1.891
  471SOL     OW 2311   1.994   2.274   3.800
  471SOL    HW1 2312   1.909   2.324   3.784
  471SOL    HW2 2313   2.006   2.204   3.729
  472SOL     OW 2314   4.806   3.019   6.275
  472SOL    HW1 2315   4.870   3.012   6.352
  472SOL    HW2 2316   4.858   3.025   6.189
  473SOL     OW 2317   1.120   3.160   3.392
  473SOL    HW1 2318   1.135   3.226   3.319
  473SOL    HW2 2319   1.115   3.068   3.354
  474SOL     OW 2320   5.274   5.882   4.386
  474SOL    HW1 2321   5.261   5.966   4.334
  474SOL    HW2 2322   5.372   5.868   4.403
  475SOL     OW 2323   5.605   1.209   6.244
  475SOL    HW1 2324   5.513   1.206   6.281
  475SOL    HW2 2325   5.666   1.254   6.310
  476SOL     OW 2326   0.565   3.591   3.430
  476SOL    HW1 2327   0.525   3.681   3.417
  476SOL    HW2 2328   0.599   3.583   3.524
  477SOL     OW 2329   1.729   5.304   3.586
  477SOL    HW1 2330   1.803   5.246   3.552
  477SOL    HW2 2331   1.662   5.319   3.513
  478SOL     OW 2332   3.357   6.011   2.178
  478SOL    HW1 2333   3.450   6.003   2.143
  478SOL    HW2 2334   3.356   5.995   2.277
  479SOL     OW 2335   4.310   1.821   5.957
  479SOL    HW1 2336   4.373   1.812   5.880
  479SOL    HW2 2337   4.217   1.800   5.926
  480SOL     OW 2338   2.511   1.008   6.806
  480SOL    HW1 2339   2.560   0.962   6.879
  480SOL    HW2 2340   2.447   0.945   6.762
  481SOL     OW 2341   2.099   6.845   0.780
  481SOL    HW1 2342   2.022   6.824   0.841
  481SOL    HW2 2343   2.071   6.914   0.714
  482SOL     OW 2344   4.480   4.923   2.344
  482SOL    HW1 2345   4.443   4.994   2.404
  482SOL    HW2 2346   4.504   4.964   2.256
  483SOL     OW 2347   0.049   1.436   2.249
  483SOL    HW1 2348   0.116   1.473   2.184
  483SOL    HW2 2349   0.085   1.445   2.342
  484SOL     OW 2350   2.121   3.648   4.311
  484SOL    HW1 2351   2.182   3.706   4.365
  484SOL    HW2 2352   2.026   3.676   4.326
  485SOL     OW 2353   3.793   5.390   2.735
  485SOL    HW1 2354   3.783   5.469   2.796
  485SOL    HW2 2355   3.704   5.349   2.719
  486SOL     OW 2356   6.632   1.222   0.156
  486SOL    HW1 2357   6.683   1.247   0.238
  486SOL    HW2 2358   6.536   1.204   0.181
  487SOL     OW 2359   0.722   0.708   1.966
  487SOL    HW1 2360   0.667   0.665   2.038
  487SOL    HW2 2361   0.694   0.803   1.954
  488SOL     OW 2362   1.233   1.733   1.608
  488SOL    HW1 2363   1.230   1.698   1.515
  488SOL    HW2 2364   1.173   1.813   1.617
  489SOL     OW 2365   3.671   6.357   5.740
  489SOL    HW1 2366   3.764   6.338   5.710
  489SOL    HW2 2367   3.671   6.434   5.804
  490SOL     OW 2368   6.622   6.360   2.721
  490SOL    HW1 2369   6.522   6.353   2.722
  490SOL    HW2 2370   6.656   6.362   2.815
  491SOL     OW 2371   0.810   2.820   2.522
  491SOL    HW1 2372   0.807   2.835   2.424
  491SOL    HW2 2373   0.905   2.804   2.550
  492SOL     OW 2374   1.931   0.715   5.340
  492SOL    HW1 2375   1.832   0.715   5.351
  492SOL    HW2 2376   1.956   0.665   5.257
  493SOL     OW 2377   5.136   5.991   5.698
  493SOL    HW1 2378   5.179   6.061   5.640
  493SOL    HW2 2379   5.202   5.919   5.717
  494SOL     OW 2380   0.342   6.556   6.308
  494SOL    HW1 2381   0.328   6.459   6.327
  494SOL    HW2 2382   0.425   6.587   6.354
  495SOL     OW 2383   4.871   5.902   3.465
  495SOL    HW1 2384   4.881   5.875   3.561
  495SOL    HW2 2385   4.961   5.913   3.424
  496SOL     OW 2386   5.137   3.361   1.915
  496SOL    HW1 2387   5.050   3.367   1.964
  496SOL    HW2 2388   5.137   3.280   1.855
  497SOL     OW 2389   2.958   1.235   4.476
  497SOL    HW1 2390   2.920   1.327   4.487
  497SOL    HW2 2391   2.962   1.212   4.378
  498SOL     OW 2392   1.552   3.826   1.581
  498SOL    HW1 2393   1.569   3.858   1.488
  498SOL    HW2 2394   1.490   3.748   1.578
  499SOL     OW 2395   1.966   6.294   4.510
  499SOL    HW1 2396   1.976   6.230   4.433
  499SOL    HW2 2397   2.057   6.323   4.540
  500SOL     OW 2398   7.020   3.184   5.038
  500SOL    HW1 2399   6.933   3.234   5.043
  500SOL    HW2 2400   0.064   3.228   5.097
  501SOL     OW 2401   3.218   5.754   0.806
  501SOL    HW1 2402   3.131   5.766   0.855
  501SOL    HW2 2403   3.265   5.673   0.841
  502SOL     OW 2404   0.356   4.185   6.920
  502SOL    HW1 2405   0.406   4.245   6.858
  502SOL    HW2 2406   0.287   4.134   6.868
  503SOL     OW 2407   0.375   5.401   6.927
  503SOL    HW1 2408   0.281   5.416   6.899
  503SOL    HW2 2409   0.387   5.306   6.956
  504SOL     OW 2410   1.255   5.196   2.262
  504SOL    HW1 2411   1.326   5.191   2.192
  504SOL    HW2 2412   1.195   5.117   2.254
  505SOL     OW 2413   3.028   5.846   5.446
  505SOL    HW1 2414   3.126   5.854   5.426
  505SOL    HW2 2415   2.977   5.842   5.360
  506SOL     OW 2416   2.803   5.141   4.056
  506SOL    HW1 2417   2.780   5.057   4.105
  506SOL    HW2 2418   2.721   5.197   4.045
  507SOL     OW 2419   2.879   6.458   3.076
  507SOL    HW1 2420   2.867   6.519   2.997
  507SOL    HW2 2421   2.975   6.455   3.102
  508SOL     OW 2422   0.160   3.941   2.385
  508SOL    HW1 2423   0.237   3.993   2.349
  508SOL    HW2 2424   0.152   3.855   2.335
  509SOL     OW 2425   3.090   1.475   1.128
  509SOL    HW1 2426   3.172   1.432   1.091
  509SOL    HW2 2427   3.069   1.436   1.218
  510SOL     OW 2428   6.351   4.786   0.218
  510SOL    HW1 2429   6.261   4.817   0.251
  510SOL    HW2 2430   6.338   4.712   0.152
  511SOL     OW 2431   0.909   1.676   5.796
  511SOL    HW1 2432   0.956   1.755   5.834
  511SOL    HW2 2433   0.822   1.706   5.756
  512SOL     OW 2434   0.033   3.365   0.219
  512SOL    HW1 2435   0.126   3.402   0.212
  512SOL    HW2 2436   0.009   3.353   0.315
  513SOL     OW 2437   5.760   0.101   3.139
  513SOL    HW1 2438   5.788   0.055   3.055
  513SOL    HW2 2439   5.661   0.112   3.141
  514SOL     OW 2440   6.866   2.280   3.829
  514SOL    HW1 2441   6.876   2.358   3.767
  514SOL    HW2 2442   6.789   2.224   3.801
  515SOL     OW 2443   1.170   0.480   6.285
  515SOL    HW1 2444   1.096   0.520   6.232
  515SOL    HW2 2445   1.258   0.510   6.249
  516SOL     OW 2446   2.574   4.531   1.780
  516SOL    HW1 2447   2.530   4.480   1.855
  516SOL    HW2 2448   2.628   4.606   1.818
  517SOL     OW 2449   4.232   5.886   1.429
  517SOL    HW1 2450   4.208   5.912   1.335
  517SOL    HW2 2451   4.252   5.969   1.482
  518SOL     OW 2452   3.019   2.166   3.273
  518SOL    HW1 2453   3.071   2.109   3.337
  518SOL    HW2 2454   2.971   2.108   3.208
  519SOL     OW 2455   0.453   0.022   4.823
  519SOL    HW1 2456   0.539   6.997   4.840
  519SOL    HW2 2457   0.463   0.119   4.845
  520SOL     OW 2458   6.208   4.507   1.038
  520SOL    HW1 2459   6.128   4.475   1.091
  520SOL    HW2 2460   6.207   4.464   0.948
  521SOL     OW 2461   6.746   5.443   4.962
  521SOL    HW1 2462   6.814   5.389   4.912
  521SOL    HW2 2463   6.730   5.401   5.052
  522SOL     OW 2464   3.426   3.131   4.501
  522SOL    HW1 2465   3.486   3.068   4.550
  522SOL    HW2 2466   3.467   3.153   4.413
  523SOL     OW 2467   6.849   5.722   1.625
  523SOL    HW1 2468   6.929   5.678   1.666
  523SOL    HW2 2469   6.767   5.669   1.647
  524SOL     OW 2470   0.772   1.613   2.389
  524SOL    HW1 2471   0.739   1.579   2.301
  524SOL    HW2 2472   0.778   1.712   2.387
  525SOL     OW 2473   2.143   3.367   5.324
  525SOL    HW1 2474   2.156   3.462   5.297
  525SOL    HW2 2475   2.187   3.352   5.413
  526SOL     OW 2476   4.046   6.811   3.860
  526SOL    HW1 2477   3.968   6.753   3.836
  526SOL    HW2 2478   4.067   6.799   3.957
  527SOL     OW 2479   5.781   2.983   6.666
  527SOL    HW1 2480   5.709   2.928   6.623
  527SOL    HW2 2481   5.786   2.962   6.763
  528SOL     OW 2482   1.361   2.245   3.551
  528SOL    HW1 2483   1.450   2.199   3.557
  528SOL    HW2 2484   1.343   2.271   3.456
  529SOL     OW 2485   1.869   0.038   4.477
  529SOL    HW1 2486   1.828   0.129   4.488
  529SOL    HW2 2487   1.831   7.016   4.397
  530SOL     OW 2488   3.566   3.184   4.285
  530SOL    HW1 2489   3.495   3.245   4.250
  530SOL    HW2 2490   3.577   3.106   4.223
  531SOL     OW 2491   0.401   1.473   3.175
  531SOL    HW1 2492   0.478   1.413   3.197
  531SOL    HW2 2493   0.334   1.468   3.249
  532SOL     OW 2494   1.257   2.796   6.773
  532SOL    HW1 2495   1.281   2.804   6.676
  532SOL    HW2 2496   1.190   2.867   6.796
  533SOL     OW 2497   4.123   6.723   4.097
  533SOL    HW1 2498   4.150   6.649   4.035
  533SOL    HW2 2499   4.196   6.791   4.101
  534SOL     OW 2500   5.249   6.441   2.787
  534SOL    HW1 2501   5.159   6.403   2.808
  534SOL    HW2 2502   5.245   6.492   2.701
  535SOL     OW 2503   0.836   3.725   4.391
  535SOL    HW1 2504   0.827   3.684   4.300
  535SOL    HW2 2505   0.836   3.653   4.460
  536SOL     OW 2506   6.687   5.359   1.536
  536SOL    HW1 2507   6.596   5.320   1.523
  536SOL    HW2 2508   6.690   5.413   1.620
  537SOL     OW 2509   2.731   6.403   4.694
  537SOL    HW1 2510   2.743   6.493   4.653
  537SOL    HW2 2511   2.701   6.338   4.623
  538SOL     OW 2512   1.578   4.620   3.252
  538SOL    HW1 2513   1.569   4.523   3.229
  538SOL    HW2 2514   1.670   4.638   3.288
  539SOL     OW 2515   1.620   5.833   1.057
  539SOL    HW1 2516   1.537   5.778   1.051
  539SOL    HW2 2517   1.647   5.863   0.965
  540SOL     OW 2518   0.959   0.672   2.998
  540SOL    HW1 2519   0.989   0.630   3.084
  540SOL    HW2 2520   0.988   0.767   2.996
  541SOL     OW 2521   5.447   5.909   4.005
  541SOL    HW1 2522   5.397   5.831   4.043
  541SOL    HW2 2523   5.519   5.876   3.944
  542SOL     OW 2524   6.262   6.642   0.096
  542SOL    HW1 2525   6.167   6.614   0.088
  542SOL    HW2 2526   6.319   6.586   0.036
  543SOL     OW 2527   1.522   3.927   5.465
  543SOL    HW1 2528   1.442   3.886   5.508
  543SOL    HW2 2529   1.560   3.998   5.525
  544SOL     OW 2530   3.295   4.034   0.290
  544SOL    HW1 2531   3.316   4.014   0.386
  544SOL    HW2 2532   3.314   3.954   0.234
  545SOL     OW 2533   2.768   1.232   1.941
  545SOL    HW1 2534   2.735   1.310   1.994
  545SOL    HW2 2535   2.794   1.262   1.849
  546SOL     OW 2536   1.769   3.062   0.583
  546SOL    HW1 2537   1.748   3.146   0.534
  546SOL    HW2 2538   1.819   3.084   0.667
  547SOL     OW 2539   3.268   0.911   0.290
  547SOL    HW1 2540   3.199   0.949   0.229
  547SOL    HW2 2541   3.223   0.864   0.366
  548SOL     OW 2542   3.353   3.207   2.768
  548SOL    HW1 2543   3.405   3.182   2.850
  548SOL    HW2 2544   3.354   3.306   2.757
  549SOL     OW 2545   5.419   2.692   0.903
  549SOL    HW1 2546   5.402   2.594   0.916
  549SOL    HW2 2547   5.363   2.745   0.966
  550SOL     OW 2548   6.899   4.966   3.874
  550SOL    HW1 2549   6.842   4.950   3.954
  550SOL    HW2 2550   6.977   4.903   3.876
  551SOL     OW 2551   0.714   0.315   1.981
  551SOL    HW1 2552   0.786   0.381   2.002
  551SOL    HW2 2553   0.629   0.344   2.025
  552SOL     OW 2554   5.492   4.174   0.206
  552SOL    HW1 2555   5.414   4.208   0.153
  552SOL    HW2 2556   5.473   4.187   0.304
  553SOL     OW 2557   2.030   6.542   2.353
  553SOL    HW1 2558   2.057   6.597   2.274
  553SOL    HW2 2559   1.932   6.522   2.349
  554SOL     OW 2560   5.638   0.352   5.958
  554SOL    HW1 2561   5.566   0.392   5.900
  554SOL    HW2 2562   5.726   0.391   5.933
  555SOL     OW 2563   1.645   5.420   2.969
  555SOL    HW1 2564   1.550   5.443   2.992
  555SOL    HW2 2565   1.690   5.381   3.049
  556SOL     OW 2566   4.802   2.705   3.817
  556SOL    HW1 2567   4.798   2.792   3.767
  556SOL    HW2 2568   4.790   2.630   3.753
  557SOL     OW 2569   0.456   4.893   0.590
  557SOL    HW1 2570   0.501   4.976   0.556
  557SOL    HW2 2571   0.525   4.824   0.609
  558SOL     OW 2572   3.013   3.475   4.333
  558SOL    HW1 2573   2.953   3.495   4.411
  558SOL    HW2 2574   3.006   3.378   4.310
  559SOL     OW 2575   6.788   5.736   0.069
  559SOL    HW1 2576   6.825   5.753   7.000
  559SOL    HW2 2577   6.756   5.642   0.075
  560SOL     OW 2578   4.883   4.312   0.014
  560SOL    HW1 2579   4.928   4.226   7.013
  560SOL    HW2 2580   4.933   4.356   0.089
  561SOL     OW 2581   6.644   1.180   0.827
  561SOL    HW1 2582   6.632   1.278   0.843
  561SOL    HW2 2583   6.617   1.157   0.733
  562SOL     OW 2584   5.485   0.719   5.437
  562SOL    HW1 2585   5.466   0.810   5.474
  562SOL    HW2 2586   5.580   0.695   5.454
  563SOL     OW 2587   2.190   0.714   3.390
  563SOL    HW1 2588   2.278   0.691   3.431
  563SOL    HW2 2589   2.204   0.747   3.297
  564SOL     OW 2590   1.948   2.199   6.535
  564SOL    HW1 2591   1.982   2.275   6.589
  564SOL    HW2 2592   1.883   2.232   6.467
  565SOL     OW 2593   3.725   2.981   5.407
  565SOL    HW1 2594   3.812   2.942   5.437
  565SOL    HW2 2595   3.682   3.029   5.484
  566SOL     OW 2596   6.186   4.999   4.116
  566SOL    HW1 2597   6.183   4.912   4.166
  566SOL    HW2 2598   6.113   5.058   4.149
  567SOL     OW 2599   3.317   2.953   1.914
  567SOL    HW1 2600   3.337   2.888   1.842
  567SOL    HW2 2601   3.230   2.998   1.895
  568SOL     OW 2602   4.271   1.592   0.201
  568SOL    HW1 2603   4.357   1.600   0.251
  568SOL    HW2 2604   4.280   1.636   0.112
  569SOL     OW 2605   1.290   3.205   6.743
  569SOL    HW1 2606   1.272   3.209   6.841
  569SOL    HW2 2607   1.378   3.162   6.727
  570SOL     OW 2608   3.228   6.242   6.998
  570SOL    HW1 2609   3.270   6.273   0.059
  570SOL    HW2 2610   3.278   6.278   6.919
  571SOL     OW 2611   3.081   0.419   2.642
  571SOL    HW1 2612   3.082   0.357   2.564
  571SOL    HW2 2613   3.087   0.366   2.727
  572SOL     OW 2614   2.945   5.090   5.618
  572SOL    HW1 2615   2.874   5.151   5.652
  572SOL    HW2 2616   2.939   5.002   5.665
  573SOL     OW 2617   5.417   1.744   5.798
  573SOL    HW1 2618   5.484   1.684   5.754
  573SOL    HW2 2619   5.449   1.838   5.794
  574SOL     OW 2620   3.415   2.137   4.459
  574SOL    HW1 2621   3.340   2.164   4.519
  574SOL    HW2 2622   3.393   2.159   4.364
  575SOL     OW 2623   5.532   3.892   0.870
  575SOL    HW1 2624   5.534   3.793   0.859
  575SOL    HW2 2625   5.460   3.930   0.811
  576SOL     OW 2626   0.998   2.319   2.887
  576SOL    HW1 2627   1.043   2.276   2.965
  576SOL    HW2 2628   1.021   2.268   2.803
  577SOL     OW 2629   1.615   1.520   2.837
  577SOL    HW1 2630   1.587   1.433   2.878
  577SOL    HW2 2631   1.705   1.509   2.794
  578SOL     OW 2632   6.654   5.089   3.385
  578SOL    HW1 2633   6.675   5.183   3.415
  578SOL    HW2 2634   6.562   5.064   3.415
  579SOL     OW 2635   1.392   2.832   2.151
  579SOL    HW1 2636   1.372   2.775   2.230
  579SOL    HW2 2637   1.448   2.910   2.179
  580SOL     OW 2638   6.702   4.932   6.753
  580SOL    HW1 2639   6.669   4.841   6.777
  580SOL    HW2 2640   6.701   4.942   6.653
  581SOL     OW 2641   3.174   2.993   2.864
  581SOL    HW1 2642   3.219   2.914   2.820
  581SOL    HW2 2643   3.162   3.066   2.796
  582SOL     OW 2644   5.442   6.409   2.432
  582SOL    HW1 2645   5.386   6.477   2.480
  582SOL    HW2 2646   5.442   6.428   2.334
  583SOL     OW 2647   3.221   5.098   5.683
  583SOL    HW1 2648   3.215   5.132   5.777
  583SOL    HW2 2649   3.129   5.077   5.649
  584SOL     OW 2650   2.254   3.746   6.172
  584SOL    HW1 2651   2.255   3.654   6.211
  584SOL    HW2 2652   2.339   3.762   6.122
  585SOL     OW 2653   5.677   3.297   6.060
  585SOL    HW1 2654   5.762   3.247   6.080
  585SOL    HW2 2655   5.643   3.269   5.970
  586SOL     OW 2656   3.956   1.746   6.504
  586SOL    HW1 2657   4.056   1.757   6.504
  586SOL    HW2 2658   3.922   1.750   6.598
  587SOL     OW 2659   3.345   1.125   5.251
  587SOL    HW1 2660   3.428   1.158   5.296
  587SOL    HW2 2661   3.370   1.080   5.165
  588SOL     OW 2662   2.742   4.603   0.726
  588SOL    HW1 2663   2.755   4.536   0.799
  588SOL    HW2 2664   2.668   4.572   0.665
  589SOL     OW 2665   3.173   5.463   1.418
  589SOL    HW1 2666   3.088   5.449   1.470
  589SOL    HW2 2667   3.155   5.451   1.321
  590SOL     OW 2668   5.180   3.125   2.792
  590SOL    HW1 2669   5.199   3.224   2.789
  590SOL    HW2 2670   5.130   3.098   2.710
  591SOL     OW 2671   3.660   5.637   3.459
  591SOL    HW1 2672   3.673   5.695   3.379
  591SOL    HW2 2673   3.690   5.544   3.438
  592SOL     OW 2674   3.251   0.721   1.979
  592SOL    HW1 2675   3.321   0.650   1.993
  592SOL    HW2 2676   3.292   0.800   1.933
  593SOL     OW 2677   4.236   2.309   3.263
  593SOL    HW1 2678   4.203   2.274   3.175
  593SOL    HW2 2679   4.326   2.350   3.251
  594SOL     OW 2680   5.442   2.198   6.702
  594SOL    HW1 2681   5.502   2.278   6.708
  594SOL    HW2 2682   5.356   2.218   6.749
  595SOL     OW 2683   6.154   0.452   4.122
  595SOL    HW1 2684   6.117   0.381   4.062
  595SOL    HW2 2685   6.104   0.452   4.209
  596SOL     OW 2686   1.867   4.625   3.037
  596SOL    HW1 2687   1.864   4.549   3.101
  596SOL    HW2 2688   1.872   4.590   2.944
  597SOL     OW 2689   4.116   6.801   6.474
  597SOL    HW1 2690   4.196   6.744   6.455
  597SOL    HW2 2691   4.051   6.749   6.530
  598SOL     OW 2692   3.134   3.871   6.044
  598SOL    HW1 2693   3.083   3.928   5.980
  598SOL    HW2 2694   3.117   3.775   6.024
  599SOL     OW 2695   2.283   6.339   2.794
  599SOL    HW1 2696   2.194   6.295   2.809
  599SOL    HW2 2697   2.321   6.369   2.881
  600SOL     OW 2698   0.994   0.956   0.764
  600SOL    HW1 2699   1.022   0.890   0.693
  600SOL    HW2 2700   1.065   1.025   0.775
  601SOL     OW 2701   2.963   6.151   3.705
  601SOL    HW1 2702   2.904   6.129   3.783
  601SOL    HW2 2703   3.040   6.207   3.736
  602SOL     OW 2704   2.162   2.769   6.177
  602SOL    HW1 2705   2.187   2.819   6.260
  602SOL    HW2 2706   2.211   2.809   6.099
  603SOL     OW 2707   3.652   1.949   3.838
  603SOL    HW1 2708   3.699   1.978   3.755
  603SOL    HW2 2709   3.652   1.849   3.843
  604SOL     OW 2710   0.598   3.437   1.920
  604SOL    HW1 2711   0.601   3.457   1.822
  604SOL    HW2 2712   0.503   3.431   1.950
  605SOL     OW 2713   6.345   6.338   2.634
  605SOL    HW1 2714   6.397   6.253   2.642
  605SOL    HW2 2715   6.345   6.369   2.539
  606SOL     OW 2716   5.055   0.730   6.571
  606SOL    HW1 2717   5.119   0.718   6.647
  606SOL    HW2 2718   4.963   0.746   6.606
  607SOL     OW 2719   5.780   0.832   5.523
  607SOL    HW1 2720   5.812   0.785   5.441
  607SOL    HW2 2721   5.856   0.842   5.588
  608SOL     OW 2722   3.528   6.031   6.532
  608SOL    HW1 2723   3.506   5.949   6.480
  608SOL    HW2 2724   3.628   6.044   6.534
  609SOL     OW 2725   4.104   3.390   3.534
  609SOL    HW1 2726   4.106   3.329   3.455
  609SOL    HW2 2727   4.054   3.347   3.609
  610SOL     OW 2728   5.016   3.002   2.594
  610SOL    HW1 2729   5.048   2.942   2.521
  610SOL    HW2 2730   5.011   3.096   2.560
  611SOL     OW 2731   2.596   0.467   6.776
  611SOL    HW1 2732   2.666   0.431   6.838
  611SOL    HW2 2733   2.553   0.547   6.818
  612SOL     OW 2734   3.895   6.689   6.215
  612SOL    HW1 2735   3.826   6.747   6.258
  612SOL    HW2 2736   3.925   6.619   6.280
  613SOL     OW 2737   4.003   6.933   5.756
  613SOL    HW1 2738   4.024   0.007   5.755
  613SOL    HW2 2739   4.020   6.896   5.847
  614SOL     OW 2740   4.742   4.381   1.452
  614SOL    HW1 2741   4.732   4.348   1.546
  614SOL    HW2 2742   4.652   4.401   1.414
  615SOL     OW 2743   0.333   1.977   0.823
  615SOL    HW1 2744   0.337   2.072   0.852
  615SOL    HW2 2745   0.241   1.941   0.839
  616SOL     OW 2746   0.357   2.051   3.762
  616SOL    HW1 2747   0.324   1.957   3.754
  616SOL    HW2 2748   0.285   2.109   3.800
  617SOL     OW 2749   6.834   3.299   6.516
  617SOL    HW1 2750   6.911   3.252   6.472
  617SOL    HW2 2751   6.845   3.398   6.506
  618SOL     OW 2752   0.138   3.315   6.740
  618SOL    HW1 2753   0.072   3.354   6.804
  618SOL    HW2 2754   0.215   3.276   6.792
  619SOL     OW 2755   4.799   0.239   6.554
  619SOL    HW1 2756   4.715   0.214   6.603
  619SOL    HW2 2757   4.844   0.155   6.522
  620SOL     OW 2758   5.094   2.556   2.197
  620SOL    HW1 2759   5.073   2.646   2.158
  620SOL    HW2 2760   5.014   2.496   2.189
  621SOL     OW 2761   2.348   6.776   5.855
  621SOL    HW1 2762   2.391   6.707   5.796
  621SOL    HW2 2763   2.250   6.762   5.857
  622SOL     OW 2764   0.931   1.616   4.794
  622SOL    HW1 2765   0.941   1.525   4.833
  622SOL    HW2 2766   0.901   1.680   4.865
  623SOL     OW 2767   0.919   6.061   5.918
  623SOL    HW1 2768   0.987   6.133   5.934
  623SOL    HW2 2769   0.923   6.032   5.822
  624SOL     OW 2770   0.183   1.478   0.742
  624SOL    HW1 2771   0.251   1.453   0.812
  624SOL    HW2 2772   0.091   1.458   0.777
  625SOL     OW 2773   1.954   2.149   1.629
  625SOL    HW1 2774   2.000   2.167   1.716
  625SOL    HW2 2775   1.984   2.216   1.561
  626SOL     OW 2776   0.547   5.570   2.725
  626SOL    HW1 2777   0.568   5.579   2.628
  626SOL    HW2 2778   0.585   5.648   2.775
  627SOL     OW 2779   6.407   6.211   0.906
  627SOL    HW1 2780   6.479   6.227   0.838
  627SOL    HW2 2781   6.449   6.184   0.992
  628SOL     OW 2782   5.407   5.717   5.490
  628SOL    HW1 2783   5.427   5.680   5.581
  628SOL    HW2 2784   5.321   5.767   5.492
  629SOL     OW 2785   0.574   0.448   6.417
  629SOL    HW1 2786   0.540   0.387   6.489
  629SOL    HW2 2787   0.671   0.428   6.401
  630SOL     OW 2788   0.853   1.432   0.222
  630SOL    HW1 2789   0.799   1.470   0.297
  630SOL    HW2 2790   0.950   1.436   0.245
  631SOL     OW 2791   3.789   0.855   5.767
  631SOL    HW1 2792   3.811   0.950   5.744
  631SOL    HW2 2793   3.804   0.797   5.687
  632SOL     OW 2794   4.486   2.112   1.429
  632SOL    HW1 2795   4.460   2.044   1.497
  632SOL    HW2 2796   4.586   2.115   1.421
  633SOL     OW 2797   2.735   3.861   6.598
  633SOL    HW1 2798   2.740   3.843   6.696
  633SOL    HW2 2799   2.777   3.786   6.548
  634SOL     OW 2800   3.477   4.150   2.938
  634SOL    HW1 2801   3.560   4.122   2.889
  634SOL    HW2 2802   3.398   4.144   2.877
  635SOL     OW 2803   4.989   6.127   0.907
  635SOL    HW1 2804   5.018   6.060   0.838
  635SOL    HW2 2805   4.940   6.081   0.980
  636SOL     OW 2806   3.540   6.794   6.703
  636SOL    HW1 2807   3.637   6.813   6.683
  636SOL    HW2 2808   3.507   6.722   6.643
  637SOL     OW 2809   0.031   2.704   3.287
  637SOL    HW1 2810   0.089   2.763   3.230
  637SOL    HW2 2811   6.962   2.743   3.290
  638SOL     OW 2812   5.704   3.393   3.673
  638SOL    HW1 2813   5.765   3.413   3.596
  638SOL    HW2 2814   5.646   3.315   3.650
  639SOL     OW 2815   4.896   3.623   2.673
  639SOL    HW1 2816   4.846   3.563   2.611
  639SOL    HW2 2817   4.983   3.649   2.632
  640SOL     OW 2818   0.126   5.046   4.432
  640SOL    HW1 2819   0.058   4.991   4.384
  640SOL    HW2 2820   0.196   4.986   4.470
  641SOL     OW 2821   0.747   4.596   4.974
  641SOL    HW1 2822   0.714   4.507   5.003
  641SOL    HW2 2823   0.676   4.643   4.921
  642SOL     OW 2824   6.923   3.421   4.350
  642SOL    HW1 2825   6.936   3.365   4.432
  642SOL    HW2 2826   6.964   3.374   4.272
  643SOL     OW 2827   6.142   0.395   6.488
  643SOL    HW1 2828   6.234   0.383   6.450
  643SOL    HW2 2829   6.074   0.361   6.423
  644SOL     OW 2830   1.520   0.004   4.271
  644SOL    HW1 2831   1.620   7.020   4.263
  644SOL    HW2 2832   1.481   6.935   4.272
  645SOL     OW 2833   4.251   6.962   5.070
  645SOL    HW1 2834   4.232   0.025   5.022
  645SOL    HW2 2835   4.323   6.977   5.138
  646SOL     OW 2836   2.982   0.445   4.700
  646SOL    HW1 2837   2.948   0.523   4.751
  646SOL    HW2 2838   3.072   0.418   4.734
  647SOL     OW 2839   5.061   1.788   4.816
  647SOL    HW1 2840   5.100   1.719   4.755
  647SOL    HW2 2841   4.977   1.825   4.776
  648SOL     OW 2842   0.217   3.947   4.094
  648SOL    HW1 2843   0.212   4.015   4.167
  648SOL    HW2 2844   0.213   3.993   4.006
  649SOL     OW 2845   2.290   4.010   1.530
  649SOL    HW1 2846   2.210   4.042   1.580
  649SOL    HW2 2847   2.355   4.086   1.520
  650SOL     OW 2848   6.082   3.920   1.229
  650SOL    HW1 2849   6.144   3.958   1.160
  650SOL    HW2 2850   5.989   3.953   1.211
  651SOL     OW 2851   1.684   6.924   6.049
  651SOL    HW1 2852   1.708   6.972   6.134
  651SOL    HW2 2853   1.635   6.840   6.072
  652SOL     OW 2854   5.149   0.075   3.912
  652SOL    HW1 2855   5.199   0.026   3.984
  652SOL    HW2 2856   5.213   0.108   3.843
  653SOL     OW 2857   1.116   5.665   0.235
  653SOL    HW1 2858   1.196   5.660   0.175
  653SOL    HW2 2859   1.048   5.725   0.194
  654SOL     OW 2860   0.700   6.040   0.262
  654SOL    HW1 2861   0.730   6.047   0.167
  654SOL    HW2 2862   0.753   6.104   0.318
  655SOL     OW 2863   6.944   5.783   1.135
  655SOL    HW1 2864   6.928   5.733   1.220
  655SOL    HW2 2865   6.859   5.790   1.084
  656SOL     OW 2866   2.636   5.834   0.740
  656SOL    HW1 2867   2.634   5.915   0.683
  656SOL    HW2 2868   2.725   5.789   0.732
  657SOL     OW 2869   2.550   3.366   1.033
  657SOL    HW1 2870   2.644   3.341   1.058
  657SOL    HW2 2871   2.502   3.402   1.113
  658SOL     OW 2872   1.816   4.042   6.630
  658SOL    HW1 2873   1.863   3.954   6.642
  658SOL    HW2 2874   1.720   4.026   6.608
  659SOL     OW 2875   2.229   6.182   4.578
  659SOL    HW1 2876   2.198   6.257   4.636
  659SOL    HW2 2877   2.307   6.136   4.622
  660SOL     OW 2878   5.931   3.943   2.761
  660SOL    HW1 2879   5.888   4.030   2.736
  660SOL    HW2 2880   6.008   3.925   2.700
  661SOL     OW 2881   5.031   3.765   3.697
  661SOL    HW1 2882   5.116   3.815   3.679
  661SOL    HW2 2883   5.053   3.674   3.732
  662SOL     OW 2884   4.029   0.312   5.454
  662SOL    HW1 2885   3.997   0.240   5.515
  662SOL    HW2 2886   3.977   0.310   5.369
  663SOL     OW 2887   1.637   3.852   0.069
  663SOL    HW1 2888   1.652   3.936   0.017
  663SOL    HW2 2889   1.539   3.830   0.069
  664SOL     OW 2890   0.678   5.245   6.558
  664SOL    HW1 2891   0.682   5.345   6.567
  664SOL    HW2 2892   0.593   5.218   6.514
  665SOL     OW 2893   4.727   5.135   1.120
  665SOL    HW1 2894   4.678   5.091   1.044
  665SOL    HW2 2895   4.716   5.080   1.203
  666SOL     OW 2896   4.413   2.272   2.342
  666SOL    HW1 2897   4.367   2.298   2.257
  666SOL    HW2 2898   4.345   2.257   2.414
  667SOL     OW 2899   6.703   4.341   3.581
  667SOL    HW1 2900   6.765   4.395   3.637
  667SOL    HW2 2901   6.735   4.246   3.577
  668SOL     OW 2902   5.339   5.987   6.719
  668SOL    HW1 2903   5.301   6.074   6.686
  668SOL    HW2 2904   5.267   5.935   6.764
  669SOL     OW 2905   3.773   6.025   3.049
  669SOL    HW1 2906   3.766   6.035   2.950
  669SOL    HW2 2907   3.840   6.091   3.084
  670SOL     OW 2908   2.690   3.141   1.705
  670SOL    HW1 2909   2.760   3.070   1.711
  670SOL    HW2 2910   2.724   3.226   1.743
  671SOL     OW 2911   2.571   5.667   6.768
  671SOL    HW1 2912   2.625   5.693   6.689
  671SOL    HW2 2913   2.474   5.688   6.751
  672SOL     OW 2914   0.561   4.705   1.696
  672SOL    HW1 2915   0.584   4.789   1.745
  672SOL    HW2 2916   0.489   4.723   1.629
  673SOL     OW 2917   6.575   0.408   1.289
  673SOL    HW1 2918   6.566   0.496   1.336
  673SOL    HW2 2919   6.656   0.410   1.230
  674SOL     OW 2920   6.466   3.762   4.828
  674SOL    HW1 2921   6.430   3.849   4.795
  674SOL    HW2 2922   6.408   3.729   4.903
  675SOL     OW 2923   0.224   0.978   5.024
  675SOL    HW1 2924   0.280   1.007   5.101
  675SOL    HW2 2925   0.152   1.046   5.008
  676SOL     OW 2926   4.216   5.497   2.353
  676SOL    HW1 2927   4.155   5.525   2.279
  676SOL    HW2 2928   4.162   5.479   2.435
  677SOL     OW 2929   6.187   1.778   6.381
  677SOL    HW1 2930   6.159   1.684   6.399
  677SOL    HW2 2931   6.274   1.797   6.426
  678SOL     OW 2932   1.247   1.555   5.141
  678SOL    HW1 2933   1.180   1.550   5.215
  678SOL    HW2 2934   1.277   1.650   5.131
  679SOL     OW 2935   4.908   1.392   4.304
  679SOL    HW1 2936   4.875   1.299   4.313
  679SOL    HW2 2937   4.835   1.451   4.269
  680SOL     OW 2938   5.320   5.591   6.255
  680SOL    HW1 2939   5.327   5.674   6.310
  680SOL    HW2 2940   5.223   5.568   6.241
  681SOL     OW 2941   5.587   6.675   1.623
  681SOL    HW1 2942   5.504   6.654   1.571
  681SOL    HW2 2943   5.564   6.728   1.704
  682SOL     OW 2944   1.959   6.614   0.190
  682SOL    HW1 2945   1.902   6.542   0.150
  682SOL    HW2 2946   2.055   6.590   0.178
  683SOL     OW 2947   3.594   2.214   6.686
  683SOL    HW1 2948   3.528   2.284   6.660
  683SOL    HW2 2949   3.686   2.252   6.681
  684SOL     OW 2950   6.285   1.028   6.731
  684SOL    HW1 2951   6.291   0.928   6.735
  684SOL    HW2 2952   6.304   1.058   6.637
  685SOL     OW 2953   4.591   0.713   4.679
  685SOL    HW1 2954   4.682   0.696   4.641
  685SOL    HW2 2955   4.568   0.641   4.745
  686SOL     OW 2956   6.220   3.310   3.194
  686SOL    HW1 2957   6.208   3.276   3.287
  686SOL    HW2 2958   6.142   3.281   3.137
  687SOL     OW 2959   0.019   3.112   4.650
  687SOL    HW1 2960   0.101   3.169   4.644
  687SOL    HW2 2961   0.032   3.043   4.722
  688SOL     OW 2962   1.751   3.049   6.609
  688SOL    HW1 2963   1.678   2.999   6.655
  688SOL    HW2 2964   1.749   3.029   6.511
  689SOL     OW 2965   0.275   4.377   6.237
  689SOL    HW1 2966   0.256   4.451   6.300
  689SOL    HW2 2967   0.326   4.412   6.158
  690SOL     OW 2968   0.813   4.128   3.768
  690SOL    HW1 2969   0.891   4.069   3.788
  690SOL    HW2 2970   0.794   4.186   3.848
  691SOL     OW 2971   2.251   0.741   6.074
  691SOL    HW1 2972   2.221   0.761   6.167
  691SOL    HW2 2973   2.327   0.800   6.050
  692SOL     OW 2974   3.369   6.325   3.229
  692SOL    HW1 2975   3.429   6.251   3.200
  692SOL    HW2 2976   3.380   6.341   3.327
  693SOL     OW 2977   6.367   1.484   3.135
  693SOL    HW1 2978   6.379   1.416   3.208
  693SOL    HW2 2979   6.451   1.492   3.082
  694SOL     OW 2980   3.461   6.637   2.630
  694SOL    HW1 2981   3.540   6.638   2.569
  694SOL    HW2 2982   3.388   6.692   2.591
  695SOL     OW 2983   4.493   4.825   5.572
  695SOL    HW1 2984   4.504   4.748   5.635
  695SOL    HW2 2985   4.558   4.815   5.496
  696SOL     OW 2986   2.948   5.370   1.965
  696SOL    HW1 2987   2.877   5.305   1.937
  696SOL    HW2 2988   3.011   5.324   2.028
  697SOL     OW 2989   1.934   3.107   4.874
  697SOL    HW1 2990   2.024   3.139   4.904
  697SOL    HW2 2991   1.933   3.101   4.774
  698SOL     OW 2992   5.493   0.063   6.740
  698SOL    HW1 2993   5.508   6.989   6.720
  698SOL    HW2 2994   5.436   0.071   6.821
  699SOL     OW 2995   1.291   4.405   6.606
  699SOL    HW1 2996   1.355   4.342   6.649
  699SOL    HW2 2997   1.206   4.357   6.584
  700SOL     OW 2998   2.777   1.464   3.761
  700SOL    HW1 2999   2.790   1.552   3.806
  700SOL    HW2 3000   2.682   1.434   3.771
  701SOL     OW 3001   6.425   4.144   5.381
  701SOL    HW1 3002   6.473   4.108   5.460
  701SOL    HW2 3003   6.413   4.072   5.313
  702SOL     OW 3004   6.459   6.598   6.343
  702SOL    HW1 3005   6.409   6.601   6.256
  702SOL    HW2 3006   6.394   6.598   6.419
  703SOL     OW 3007   3.686   3.670   6.261
  703SOL    HW1 3008   3.766   3.681   6.203
  703SOL    HW2 3009   3.695   3.727   6.343
  704SOL     OW 3010   1.276   1.206   6.066
  704SOL    HW1 3011   1.290   1.125   6.011
  704SOL    HW2 3012   1.344   1.210   6.139
  705SOL     OW 3013   5.925   6.978   3.459
  705SOL    HW1 3014   5.837   6.987   3.412
  705SOL    HW2 3015   5.997   7.015   3.401
  706SOL     OW 3016   3.527   1.816   4.179
  706SOL    HW1 3017   3.495   1.832   4.273
  706SOL    HW2 3018   3.457   1.847   4.114
  707SOL     OW 3019   4.778   0.363   2.847
  707SOL    HW1 3020   4.713   0.292   2.876
  707SOL    HW2 3021   4.850   0.322   2.791
  708SOL     OW 3022   4.270   0.547   1.225
  708SOL    HW1 3023   4.177   0.581   1.212
  708SOL    HW2 3024   4.267   0.447   1.237
  709SOL     OW 3025   1.228   5.291   0.336
  709SOL    HW1 3026   1.230   5.373   0.393
  709SOL    HW2 3027   1.321   5.272   0.302
  710SOL     OW 3028   4.109   3.404   2.765
  710SOL    HW1 3029   4.090   3.410   2.667
  710SOL    HW2 3030   4.155   3.487   2.796
  711SOL     OW 3031   0.215   2.506   5.883
  711SOL    HW1 3032   0.168   2.483   5.969
  711SOL    HW2 3033   0.307   2.468   5.884
  712SOL     OW 3034   3.431   4.262   0.940
  712SOL    HW1 3035   3.438   4.214   1.027
  712SOL    HW2 3036   3.522   4.272   0.900
  713SOL     OW 3037   3.380   2.885   0.091
  713SOL    HW1 3038   3.439   2.811   0.122
  713SOL    HW2 3039   3.423   2.933   0.015
  714SOL     OW 3040   5.970   4.682   4.569
  714SOL    HW1 3041   6.012   4.738   4.498
  714SOL    HW2 3042   5.871   4.692   4.566
  715SOL     OW 3043   5.491   5.966   0.458
  715SOL    HW1 3044   5.553   5.929   0.528
  715SOL    HW2 3045   5.424   6.026   0.502
  716SOL     OW 3046   1.232   6.689   0.717
  716SOL    HW1 3047   1.269   6.688   0.810
  716SOL    HW2 3048   1.150   6.747   0.713
  717SOL     OW 3049   5.678   5.035   6.089
  717SOL    HW1 3050   5.690   5.133   6.101
  717SOL    HW2 3051   5.637   5.017   6.000
  718SOL     OW 3052   4.691   2.142   6.008
  718SOL    HW1 3053   4.696   2.048   6.044
  718SOL    HW2 3054   4.669   2.205   6.083
  719SOL     OW 3055   6.800   2.415   1.160
  719SOL    HW1 3056   6.734   2.359   1.110
  719SOL    HW2 3057   6.856   2.465   1.094
  720SOL     OW 3058   3.578   0.596   6.670
  720SOL    HW1 3059   3.549   0.575   6.576
  720SOL    HW2 3060   3.498   0.619   6.725
  721SOL     OW 3061   2.569   0.502   4.357
  721SOL    HW1 3062   2.470   0.493   4.366
  721SOL    HW2 3063   2.606   0.544   4.440
  722SOL     OW 3064   2.644   6.900   4.353
  722SOL    HW1 3065   2.695   6.975   4.395
  722SOL    HW2 3066   2.615   6.835   4.423
  723SOL     OW 3067   2.076   3.457   3.256
  723SOL    HW1 3068   2.109   3.456   3.161
  723SOL    HW2 3069   1.993   3.401   3.263
  724SOL     OW 3070   1.128   2.609   4.997
  724SOL    HW1 3071   1.157   2.644   5.086
  724SOL    HW2 3072   1.141   2.680   4.928
  725SOL     OW 3073   3.451   5.847   0.652
  725SOL    HW1 3074   3.525   5.792   0.690
  725SOL    HW2 3075   3.365   5.823   0.696
  726SOL     OW 3076   4.548   4.710   0.563
  726SOL    HW1 3077   4.618   4.727   0.494
  726SOL    HW2 3078   4.471   4.661   0.521
  727SOL     OW 3079   5.505   5.365   5.923
  727SOL    HW1 3080   5.411   5.333   5.908
  727SOL    HW2 3081   5.503   5.454   5.968
  728SOL     OW 3082   6.738   3.734   4.998
  728SOL    HW1 3083   6.682   3.764   5.075
  728SOL    HW2 3084   6.678   3.702   4.924
  729SOL     OW 3085   1.044   1.800   0.316
  729SOL    HW1 3086   1.085   1.712   0.337
  729SOL    HW2 3087   0.960   1.787   0.264
  730SOL     OW 3088   5.698   1.621   2.461
  730SOL    HW1 3089   5.767   1.684   2.496
  730SOL    HW2 3090   5.641   1.667   2.393
  731SOL     OW 3091   5.736   4.341   5.818
  731SOL    HW1 3092   5.828   4.308   5.835
  731SOL    HW2 3093   5.710   4.322   5.723
  732SOL     OW 3094   0.641   3.024   0.937
  732SOL    HW1 3095   0.633   3.034   0.838
  732SOL    HW2 3096   0.574   3.083   0.982
  733SOL     OW 3097   5.665   5.743   5.404
  733SOL    HW1 3098   5.717   5.701   5.478
  733SOL    HW2 3099   5.570   5.756   5.434
  734SOL     OW 3100   6.785   4.219   2.569
  734SOL    HW1 3101   6.697   4.258   2.597
  734SOL    HW2 3102   6.835   4.187   2.649
  735SOL     OW 3103   3.927   2.759   0.325
  735SOL    HW1 3104   3.956   2.682   0.382
  735SOL    HW2 3105   3.832   2.782   0.346
  736SOL     OW 3106   0.680   0.073   2.780
  736SOL    HW1 3107   0.776   0.091   2.756
  736SOL    HW2 3108   0.635   0.024   2.706
  737SOL     OW 3109   4.945   2.240   6.012
  737SOL    HW1 3110   4.862   2.189   5.990
  737SOL    HW2 3111   5.017   2.219   5.946
  738SOL     OW 3112   1.931   3.968   2.371
  738SOL    HW1 3113   1.870   3.914   2.313
  738SOL    HW2 3114   2.026   3.945   2.351
  739SOL     OW 3115   4.155   0.176   4.663
  739SOL    HW1 3116   4.076   0.169   4.603
  739SOL    HW2 3117   4.238   0.153   4.612
  740SOL     OW 3118   4.741   0.424   0.828
  740SOL    HW1 3119   4.684   0.506   0.833
  740SOL    HW2 3120   4.837   0.452   0.814
  741SOL     OW 3121   2.199   6.446   3.409
  741SOL    HW1 3122   2.144   6.365   3.389
  741SOL    HW2 3123   2.184   6.515   3.339
  742SOL     OW 3124   2.052   6.536   1.530
  742SOL    HW1 3125   1.953   6.523   1.533
  742SOL    HW2 3126   2.095   6.458   1.486
  743SOL     OW 3127   0.132   4.385   4.509
  743SOL    HW1 3128   0.165   4.465   4.561
  743SOL    HW2 3129   0.109   4.312   4.573
  744SOL     OW 3130   5.516   0.247   6.539
  744SOL    HW1 3131   5.510   0.177   6.610
  744SOL    HW2 3132   5.448   0.318   6.556
  745SOL     OW 3133   1.236   5.134   4.688
  745SOL    HW1 3134   1.156   5.122   4.630
  745SOL    HW2 3135   1.247   5.230   4.711
  746SOL     OW 3136   0.646   5.182   6.066
  746SOL    HW1 3137   0.642   5.282   6.069
  746SOL    HW2 3138   0.567   5.147   6.015
  747SOL     OW 3139   3.849   6.673   4.894
  747SOL    HW1 3140   3.802   6.643   4.978
  747SOL    HW2 3141   3.943   6.696   4.916
  748SOL     OW 3142   3.473   5.038   2.326
  748SOL    HW1 3143   3.519   5.016   2.239
  748SOL    HW2 3144   3.374   5.033   2.314
  749SOL     OW 3145   6.509   4.572   5.109
  749SOL    HW1 3146   6.425   4.525   5.078
  749SOL    HW2 3147   6.538   4.532   5.196
  750SOL     OW 3148   2.321   2.405   1.014
  750SOL    HW1 3149   2.407   2.366   0.982
  750SOL    HW2 3150   2.297   2.484   0.957
  751SOL     OW 3151   4.246   2.409   6.642
  751SOL    HW1 3152   4.256   2.467   6.723
  751SOL    HW2 3153   4.300   2.326   6.653
  752SOL     OW 3154   3.550   1.430   2.391
  752SOL    HW1 3155   3.616   1.403   2.320
  752SOL    HW2 3156   3.530   1.351   2.449
  753SOL     OW 3157   1.873   3.302   4.401
  753SOL    HW1 3158   1.968   3.285   4.429
  753SOL    HW2 3159   1.871   3.379   4.337
  754SOL     OW 3160   5.412   3.062   5.822
  754SOL    HW1 3161   5.405   3.161   5.832
  754SOL    HW2 3162   5.383   3.018   5.908
  755SOL     OW 3163   1.746   4.761   5.814
  755SOL    HW1 3164   1.821   4.750   5.879
  755SOL    HW2 3165   1.778   4.813   5.735
  756SOL     OW 3166   3.636   0.271   1.345
  756SOL    HW1 3167   3.608   0.295   1.438
  756SOL    HW2 3168   3.694   0.344   1.308
  757SOL     OW 3169   0.891   6.777   3.585
  757SOL    HW1 3170   0.931   6.862   3.620
  757SOL    HW2 3171   0.888   6.709   3.659
  758SOL     OW 3172   3.994   0.473   2.276
  758SOL    HW1 3173   4.052   0.443   2.200
  758SOL    HW2 3174   3.990   0.573   2.277
  759SOL     OW 3175   0.806   1.171   0.892
  759SOL    HW1 3176   0.763   1.084   0.916
  759SOL    HW2 3177   0.815   1.177   0.792
  760SOL     OW 3178   5.320   0.311   5.598
  760SOL    HW1 3179   5.271   0.362   5.528
  760SOL    HW2 3180   5.254   0.262   5.655
  761SOL     OW 3181   5.556   3.058   5.602
  761SOL    HW1 3182   5.516   3.038   5.691
  761SOL    HW2 3183   5.509   3.006   5.532
  762SOL     OW 3184   2.441   0.671   4.684
  762SOL    HW1 3185   2.350   0.702   4.656
  762SOL    HW2 3186   2.500   0.750   4.702
  763SOL     OW 3187   3.988   4.479   6.758
  763SOL    HW1 3188   3.914   4.412   6.768
  763SOL    HW2 3189   4.014   4.486   6.662
  764SOL     OW 3190   4.584   1.250   4.149
  764SOL    HW1 3191   4.515   1.311   4.110
  764SOL    HW2 3192   4.672   1.268   4.106
  765SOL     OW 3193   1.289   6.237   1.304
  765SOL    HW1 3194   1.223   6.291   1.251
  765SOL    HW2 3195   1.336   6.173   1.243
  766SOL     OW 3196   2.125   4.158   6.629
  766SOL    HW1 3197   2.049   4.179   6.690
  766SOL    HW2 3198   2.146   4.060   6.636
  767SOL     OW 3199   5.995   6.169   2.393
  767SOL    HW1 3200   5.933   6.115   2.449
  767SOL    HW2 3201   5.952   6.256   2.368
  768SOL     OW 3202   1.823   6.390   1.482
  768SOL    HW1 3203   1.735   6.411   1.524
  768SOL    HW2 3204   1.819   6.299   1.441
  769SOL     OW 3205   3.015   0.259   4.480
  769SOL    HW1 3206   2.983   0.298   4.566
  769SOL    HW2 3207   3.108   0.292   4.461
  770SOL     OW 3208   2.142   3.561   2.752
  770SOL    HW1 3209   2.159   3.508   2.669
  770SOL    HW2 3210   2.205   3.531   2.824
  771SOL     OW 3211   2.117   5.448   2.420
  771SOL    HW1 3212   2.025   5.432   2.456
  771SOL    HW2 3213   2.159   5.524   2.469
  772SOL     OW 3214   5.540   5.039   0.744
  772SOL    HW1 3215   5.468   5.005   0.684
  772SOL    HW2 3216   5.526   5.136   0.763
  773SOL     OW 3217   0.338   3.771   4.314
  773SOL    HW1 3218   0.307   3.790   4.221
  773SOL    HW2 3219   0.337   3.856   4.368
  774SOL     OW 3220   1.658   1.817   1.319
  774SOL    HW1 3221   1.740   1.793   1.268
  774SOL    HW2 3222   1.587   1.748   1.304
  775SOL     OW 3223   0.561   2.572   2.324
  775SOL    HW1 3224   0.550   2.473   2.332
  775SOL    HW2 3225   0.590   2.595   2.231
  776SOL     OW 3226   0.918   6.829   5.852
  776SOL    HW1 3227   0.925   6.741   5.805
  776SOL    HW2 3228   0.934   6.903   5.786
  777SOL     OW 3229   3.245   5.021   1.252
  777SOL    HW1 3230   3.279   5.092   1.313
  777SOL    HW2 3231   3.320   4.959   1.228
  778SOL     OW 3232   3.089   0.904   3.169
  778SOL    HW1 3233   2.998   0.940   3.152
  778SOL    HW2 3234   3.157   0.972   3.141
  779SOL     OW 3235   0.594   2.417   2.622
  779SOL    HW1 3236   0.572   2.513   2.609
  779SOL    HW2 3237   0.547   2.383   2.704
  780SOL     OW 3238   5.900   3.823   3.540
  780SOL    HW1 3239   5.800   3.816   3.544
  780SOL    HW2 3240   5.926   3.901   3.484
  781SOL     OW 3241   5.513   0.780   7.015
  781SOL    HW1 3242   5.481   0.689   0.020
  781SOL    HW2 3243   5.436   0.844   7.019
  782SOL     OW 3244   1.661   4.075   6.960
  782SOL    HW1 3245   1.701   4.160   6.926
  782SOL    HW2 3246   1.571   4.094   7.000
  783SOL     OW 3247   3.808   4.845   1.025
  783SOL    HW1 3248   3.769   4.936   1.039
  783SOL    HW2 3249   3.771   4.806   0.940
  784SOL     OW 3250   5.417   6.497   0.336
  784SOL    HW1 3251   5.505   6.467   0.375
  784SOL    HW2 3252   5.432   6.579   0.281
  785SOL     OW 3253   0.289   2.813   2.523
  785SOL    HW1 3254   0.205   2.764   2.547
  785SOL    HW2 3255   0.363   2.784   2.584
  786SOL     OW 3256   1.228   1.022   1.092
  786SOL    HW1 3257   1.301   1.059   1.034
  786SOL    HW2 3258   1.250   0.928   1.118
  787SOL     OW 3259   3.252   0.484   6.504
  787SOL    HW1 3260   3.269   0.386   6.489
  787SOL    HW2 3261   3.172   0.512   6.451
  788SOL     OW 3262   3.466   3.074   5.257
  788SOL    HW1 3263   3.494   2.995   5.204
  788SOL    HW2 3264   3.428   3.043   5.345
  789SOL     OW 3265   5.986   4.125   0.928
  789SOL    HW1 3266   6.066   4.077   0.966
  789SOL    HW2 3267   5.955   4.194   0.993
  790SOL     OW 3268   2.005   1.260   4.384
  790SOL    HW1 3269   2.006   1.297   4.292
  790SOL    HW2 3270   2.061   1.178   4.388
  791SOL     OW 3271   3.669   5.245   3.614
  791SOL    HW1 3272   3.653   5.146   3.619
  791SOL    HW2 3273   3.581   5.293   3.615
  792SOL     OW 3274   0.444   0.379   1.529
  792SOL    HW1 3275   0.542   0.362   1.541
  792SOL    HW2 3276   0.425   0.393   1.432
  793SOL     OW 3277   5.046   5.480   4.181
  793SOL    HW1 3278   5.082   5.573   4.168
  793SOL    HW2 3279   4.972   5.464   4.115
  794SOL     OW 3280   3.239   3.670   5.288
  794SOL    HW1 3281   3.205   3.577   5.271
  794SOL    HW2 3282   3.295   3.699   5.210
  795SOL     OW 3283   3.499   6.240   4.551
  795SOL    HW1 3284   3.518   6.338   4.558
  795SOL    HW2 3285   3.406   6.222   4.583
  796SOL     OW 3286   1.058   1.833   6.019
  796SOL    HW1 3287   1.133   1.772   5.993
  796SOL    HW2 3288   0.990   1.782   6.072
  797SOL     OW 3289   5.058   2.603   1.582
  797SOL    HW1 3290   4.994   2.646   1.645
  797SOL    HW2 3291   5.151   2.627   1.607
  798SOL     OW 3292   4.570   0.294   2.106
  798SOL    HW1 3293   4.511   0.213   2.100
  798SOL    HW2 3294   4.635   0.282   2.181
  799SOL     OW 3295   6.213   0.959   5.636
  799SOL    HW1 3296   6.210   0.944   5.735
  799SOL    HW2 3297   6.129   1.003   5.606
  800SOL     OW 3298   5.306   2.211   2.949
  800SOL    HW1 3299   5.360   2.139   2.992
  800SOL    HW2 3300   5.348   2.236   2.861
  801SOL     OW 3301   1.865   3.502   4.205
  801SOL    HW1 3302   1.948   3.505   4.149
  801SOL    HW2 3303   1.795   3.561   4.164
  802SOL     OW 3304   4.527   0.817   0.531
  802SOL    HW1 3305   4.536   0.897   0.590
  802SOL    HW2 3306   4.475   0.841   0.449
  803SOL     OW 3307   6.834   6.702   5.280
  803SOL    HW1 3308   6.915   6.713   5.338
  803SOL    HW2 3309   6.858   6.725   5.185
  804SOL     OW 3310   5.496   5.609   6.582
  804SOL    HW1 3311   5.425   5.538   6.584
  804SOL    HW2 3312   5.490   5.665   6.664
  805SOL     OW 3313   3.256   1.238   5.602
  805SOL    HW1 3314   3.182   1.255   5.538
  805SOL    HW2 3315   3.336   1.293   5.577
  806SOL     OW 3316   5.485   1.065   3.816
  806SOL    HW1 3317   5.572   1.028   3.850
  806SOL    HW2 3318   5.410   1.005   3.843
  807SOL     OW 3319   0.434   2.201   4.864
  807SOL    HW1 3320   0.476   2.119   4.823
  807SOL    HW2 3321   0.363   2.236   4.803
  808SOL     OW 3322   4.538   3.238   6.150
  808SOL    HW1 3323   4.564   3.241   6.247
  808SOL    HW2 3324   4.455   3.184   6.139
  809SOL     OW 3325   0.041   5.558   2.065
  809SOL    HW1 3326   0.119   5.587   2.010
  809SOL    HW2 3327   0.028   5.460   2.056
  810SOL     OW 3328   3.242   3.052   0.891
  810SOL    HW1 3329   3.216   2.980   0.954
  810SOL    HW2 3330   3.324   3.025   0.841
  811SOL     OW 3331   4.183   5.463   4.979
  811SOL    HW1 3332   4.179   5.561   4.999
  811SOL    HW2 3333   4.136   5.445   4.893
  812SOL     OW 3334   0.583   1.676   1.684
  812SOL    HW1 3335   0.674   1.674   1.726
  812SOL    HW2 3336   0.587   1.635   1.594
  813SOL     OW 3337   3.286   5.916   5.332
  813SOL    HW1 3338   3.292   5.870   5.243
  813SOL    HW2 3339   3.297   6.015   5.318
  814SOL     OW 3340   5.665   6.442   2.803
  814SOL    HW1 3341   5.689   6.420   2.897
  814SOL    HW2 3342   5.587   6.386   2.775
  815SOL     OW 3343   0.441   4.369   3.223
  815SOL    HW1 3344   0.353   4.417   3.219
  815SOL    HW2 3345   0.453   4.315   3.140
  816SOL     OW 3346   6.323   6.871   0.274
  816SOL    HW1 3347   6.335   6.775   0.252
  816SOL    HW2 3348   6.388   6.926   0.221
  817SOL     OW 3349   2.130   3.504   1.632
  817SOL    HW1 3350   2.032   3.521   1.627
  817SOL    HW2 3351   2.156   3.478   1.725
  818SOL     OW 3352   6.160   2.602   1.570
  818SOL    HW1 3353   6.106   2.627   1.490
  818SOL    HW2 3354   6.193   2.508   1.560
  819SOL     OW 3355   5.567   2.932   2.817
  819SOL    HW1 3356   5.556   2.966   2.723
  819SOL    HW2 3357   5.515   2.847   2.828
  820SOL     OW 3358   2.975   3.113   5.718
  820SOL    HW1 3359   2.968   3.015   5.699
  820SOL    HW2 3360   2.901   3.161   5.671
  821SOL     OW 3361   1.642   3.980   0.543
  821SOL    HW1 3362   1.668   3.987   0.447
  821SOL    HW2 3363   1.715   3.934   0.594
  822SOL     OW 3364   1.967   4.201   4.711
  822SOL    HW1 3365   2.057   4.155   4.711
  822SOL    HW2 3366   1.971   4.283   4.767
  823SOL     OW 3367   5.000   4.056   6.533
  823SOL    HW1 3368   5.075   4.061   6.599
  823SOL    HW2 3369   4.923   4.006   6.574
  824SOL     OW 3370   5.688   1.235   4.994
  824SOL    HW1 3371   5.752   1.308   4.971
  824SOL    HW2 3372   5.604   1.274   5.031
  825SOL     OW 3373   1.508   4.229   1.240
  825SOL    HW1 3374   1.519   4.228   1.140
  825SOL    HW2 3375   1.436   4.164   1.266
  826SOL     OW 3376   5.038   3.002   5.757
  826SOL    HW1 3377   5.100   3.059   5.702
  826SOL    HW2 3378   5.090   2.925   5.796
  827SOL     OW 3379   3.452   4.116   5.894
  827SOL    HW1 3380   3.491   4.202   5.861
  827SOL    HW2 3381   3.446   4.118   5.994
  828SOL     OW 3382   5.321   6.450   6.020
  828SOL    HW1 3383   5.270   6.430   5.937
  828SOL    HW2 3384   5.416   6.473   5.997
  829SOL     OW 3385   3.022   3.231   3.511
  829SOL    HW1 3386   2.994   3.310   3.565
  829SOL    HW2 3387   3.017   3.148   3.568
  830SOL     OW 3388   4.789   4.577   6.933
  830SOL    HW1 3389   4.836   4.628   6.861
  830SOL    HW2 3390   4.842   4.494   6.955
  831SOL     OW 3391   5.421   0.953   6.708
  831SOL    HW1 3392   5.394   0.939   6.804
  831SOL    HW2 3393   5.521   0.952   6.702
  832SOL     OW 3394   2.863   0.525   1.741
  832SOL    HW1 3395   2.888   0.599   1.803
  832SOL    HW2 3396   2.877   0.437   1.787
  833SOL     OW 3397   0.470   3.940   5.943
  833SOL    HW1 3398   0.526   3.922   5.862
  833SOL    HW2 3399   0.469   4.038   5.961
  834SOL     OW 3400   3.018   3.814   0.939
  834SOL    HW1 3401   3.049   3.746   0.872
  834SOL    HW2 3402   2.920   3.830   0.926
  835SOL     OW 3403   3.373   0.365   4.681
  835SOL    HW1 3404   3.311   0.410   4.744
  835SOL    HW2 3405   3.338   0.374   4.587
  836SOL     OW 3406   3.959   6.681   6.667
  836SOL    HW1 3407   3.982   6.709   6.760
  836SOL    HW2 3408   3.876   6.625   6.668
  837SOL     OW 3409   5.715   6.611   0.367
  837SOL    HW1 3410   5.744   6.602   0.272
  837SOL    HW2 3411   5.735   6.527   0.417
  838SOL     OW 3412   1.940   0.398   4.642
  838SOL    HW1 3413   2.023   0.344   4.656
  838SOL    HW2 3414   1.865   0.337   4.615
  839SOL     OW 3415   2.689   2.296   2.231
  839SOL    HW1 3416   2.633   2.371   2.195
  839SOL    HW2 3417   2.778   2.295   2.186
  840SOL     OW 3418   6.117   7.008   6.680
  840SOL    HW1 3419   6.148   6.986   6.772
  840SOL    HW2 3420   6.024   0.022   6.684
  841SOL     OW 3421   4.620   4.891   0.101
  841SOL    HW1 3422   4.551   4.890   0.173
  841SOL    HW2 3423   4.575   4.900   0.012
  842SOL     OW 3424   3.957   6.261   5.015
  842SOL    HW1 3425   4.014   6.320   4.958
  842SOL    HW2 3426   3.861   6.270   4.989
  843SOL     OW 3427   2.085   1.806   0.380
  843SOL    HW1 3428   2.162   1.749   0.411
  843SOL    HW2 3429   2.114   1.859   0.301
  844SOL     OW 3430   5.958   0.583   1.072
  844SOL    HW1 3431   5.982   0.663   1.126
  844SOL    HW2 3432   6.014   0.505   1.099
  845SOL     OW 3433   5.797   4.515   5.267
  845SOL    HW1 3434   5.751   4.426   5.271
  845SOL    HW2 3435   5.789   4.561   5.355
  846SOL     OW 3436   2.343   1.588   0.261
  846SOL    HW1 3437   2.408   1.513   0.247
  846SOL    HW2 3438   2.324   1.633   0.173
  847SOL     OW 3439   1.432   3.593   0.926
  847SOL    HW1 3440   1.507   3.534   0.895
  847SOL    HW2 3441   1.374   3.616   0.848
  848SOL     OW 3442   5.720   0.631   6.582
  848SOL    HW1 3443   5.666   0.572   6.642
  848SOL    HW2 3444   5.691   0.726   6.592
  849SOL     OW 3445   0.590   5.020   5.781
  849SOL    HW1 3446   0.562   5.028   5.685
  849SOL    HW2 3447   0.512   5.040   5.840
  850SOL     OW 3448   5.736   1.420   3.941
  850SOL    HW1 3449   5.792   1.337   3.937
  850SOL    HW2 3450   5.640   1.394   3.947
  851SOL     OW 3451   0.663   1.571   2.136
  851SOL    HW1 3452   0.666   1.494   2.072
  851SOL    HW2 3453   0.697   1.654   2.090
  852SOL     OW 3454   1.278   2.372   0.322
  852SOL    HW1 3455   1.350   2.333   0.379
  852SOL    HW2 3456   1.280   2.331   0.231
  853SOL     OW 3457   1.930   4.240   2.348
  853SOL    HW1 3458   1.888   4.150   2.356
  853SOL    HW2 3459   1.869   4.301   2.298
  854SOL     OW 3460   4.440   6.264   1.935
  854SOL    HW1 3461   4.426   6.185   1.875
  854SOL    HW2 3462   4.390   6.343   1.899
  855SOL     OW 3463   0.360   0.430   1.279
  855SOL    HW1 3464   0.324   0.516   1.317
  855SOL    HW2 3465   0.427   0.451   1.208
  856SOL     OW 3466   1.290   1.848   4.915
  856SOL    HW1 3467   1.267   1.756   4.883
  856SOL    HW2 3468   1.206   1.899   4.935
  857SOL     OW 3469   6.336   4.413   2.440
  857SOL    HW1 3470   6.242   4.436   2.467
  857SOL    HW2 3471   6.368   4.480   2.373
  858SOL     OW 3472   2.665   3.854   1.261
  858SOL    HW1 3473   2.692   3.764   1.293
  858SOL    HW2 3474   2.565   3.860   1.257
  859SOL     OW 3475   4.967   5.795   6.483
  859SOL    HW1 3476   4.946   5.871   6.421
  859SOL    HW2 3477   4.960   5.709   6.433
  860SOL     OW 3478   4.371   3.890   0.575
  860SOL    HW1 3479   4.286   3.943   0.582
  860SOL    HW2 3480   4.359   3.818   0.506
  861SOL     OW 3481   2.635   0.249   4.257
  861SOL    HW1 3482   2.597   0.328   4.305
  861SOL    HW2 3483   2.620   0.260   4.159
  862SOL     OW 3484   0.533   4.189   5.951
  862SOL    HW1 3485   0.538   4.284   5.981
  862SOL    HW2 3486   0.541   4.185   5.852
  863SOL     OW 3487   0.385   6.904   0.172
  863SOL    HW1 3488   0.385   6.928   0.269
  863SOL    HW2 3489   0.313   6.955   0.124
  864SOL     OW 3490   4.257   5.078   3.859
  864SOL    HW1 3491   4.335   5.113   3.807
  864SOL    HW2 3492   4.289   5.034   3.942
  865SOL     OW 3493   1.562   6.444   6.219
  865SOL    HW1 3494   1.513   6.358   6.205
  865SOL    HW2 3495   1.616   6.439   6.303
  866SOL     OW 3496   1.844   2.141   1.923
  866SOL    HW1 3497   1.818   2.101   1.836
  866SOL    HW2 3498   1.927   2.196   1.912
  867SOL     OW 3499   3.878   3.003   0.579
  867SOL    HW1 3500   3.831   2.954   0.506
  867SOL    HW2 3501   3.885   2.944   0.660
  868SOL     OW 3502   5.995   7.021   1.040
  868SOL    HW1 3503   5.943   0.084   1.038
  868SOL    HW2 3504   6.093   0.018   1.044
  869SOL     OW 3505   6.749   5.626   3.113
  869SOL    HW1 3506   6.653   5.598   3.124
  869SOL    HW2 3507   6.760   5.671   3.025
  870SOL     OW 3508   5.208   3.389   0.785
  870SOL    HW1 3509   5.112   3.369   0.807
  870SOL    HW2 3510   5.227   3.485   0.805
  871SOL     OW 3511   5.055   4.007   3.178
  871SOL    HW1 3512   5.086   3.923   3.222
  871SOL    HW2 3513   4.962   3.993   3.143
  872SOL     OW 3514   5.958   4.332   3.839
  872SOL    HW1 3515   5.972   4.390   3.919
  872SOL    HW2 3516   5.865   4.296   3.840
  873SOL     OW 3517   5.785   6.628   4.103
  873SOL    HW1 3518   5.839   6.645   4.021
  873SOL    HW2 3519   5.728   6.707   4.122
  874SOL     OW 3520   1.082   4.721   5.524
  874SOL    HW1 3521   1.120   4.640   5.479
  874SOL    HW2 3522   1.050   4.695   5.615
  875SOL     OW 3523   3.698   2.885   0.405
  875SOL    HW1 3524   3.666   2.963   0.351
  875SOL    HW2 3525   3.618   2.833   0.437
  876SOL     OW 3526   0.341   5.647   3.250
  876SOL    HW1 3527   0.375   5.740   3.234
  876SOL    HW2 3528   0.339   5.629   3.348
  877SOL     OW 3529   3.892   3.699   0.429
  877SOL    HW1 3530   3.862   3.724   0.337
  877SOL    HW2 3531   3.984   3.660   0.424
  878SOL     OW 3532   4.423   6.017   5.447
  878SOL    HW1 3533   4.427   6.105   5.494
  878SOL    HW2 3534   4.437   5.943   5.512
  879SOL     OW 3535   3.070   2.163   1.872
  879SOL    HW1 3536   3.021   2.133   1.790
  879SOL    HW2 3537   3.007   2.212   1.932
  880SOL     OW 3538   3.046   3.902   5.666
  880SOL    HW1 3539   3.002   3.937   5.748
  880SOL    HW2 3540   3.012   3.951   5.586
  881SOL     OW 3541   4.487   4.545   5.381
  881SOL    HW1 3542   4.536   4.462   5.353
  881SOL    HW2 3543   4.467   4.540   5.479
  882SOL     OW 3544   1.312   1.466   4.290
  882SOL    HW1 3545   1.228   1.416   4.268
  882SOL    HW2 3546   1.305   1.560   4.255
  883SOL     OW 3547   4.447   5.269   6.369
  883SOL    HW1 3548   4.531   5.216   6.375
  883SOL    HW2 3549   4.444   5.336   6.443
  884SOL     OW 3550   0.161   3.540   0.486
  884SOL    HW1 3551   0.154   3.572   0.392
  884SOL    HW2 3552   0.096   3.466   0.501
  885SOL     OW 3553   5.197   6.408   6.997
  885SOL    HW1 3554   5.292   6.398   0.002
  885SOL    HW2 3555   5.161   6.319   6.969
  886SOL     OW 3556   3.292   0.208   0.472
  886SOL    HW1 3557   3.358   0.282   0.483
  886SOL    HW2 3558   3.268   0.172   0.562
  887SOL     OW 3559   4.294   0.242   4.261
  887SOL    HW1 3560   4.310   0.193   4.175
  887SOL    HW2 3561   4.324   0.336   4.251
  888SOL     OW 3562   5.928   6.256   3.320
  888SOL    HW1 3563   5.884   6.180   3.272
  888SOL    HW2 3564   5.932   6.235   3.418
  889SOL     OW 3565   1.320   6.313   5.436
  889SOL    HW1 3566   1.231   6.300   5.480
  889SOL    HW2 3567   1.322   6.401   5.390
  890SOL     OW 3568   2.090   4.959   1.974
  890SOL    HW1 3569   2.118   4.973   2.069
  890SOL    HW2 3570   2.129   5.031   1.917
  891SOL     OW 3571   6.744   4.133   1.701
  891SOL    HW1 3572   6.791   4.045   1.698
  891SOL    HW2 3573   6.647   4.119   1.720
  892SOL     OW 3574   4.346   3.722   6.970
  892SOL    HW1 3575   4.286   3.659   6.919
  892SOL    HW2 3576   4.441   3.704   6.945
  893SOL     OW 3577   2.190   0.891   2.446
  893SOL    HW1 3578   2.209   0.908   2.349
  893SOL    HW2 3579   2.240   0.957   2.502
  894SOL     OW 3580   1.087   2.750   4.234
  894SOL    HW1 3581   1.119   2.770   4.327
  894SOL    HW2 3582   1.148   2.792   4.168
  895SOL     OW 3583   1.307   5.384   4.725
  895SOL    HW1 3584   1.274   5.466   4.772
  895SOL    HW2 3585   1.377   5.409   4.659
  896SOL     OW 3586   5.120   0.035   2.259
  896SOL    HW1 3587   5.199   0.002   2.206
  896SOL    HW2 3588   5.093   6.987   2.324
  897SOL     OW 3589   5.701   0.864   0.177
  897SOL    HW1 3590   5.637   0.825   0.111
  897SOL    HW2 3591   5.779   0.904   0.129
  898SOL     OW 3592   4.451   5.686   2.841
  898SOL    HW1 3593   4.435   5.696   2.939
  898SOL    HW2 3594   4.365   5.665   2.795
  899SOL     OW 3595   6.961   4.729   0.039
  899SOL    HW1 3596   6.894   4.802   0.028
  899SOL    HW2 3597   0.028   4.768   0.057
  900SOL     OW 3598   5.105   6.271   1.861
  900SOL    HW1 3599   5.027   6.331   1.877
  900SOL    HW2 3600   5.183   6.325   1.831
  901SOL     OW 3601   0.889   1.056   5.423
  901SOL    HW1 3602   0.865   1.101   5.509
  901SOL    HW2 3603   0.809   1.008   5.387
  902SOL     OW 3604   0.469   2.439   6.171
  902SOL    HW1 3605   0.435   2.399   6.256
  902SOL    HW2 3606   0.540   2.507   6.193
  903SOL     OW 3607   6.771   3.977   6.154
  903SOL    HW1 3608   6.774   3.881   6.126
  903SOL    HW2 3609   6.688   3.993   6.207
  904SOL     OW 3610   1.389   2.383   3.777
  904SOL    HW1 3611   1.370   2.340   3.689
  904SOL    HW2 3612   1.452   2.459   3.765
  905SOL     OW 3613   4.106   3.235   6.154
  905SOL    HW1 3614   4.139   3.265   6.064
  905SOL    HW2 3615   4.103   3.135   6.157
  906SOL     OW 3616   0.732   3.867   5.575
  906SOL    HW1 3617   0.695   3.788   5.625
  906SOL    HW2 3618   0.660   3.909   5.520
  907SOL     OW 3619   5.368   3.248   3.318
  907SOL    HW1 3620   5.463   3.220   3.305
  907SOL    HW2 3621   5.310   3.201   3.251
  908SOL     OW 3622   1.819   6.355   3.534
  908SOL    HW1 3623   1.875   6.409   3.597
  908SOL    HW2 3624   1.733   6.405   3.516
  909SOL     OW 3625   2.253   6.606   1.674
  909SOL    HW1 3626   2.165   6.586   1.632
  909SOL    HW2 3627   2.271   6.704   1.668
  910SOL     OW 3628   2.434   0.442   0.796
  910SOL    HW1 3629   2.479   0.403   0.876
  910SOL    HW2 3630   2.338   0.414   0.794
  911SOL     OW 3631   0.079   5.590   0.943
  911SOL    HW1 3632   0.039   5.661   1.000
  911SOL    HW2 3633   0.102   5.510   1.000
  912SOL     OW 3634   6.519   0.972   4.679
  912SOL    HW1 3635   6.456   1.020   4.618
  912SOL    HW2 3636   6.472   0.894   4.721
  913SOL     OW 3637   2.301   0.314   3.060
  913SOL    HW1 3638   2.370   0.242   3.053
  913SOL    HW2 3639   2.342   0.396   3.100
  914SOL     OW 3640   2.674   5.725   5.110
  914SOL    HW1 3641   2.692   5.782   5.030
  914SOL    HW2 3642   2.620   5.645   5.084
  915SOL     OW 3643   1.489   3.230   0.334
  915SOL    HW1 3644   1.577   3.243   0.380
  915SOL    HW2 3645   1.480   3.298   0.261
  916SOL     OW 3646   1.597   2.794   1.966
  916SOL    HW1 3647   1.519   2.791   2.028
  916SOL    HW2 3648   1.578   2.737   1.886
  917SOL     OW 3649   5.293   0.619   1.467
  917SOL    HW1 3650   5.234   0.601   1.388
  917SOL    HW2 3651   5.381   0.573   1.454
  918SOL     OW 3652   2.539   6.149   6.733
  918SOL    HW1 3653   2.556   6.099   6.817
  918SOL    HW2 3654   2.626   6.174   6.690
  919SOL     OW 3655   6.431   5.830   2.350
  919SOL    HW1 3656   6.504   5.895   2.368
  919SOL    HW2 3657   6.423   5.815   2.252
  920SOL     OW 3658   1.569   6.518   3.185
  920SOL    HW1 3659   1.606   6.586   3.249
  920SOL    HW2 3660   1.598   6.427   3.212
  921SOL     OW 3661   4.470   4.634   3.956
  921SOL    HW1 3662   4.456   4.590   4.045
  921SOL    HW2 3663   4.446   4.569   3.884
  922SOL     OW 3664   3.362   2.636   6.319
  922SOL    HW1 3665   3.427   2.691   6.266
  922SOL    HW2 3666   3.273   2.682   6.321
  923SOL     OW 3667   2.845   4.707   6.410
  923SOL    HW1 3668   2.915   4.705   6.481
  923SOL    HW2 3669   2.880   4.663   6.327
  924SOL     OW 3670   6.062   2.931   1.928
  924SOL    HW1 3671   6.037   2.965   1.837
  924SOL    HW2 3672   6.072   2.832   1.924
  925SOL     OW 3673   6.878   1.726   5.610
  925SOL    HW1 3674   6.928   1.690   5.532
  925SOL    HW2 3675   6.919   1.692   5.695
  926SOL     OW 3676   6.316   0.913   7.002
  926SOL    HW1 3677   6.229   0.954   6.975
  926SOL    HW2 3678   6.390   0.959   6.953
  927SOL     OW 3679   5.192   4.603   3.835
  927SOL    HW1 3680   5.235   4.517   3.810
  927SOL    HW2 3681   5.262   4.670   3.860
  928SOL     OW 3682   2.008   0.282   0.421
  928SOL    HW1 3683   2.024   0.225   0.341
  928SOL    HW2 3684   2.095   0.300   0.467
  929SOL     OW 3685   0.446   1.460   0.498
  929SOL    HW1 3686   0.389   1.538   0.525
  929SOL    HW2 3687   0.451   1.455   0.399
  930SOL     OW 3688   5.526   5.774   4.918
  930SOL    HW1 3689   5.549   5.866   4.886
  930SOL    HW2 3690   5.587   5.747   4.992
  931SOL     OW 3691   5.874   3.764   3.143
  931SOL    HW1 3692   5.811   3.790   3.070
  931SOL    HW2 3693   5.889   3.842   3.203
  932SOL     OW 3694   2.599   6.849   2.282
  932SOL    HW1 3695   2.639   6.833   2.191
  932SOL    HW2 3696   2.597   6.764   2.333
  933SOL     OW 3697   0.499   5.925   2.631
  933SOL    HW1 3698   0.537   5.912   2.723
  933SOL    HW2 3699   0.468   6.019   2.621
  934SOL     OW 3700   1.632   0.790   4.574
  934SOL    HW1 3701   1.656   0.882   4.541
  934SOL    HW2 3702   1.544   0.793   4.621
  935SOL     OW 3703   5.023   3.517   5.464
  935SOL    HW1 3704   5.045   3.584   5.536
  935SOL    HW2 3705   5.033   3.560   5.375
  936SOL     OW 3706   1.623   0.809   6.323
  936SOL    HW1 3707   1.541   0.862   6.303
  936SOL    HW2 3708   1.702   0.852   6.279
  937SOL     OW 3709   4.534   1.870   4.890
  937SOL    HW1 3710   4.464   1.922   4.939
  937SOL    HW2 3711   4.624   1.892   4.928
  938SOL     OW 3712   0.354   5.253   6.561
  938SOL    HW1 3713   0.390   5.346   6.558
  938SOL    HW2 3714   0.384   5.203   6.480
  939SOL     OW 3715   4.627   1.625   4.774
  939SOL    HW1 3716   4.583   1.692   4.834
  939SOL    HW2 3717   4.694   1.573   4.826
  940SOL     OW 3718   0.380   3.220   2.516
  940SOL    HW1 3719   0.468   3.267   2.511
  940SOL    HW2 3720   0.339   3.235   2.606
  941SOL     OW 3721   6.629   0.525   4.133
  941SOL    HW1 3722   6.546   0.474   4.155
  941SOL    HW2 3723   6.626   0.614   4.179
  942SOL     OW 3724   4.968   0.856   4.078
  942SOL    HW1 3725   4.977   0.774   4.022
  942SOL    HW2 3726   4.912   0.924   4.030
  943SOL     OW 3727   1.033   3.139   3.988
  943SOL    HW1 3728   0.983   3.217   3.951
  943SOL    HW2 3729   1.013   3.130   4.085
  944SOL     OW 3730   6.393   3.655   6.172
  944SOL    HW1 3731   6.450   3.581   6.137
  944SOL    HW2 3732   6.297   3.629   6.165
  945SOL     OW 3733   6.524   4.090   5.907
  945SOL    HW1 3734   6.616   4.110   5.940
  945SOL    HW2 3735   6.507   4.142   5.824
  946SOL     OW 3736   4.758   2.460   5.975
  946SOL    HW1 3737   4.827   2.390   5.955
  946SOL    HW2 3738   4.802   2.538   6.021
  947SOL     OW 3739   3.196   3.009   4.494
  947SOL    HW1 3740   3.150   3.042   4.577
  947SOL    HW2 3741   3.291   3.039   4.495
  948SOL     OW 3742   4.219   0.358   0.629
  948SOL    HW1 3743   4.296   0.397   0.579
  948SOL    HW2 3744   4.141   0.421   0.625
  949SOL     OW 3745   0.080   6.182   6.289
  949SOL    HW1 3746   0.042   6.244   6.221
  949SOL    HW2 3747   0.113   6.099   6.244
  950SOL     OW 3748   4.055   4.983   1.705
  950SOL    HW1 3749   4.011   4.919   1.642
  950SOL    HW2 3750   4.151   4.959   1.715
  951SOL     OW 3751   1.380   0.971   2.686
  951SOL    HW1 3752   1.332   1.045   2.639
  951SOL    HW2 3753   1.325   0.887   2.680
  952SOL     OW 3754   5.513   1.748   2.280
  952SOL    HW1 3755   5.517   1.671   2.217
  952SOL    HW2 3756   5.455   1.820   2.242
  953SOL     OW 3757   5.137   6.306   4.999
  953SOL    HW1 3758   5.151   6.404   4.980
  953SOL    HW2 3759   5.179   6.252   4.927
  954SOL     OW 3760   4.912   5.850   0.512
  954SOL    HW1 3761   4.974   5.786   0.466
  954SOL    HW2 3762   4.879   5.918   0.446
  955SOL     OW 3763   6.955   4.786   3.643
  955SOL    HW1 3764   6.911   4.876   3.648
  955SOL    HW2 3765   0.000   4.778   3.715
  956SOL     OW 3766   0.653   2.026   2.414
  956SOL    HW1 3767   0.668   1.983   2.503
  956SOL    HW2 3768   0.609   1.962   2.352
  957SOL     OW 3769   0.871   4.945   4.674
  957SOL    HW1 3770   0.893   4.954   4.771
  957SOL    HW2 3771   0.915   4.863   4.636
  958SOL     OW 3772   4.626   2.510   2.303
  958SOL    HW1 3773   4.548   2.570   2.320
  958SOL    HW2 3774   4.621   2.431   2.364
  959SOL     OW 3775   2.665   4.691   3.175
  959SOL    HW1 3776   2.746   4.634   3.180
  959SOL    HW2 3777   2.608   4.675   3.256
  960SOL     OW 3778   6.870   5.906   3.739
  960SOL    HW1 3779   6.834   5.813   3.746
  960SOL    HW2 3780   6.888   5.928   3.643
  961SOL     OW 3781   4.912   0.145   3.216
  961SOL    HW1 3782   4.856   0.104   3.145
  961SOL    HW2 3783   4.900   0.095   3.302
  962SOL     OW 3784   1.555   1.126   4.030
  962SOL    HW1 3785   1.467   1.168   4.008
  962SOL    HW2 3786   1.610   1.191   4.084
  963SOL     OW 3787   6.297   1.517   6.116
  963SOL    HW1 3788   6.235   1.566   6.055
  963SOL    HW2 3789   6.367   1.579   6.150
  964SOL     OW 3790   6.247   4.018   1.029
  964SOL    HW1 3791   6.291   3.955   0.965
  964SOL    HW2 3792   6.315   4.082   1.064
  965SOL     OW 3793   5.435   1.776   1.002
  965SOL    HW1 3794   5.406   1.680   1.006
  965SOL    HW2 3795   5.364   1.834   1.043
  966SOL     OW 3796   5.966   2.083   2.416
  966SOL    HW1 3797   5.898   2.019   2.381
  966SOL    HW2 3798   5.951   2.173   2.375
  967SOL     OW 3799   2.752   4.942   1.422
  967SOL    HW1 3800   2.695   5.023   1.411
  967SOL    HW2 3801   2.714   4.867   1.366
  968SOL     OW 3802   4.325   2.266   2.686
  968SOL    HW1 3803   4.251   2.276   2.620
  968SOL    HW2 3804   4.395   2.335   2.668
  969SOL     OW 3805   3.797   6.049   6.568
  969SOL    HW1 3806   3.825   6.070   6.662
  969SOL    HW2 3807   3.878   6.043   6.510
  970SOL     OW 3808   4.645   1.223   4.708
  970SOL    HW1 3809   4.555   1.249   4.674
  970SOL    HW2 3810   4.685   1.299   4.759
  971SOL     OW 3811   0.275   1.982   2.761
  971SOL    HW1 3812   0.184   2.009   2.730
  971SOL    HW2 3813   0.320   1.929   2.690
  972SOL     OW 3814   5.541   4.220   1.462
  972SOL    HW1 3815   5.533   4.129   1.505
  972SOL    HW2 3816   5.473   4.228   1.389
  973SOL     OW 3817   6.959   4.283   0.114
  973SOL    HW1 3818   7.020   4.236   0.050
  973SOL    HW2 3819   7.002   4.287   0.204
  974SOL     OW 3820   5.163   0.310   2.294
  974SOL    HW1 3821   5.170   0.337   2.390
  974SOL    HW2 3822   5.146   0.212   2.288
  975SOL     OW 3823   1.635   6.109   6.252
  975SOL    HW1 3824   1.662   6.193   6.299
  975SOL    HW2 3825   1.637   6.123   6.153
  976SOL     OW 3826   6.592   3.119   2.367
  976SOL    HW1 3827   6.513   3.059   2.384
  976SOL    HW2 3828   6.650   3.122   2.448
  977SOL     OW 3829   1.686   0.588   3.730
  977SOL    HW1 3830   1.688   0.688   3.729
  977SOL    HW2 3831   1.766   0.552   3.683
  978SOL     OW 3832   4.385   4.340   5.576
  978SOL    HW1 3833   4.403   4.258   5.631
  978SOL    HW2 3834   4.408   4.322   5.481
  979SOL     OW 3835   6.822   1.714   1.317
  979SOL    HW1 3836   6.762   1.751   1.247
  979SOL    HW2 3837   6.899   1.666   1.274
  980SOL     OW 3838   3.889   2.182   3.956
  980SOL    HW1 3839   3.830   2.101   3.952
  980SOL    HW2 3840   3.925   2.202   3.865
  981SOL     OW 3841   1.716   1.619   5.037
  981SOL    HW1 3842   1.790   1.586   4.978
  981SOL    HW2 3843   1.753   1.685   5.103
  982SOL     OW 3844   2.981   1.774   3.029
  982SOL    HW1 3845   3.074   1.794   3.058
  982SOL    HW2 3846   2.922   1.852   3.048
  983SOL     OW 3847   5.527   2.221   3.745
  983SOL    HW1 3848   5.587   2.157   3.698
  983SOL    HW2 3849   5.466   2.264   3.679
  984SOL     OW 3850   2.955   1.095   3.892
  984SOL    HW1 3851   2.966   1.192   3.915
  984SOL    HW2 3852   3.038   1.045   3.916
  985SOL     OW 3853   4.831   4.789   6.307
  985SOL    HW1 3854   4.747   4.769   6.258
  985SOL    HW2 3855   4.908   4.744   6.262
  986SOL     OW 3856   5.265   4.328   0.497
  986SOL    HW1 3857   5.205   4.257   0.462
  986SOL    HW2 3858   5.360   4.306   0.473
  987SOL     OW 3859   4.712   6.845   1.820
  987SOL    HW1 3860   4.703   6.904   1.901
  987SOL    HW2 3861   4.680   6.895   1.739
  988SOL     OW 3862   3.766   2.906   2.483
  988SOL    HW1 3863   3.717   2.848   2.549
  988SOL    HW2 3864   3.701   2.945   2.418
  989SOL     OW 3865   6.219   1.301   5.640
  989SOL    HW1 3866   6.280   1.347   5.706
  989SOL    HW2 3867   6.172   1.226   5.686
  990SOL     OW 3868   4.213   1.251   2.091
  990SOL    HW1 3869   4.244   1.160   2.064
  990SOL    HW2 3870   4.120   1.267   2.056
  991SOL     OW 3871   1.569   2.578   5.508
  991SOL    HW1 3872   1.558   2.548   5.413
  991SOL    HW2 3873   1.483   2.564   5.557
  992SOL     OW 3874   0.631   3.043   1.770
  992SOL    HW1 3875   0.626   3.139   1.798
  992SOL    HW2 3876   0.654   2.986   1.849
  993SOL     OW 3877   1.185   4.762   1.728
  993SOL    HW1 3878   1.166   4.721   1.817
  993SOL    HW2 3879   1.186   4.690   1.658
  994SOL     OW 3880   2.975   3.842   2.712
  994SOL    HW1 3881   3.063   3.850   2.666
  994SOL    HW2 3882   2.901   3.853   2.646
  995SOL     OW 3883   3.639   2.411   6.385
  995SOL    HW1 3884   3.626   2.434   6.288
  995SOL    HW2 3885   3.718   2.351   6.395
  996SOL     OW 3886   1.835   4.769   4.258
  996SOL    HW1 3887   1.840   4.672   4.234
  996SOL    HW2 3888   1.831   4.779   4.357
  997SOL     OW 3889   0.451   0.664   2.762
  997SOL    HW1 3890   0.450   0.685   2.860
  997SOL    HW2 3891   0.500   0.578   2.747
  998SOL     OW 3892   4.102   6.393   4.220
  998SOL    HW1 3893   4.007   6.404   4.248
  998SOL    HW2 3894   4.160   6.457   4.271
  999SOL     OW 3895   5.364   4.838   2.039
  999SOL    HW1 3896   5.309   4.874   2.115
  999SOL    HW2 3897   5.315   4.763   1.995
 1000SOL     OW 3898   1.035   0.737   1.589
 1000SOL    HW1 3899   1.090   0.797   1.530
 1000SOL    HW2 3900   0.938   0.748   1.568
 1001SOL     OW 3901   5.642   0.225   0.884
 1001SOL    HW1 3902   5.589   0.294   0.834
 1001SOL    HW2 3903   5.716   0.192   0.826
 1002SOL     OW 3904   6.567   2.221   6.922
 1002SOL    HW1 3905   6.618   2.278   6.986
 1002SOL    HW2 3906   6.483   2.189   6.967
 1003SOL     OW 3907   2.305   6.343   1.701
 1003SOL    HW1 3908   2.214   6.304   1.719
 1003SOL    HW2 3909   2.298   6.442   1.692
 1004SOL     OW 3910   0.235   0.109   1.561
 1004SOL    HW1 3911   0.236   0.168   1.480
 1004SOL    HW2 3912   0.226   0.014   1.532
 1005SOL     OW 3913   0.651   1.624   2.992
 1005SOL    HW1 3914   0.690   1.714   2.973
 1005SOL    HW2 3915   0.552   1.626   2.974
 1006SOL     OW 3916   1.792   5.028   0.796
 1006SOL    HW1 3917   1.721   5.083   0.842
 1006SOL    HW2 3918   1.821   4.954   0.857
 1007SOL     OW 3919   5.555   6.879   4.138
 1007SOL    HW1 3920   5.636   6.921   4.097
 1007SOL    HW2 3921   5.476   6.939   4.126
 1008SOL     OW 3922   2.178   3.195   5.101
 1008SOL    HW1 3923   2.187   3.249   5.185
 1008SOL    HW2 3924   2.261   3.140   5.088
 1009SOL     OW 3925   0.053   6.111   4.606
 1009SOL    HW1 3926   0.092   6.203   4.599
 1009SOL    HW2 3927   0.048   6.084   4.702
 1010SOL     OW 3928   3.785   2.259   6.028
 1010SOL    HW1 3929   3.814   2.247   6.123
 1010SOL    HW2 3930   3.706   2.201   6.009
 1011SOL     OW 3931   2.632   5.138   2.276
 1011SOL    HW1 3932   2.553   5.077   2.269
 1011SOL    HW2 3933   2.630   5.185   2.365
 1012SOL     OW 3934   6.341   0.143   0.657
 1012SOL    HW1 3935   6.380   0.196   0.581
 1012SOL    HW2 3936   6.407   0.138   0.732
 1013SOL     OW 3937   0.856   1.511   6.032
 1013SOL    HW1 3938   0.850   1.561   5.945
 1013SOL    HW2 3939   0.952   1.492   6.052
 1014SOL     OW 3940   4.791   6.040   6.990
 1014SOL    HW1 3941   4.867   6.103   6.976
 1014SOL    HW2 3942   4.708   6.092   7.014
 1015SOL     OW 3943   2.306   6.574   5.246
 1015SOL    HW1 3944   2.222   6.535   5.284
 1015SOL    HW2 3945   2.321   6.536   5.155
 1016SOL     OW 3946   3.689   3.516   0.088
 1016SOL    HW1 3947   3.681   3.616   0.090
 1016SOL    HW2 3948   3.761   3.487   0.150
 1017SOL     OW 3949   4.270   2.794   1.132
 1017SOL    HW1 3950   4.293   2.713   1.077
 1017SOL    HW2 3951   4.271   2.770   1.229
 1018SOL     OW 3952   1.599   3.082   4.464
 1018SOL    HW1 3953   1.621   3.026   4.544
 1018SOL    HW2 3954   1.565   3.171   4.495
 1019SOL     OW 3955   0.471   0.188   6.956
 1019SOL    HW1 3956   0.413   0.211   6.877
 1019SOL    HW2 3957   0.527   0.108   6.934
 1020SOL     OW 3958   0.928   6.614   0.904
 1020SOL    HW1 3959   0.989   6.669   0.960
 1020SOL    HW2 3960   0.980   6.570   0.831
 1021SOL     OW 3961   5.697   1.107   1.380
 1021SOL    HW1 3962   5.722   1.028   1.324
 1021SOL    HW2 3963   5.770   1.125   1.446
 1022SOL     OW 3964   4.026   4.276   5.837
 1022SOL    HW1 3965   3.934   4.256   5.869
 1022SOL    HW2 3966   4.026   4.363   5.787
 1023SOL     OW 3967   0.530   6.895   1.902
 1023SOL    HW1 3968   0.565   6.802   1.909
 1023SOL    HW2 3969   0.602   6.960   1.925
 1024SOL     OW 3970   6.261   3.533   4.116
 1024SOL    HW1 3971   6.354   3.571   4.120
 1024SOL    HW2 3972   6.265   3.434   4.121
 1025SOL     OW 3973   3.107   3.333   0.617
 1025SOL    HW1 3974   3.145   3.248   0.578
 1025SOL    HW2 3975   3.055   3.381   0.546
 1026SOL     OW 3976   2.369   2.892   1.692
 1026SOL    HW1 3977   2.412   2.981   1.697
 1026SOL    HW2 3978   2.284   2.893   1.745
 1027SOL     OW 3979   2.884   6.137   1.001
 1027SOL    HW1 3980   2.903   6.234   1.011
 1027SOL    HW2 3981   2.857   6.118   0.906
 1028SOL     OW 3982   3.704   6.080   0.066
 1028SOL    HW1 3983   3.766   6.086   0.145
 1028SOL    HW2 3984   3.610   6.070   0.099
 1029SOL     OW 3985   1.697   0.386   0.013
 1029SOL    HW1 3986   1.700   0.326   6.955
 1029SOL    HW2 3987   1.632   0.348   0.079
 1030SOL     OW 3988   3.642   4.020   1.685
 1030SOL    HW1 3989   3.635   3.996   1.588
 1030SOL    HW2 3990   3.616   3.941   1.740
 1031SOL     OW 3991   5.055   5.414   0.999
 1031SOL    HW1 3992   5.145   5.373   0.985
 1031SOL    HW2 3993   4.990   5.377   0.933
 1032SOL     OW 3994   1.922   1.855   4.869
 1032SOL    HW1 3995   1.942   1.876   4.773
 1032SOL    HW2 3996   1.897   1.758   4.877
 1033SOL     OW 3997   1.427   6.136   1.064
 1033SOL    HW1 3998   1.404   6.041   1.045
 1033SOL    HW2 3999   1.521   6.154   1.035
 1034SOL     OW 4000   0.626   5.624   4.501
 1034SOL    HW1 4001   0.553   5.628   4.568
 1034SOL    HW2 4002   0.668   5.715   4.492
 1035SOL     OW 4003   0.918   1.133   3.236
 1035SOL    HW1 4004   0.934   1.224   3.198
 1035SOL    HW2 4005   0.960   1.127   3.327
 1036SOL     OW 4006   2.553   1.068   2.292
 1036SOL    HW1 4007   2.550   0.969   2.308
 1036SOL    HW2 4008   2.538   1.086   2.195
 1037SOL     OW 4009   2.133   0.655   0.952
 1037SOL    HW1 4010   2.084   0.739   0.928
 1037SOL    HW2 4011   2.216   0.679   1.004
 1038SOL     OW 4012   1.320   0.124   5.358
 1038SOL    HW1 4013   1.405   0.113   5.306
 1038SOL    HW2 4014   1.285   0.217   5.345
 1039SOL     OW 4015   2.889   2.687   5.876
 1039SOL    HW1 4016   2.819   2.622   5.849
 1039SOL    HW2 4017   2.955   2.642   5.937
 1040SOL     OW 4018   4.906   2.975   2.207
 1040SOL    HW1 4019   4.860   2.915   2.272
 1040SOL    HW2 4020   4.841   3.004   2.137
 1041SOL     OW 4021   6.514   0.121   4.353
 1041SOL    HW1 4022   6.466   0.049   4.402
 1041SOL    HW2 4023   6.452   0.166   4.289
 1042SOL     OW 4024   3.825   4.883   2.243
 1042SOL    HW1 4025   3.748   4.826   2.272
 1042SOL    HW2 4026   3.825   4.892   2.144
 1043SOL     OW 4027   3.857   1.265   4.994
 1043SOL    HW1 4028   3.951   1.296   4.983
 1043SOL    HW2 4029   3.795   1.338   4.967
 1044SOL     OW 4030   5.091   4.599   2.450
 1044SOL    HW1 4031   5.112   4.623   2.545
 1044SOL    HW2 4032   5.017   4.658   2.417
 1045SOL     OW 4033   3.318   5.973   2.429
 1045SOL    HW1 4034   3.342   6.029   2.508
 1045SOL    HW2 4035   3.287   5.883   2.459
 1046SOL     OW 4036   1.208   6.639   0.448
 1046SOL    HW1 4037   1.229   6.675   0.539
 1046SOL    HW2 4038   1.240   6.702   0.378
 1047SOL     OW 4039   1.326   6.258   2.222
 1047SOL    HW1 4040   1.371   6.346   2.205
 1047SOL    HW2 4041   1.227   6.269   2.212
 1048SOL     OW 4042   4.775   6.097   5.422
 1048SOL    HW1 4043   4.807   6.189   5.443
 1048SOL    HW2 4044   4.676   6.098   5.410
 1049SOL     OW 4045   6.505   5.102   3.743
 1049SOL    HW1 4046   6.467   5.080   3.653
 1049SOL    HW2 4047   6.429   5.116   3.807
 1050SOL     OW 4048   3.884   5.419   0.642
 1050SOL    HW1 4049   3.983   5.423   0.637
 1050SOL    HW2 4050   3.846   5.511   0.631
 1051SOL     OW 4051   2.826   5.259   1.166
 1051SOL    HW1 4052   2.767   5.277   1.245
 1051SOL    HW2 4053   2.774   5.209   1.097
 1052SOL     OW 4054   3.699   0.230   4.248
 1052SOL    HW1 4055   3.749   0.309   4.282
 1052SOL    HW2 4056   3.757   0.149   4.252
 1053SOL     OW 4057   5.357   5.284   3.740
 1053SOL    HW1 4058   5.266   5.302   3.704
 1053SOL    HW2 4059   5.352   5.210   3.808
 1054SOL     OW 4060   2.249   3.961   5.388
 1054SOL    HW1 4061   2.230   4.035   5.452
 1054SOL    HW2 4062   2.301   3.996   5.310
 1055SOL     OW 4063   5.534   6.459   4.441
 1055SOL    HW1 4064   5.455   6.398   4.445
 1055SOL    HW2 4065   5.582   6.446   4.355
 1056SOL     OW 4066   1.519   5.121   5.917
 1056SOL    HW1 4067   1.488   5.053   5.984
 1056SOL    HW2 4068   1.619   5.123   5.915
 1057SOL     OW 4069   3.825   3.561   2.918
 1057SOL    HW1 4070   3.745   3.607   2.877
 1057SOL    HW2 4071   3.821   3.463   2.896
 1058SOL     OW 4072   5.026   1.678   1.990
 1058SOL    HW1 4073   5.043   1.768   2.030
 1058SOL    HW2 4074   5.112   1.626   1.989
 1059SOL     OW 4075   2.283   0.046   1.674
 1059SOL    HW1 4076   2.284   0.141   1.640
 1059SOL    HW2 4077   2.220   0.039   1.750
 1060SOL     OW 4078   0.015   3.789   4.115
 1060SOL    HW1 4079   6.958   3.824   4.066
 1060SOL    HW2 4080   0.092   3.851   4.100
 1061SOL     OW 4081   5.227   3.868   1.686
 1061SOL    HW1 4082   5.240   3.906   1.777
 1061SOL    HW2 4083   5.151   3.803   1.687
 1062SOL     OW 4084   6.107   4.619   5.590
 1062SOL    HW1 4085   6.151   4.564   5.518
 1062SOL    HW2 4086   6.064   4.699   5.549
 1063SOL     OW 4087   1.548   4.762   1.769
 1063SOL    HW1 4088   1.468   4.815   1.799
 1063SOL    HW2 4089   1.528   4.664   1.779
 1064SOL     OW 4090   1.567   4.205   2.193
 1064SOL    HW1 4091   1.472   4.217   2.164
 1064SOL    HW2 4092   1.615   4.145   2.128
 1065SOL     OW 4093   4.852   0.354   4.082
 1065SOL    HW1 4094   4.888   0.301   4.004
 1065SOL    HW2 4095   4.907   0.334   4.163
 1066SOL     OW 4096   5.225   0.542   4.077
 1066SOL    HW1 4097   5.140   0.590   4.054
 1066SOL    HW2 4098   5.204   0.463   4.134
 1067SOL     OW 4099   1.081   3.363   0.150
 1067SOL    HW1 4100   1.083   3.316   0.238
 1067SOL    HW2 4101   1.010   3.433   0.151
 1068SOL     OW 4102   4.834   4.911   2.953
 1068SOL    HW1 4103   4.834   4.939   2.857
 1068SOL    HW2 4104   4.746   4.871   2.976
 1069SOL     OW 4105   5.157   5.193   1.272
 1069SOL    HW1 4106   5.118   5.107   1.241
 1069SOL    HW2 4107   5.257   5.186   1.271
 1070SOL     OW 4108   1.137   1.147   1.655
 1070SOL    HW1 4109   1.156   1.061   1.703
 1070SOL    HW2 4110   1.220   1.204   1.657
 1071SOL     OW 4111   2.782   6.414   3.827
 1071SOL    HW1 4112   2.691   6.433   3.789
 1071SOL    HW2 4113   2.777   6.332   3.884
 1072SOL     OW 4114   1.691   6.189   1.008
 1072SOL    HW1 4115   1.683   6.276   1.057
 1072SOL    HW2 4116   1.745   6.125   1.062
 1073SOL     OW 4117   3.753   6.577   2.569
 1073SOL    HW1 4118   3.767   6.521   2.651
 1073SOL    HW2 4119   3.804   6.538   2.493
 1074SOL     OW 4120   3.004   5.187   0.408
 1074SOL    HW1 4121   3.067   5.161   0.481
 1074SOL    HW2 4122   2.981   5.105   0.354
 1075SOL     OW 4123   4.222   6.676   3.669
 1075SOL    HW1 4124   4.164   6.712   3.743
 1075SOL    HW2 4125   4.291   6.615   3.708
 1076SOL     OW 4126   0.056   4.425   5.173
 1076SOL    HW1 4127   0.036   4.429   5.271
 1076SOL    HW2 4128   0.154   4.435   5.158
 1077SOL     OW 4129   5.749   0.491   0.589
 1077SOL    HW1 4130   5.656   0.466   0.618
 1077SOL    HW2 4131   5.802   0.408   0.572
 1078SOL     OW 4132   1.127   1.172   2.640
 1078SOL    HW1 4133   1.051   1.146   2.581
 1078SOL    HW2 4134   1.188   1.235   2.591
 1079SOL     OW 4135   1.746   6.209   2.453
 1079SOL    HW1 4136   1.703   6.146   2.516
 1079SOL    HW2 4137   1.843   6.220   2.477
 1080SOL     OW 4138   2.054   4.711   3.622
 1080SOL    HW1 4139   2.103   4.785   3.669
 1080SOL    HW2 4140   1.961   4.706   3.658
 1081SOL     OW 4141   0.078   6.727   5.753
 1081SOL    HW1 4142   0.003   6.674   5.793
 1081SOL    HW2 4143   0.129   6.669   5.689
 1082SOL     OW 4144   3.356   1.682   6.465
 1082SOL    HW1 4145   3.335   1.614   6.395
 1082SOL    HW2 4146   3.451   1.673   6.493
 1083SOL     OW 4147   4.200   4.383   1.399
 1083SOL    HW1 4148   4.138   4.319   1.444
 1083SOL    HW2 4149   4.198   4.367   1.300
 1084SOL     OW 4150   6.695   6.056   0.978
 1084SOL    HW1 4151   6.771   6.105   1.020
 1084SOL    HW2 4152   6.703   5.958   0.999
 1085SOL     OW 4153   1.203   4.233   3.649
 1085SOL    HW1 4154   1.146   4.168   3.699
 1085SOL    HW2 4155   1.145   4.290   3.591
 1086SOL     OW 4156   6.663   5.998   2.391
 1086SOL    HW1 4157   6.757   5.988   2.424
 1086SOL    HW2 4158   6.645   6.093   2.368
 1087SOL     OW 4159   6.214   3.593   5.834
 1087SOL    HW1 4160   6.154   3.523   5.872
 1087SOL    HW2 4161   6.191   3.607   5.737
 1088SOL     OW 4162   5.929   4.611   3.696
 1088SOL    HW1 4163   5.896   4.594   3.789
 1088SOL    HW2 4164   5.893   4.540   3.635
 1089SOL     OW 4165   1.149   6.945   4.460
 1089SOL    HW1 4166   1.100   6.907   4.537
 1089SOL    HW2 4167   1.151   0.022   4.467
 1090SOL     OW 4168   2.146   1.556   3.505
 1090SOL    HW1 4169   2.048   1.538   3.497
 1090SOL    HW2 4170   2.195   1.469   3.514
 1091SOL     OW 4171   2.117   2.972   5.313
 1091SOL    HW1 4172   2.061   3.050   5.286
 1091SOL    HW2 4173   2.146   2.922   5.232
 1092SOL     OW 4174   2.158   3.741   0.486
 1092SOL    HW1 4175   2.230   3.676   0.461
 1092SOL    HW2 4176   2.118   3.780   0.403
 1093SOL     OW 4177   1.973   1.940   2.416
 1093SOL    HW1 4178   1.900   2.009   2.421
 1093SOL    HW2 4179   2.023   1.952   2.329
 1094SOL     OW 4180   1.355   6.184   3.297
 1094SOL    HW1 4181   1.330   6.280   3.289
 1094SOL    HW2 4182   1.381   6.164   3.392
 1095SOL     OW 4183   0.065   2.244   5.812
 1095SOL    HW1 4184   0.104   2.335   5.826
 1095SOL    HW2 4185   6.988   2.249   5.815
 1096SOL     OW 4186   3.321   4.571   1.625
 1096SOL    HW1 4187   3.411   4.612   1.638
 1096SOL    HW2 4188   3.321   4.477   1.658
 1097SOL     OW 4189   1.743   3.909   4.115
 1097SOL    HW1 4190   1.795   3.879   4.196
 1097SOL    HW2 4191   1.747   4.008   4.108
 1098SOL     OW 4192   5.340   3.134   0.759
 1098SOL    HW1 4193   5.282   3.215   0.751
 1098SOL    HW2 4194   5.357   3.095   0.668
 1099SOL     OW 4195   3.674   1.550   5.180
 1099SOL    HW1 4196   3.761   1.575   5.222
 1099SOL    HW2 4197   3.650   1.618   5.111
 1100SOL     OW 4198   2.880   1.788   6.953
 1100SOL    HW1 4199   2.855   1.819   0.022
 1100SOL    HW2 4200   2.803   1.740   6.912
 1101SOL     OW 4201   6.276   2.440   6.945
 1101SOL    HW1 4202   6.301   2.354   6.990
 1101SOL    HW2 4203   6.360   2.489   6.921
 1102SOL     OW 4204   0.781   5.933   4.008
 1102SOL    HW1 4205   0.718   5.960   3.936
 1102SOL    HW2 4206   0.796   6.010   4.070
 1103SOL     OW 4207   3.124   1.501   0.454
 1103SOL    HW1 4208   3.051   1.556   0.416
 1103SOL    HW2 4209   3.162   1.442   0.382
 1104SOL     OW 4210   2.231   3.610   5.226
 1104SOL    HW1 4211   2.178   3.689   5.259
 1104SOL    HW2 4212   2.323   3.615   5.264
 1105SOL     OW 4213   5.680   3.672   4.856
 1105SOL    HW1 4214   5.666   3.725   4.940
 1105SOL    HW2 4215   5.602   3.685   4.795
 1106SOL     OW 4216   0.458   2.125   0.353
 1106SOL    HW1 4217   0.488   2.133   0.449
 1106SOL    HW2 4218   0.361   2.104   0.350
 1107SOL     OW 4219   1.585   0.565   6.417
 1107SOL    HW1 4220   1.608   0.658   6.386
 1107SOL    HW2 4221   1.541   0.570   6.506
 1108SOL     OW 4222   3.008   0.549   6.031
 1108SOL    HW1 4223   3.095   0.587   6.061
 1108SOL    HW2 4224   3.020   0.503   5.943
 1109SOL     OW 4225   4.145   6.433   5.134
 1109SOL    HW1 4226   4.101   6.523   5.141
 1109SOL    HW2 4227   4.081   6.369   5.091
 1110SOL     OW 4228   2.746   1.482   2.755
 1110SOL    HW1 4229   2.734   1.562   2.813
 1110SOL    HW2 4230   2.733   1.399   2.808
 1111SOL     OW 4231   5.305   5.322   0.065
 1111SOL    HW1 4232   5.281   5.360   0.154
 1111SOL    HW2 4233   5.404   5.328   0.052
 1112SOL     OW 4234   6.343   0.781   2.413
 1112SOL    HW1 4235   6.351   0.763   2.315
 1112SOL    HW2 4236   6.247   0.774   2.441
 1113SOL     OW 4237   0.508   3.591   3.063
 1113SOL    HW1 4238   0.414   3.585   3.030
 1113SOL    HW2 4239   0.563   3.644   2.999
 1114SOL     OW 4240   4.557   1.444   6.355
 1114SOL    HW1 4241   4.566   1.393   6.441
 1114SOL    HW2 4242   4.647   1.471   6.323
 1115SOL     OW 4243   4.134   3.097   0.209
 1115SOL    HW1 4244   4.042   3.082   0.172
 1115SOL    HW2 4245   4.127   3.133   0.302
 1116SOL     OW 4246   5.133   5.893   5.141
 1116SOL    HW1 4247   5.205   5.953   5.175
 1116SOL    HW2 4248   5.163   5.849   5.056
 1117SOL     OW 4249   1.992   2.808   1.407
 1117SOL    HW1 4250   1.964   2.901   1.383
 1117SOL    HW2 4251   1.981   2.794   1.505
 1118SOL     OW 4252   2.261   4.504   1.364
 1118SOL    HW1 4253   2.161   4.500   1.371
 1118SOL    HW2 4254   2.301   4.512   1.455
 1119SOL     OW 4255   4.827   4.702   1.073
 1119SOL    HW1 4256   4.872   4.732   1.157
 1119SOL    HW2 4257   4.753   4.639   1.096
 1120SOL     OW 4258   5.767   6.723   5.410
 1120SOL    HW1 4259   5.774   6.693   5.505
 1120SOL    HW2 4260   5.838   6.791   5.391
 1121SOL     OW 4261   5.459   4.588   2.467
 1121SOL    HW1 4262   5.422   4.661   2.525
 1121SOL    HW2 4263   5.535   4.544   2.514
 1122SOL     OW 4264   4.525   2.723   6.497
 1122SOL    HW1 4265   4.465   2.650   6.467
 1122SOL    HW2 4266   4.545   2.784   6.420
 1123SOL     OW 4267   5.458   1.753   2.793
 1123SOL    HW1 4268   5.383   1.803   2.748
 1123SOL    HW2 4269   5.467   1.784   2.887
 1124SOL     OW 4270   6.176   4.260   5.334
 1124SOL    HW1 4271   6.263   4.212   5.345
 1124SOL    HW2 4272   6.133   4.233   5.248
 1125SOL     OW 4273   3.219   1.595   5.140
 1125SOL    HW1 4274   3.129   1.552   5.141
 1125SOL    HW2 4275   3.230   1.647   5.055
 1126SOL     OW 4276   5.447   6.667   0.744
 1126SOL    HW1 4277   5.415   6.659   0.839
 1126SOL    HW2 4278   5.540   6.704   0.744
 1127SOL     OW 4279   4.627   5.484   5.395
 1127SOL    HW1 4280   4.618   5.465   5.298
 1127SOL    HW2 4281   4.540   5.519   5.431
 1128SOL     OW 4282   5.814   2.185   5.213
 1128SOL    HW1 4283   5.755   2.266   5.207
 1128SOL    HW2 4284   5.769   2.108   5.168
 1129SOL     OW 4285   3.476   0.306   6.608
 1129SOL    HW1 4286   3.409   0.235   6.585
 1129SOL    HW2 4287   3.475   0.322   6.706
 1130SOL     OW 4288   1.714   4.638   1.101
 1130SOL    HW1 4289   1.746   4.562   1.045
 1130SOL    HW2 4290   1.645   4.605   1.166
 1131SOL     OW 4291   0.420   6.230   6.050
 1131SOL    HW1 4292   0.519   6.242   6.058
 1131SOL    HW2 4293   0.400   6.146   5.999
 1132SOL     OW 4294   5.357   0.143   0.588
 1132SOL    HW1 4295   5.325   0.055   0.623
 1132SOL    HW2 4296   5.289   0.214   0.611
 1133SOL     OW 4297   1.059   1.487   0.854
 1133SOL    HW1 4298   0.999   1.543   0.796
 1133SOL    HW2 4299   1.152   1.491   0.819
 1134SOL     OW 4300   4.901   1.492   1.408
 1134SOL    HW1 4301   4.892   1.534   1.499
 1134SOL    HW2 4302   4.811   1.491   1.363
 1135SOL     OW 4303   2.324   1.145   2.429
 1135SOL    HW1 4304   2.415   1.111   2.404
 1135SOL    HW2 4305   2.333   1.226   2.487
 1136SOL     OW 4306   3.502   5.295   4.772
 1136SOL    HW1 4307   3.570   5.351   4.820
 1136SOL    HW2 4308   3.545   5.251   4.693
 1137SOL     OW 4309   1.278   2.018   6.498
 1137SOL    HW1 4310   1.359   2.049   6.547
 1137SOL    HW2 4311   1.296   1.929   6.456
 1138SOL     OW 4312   0.006   1.354   6.436
 1138SOL    HW1 4313   7.006   1.276   6.378
 1138SOL    HW2 4314   6.992   1.438   6.394
 1139SOL     OW 4315   3.075   5.785   1.309
 1139SOL    HW1 4316   3.069   5.877   1.271
 1139SOL    HW2 4317   3.171   5.757   1.315
 1140SOL     OW 4318   3.421   1.194   1.736
 1140SOL    HW1 4319   3.516   1.194   1.767
 1140SOL    HW2 4320   3.378   1.280   1.761
 1141SOL     OW 4321   6.739   6.425   6.995
 1141SOL    HW1 4322   6.805   6.365   6.950
 1141SOL    HW2 4323   6.762   6.520   6.975
 1142SOL     OW 4324   3.837   0.484   4.008
 1142SOL    HW1 4325   3.892   0.401   4.005
 1142SOL    HW2 4326   3.897   0.564   4.013
 1143SOL     OW 4327   2.071   3.057   2.317
 1143SOL    HW1 4328   2.000   3.122   2.291
 1143SOL    HW2 4329   2.101   3.076   2.410
 1144SOL     OW 4330   6.531   4.452   5.340
 1144SOL    HW1 4331   6.589   4.451   5.422
 1144SOL    HW2 4332   6.482   4.365   5.333
 1145SOL     OW 4333   0.483   4.453   2.086
 1145SOL    HW1 4334   0.438   4.542   2.102
 1145SOL    HW2 4335   0.549   4.435   2.159
 1146SOL     OW 4336   5.947   0.693   1.708
 1146SOL    HW1 4337   5.873   0.741   1.755
 1146SOL    HW2 4338   5.986   0.753   1.637
 1147SOL     OW 4339   1.815   4.461   0.934
 1147SOL    HW1 4340   1.718   4.465   0.910
 1147SOL    HW2 4341   1.840   4.365   0.953
 1148SOL     OW 4342   4.575   6.942   6.628
 1148SOL    HW1 4343   4.644   6.950   6.701
 1148SOL    HW2 4344   4.497   6.889   6.662
 1149SOL     OW 4345   6.510   4.124   3.059
 1149SOL    HW1 4346   6.425   4.090   3.019
 1149SOL    HW2 4347   6.575   4.049   3.068
 1150SOL     OW 4348   2.792   4.380   0.925
 1150SOL    HW1 4349   2.761   4.285   0.921
 1150SOL    HW2 4350   2.892   4.383   0.919
 1151SOL     OW 4351   4.735   5.355   0.043
 1151SOL    HW1 4352   4.802   5.287   0.073
 1151SOL    HW2 4353   4.645   5.313   0.038
 1152SOL     OW 4354   0.389   5.689   5.604
 1152SOL    HW1 4355   0.445   5.606   5.610
 1152SOL    HW2 4356   0.358   5.702   5.510
 1153SOL     OW 4357   2.138   6.924   2.323
 1153SOL    HW1 4358   2.129   6.855   2.251
 1153SOL    HW2 4359   2.068   6.910   2.393
 1154SOL     OW 4360   0.686   3.796   1.837
 1154SOL    HW1 4361   0.743   3.875   1.862
 1154SOL    HW2 4362   0.642   3.759   1.919
 1155SOL     OW 4363   2.899   4.758   0.139
 1155SOL    HW1 4364   2.948   4.671   0.142
 1155SOL    HW2 4365   2.809   4.746   0.181
 1156SOL     OW 4366   1.758   0.796   4.942
 1156SOL    HW1 4367   1.810   0.758   5.019
 1156SOL    HW2 4368   1.800   0.766   4.856
 1157SOL     OW 4369   6.522   1.164   5.089
 1157SOL    HW1 4370   6.508   1.096   5.162
 1157SOL    HW2 4371   6.491   1.253   5.120
 1158SOL     OW 4372   0.314   5.649   5.889
 1158SOL    HW1 4373   0.285   5.554   5.902
 1158SOL    HW2 4374   0.343   5.662   5.795
 1159SOL     OW 4375   4.891   6.993   3.432
 1159SOL    HW1 4376   4.796   0.000   3.438
 1159SOL    HW2 4377   4.922   6.962   3.521
 1160SOL     OW 4378   3.683   3.504   1.646
 1160SOL    HW1 4379   3.614   3.437   1.619
 1160SOL    HW2 4380   3.706   3.491   1.742
 1161SOL     OW 4381   5.007   0.610   6.072
 1161SOL    HW1 4382   5.051   0.630   6.159
 1161SOL    HW2 4383   5.077   0.593   6.003
 1162SOL     OW 4384   3.322   2.059   0.140
 1162SOL    HW1 4385   3.357   2.152   0.131
 1162SOL    HW2 4386   3.368   2.000   0.074
 1163SOL     OW 4387   6.657   3.435   1.713
 1163SOL    HW1 4388   6.561   3.451   1.735
 1163SOL    HW2 4389   6.685   3.346   1.749
 1164SOL     OW 4390   5.500   2.455   4.479
 1164SOL    HW1 4391   5.528   2.405   4.397
 1164SOL    HW2 4392   5.517   2.552   4.466
 1165SOL     OW 4393   1.864   4.511   4.651
 1165SOL    HW1 4394   1.885   4.603   4.617
 1165SOL    HW2 4395   1.919   4.444   4.602
 1166SOL     OW 4396   3.796   0.393   0.527
 1166SOL    HW1 4397   3.750   0.480   0.505
 1166SOL    HW2 4398   3.727   0.322   0.540
 1167SOL     OW 4399   3.787   6.891   6.596
 1167SOL    HW1 4400   3.804   6.988   6.581
 1167SOL    HW2 4401   3.872   6.845   6.620
 1168SOL     OW 4402   6.737   1.185   3.525
 1168SOL    HW1 4403   6.745   1.126   3.606
 1168SOL    HW2 4404   6.806   1.257   3.529
 1169SOL     OW 4405   5.788   3.514   6.287
 1169SOL    HW1 4406   5.694   3.484   6.303
 1169SOL    HW2 4407   5.801   3.606   6.323
 1170SOL     OW 4408   4.991   1.030   2.082
 1170SOL    HW1 4409   5.084   1.061   2.062
 1170SOL    HW2 4410   4.934   1.108   2.105
 1171SOL     OW 4411   2.895   6.582   6.640
 1171SOL    HW1 4412   2.972   6.563   6.701
 1171SOL    HW2 4413   2.861   6.675   6.657
 1172SOL     OW 4414   3.309   4.113   2.299
 1172SOL    HW1 4415   3.247   4.035   2.304
 1172SOL    HW2 4416   3.260   4.197   2.321
 1173SOL     OW 4417   3.324   0.020   5.632
 1173SOL    HW1 4418   3.284   6.978   5.696
 1173SOL    HW2 4419   3.344   0.106   5.680
 1174SOL     OW 4420   3.263   4.325   0.269
 1174SOL    HW1 4421   3.226   4.233   0.276
 1174SOL    HW2 4422   3.324   4.343   0.347
 1175SOL     OW 4423   4.329   2.923   6.808
 1175SOL    HW1 4424   4.231   2.905   6.813
 1175SOL    HW2 4425   4.378   2.839   6.784
 1176SOL     OW 4426   5.512   4.687   1.147
 1176SOL    HW1 4427   5.605   4.651   1.144
 1176SOL    HW2 4428   5.452   4.620   1.191
 1177SOL     OW 4429   6.771   1.827   5.991
 1177SOL    HW1 4430   6.733   1.789   6.075
 1177SOL    HW2 4431   6.871   1.823   5.994
 1178SOL     OW 4432   3.876   2.939   1.371
 1178SOL    HW1 4433   3.974   2.956   1.387
 1178SOL    HW2 4434   3.823   2.974   1.448
 1179SOL     OW 4435   3.006   5.419   0.005
 1179SOL    HW1 4436   3.041   5.491   6.969
 1179SOL    HW2 4437   3.029   5.440   0.100
 1180SOL     OW 4438   2.235   6.405   3.881
 1180SOL    HW1 4439   2.317   6.363   3.920
 1180SOL    HW2 4440   2.257   6.446   3.793
 1181SOL     OW 4441   6.538   2.865   4.878
 1181SOL    HW1 4442   6.529   2.880   4.780
 1181SOL    HW2 4443   6.562   2.951   4.924
 1182SOL     OW 4444   2.613   5.156   3.380
 1182SOL    HW1 4445   2.667   5.208   3.446
 1182SOL    HW2 4446   2.516   5.170   3.397
 1183SOL     OW 4447   3.883   6.272   1.311
 1183SOL    HW1 4448   3.929   6.195   1.356
 1183SOL    HW2 4449   3.935   6.356   1.325
 1184SOL     OW 4450   4.439   1.199   5.910
 1184SOL    HW1 4451   4.377   1.173   5.836
 1184SOL    HW2 4452   4.443   1.125   5.978
 1185SOL     OW 4453   1.697   6.986   0.815
 1185SOL    HW1 4454   1.683   0.047   0.867
 1185SOL    HW2 4455   1.641   6.989   0.732
 1186SOL     OW 4456   6.305   6.117   6.149
 1186SOL    HW1 4457   6.357   6.125   6.235
 1186SOL    HW2 4458   6.211   6.088   6.170
 1187SOL     OW 4459   5.295   6.707   5.635
 1187SOL    HW1 4460   5.269   6.611   5.644
 1187SOL    HW2 4461   5.378   6.714   5.579
 1188SOL     OW 4462   3.417   5.487   6.644
 1188SOL    HW1 4463   3.403   5.450   6.552
 1188SOL    HW2 4464   3.395   5.585   6.645
 1189SOL     OW 4465   5.498   0.668   2.206
 1189SOL    HW1 4466   5.434   0.745   2.198
 1189SOL    HW2 4467   5.542   0.653   2.117
 1190SOL     OW 4468   3.853   4.930   4.179
 1190SOL    HW1 4469   3.847   4.926   4.080
 1190SOL    HW2 4470   3.761   4.938   4.218
 1191SOL     OW 4471   3.780   6.421   4.773
 1191SOL    HW1 4472   3.810   6.514   4.796
 1191SOL    HW2 4473   3.837   6.385   4.699
 1192SOL     OW 4474   5.350   5.966   2.967
 1192SOL    HW1 4475   5.281   6.023   2.923
 1192SOL    HW2 4476   5.415   5.933   2.899
 1193SOL     OW 4477   0.220   0.384   5.382
 1193SOL    HW1 4478   0.256   0.467   5.424
 1193SOL    HW2 4479   0.291   0.341   5.326
 1194SOL     OW 4480   6.483   1.454   0.804
 1194SOL    HW1 4481   6.533   1.540   0.799
 1194SOL    HW2 4482   6.443   1.444   0.895
 1195SOL     OW 4483   6.154   3.320   1.170
 1195SOL    HW1 4484   6.066   3.357   1.141
 1195SOL    HW2 4485   6.225   3.389   1.155
 1196SOL     OW 4486   6.749   4.864   1.908
 1196SOL    HW1 4487   6.651   4.871   1.888
 1196SOL    HW2 4488   6.772   4.769   1.928
 1197SOL     OW 4489   4.204   6.524   4.601
 1197SOL    HW1 4490   4.190   6.578   4.518
 1197SOL    HW2 4491   4.293   6.546   4.641
 1198SOL     OW 4492   1.684   2.627   2.701
 1198SOL    HW1 4493   1.735   2.642   2.785
 1198SOL    HW2 4494   1.586   2.635   2.720
 1199SOL     OW 4495   3.909   3.052   3.470
 1199SOL    HW1 4496   3.985   3.098   3.426
 1199SOL    HW2 4497   3.926   3.045   3.568
 1200SOL     OW 4498   3.841   4.145   4.727
 1200SOL    HW1 4499   3.899   4.078   4.681
 1200SOL    HW2 4500   3.897   4.206   4.783
 1201SOL     OW 4501   0.082   1.487   4.616
 1201SOL    HW1 4502   0.109   1.417   4.682
 1201SOL    HW2 4503   0.048   1.444   4.533
 1202SOL     OW 4504   5.941   1.158   5.974
 1202SOL    HW1 4505   5.938   1.186   6.070
 1202SOL    HW2 4506   5.984   1.230   5.920
 1203SOL     OW 4507   6.737   6.630   1.119
 1203SOL    HW1 4508   6.695   6.685   1.191
 1203SOL    HW2 4509   6.707   6.535   1.127
 1204SOL     OW 4510   4.402   1.587   1.529
 1204SOL    HW1 4511   4.478   1.554   1.585
 1204SOL    HW2 4512   4.342   1.511   1.505
 1205SOL     OW 4513   4.505   3.050   6.629
 1205SOL    HW1 4514   4.579   2.982   6.620
 1205SOL    HW2 4515   4.446   3.025   6.705
 1206SOL     OW 4516   1.061   2.589   4.588
 1206SOL    HW1 4517   1.110   2.669   4.624
 1206SOL    HW2 4518   1.008   2.546   4.661
 1207SOL     OW 4519   0.493   6.523   0.034
 1207SOL    HW1 4520   0.541   6.437   0.019
 1207SOL    HW2 4521   0.401   6.505   0.069
 1208SOL     OW 4522   3.230   3.684   2.102
 1208SOL    HW1 4523   3.161   3.744   2.059
 1208SOL    HW2 4524   3.213   3.590   2.075
 1209SOL     OW 4525   5.405   0.444   4.464
 1209SOL    HW1 4526   5.367   0.402   4.382
 1209SOL    HW2 4527   5.504   0.448   4.458
 1210SOL     OW 4528   4.340   0.112   3.749
 1210SOL    HW1 4529   4.349   0.041   3.679
 1210SOL    HW2 4530   4.257   0.165   3.733
 1211SOL     OW 4531   1.052   3.241   3.662
 1211SOL    HW1 4532   1.088   3.226   3.570
 1211SOL    HW2 4533   1.073   3.335   3.691
 1212SOL     OW 4534   0.078   1.267   5.720
 1212SOL    HW1 4535   0.107   1.193   5.660
 1212SOL    HW2 4536   0.004   1.318   5.676
 1213SOL     OW 4537   5.874   3.140   3.400
 1213SOL    HW1 4538   5.791   3.152   3.455
 1213SOL    HW2 4539   5.854   3.077   3.325
 1214SOL     OW 4540   0.984   2.505   5.497
 1214SOL    HW1 4541   1.052   2.491   5.425
 1214SOL    HW2 4542   0.895   2.522   5.455
 1215SOL     OW 4543   1.957   5.372   1.973
 1215SOL    HW1 4544   1.925   5.356   1.880
 1215SOL    HW2 4545   1.948   5.287   2.026
 1216SOL     OW 4546   0.199   0.923   0.567
 1216SOL    HW1 4547   0.181   0.919   0.469
 1216SOL    HW2 4548   0.133   0.986   0.611
 1217SOL     OW 4549   3.360   5.559   0.996
 1217SOL    HW1 4550   3.420   5.572   1.075
 1217SOL    HW2 4551   3.413   5.523   0.919
 1218SOL     OW 4552   0.962   3.924   5.738
 1218SOL    HW1 4553   0.871   3.948   5.705
 1218SOL    HW2 4554   0.984   3.831   5.710
 1219SOL     OW 4555   5.150   5.226   2.065
 1219SOL    HW1 4556   5.063   5.276   2.073
 1219SOL    HW2 4557   5.199   5.231   2.151
 1220SOL     OW 4558   6.822   4.136   2.818
 1220SOL    HW1 4559   6.745   4.148   2.881
 1220SOL    HW2 4560   6.886   4.213   2.828
 1221SOL     OW 4561   5.627   3.936   5.940
 1221SOL    HW1 4562   5.707   3.969   5.891
 1221SOL    HW2 4563   5.656   3.875   6.014
 1222SOL     OW 4564   0.677   0.373   0.034
 1222SOL    HW1 4565   0.627   0.457   0.013
 1222SOL    HW2 4566   0.630   0.295   7.018
 1223SOL     OW 4567   3.999   1.570   0.650
 1223SOL    HW1 4568   3.912   1.594   0.608
 1223SOL    HW2 4569   4.017   1.630   0.728
 1224SOL     OW 4570   2.840   5.679   7.017
 1224SOL    HW1 4571   2.887   5.695   6.931
 1224SOL    HW2 4572   2.902   5.698   0.070
 1225SOL     OW 4573   3.779   2.393   0.906
 1225SOL    HW1 4574   3.805   2.344   0.823
 1225SOL    HW2 4575   3.755   2.488   0.882
 1226SOL     OW 4576   5.087   6.382   0.925
 1226SOL    HW1 4577   5.058   6.287   0.922
 1226SOL    HW2 4578   5.183   6.388   0.953
 1227SOL     OW 4579   5.613   5.343   0.040
 1227SOL    HW1 4580   5.620   5.443   0.044
 1227SOL    HW2 4581   5.596   5.314   6.969
 1228SOL     OW 4582   3.713   2.636   0.805
 1228SOL    HW1 4583   3.658   2.688   0.869
 1228SOL    HW2 4584   3.776   2.697   0.757
 1229SOL     OW 4585   2.064   5.893   1.045
 1229SOL    HW1 4586   2.138   5.946   1.087
 1229SOL    HW2 4587   2.077   5.796   1.066
 1230SOL     OW 4588   5.567   5.395   2.880
 1230SOL    HW1 4589   5.632   5.350   2.941
 1230SOL    HW2 4590   5.536   5.330   2.811
 1231SOL     OW 4591   1.305   1.925   5.591
 1231SOL    HW1 4592   1.327   1.921   5.688
 1231SOL    HW2 4593   1.348   1.848   5.544
 1232SOL     OW 4594   5.978   1.440   5.140
 1232SOL    HW1 4595   5.977   1.458   5.239
 1232SOL    HW2 4596   5.957   1.525   5.091
 1233SOL     OW 4597   0.516   5.875   4.564
 1233SOL    HW1 4598   0.419   5.885   4.545
 1233SOL    HW2 4599   0.535   5.906   4.658
 1234SOL     OW 4600   6.219   2.539   5.361
 1234SOL    HW1 4601   6.261   2.488   5.436
 1234SOL    HW2 4602   6.155   2.606   5.398
 1235SOL     OW 4603   6.284   4.395   1.336
 1235SOL    HW1 4604   6.190   4.385   1.367
 1235SOL    HW2 4605   6.301   4.491   1.312
 1236SOL     OW 4606   3.965   1.282   1.935
 1236SOL    HW1 4607   3.957   1.192   1.892
 1236SOL    HW2 4608   3.918   1.350   1.878
 1237SOL     OW 4609   1.529   5.406   4.985
 1237SOL    HW1 4610   1.466   5.354   5.043
 1237SOL    HW2 4611   1.577   5.344   4.923
 1238SOL     OW 4612   0.776   0.261   4.964
 1238SOL    HW1 4613   0.818   0.337   4.915
 1238SOL    HW2 4614   0.677   0.276   4.971
 1239SOL     OW 4615   6.690   6.778   5.783
 1239SOL    HW1 4616   6.744   6.697   5.762
 1239SOL    HW2 4617   6.596   6.750   5.805
 1240SOL     OW 4618   6.151   5.304   2.377
 1240SOL    HW1 4619   6.073   5.296   2.316
 1240SOL    HW2 4620   6.222   5.240   2.348
 1241SOL     OW 4621   6.292   4.421   4.999
 1241SOL    HW1 4622   6.222   4.424   5.071
 1241SOL    HW2 4623   6.280   4.500   4.939
 1242SOL     OW 4624   2.143   3.287   0.684
 1242SOL    HW1 4625   2.210   3.276   0.758
 1242SOL    HW2 4626   2.146   3.382   0.650
 1243SOL     OW 4627   0.125   1.679   4.824
 1243SOL    HW1 4628   0.118   1.601   4.761
 1243SOL    HW2 4629   0.222   1.698   4.842
 1244SOL     OW 4630   4.951   6.495   4.823
 1244SOL    HW1 4631   4.986   6.561   4.890
 1244SOL    HW2 4632   4.859   6.465   4.850
 1245SOL     OW 4633   5.714   4.783   0.623
 1245SOL    HW1 4634   5.686   4.749   0.533
 1245SOL    HW2 4635   5.753   4.875   0.614
 1246SOL     OW 4636   3.090   1.384   2.053
 1246SOL    HW1 4637   3.000   1.384   2.011
 1246SOL    HW2 4638   3.135   1.472   2.035
 1247SOL     OW 4639   5.780   0.394   5.442
 1247SOL    HW1 4640   5.738   0.429   5.359
 1247SOL    HW2 4641   5.867   0.350   5.419
 1248SOL     OW 4642   1.073   6.255   4.006
 1248SOL    HW1 4643   1.087   6.156   3.996
 1248SOL    HW2 4644   1.105   6.301   3.923
 1249SOL     OW 4645   0.326   3.485   1.925
 1249SOL    HW1 4646   0.240   3.505   1.972
 1249SOL    HW2 4647   0.309   3.477   1.827
 1250SOL     OW 4648   6.123   4.096   3.660
 1250SOL    HW1 4649   6.154   4.030   3.592
 1250SOL    HW2 4650   6.054   4.157   3.619
 1251SOL     OW 4651   2.179   0.966   2.820
 1251SOL    HW1 4652   2.101   0.963   2.757
 1251SOL    HW2 4653   2.192   0.875   2.860
 1252SOL     OW 4654   3.498   4.492   6.676
 1252SOL    HW1 4655   3.548   4.558   6.733
 1252SOL    HW2 4656   3.517   4.399   6.708
 1253SOL     OW 4657   2.428   0.607   2.518
 1253SOL    HW1 4658   2.332   0.610   2.488
 1253SOL    HW2 4659   2.448   0.518   2.558
 1254SOL     OW 4660   0.144   2.409   3.586
 1254SOL    HW1 4661   0.080   2.336   3.562
 1254SOL    HW2 4662   0.199   2.434   3.506
 1255SOL     OW 4663   6.008   2.585   6.058
 1255SOL    HW1 4664   5.995   2.496   6.102
 1255SOL    HW2 4665   5.926   2.609   6.006
 1256SOL     OW 4666   0.369   6.106   3.738
 1256SOL    HW1 4667   0.294   6.040   3.732
 1256SOL    HW2 4668   0.331   6.199   3.730
 1257SOL     OW 4669   6.839   5.073   4.465
 1257SOL    HW1 4670   6.862   5.142   4.396
 1257SOL    HW2 4671   6.891   5.090   4.548
 1258SOL     OW 4672   2.217   4.792   2.814
 1258SOL    HW1 4673   2.127   4.768   2.778
 1258SOL    HW2 4674   2.258   4.865   2.759
 1259SOL     OW 4675   3.284   6.169   5.236
 1259SOL    HW1 4676   3.305   6.179   5.139
 1259SOL    HW2 4677   3.235   6.251   5.267
 1260SOL     OW 4678   2.920   1.131   1.418
 1260SOL    HW1 4679   2.874   1.067   1.357
 1260SOL    HW2 4680   2.926   1.220   1.374
 1261SOL     OW 4681   0.323   4.471   0.076
 1261SOL    HW1 4682   0.417   4.442   0.065
 1261SOL    HW2 4683   0.268   4.397   0.115
 1262SOL     OW 4684   5.200   5.807   1.475
 1262SOL    HW1 4685   5.206   5.906   1.484
 1262SOL    HW2 4686   5.277   5.764   1.523
 1263SOL     OW 4687   6.964   1.551   1.612
 1263SOL    HW1 4688   6.938   1.606   1.691
 1263SOL    HW2 4689   6.883   1.528   1.558
 1264SOL     OW 4690   0.200   3.826   1.233
 1264SOL    HW1 4691   0.147   3.898   1.186
 1264SOL    HW2 4692   0.156   3.803   1.319
 1265SOL     OW 4693   6.679   5.286   3.738
 1265SOL    HW1 4694   6.722   5.302   3.650
 1265SOL    HW2 4695   6.602   5.224   3.727
 1266SOL     OW 4696   1.016   1.197   3.860
 1266SOL    HW1 4697   0.942   1.179   3.796
 1266SOL    HW2 4698   1.080   1.120   3.862
 1267SOL     OW 4699   5.581   6.713   1.150
 1267SOL    HW1 4700   5.638   6.793   1.171
 1267SOL    HW2 4701   5.628   6.656   1.083
 1268SOL     OW 4702   4.760   1.985   0.139
 1268SOL    HW1 4703   4.808   1.993   0.227
 1268SOL    HW2 4704   4.781   1.897   0.097
 1269SOL     OW 4705   5.783   6.483   5.860
 1269SOL    HW1 4706   5.773   6.580   5.839
 1269SOL    HW2 4707   5.877   6.454   5.840
 1270SOL     OW 4708   2.144   3.342   4.471
 1270SOL    HW1 4709   2.200   3.261   4.456
 1270SOL    HW2 4710   2.150   3.403   4.392
 1271SOL     OW 4711   3.456   1.675   3.418
 1271SOL    HW1 4712   3.411   1.613   3.353
 1271SOL    HW2 4713   3.470   1.764   3.375
 1272SOL     OW 4714   5.845   5.681   0.487
 1272SOL    HW1 4715   5.945   5.680   0.485
 1272SOL    HW2 4716   5.814   5.745   0.557
 1273SOL     OW 4717   0.900   4.322   0.370
 1273SOL    HW1 4718   0.954   4.381   0.310
 1273SOL    HW2 4719   0.861   4.376   0.444
 1274SOL     OW 4720   6.307   2.834   1.202
 1274SOL    HW1 4721   6.238   2.907   1.201
 1274SOL    HW2 4722   6.331   2.812   1.296
 1275SOL     OW 4723   3.707   0.593   4.216
 1275SOL    HW1 4724   3.744   0.564   4.128
 1275SOL    HW2 4725   3.745   0.535   4.289
 1276SOL     OW 4726   6.840   0.819   4.736
 1276SOL    HW1 4727   6.820   0.873   4.654
 1276SOL    HW2 4728   6.810   0.869   4.817
 1277SOL     OW 4729   1.143   6.740   5.616
 1277SOL    HW1 4730   1.175   6.828   5.649
 1277SOL    HW2 4731   1.157   6.671   5.687
 1278SOL     OW 4732   1.040   0.434   5.185
 1278SOL    HW1 4733   1.110   0.463   5.250
 1278SOL    HW2 4734   1.060   0.341   5.154
 1279SOL     OW 4735   3.531   5.148   0.022
 1279SOL    HW1 4736   3.494   5.080   0.085
 1279SOL    HW2 4737   3.458   5.210   7.016
 1280SOL     OW 4738   3.467   6.057   3.878
 1280SOL    HW1 4739   3.425   6.092   3.961
 1280SOL    HW2 4740   3.400   6.060   3.803
 1281SOL     OW 4741   1.456   5.660   2.701
 1281SOL    HW1 4742   1.435   5.564   2.720
 1281SOL    HW2 4743   1.450   5.712   2.786
 1282SOL     OW 4744   0.401   1.202   6.595
 1282SOL    HW1 4745   0.374   1.113   6.559
 1282SOL    HW2 4746   0.416   1.266   6.519
 1283SOL     OW 4747   5.320   2.854   5.316
 1283SOL    HW1 4748   5.384   2.859   5.240
 1283SOL    HW2 4749   5.291   2.946   5.342
 1284SOL     OW 4750   4.379   1.795   2.344
 1284SOL    HW1 4751   4.384   1.862   2.271
 1284SOL    HW2 4752   4.428   1.828   2.424
 1285SOL     OW 4753   4.911   3.054   6.711
 1285SOL    HW1 4754   4.842   2.981   6.716
 1285SOL    HW2 4755   4.866   3.142   6.694
 1286SOL     OW 4756   4.953   3.254   2.243
 1286SOL    HW1 4757   5.050   3.259   2.264
 1286SOL    HW2 4758   4.922   3.159   2.247
 1287SOL     OW 4759   4.674   4.174   5.644
 1287SOL    HW1 4760   4.675   4.077   5.670
 1287SOL    HW2 4761   4.712   4.228   5.719
 1288SOL     OW 4762   5.703   3.279   0.465
 1288SOL    HW1 4763   5.629   3.258   0.401
 1288SOL    HW2 4764   5.777   3.212   0.453
 1289SOL     OW 4765   0.681   5.891   1.514
 1289SOL    HW1 4766   0.739   5.959   1.559
 1289SOL    HW2 4767   0.628   5.841   1.583
 1290SOL     OW 4768   1.026   0.436   6.709
 1290SOL    HW1 4769   0.961   0.480   6.770
 1290SOL    HW2 4770   1.076   0.364   6.758
 1291SOL     OW 4771   0.106   3.906   5.470
 1291SOL    HW1 4772   0.022   3.920   5.521
 1291SOL    HW2 4773   0.144   3.994   5.443
 1292SOL     OW 4774   6.801   6.186   2.650
 1292SOL    HW1 4775   6.810   6.115   2.720
 1292SOL    HW2 4776   6.744   6.260   2.685
 1293SOL     OW 4777   1.230   1.356   6.831
 1293SOL    HW1 4778   1.285   1.370   6.748
 1293SOL    HW2 4779   1.152   1.418   6.829
 1294SOL     OW 4780   1.905   3.727   6.893
 1294SOL    HW1 4781   1.921   3.785   6.812
 1294SOL    HW2 4782   1.808   3.701   6.897
 1295SOL     OW 4783   0.227   3.641   3.028
 1295SOL    HW1 4784   0.235   3.602   3.119
 1295SOL    HW2 4785   0.137   3.683   3.017
 1296SOL     OW 4786   3.467   0.466   5.899
 1296SOL    HW1 4787   3.563   0.492   5.895
 1296SOL    HW2 4788   3.442   0.444   5.993
 1297SOL     OW 4789   6.082   0.723   0.249
 1297SOL    HW1 4790   6.029   0.743   0.331
 1297SOL    HW2 4791   6.083   0.803   0.190
 1298SOL     OW 4792   6.915   4.653   2.984
 1298SOL    HW1 4793   6.915   4.553   2.989
 1298SOL    HW2 4794   6.918   4.691   3.076
 1299SOL     OW 4795   0.476   4.002   3.264
 1299SOL    HW1 4796   0.532   4.059   3.324
 1299SOL    HW2 4797   0.530   3.974   3.185
 1300SOL     OW 4798   3.502   3.804   2.081
 1300SOL    HW1 4799   3.557   3.839   2.006
 1300SOL    HW2 4800   3.415   3.852   2.086
 1301SOL     OW 4801   0.331   5.703   2.430
 1301SOL    HW1 4802   0.275   5.638   2.379
 1301SOL    HW2 4803   0.272   5.772   2.473
 1302SOL     OW 4804   3.605   0.150   5.345
 1302SOL    HW1 4805   3.693   0.173   5.303
 1302SOL    HW2 4806   3.551   0.096   5.281
 1303SOL     OW 4807   4.589   1.491   1.750
 1303SOL    HW1 4808   4.657   1.423   1.776
 1303SOL    HW2 4809   4.503   1.471   1.797
 1304SOL     OW 4810   0.975   0.982   6.584
 1304SOL    HW1 4811   0.918   1.026   6.653
 1304SOL    HW2 4812   0.918   0.929   6.522
 1305SOL     OW 4813   4.869   2.982   0.081
 1305SOL    HW1 4814   4.958   3.005   0.040
 1305SOL    HW2 4815   4.797   2.996   0.013
 1306SOL     OW 4816   0.574   4.431   5.471
 1306SOL    HW1 4817   0.625   4.464   5.392
 1306SOL    HW2 4818   0.601   4.484   5.552
 1307SOL     OW 4819   1.211   3.285   5.220
 1307SOL    HW1 4820   1.215   3.345   5.141
 1307SOL    HW2 4821   1.148   3.324   5.288
 1308SOL     OW 4822   4.384   5.686   5.381
 1308SOL    HW1 4823   4.399   5.732   5.469
 1308SOL    HW2 4824   4.443   5.726   5.312
 1309SOL     OW 4825   5.050   2.982   5.260
 1309SOL    HW1 4826   5.078   2.962   5.166
 1309SOL    HW2 4827   5.009   2.900   5.301
 1310SOL     OW 4828   0.215   4.147   4.905
 1310SOL    HW1 4829   0.292   4.126   4.966
 1310SOL    HW2 4830   0.133   4.101   4.939
 1311SOL     OW 4831   0.257   0.446   4.302
 1311SOL    HW1 4832   0.198   0.370   4.276
 1311SOL    HW2 4833   0.239   0.472   4.397
 1312SOL     OW 4834   0.846   0.444   6.439
 1312SOL    HW1 4835   0.893   0.470   6.355
 1312SOL    HW2 4836   0.911   0.398   6.501
 1313SOL     OW 4837   1.599   4.319   4.198
 1313SOL    HW1 4838   1.620   4.239   4.255
 1313SOL    HW2 4839   1.536   4.292   4.125
 1314SOL     OW 4840   3.877   1.598   5.753
 1314SOL    HW1 4841   3.913   1.540   5.826
 1314SOL    HW2 4842   3.870   1.544   5.669
 1315SOL     OW 4843   0.665   0.587   0.282
 1315SOL    HW1 4844   0.728   0.509   0.287
 1315SOL    HW2 4845   0.678   0.635   0.196
 1316SOL     OW 4846   2.196   6.691   4.340
 1316SOL    HW1 4847   2.135   6.619   4.372
 1316SOL    HW2 4848   2.206   6.685   4.240
 1317SOL     OW 4849   1.443   4.086   4.418
 1317SOL    HW1 4850   1.503   4.136   4.355
 1317SOL    HW2 4851   1.452   4.123   4.510
 1318SOL     OW 4852   0.498   1.038   0.665
 1318SOL    HW1 4853   0.482   0.959   0.607
 1318SOL    HW2 4854   0.585   1.080   0.641
 1319SOL     OW 4855   0.131   0.780   0.091
 1319SOL    HW1 4856   0.194   0.847   0.049
 1319SOL    HW2 4857   0.037   0.813   0.083
 1320SOL     OW 4858   5.527   4.184   0.485
 1320SOL    HW1 4859   5.477   4.114   0.536
 1320SOL    HW2 4860   5.617   4.197   0.527
 1321SOL     OW 4861   4.568   2.173   5.759
 1321SOL    HW1 4862   4.630   2.147   5.833
 1321SOL    HW2 4863   4.537   2.267   5.772
 1322SOL     OW 4864   4.120   0.421   3.987
 1322SOL    HW1 4865   4.202   0.403   3.932
 1322SOL    HW2 4866   4.100   0.341   4.044
 1323SOL     OW 4867   5.256   1.987   4.873
 1323SOL    HW1 4868   5.181   1.921   4.872
 1323SOL    HW2 4869   5.247   2.049   4.796
 1324SOL     OW 4870   0.951   2.826   0.005
 1324SOL    HW1 4871   0.953   2.727   7.016
 1324SOL    HW2 4872   0.950   2.848   0.103
 1325SOL     OW 4873   1.731   6.828   2.547
 1325SOL    HW1 4874   1.661   6.815   2.618
 1325SOL    HW2 4875   1.692   6.882   2.472
 1326SOL     OW 4876   4.726   2.816   4.998
 1326SOL    HW1 4877   4.807   2.760   5.014
 1326SOL    HW2 4878   4.652   2.759   4.963
 1327SOL     OW 4879   1.795   4.494   1.904
 1327SOL    HW1 4880   1.801   4.397   1.928
 1327SOL    HW2 4881   1.842   4.548   1.974
 1328SOL     OW 4882   1.461   2.789   1.170
 1328SOL    HW1 4883   1.464   2.804   1.269
 1328SOL    HW2 4884   1.391   2.848   1.130
 1329SOL     OW 4885   1.378   2.548   0.863
 1329SOL    HW1 4886   1.325   2.511   0.786
 1329SOL    HW2 4887   1.463   2.586   0.828
 1330SOL     OW 4888   6.848   0.957   1.704
 1330SOL    HW1 4889   6.940   0.965   1.742
 1330SOL    HW2 4890   6.853   0.957   1.604
 1331SOL     OW 4891   5.064   2.321   3.553
 1331SOL    HW1 4892   5.063   2.256   3.477
 1331SOL    HW2 4893   5.023   2.279   3.633
 1332SOL     OW 4894   3.025   6.754   0.348
 1332SOL    HW1 4895   2.993   6.838   0.303
 1332SOL    HW2 4896   3.020   6.678   0.284
 1333SOL     OW 4897   3.344   3.020   5.492
 1333SOL    HW1 4898   3.272   3.090   5.487
 1333SOL    HW2 4899   3.301   2.929   5.498
 1334SOL     OW 4900   6.708   2.618   4.659
 1334SOL    HW1 4901   6.612   2.590   4.648
 1334SOL    HW2 4902   6.712   2.716   4.676
 1335SOL     OW 4903   2.632   1.031   3.602
 1335SOL    HW1 4904   2.659   0.967   3.530
 1335SOL    HW2 4905   2.686   1.013   3.684
 1336SOL     OW 4906   2.214   1.265   6.390
 1336SOL    HW1 4907   2.184   1.228   6.302
 1336SOL    HW2 4908   2.135   1.275   6.451
 1337SOL     OW 4909   1.481   1.083   5.088
 1337SOL    HW1 4910   1.564   1.129   5.119
 1337SOL    HW2 4911   1.406   1.149   5.084
 1338SOL     OW 4912   5.690   2.737   6.265
 1338SOL    HW1 4913   5.719   2.641   6.271
 1338SOL    HW2 4914   5.599   2.742   6.224
 1339SOL     OW 4915   0.533   0.599   7.016
 1339SOL    HW1 4916   0.459   0.606   0.059
 1339SOL    HW2 4917   0.545   0.686   6.969
 1340SOL     OW 4918   0.779   1.799   2.037
 1340SOL    HW1 4919   0.863   1.799   1.982
 1340SOL    HW2 4920   0.711   1.859   1.994
 1341SOL     OW 4921   4.854   0.924   5.910
 1341SOL    HW1 4922   4.832   0.995   5.843
 1341SOL    HW2 4923   4.785   0.924   5.983
 1342SOL     OW 4924   1.371   4.811   6.376
 1342SOL    HW1 4925   1.294   4.748   6.377
 1342SOL    HW2 4926   1.457   4.759   6.375
 1343SOL     OW 4927   4.552   5.910   2.238
 1343SOL    HW1 4928   4.523   5.822   2.200
 1343SOL    HW2 4929   4.560   5.903   2.337
 1344SOL     OW 4930   6.794   4.664   4.281
 1344SOL    HW1 4931   6.849   4.588   4.247
 1344SOL    HW2 4932   6.834   4.699   4.366
 1345SOL     OW 4933   1.757   1.506   3.252
 1345SOL    HW1 4934   1.700   1.458   3.185
 1345SOL    HW2 4935   1.777   1.598   3.217
 1346SOL     OW 4936   0.883   6.555   3.770
 1346SOL    HW1 4937   0.786   6.541   3.754
 1346SOL    HW2 4938   0.897   6.589   3.863
 1347SOL     OW 4939   6.321   6.623   4.109
 1347SOL    HW1 4940   6.245   6.612   4.044
 1347SOL    HW2 4941   6.402   6.657   4.061
 1348SOL     OW 4942   5.202   4.916   2.836
 1348SOL    HW1 4943   5.149   4.831   2.842
 1348SOL    HW2 4944   5.147   4.986   2.790
 1349SOL     OW 4945   4.699   2.032   6.774
 1349SOL    HW1 4946   4.786   2.035   6.823
 1349SOL    HW2 4947   4.714   1.999   6.681
 1350SOL     OW 4948   4.959   4.188   6.184
 1350SOL    HW1 4949   5.051   4.217   6.212
 1350SOL    HW2 4950   4.913   4.143   6.260
 1351SOL     OW 4951   6.664   2.217   2.664
 1351SOL    HW1 4952   6.724   2.244   2.739
 1351SOL    HW2 4953   6.676   2.280   2.587
 1352SOL     OW 4954   6.930   0.432   2.924
 1352SOL    HW1 4955   6.899   0.444   2.830
 1352SOL    HW2 4956   6.856   0.458   2.987
 1353SOL     OW 4957   6.464   4.479   6.300
 1353SOL    HW1 4958   6.415   4.392   6.298
 1353SOL    HW2 4959   6.478   4.512   6.206
 1354SOL     OW 4960   0.740   2.017   0.264
 1354SOL    HW1 4961   0.647   2.009   0.299
 1354SOL    HW2 4962   0.772   1.928   0.233
 1355SOL     OW 4963   6.855   2.434   5.282
 1355SOL    HW1 4964   6.860   2.431   5.182
 1355SOL    HW2 4965   6.789   2.504   5.309
 1356SOL     OW 4966   3.150   3.011   3.739
 1356SOL    HW1 4967   3.197   2.978   3.820
 1356SOL    HW2 4968   3.215   3.059   3.679
 1357SOL     OW 4969   1.547   4.320   5.900
 1357SOL    HW1 4970   1.542   4.309   5.999
 1357SOL    HW2 4971   1.457   4.301   5.860
 1358SOL     OW 4972   3.970   1.459   5.993
 1358SOL    HW1 4973   3.887   1.436   6.043
 1358SOL    HW2 4974   4.048   1.464   6.056
 1359SOL     OW 4975   6.614   4.772   1.598
 1359SOL    HW1 4976   6.582   4.813   1.683
 1359SOL    HW2 4977   6.709   4.744   1.608
 1360SOL     OW 4978   3.923   3.722   1.182
 1360SOL    HW1 4979   3.882   3.810   1.160
 1360SOL    HW2 4980   4.022   3.733   1.191
 1361SOL     OW 4981   0.229   6.050   5.517
 1361SOL    HW1 4982   0.133   6.067   5.539
 1361SOL    HW2 4983   0.265   5.980   5.580
 1362SOL     OW 4984   3.001   3.888   4.384
 1362SOL    HW1 4985   3.036   3.935   4.465
 1362SOL    HW2 4986   3.025   3.940   4.302
 1363SOL     OW 4987   6.466   5.823   3.861
 1363SOL    HW1 4988   6.480   5.724   3.866
 1363SOL    HW2 4989   6.501   5.866   3.945
 1364SOL     OW 4990   7.014   2.608   0.175
 1364SOL    HW1 4991   0.020   2.655   0.092
 1364SOL    HW2 4992   0.039   2.646   0.254
 1365SOL     OW 4993   1.103   3.035   5.271
 1365SOL    HW1 4994   1.162   3.114   5.256
 1365SOL    HW2 4995   1.077   3.031   5.368
 1366SOL     OW 4996   1.267   4.280   0.599
 1366SOL    HW1 4997   1.350   4.321   0.636
 1366SOL    HW2 4998   1.262   4.184   0.626
 1367SOL     OW 4999   1.722   5.669   2.577
 1367SOL    HW1 5000   1.705   5.666   2.479
 1367SOL    HW2 5001   1.635   5.677   2.626
 1368SOL     OW 5002   6.998   6.885   3.280
 1368SOL    HW1 5003   7.009   6.971   3.330
 1368SOL    HW2 5004   6.909   6.885   3.235
 1369SOL     OW 5005   1.650   0.167   2.291
 1369SOL    HW1 5006   1.709   0.230   2.342
 1369SOL    HW2 5007   1.568   0.217   2.261
 1370SOL     OW 5008   4.642   1.896   3.596
 1370SOL    HW1 5009   4.618   1.919   3.691
 1370SOL    HW2 5010   4.688   1.974   3.554
 1371SOL     OW 5011   5.732   1.325   4.278
 1371SOL    HW1 5012   5.674   1.270   4.218
 1371SOL    HW2 5013   5.825   1.327   4.241
 1372SOL     OW 5014   1.381   2.271   0.668
 1372SOL    HW1 5015   1.291   2.289   0.706
 1372SOL    HW2 5016   1.449   2.270   0.741
 1373SOL     OW 5017   4.280   2.478   0.521
 1373SOL    HW1 5018   4.296   2.419   0.600
 1373SOL    HW2 5019   4.362   2.479   0.463
 1374SOL     OW 5020   4.268   2.061   1.031
 1374SOL    HW1 5021   4.183   2.093   0.989
 1374SOL    HW2 5022   4.314   1.996   0.970
 1375SOL     OW 5023   0.289   6.715   6.075
 1375SOL    HW1 5024   0.292   6.662   6.160
 1375SOL    HW2 5025   0.194   6.728   6.047
 1376SOL     OW 5026   4.510   4.825   5.179
 1376SOL    HW1 5027   4.523   4.924   5.173
 1376SOL    HW2 5028   4.599   4.781   5.189
 1377SOL     OW 5029   1.028   3.438   4.175
 1377SOL    HW1 5030   1.103   3.469   4.233
 1377SOL    HW2 5031   0.953   3.404   4.232
 1378SOL     OW 5032   5.881   2.369   4.505
 1378SOL    HW1 5033   5.833   2.295   4.552
 1378SOL    HW2 5034   5.953   2.331   4.448
 1379SOL     OW 5035   4.384   6.098   3.423
 1379SOL    HW1 5036   4.482   6.097   3.444
 1379SOL    HW2 5037   4.335   6.149   3.494
 1380SOL     OW 5038   0.590   6.701   3.143
 1380SOL    HW1 5039   0.611   6.609   3.109
 1380SOL    HW2 5040   0.556   6.758   3.067
 1381SOL     OW 5041   5.836   1.773   0.699
 1381SOL    HW1 5042   5.873   1.848   0.754
 1381SOL    HW2 5043   5.812   1.807   0.608
 1382SOL     OW 5044   5.813   3.189   0.997
 1382SOL    HW1 5045   5.901   3.231   1.019
 1382SOL    HW2 5046   5.748   3.260   0.970
 1383SOL     OW 5047   0.575   0.917   1.999
 1383SOL    HW1 5048   0.595   0.927   2.096
 1383SOL    HW2 5049   0.566   1.008   1.958
 1384SOL     OW 5050   4.563   0.844   1.650
 1384SOL    HW1 5051   4.551   0.941   1.631
 1384SOL    HW2 5052   4.660   0.825   1.666
 1385SOL     OW 5053   2.906   4.806   3.432
 1385SOL    HW1 5054   2.888   4.708   3.428
 1385SOL    HW2 5055   3.003   4.823   3.417
 1386SOL     OW 5056   2.995   1.155   4.208
 1386SOL    HW1 5057   2.946   1.227   4.160
 1386SOL    HW2 5058   3.092   1.178   4.212
 1387SOL     OW 5059   4.137   5.159   2.524
 1387SOL    HW1 5060   4.228   5.118   2.527
 1387SOL    HW2 5061   4.078   5.116   2.592
 1388SOL     OW 5062   0.203   0.604   2.716
 1388SOL    HW1 5063   0.300   0.627   2.721
 1388SOL    HW2 5064   0.184   0.527   2.778
 1389SOL     OW 5065   6.428   1.020   3.866
 1389SOL    HW1 5066   6.472   1.105   3.840
 1389SOL    HW2 5067   6.375   1.034   3.950
 1390SOL     OW 5068   6.559   2.544   6.006
 1390SOL    HW1 5069   6.564   2.488   5.923
 1390SOL    HW2 5070   6.642   2.599   6.014
 1391SOL     OW 5071   6.264   6.730   5.185
 1391SOL    HW1 5072   6.292   6.789   5.260
 1391SOL    HW2 5073   6.206   6.657   5.220
 1392SOL     OW 5074   6.114   6.633   5.654
 1392SOL    HW1 5075   6.205   6.631   5.611
 1392SOL    HW2 5076   6.104   6.552   5.712
 1393SOL     OW 5077   7.018   4.074   6.108
 1393SOL    HW1 5078   6.931   4.027   6.121
 1393SOL    HW2 5079   7.018   4.158   6.163
 1394SOL     OW 5080   3.788   5.447   5.626
 1394SOL    HW1 5081   3.760   5.490   5.712
 1394SOL    HW2 5082   3.868   5.389   5.642
 1395SOL     OW 5083   1.826   5.067   4.826
 1395SOL    HW1 5084   1.834   4.969   4.844
 1395SOL    HW2 5085   1.890   5.117   4.884
 1396SOL     OW 5086   0.168   1.525   5.042
 1396SOL    HW1 5087   0.115   1.583   4.980
 1396SOL    HW2 5088   0.233   1.582   5.093
 1397SOL     OW 5089   0.158   6.651   4.528
 1397SOL    HW1 5090   0.209   6.620   4.448
 1397SOL    HW2 5091   0.133   6.747   4.517
 1398SOL     OW 5092   2.782   1.024   6.399
 1398SOL    HW1 5093   2.871   0.979   6.395
 1398SOL    HW2 5094   2.752   1.046   6.306
 1399SOL     OW 5095   4.077   4.724   0.632
 1399SOL    HW1 5096   4.029   4.801   0.673
 1399SOL    HW2 5097   4.103   4.747   0.538
 1400SOL     OW 5098   0.364   1.478   4.209
 1400SOL    HW1 5099   0.431   1.552   4.212
 1400SOL    HW2 5100   0.329   1.461   4.301
 1401SOL     OW 5101   6.363   0.308   4.660
 1401SOL    HW1 5102   6.462   0.322   4.659
 1401SOL    HW2 5103   6.339   0.248   4.737
 1402SOL     OW 5104   5.205   3.709   6.762
 1402SOL    HW1 5105   5.233   3.613   6.760
 1402SOL    HW2 5106   5.206   3.746   6.669
 1403SOL     OW 5107   2.205   1.736   1.149
 1403SOL    HW1 5108   2.245   1.723   1.059
 1403SOL    HW2 5109   2.275   1.769   1.212
 1404SOL     OW 5110   6.498   0.506   6.805
 1404SOL    HW1 5111   6.534   0.432   6.861
 1404SOL    HW2 5112   6.399   0.496   6.796
 1405SOL     OW 5113   2.273   3.133   0.511
 1405SOL    HW1 5114   2.315   3.049   0.545
 1405SOL    HW2 5115   2.216   3.173   0.582
 1406SOL     OW 5116   0.942   5.626   0.599
 1406SOL    HW1 5117   0.868   5.621   0.666
 1406SOL    HW2 5118   0.908   5.601   0.509
 1407SOL     OW 5119   0.784   3.200   3.715
 1407SOL    HW1 5120   0.755   3.167   3.625
 1407SOL    HW2 5121   0.884   3.204   3.719
 1408SOL     OW 5122   5.402   1.661   5.441
 1408SOL    HW1 5123   5.458   1.735   5.402
 1408SOL    HW2 5124   5.389   1.590   5.372
 1409SOL     OW 5125   0.459   0.275   5.218
 1409SOL    HW1 5126   0.548   0.280   5.264
 1409SOL    HW2 5127   0.425   0.181   5.222
 1410SOL     OW 5128   1.647   4.745   6.826
 1410SOL    HW1 5129   1.605   4.671   6.773
 1410SOL    HW2 5130   1.687   4.707   6.910
 1411SOL     OW 5131   3.578   6.760   0.385
 1411SOL    HW1 5132   3.587   6.802   0.295
 1411SOL    HW2 5133   3.525   6.676   0.377
 1412SOL     OW 5134   0.980   2.788   1.150
 1412SOL    HW1 5135   0.936   2.878   1.161
 1412SOL    HW2 5136   1.055   2.780   1.215
 1413SOL     OW 5137   2.283   1.504   5.282
 1413SOL    HW1 5138   2.302   1.601   5.297
 1413SOL    HW2 5139   2.230   1.493   5.198
 1414SOL     OW 5140   2.578   1.776   1.981
 1414SOL    HW1 5141   2.674   1.774   1.951
 1414SOL    HW2 5142   2.568   1.843   2.054
 1415SOL     OW 5143   2.089   1.215   4.781
 1415SOL    HW1 5144   2.087   1.262   4.693
 1415SOL    HW2 5145   2.010   1.153   4.788
 1416SOL     OW 5146   4.218   5.176   4.481
 1416SOL    HW1 5147   4.229   5.200   4.577
 1416SOL    HW2 5148   4.121   5.175   4.457
 1417SOL     OW 5149   2.891   2.346   0.609
 1417SOL    HW1 5150   2.828   2.415   0.574
 1417SOL    HW2 5151   2.900   2.272   0.543
 1418SOL     OW 5152   3.157   3.502   2.356
 1418SOL    HW1 5153   3.191   3.590   2.326
 1418SOL    HW2 5154   3.077   3.515   2.415
 1419SOL     OW 5155   2.755   5.615   3.376
 1419SOL    HW1 5156   2.686   5.595   3.445
 1419SOL    HW2 5157   2.747   5.551   3.300
 1420SOL     OW 5158   2.137   6.321   2.143
 1420SOL    HW1 5159   2.182   6.242   2.102
 1420SOL    HW2 5160   2.200   6.399   2.143
 1421SOL     OW 5161   2.261   4.938   3.221
 1421SOL    HW1 5162   2.217   4.851   3.241
 1421SOL    HW2 5163   2.257   4.955   3.122
 1422SOL     OW 5164   1.470   4.197   6.694
 1422SOL    HW1 5165   1.512   4.106   6.701
 1422SOL    HW2 5166   1.522   4.252   6.629
 1423SOL     OW 5167   4.769   6.843   4.441
 1423SOL    HW1 5168   4.680   6.887   4.427
 1423SOL    HW2 5169   4.757   6.760   4.494
 1424SOL     OW 5170   6.756   3.956   6.840
 1424SOL    HW1 5171   6.755   4.055   6.828
 1424SOL    HW2 5172   6.713   3.933   6.928
 1425SOL     OW 5173   1.795   5.416   5.748
 1425SOL    HW1 5174   1.750   5.445   5.663
 1425SOL    HW2 5175   1.860   5.343   5.728
 1426SOL     OW 5176   2.576   3.036   6.555
 1426SOL    HW1 5177   2.632   2.999   6.630
 1426SOL    HW2 5178   2.481   3.039   6.584
 1427SOL     OW 5179   6.749   0.025   3.651
 1427SOL    HW1 5180   6.760   0.011   3.750
 1427SOL    HW2 5181   6.663   7.007   3.621
 1428SOL     OW 5182   0.631   1.787   6.997
 1428SOL    HW1 5183   0.552   1.767   6.939
 1428SOL    HW2 5184   0.658   1.882   6.986
 1429SOL     OW 5185   4.614   1.307   7.004
 1429SOL    HW1 5186   4.537   1.365   6.975
 1429SOL    HW2 5187   4.594   1.268   0.071
 1430SOL     OW 5188   1.646   5.140   3.812
 1430SOL    HW1 5189   1.597   5.056   3.791
 1430SOL    HW2 5190   1.647   5.199   3.731
 1431SOL     OW 5191   2.693   2.288   0.103
 1431SOL    HW1 5192   2.745   2.371   0.082
 1431SOL    HW2 5193   2.723   2.214   0.043
 1432SOL     OW 5194   2.635   1.758   1.671
 1432SOL    HW1 5195   2.619   1.803   1.584
 1432SOL    HW2 5196   2.622   1.823   1.746
 1433SOL     OW 5197   4.643   0.643   5.338
 1433SOL    HW1 5198   4.563   0.618   5.283
 1433SOL    HW2 5199   4.657   0.575   5.410
 1434SOL     OW 5200   1.443   0.213   5.637
 1434SOL    HW1 5201   1.376   0.181   5.569
 1434SOL    HW2 5202   1.435   0.157   5.719
 1435SOL     OW 5203   6.639   0.100   3.061
 1435SOL    HW1 5204   6.587   0.167   3.008
 1435SOL    HW2 5205   6.694   0.147   3.130
 1436SOL     OW 5206   4.873   3.586   6.338
 1436SOL    HW1 5207   4.829   3.507   6.296
 1436SOL    HW2 5208   4.964   3.599   6.299
 1437SOL     OW 5209   3.290   2.097   5.194
 1437SOL    HW1 5210   3.247   2.155   5.125
 1437SOL    HW2 5211   3.308   2.150   5.277
 1438SOL     OW 5212   2.809   6.896   2.001
 1438SOL    HW1 5213   2.815   6.801   1.969
 1438SOL    HW2 5214   2.899   6.927   2.031
 1439SOL     OW 5215   6.223   5.100   0.532
 1439SOL    HW1 5216   6.316   5.131   0.516
 1439SOL    HW2 5217   6.185   5.149   0.611
 1440SOL     OW 5218   3.173   3.019   6.269
 1440SOL    HW1 5219   3.153   3.114   6.294
 1440SOL    HW2 5220   3.235   3.018   6.191
 1441SOL     OW 5221   6.107   1.780   3.778
 1441SOL    HW1 5222   6.041   1.710   3.806
 1441SOL    HW2 5223   6.096   1.861   3.835
 1442SOL     OW 5224   6.734   5.393   6.692
 1442SOL    HW1 5225   6.726   5.347   6.780
 1442SOL    HW2 5226   6.817   5.449   6.691
 1443SOL     OW 5227   1.351   2.798   3.695
 1443SOL    HW1 5228   1.305   2.877   3.735
 1443SOL    HW2 5229   1.284   2.729   3.670
 1444SOL     OW 5230   4.875   5.354   0.792
 1444SOL    HW1 5231   4.818   5.292   0.738
 1444SOL    HW2 5232   4.939   5.402   0.731
 1445SOL     OW 5233   0.290   3.724   2.752
 1445SOL    HW1 5234   0.278   3.805   2.695
 1445SOL    HW2 5235   0.255   3.742   2.844
 1446SOL     OW 5236   5.273   2.591   0.599
 1446SOL    HW1 5237   5.232   2.679   0.620
 1446SOL    HW2 5238   5.229   2.520   0.655
 1447SOL     OW 5239   6.324   6.904   5.390
 1447SOL    HW1 5240   6.312   6.959   5.473
 1447SOL    HW2 5241   6.385   6.952   5.327
 1448SOL     OW 5242   6.943   1.988   5.681
 1448SOL    HW1 5243   6.882   2.047   5.734
 1448SOL    HW2 5244   6.894   1.904   5.656
 1449SOL     OW 5245   0.792   0.972   6.949
 1449SOL    HW1 5246   0.811   1.053   7.003
 1449SOL    HW2 5247   0.744   0.998   6.865
 1450SOL     OW 5248   0.655   2.323   1.289
 1450SOL    HW1 5249   0.710   2.321   1.372
 1450SOL    HW2 5250   0.634   2.230   1.260
 1451SOL     OW 5251   1.645   0.054   1.845
 1451SOL    HW1 5252   1.679   0.013   1.930
 1451SOL    HW2 5253   1.604   7.005   1.789
 1452SOL     OW 5254   4.756   0.823   4.322
 1452SOL    HW1 5255   4.731   0.791   4.231
 1452SOL    HW2 5256   4.675   0.861   4.367
 1453SOL     OW 5257   0.009   4.423   5.457
 1453SOL    HW1 5258   6.981   4.361   5.515
 1453SOL    HW2 5259   0.023   4.510   5.505
 1454SOL     OW 5260   0.458   3.416   2.293
 1454SOL    HW1 5261   0.468   3.326   2.249
 1454SOL    HW2 5262   0.362   3.443   2.290
 1455SOL     OW 5263   1.100   1.216   1.389
 1455SOL    HW1 5264   1.086   1.136   1.331
 1455SOL    HW2 5265   1.112   1.187   1.484
 1456SOL     OW 5266   6.758   6.407   5.271
 1456SOL    HW1 5267   6.660   6.422   5.268
 1456SOL    HW2 5268   6.803   6.484   5.317
 1457SOL     OW 5269   1.318   6.719   1.467
 1457SOL    HW1 5270   1.326   6.620   1.456
 1457SOL    HW2 5271   1.239   6.740   1.525
 1458SOL     OW 5272   5.657   5.825   3.849
 1458SOL    HW1 5273   5.690   5.747   3.902
 1458SOL    HW2 5274   5.669   5.807   3.752
 1459SOL     OW 5275   2.861   5.576   5.786
 1459SOL    HW1 5276   2.933   5.565   5.717
 1459SOL    HW2 5277   2.901   5.572   5.877
 1460SOL     OW 5278   0.742   6.127   4.901
 1460SOL    HW1 5279   0.700   6.051   4.851
 1460SOL    HW2 5280   0.830   6.149   4.860
 1461SOL     OW 5281   6.692   5.030   3.136
 1461SOL    HW1 5282   6.741   5.115   3.116
 1461SOL    HW2 5283   6.677   5.022   3.234
 1462SOL     OW 5284   1.601   6.963   6.825
 1462SOL    HW1 5285   1.681   6.922   6.782
 1462SOL    HW2 5286   1.529   6.975   6.758
 1463SOL     OW 5287   6.878   5.611   6.363
 1463SOL    HW1 5288   6.894   5.709   6.350
 1463SOL    HW2 5289   6.909   5.583   6.454
 1464SOL     OW 5290   0.265   6.889   1.434
 1464SOL    HW1 5291   0.214   6.892   1.348
 1464SOL    HW2 5292   0.347   6.833   1.422
 1465SOL     OW 5293   1.618   1.057   3.067
 1465SOL    HW1 5294   1.709   1.055   3.108
 1465SOL    HW2 5295   1.599   0.969   3.023
 1466SOL     OW 5296   1.803   2.189   2.184
 1466SOL    HW1 5297   1.818   2.162   2.088
 1466SOL    HW2 5298   1.706   2.180   2.205
 1467SOL     OW 5299   2.026   1.235   2.912
 1467SOL    HW1 5300   2.068   1.178   2.841
 1467SOL    HW2 5301   2.087   1.240   2.991
 1468SOL     OW 5302   4.092   6.392   1.937
 1468SOL    HW1 5303   4.133   6.471   1.982
 1468SOL    HW2 5304   3.992   6.403   1.935
 1469SOL     OW 5305   1.036   1.921   1.597
 1469SOL    HW1 5306   0.981   2.004   1.593
 1469SOL    HW2 5307   0.976   1.841   1.592
 1470SOL     OW 5308   0.924   2.101   2.576
 1470SOL    HW1 5309   0.900   2.023   2.519
 1470SOL    HW2 5310   0.881   2.183   2.540
 1471SOL     OW 5311   0.710   0.360   1.140
 1471SOL    HW1 5312   0.767   0.279   1.151
 1471SOL    HW2 5313   0.760   0.440   1.173
 1472SOL     OW 5314   3.649   5.406   6.040
 1472SOL    HW1 5315   3.735   5.372   6.079
 1472SOL    HW2 5316   3.667   5.486   5.984
 1473SOL     OW 5317   4.423   6.188   5.199
 1473SOL    HW1 5318   4.364   6.145   5.130
 1473SOL    HW2 5319   4.448   6.121   5.268
 1474SOL     OW 5320   5.524   5.264   2.380
 1474SOL    HW1 5321   5.578   5.242   2.462
 1474SOL    HW2 5322   5.567   5.340   2.331
 1475SOL     OW 5323   6.030   0.344   2.256
 1475SOL    HW1 5324   6.107   0.334   2.320
 1475SOL    HW2 5325   6.002   0.253   2.224
 1476SOL     OW 5326   3.077   0.966   1.182
 1476SOL    HW1 5327   3.014   1.027   1.135
 1476SOL    HW2 5328   3.026   0.898   1.235
 1477SOL     OW 5329   3.729   0.152   6.020
 1477SOL    HW1 5330   3.652   0.158   6.084
 1477SOL    HW2 5331   3.793   0.227   6.038
 1478SOL     OW 5332   6.025   5.796   6.322
 1478SOL    HW1 5333   5.951   5.743   6.365
 1478SOL    HW2 5334   6.104   5.798   6.383
 1479SOL     OW 5335   1.516   2.316   0.447
 1479SOL    HW1 5336   1.611   2.314   0.478
 1479SOL    HW2 5337   1.456   2.321   0.526
 1480SOL     OW 5338   3.234   0.712   5.095
 1480SOL    HW1 5339   3.295   0.661   5.034
 1480SOL    HW2 5340   3.279   0.723   5.184
 1481SOL     OW 5341   6.665   2.871   5.786
 1481SOL    HW1 5342   6.742   2.835   5.733
 1481SOL    HW2 5343   6.580   2.854   5.736
 1482SOL     OW 5344   4.622   1.798   1.374
 1482SOL    HW1 5345   4.712   1.827   1.407
 1482SOL    HW2 5346   4.556   1.800   1.449
 1483SOL     OW 5347   5.277   1.938   0.190
 1483SOL    HW1 5348   5.260   1.855   0.136
 1483SOL    HW2 5349   5.243   2.017   0.139
 1484SOL     OW 5350   5.390   4.229   4.866
 1484SOL    HW1 5351   5.459   4.249   4.796
 1484SOL    HW2 5352   5.302   4.213   4.822
 1485SOL     OW 5353   3.765   1.760   3.311
 1485SOL    HW1 5354   3.782   1.777   3.213
 1485SOL    HW2 5355   3.789   1.666   3.333
 1486SOL     OW 5356   5.144   1.532   2.288
 1486SOL    HW1 5357   5.049   1.535   2.257
 1486SOL    HW2 5358   5.147   1.502   2.383
 1487SOL     OW 5359   6.935   2.464   6.312
 1487SOL    HW1 5360   6.837   2.476   6.301
 1487SOL    HW2 5361   6.953   2.405   6.391
 1488SOL     OW 5362   5.096   1.150   3.490
 1488SOL    HW1 5363   5.160   1.105   3.429
 1488SOL    HW2 5364   5.144   1.220   3.543
 1489SOL     OW 5365   4.724   4.933   5.370
 1489SOL    HW1 5366   4.748   5.030   5.375
 1489SOL    HW2 5367   4.763   4.894   5.286
 1490SOL     OW 5368   0.661   3.272   2.452
 1490SOL    HW1 5369   0.667   3.187   2.399
 1490SOL    HW2 5370   0.677   3.350   2.392
 1491SOL     OW 5371   6.648   3.942   2.688
 1491SOL    HW1 5372   6.660   3.911   2.594
 1491SOL    HW2 5373   6.734   3.978   2.723
 1492SOL     OW 5374   5.746   1.047   2.653
 1492SOL    HW1 5375   5.750   1.146   2.658
 1492SOL    HW2 5376   5.706   1.010   2.737
 1493SOL     OW 5377   3.864   6.320   5.346
 1493SOL    HW1 5378   3.901   6.344   5.257
 1493SOL    HW2 5379   3.926   6.255   5.391
 1494SOL     OW 5380   4.880   2.132   6.984
 1494SOL    HW1 5381   4.922   2.203   0.018
 1494SOL    HW2 5382   4.818   2.077   0.016
 1495SOL     OW 5383   6.387   3.412   5.203
 1495SOL    HW1 5384   6.463   3.418   5.268
 1495SOL    HW2 5385   6.356   3.317   5.196
 1496SOL     OW 5386   0.596   1.566   1.438
 1496SOL    HW1 5387   0.656   1.497   1.396
 1496SOL    HW2 5388   0.506   1.562   1.395
 1497SOL     OW 5389   6.482   3.056   2.847
 1497SOL    HW1 5390   6.532   2.971   2.833
 1497SOL    HW2 5391   6.484   3.111   2.764
 1498SOL     OW 5392   2.625   5.193   6.921
 1498SOL    HW1 5393   2.609   5.281   6.876
 1498SOL    HW2 5394   2.717   5.192   6.961
 1499SOL     OW 5395   0.824   2.748   6.066
 1499SOL    HW1 5396   0.742   2.718   6.114
 1499SOL    HW2 5397   0.799   2.808   5.990
 1500SOL     OW 5398   0.076   6.952   0.344
 1500SOL    HW1 5399   0.052   6.857   0.325
 1500SOL    HW2 5400   7.020   7.010   0.327
 1501SOL     OW 5401   5.377   2.478   6.651
 1501SOL    HW1 5402   5.436   2.539   6.599
 1501SOL    HW2 5403   5.394   2.490   6.749
 1502SOL     OW 5404   4.230   0.011   0.078
 1502SOL    HW1 5405   4.177   6.967   0.129
 1502SOL    HW2 5406   4.235   0.096   0.130
 1503SOL     OW 5407   0.441   3.773   1.705
 1503SOL    HW1 5408   0.441   3.857   1.651
 1503SOL    HW2 5409   0.528   3.765   1.754
 1504SOL     OW 5410   0.694   0.266   5.474
 1504SOL    HW1 5411   0.681   0.174   5.511
 1504SOL    HW2 5412   0.746   0.261   5.389
 1505SOL     OW 5413   5.297   0.906   5.093
 1505SOL    HW1 5414   5.350   0.955   5.024
 1505SOL    HW2 5415   5.210   0.876   5.053
 1506SOL     OW 5416   0.846   6.312   0.730
 1506SOL    HW1 5417   0.781   6.237   0.746
 1506SOL    HW2 5418   0.802   6.382   0.674
 1507SOL     OW 5419   1.039   1.957   5.540
 1507SOL    HW1 5420   1.132   1.926   5.556
 1507SOL    HW2 5421   1.021   1.962   5.441
 1508SOL     OW 5422   6.600   1.349   1.995
 1508SOL    HW1 5423   6.592   1.279   1.924
 1508SOL    HW2 5424   6.637   1.308   2.078
 1509SOL     OW 5425   3.553   1.553   6.008
 1509SOL    HW1 5426   3.597   1.642   6.006
 1509SOL    HW2 5427   3.459   1.561   5.975
 1510SOL     OW 5428   4.850   1.910   4.721
 1510SOL    HW1 5429   4.870   1.912   4.623
 1510SOL    HW2 5430   4.752   1.926   4.735
 1511SOL     OW 5431   3.922   3.019   2.267
 1511SOL    HW1 5432   3.862   2.960   2.319
 1511SOL    HW2 5433   3.982   2.963   2.209
 1512SOL     OW 5434   0.348   5.748   1.688
 1512SOL    HW1 5435   0.358   5.778   1.783
 1512SOL    HW2 5436   0.439   5.742   1.646
 1513SOL     OW 5437   3.853   0.802   4.334
 1513SOL    HW1 5438   3.763   0.761   4.351
 1513SOL    HW2 5439   3.920   0.762   4.398
 1514SOL     OW 5440   4.052   2.009   5.706
 1514SOL    HW1 5441   4.144   2.049   5.706
 1514SOL    HW2 5442   4.046   1.939   5.777
 1515SOL     OW 5443   5.929   2.062   3.053
 1515SOL    HW1 5444   5.893   1.971   3.035
 1515SOL    HW2 5445   6.007   2.080   2.993
 1516SOL     OW 5446   6.977   6.378   0.216
 1516SOL    HW1 5447   0.040   6.388   0.266
 1516SOL    HW2 5448   6.946   6.283   0.224
 1517SOL     OW 5449   4.456   6.267   3.114
 1517SOL    HW1 5450   4.405   6.353   3.121
 1517SOL    HW2 5451   4.554   6.287   3.108
 1518SOL     OW 5452   1.441   2.810   6.553
 1518SOL    HW1 5453   1.479   2.863   6.628
 1518SOL    HW2 5454   1.510   2.800   6.481
 1519SOL     OW 5455   6.826   5.415   1.294
 1519SOL    HW1 5456   6.816   5.346   1.223
 1519SOL    HW2 5457   6.786   5.381   1.379
 1520SOL     OW 5458   0.533   4.058   2.030
 1520SOL    HW1 5459   0.472   4.047   1.951
 1520SOL    HW2 5460   0.628   4.061   1.999
 1521SOL     OW 5461   1.767   3.942   6.219
 1521SOL    HW1 5462   1.787   4.000   6.299
 1521SOL    HW2 5463   1.838   3.873   6.209
 1522SOL     OW 5464   6.378   6.343   5.497
 1522SOL    HW1 5465   6.427   6.288   5.430
 1522SOL    HW2 5466   6.325   6.414   5.451
 1523SOL     OW 5467   4.802   5.973   1.037
 1523SOL    HW1 5468   4.777   6.028   1.117
 1523SOL    HW2 5469   4.884   5.920   1.057
 1524SOL     OW 5470   2.412   2.029   2.295
 1524SOL    HW1 5471   2.375   2.069   2.379
 1524SOL    HW2 5472   2.336   2.002   2.235
 1525SOL     OW 5473   0.019   2.651   6.897
 1525SOL    HW1 5474   6.965   2.599   6.934
 1525SOL    HW2 5475   7.011   2.742   6.871
 1526SOL     OW 5476   6.540   0.136   6.415
 1526SOL    HW1 5477   6.620   0.194   6.403
 1526SOL    HW2 5478   6.505   0.145   6.508
 1527SOL     OW 5479   4.066   0.633   5.474
 1527SOL    HW1 5480   4.156   0.673   5.492
 1527SOL    HW2 5481   4.071   0.534   5.482
 1528SOL     OW 5482   4.624   5.446   1.998
 1528SOL    HW1 5483   4.632   5.545   2.007
 1528SOL    HW2 5484   4.619   5.405   2.089
 1529SOL     OW 5485   3.486   0.568   0.171
 1529SOL    HW1 5486   3.469   0.652   0.222
 1529SOL    HW2 5487   3.414   0.502   0.190
 1530SOL     OW 5488   3.159   1.754   1.693
 1530SOL    HW1 5489   3.176   1.825   1.761
 1530SOL    HW2 5490   3.076   1.703   1.718
 1531SOL     OW 5491   4.692   0.906   5.269
 1531SOL    HW1 5492   4.782   0.924   5.229
 1531SOL    HW2 5493   4.691   0.814   5.309
 1532SOL     OW 5494   2.703   3.593   6.294
 1532SOL    HW1 5495   2.689   3.646   6.211
 1532SOL    HW2 5496   2.798   3.600   6.323
 1533SOL     OW 5497   5.759   3.957   6.809
 1533SOL    HW1 5498   5.788   3.890   6.877
 1533SOL    HW2 5499   5.687   4.015   6.848
 1534SOL     OW 5500   2.282   4.662   6.544
 1534SOL    HW1 5501   2.284   4.583   6.483
 1534SOL    HW2 5502   2.261   4.744   6.491
 1535SOL     OW 5503   4.925   6.573   3.824
 1535SOL    HW1 5504   4.935   6.481   3.863
 1535SOL    HW2 5505   4.943   6.568   3.725
 1536SOL     OW 5506   4.055   4.469   5.413
 1536SOL    HW1 5507   4.104   4.448   5.329
 1536SOL    HW2 5508   3.964   4.427   5.410
 1537SOL     OW 5509   4.538   6.771   3.455
 1537SOL    HW1 5510   4.511   6.759   3.359
 1537SOL    HW2 5511   4.492   6.850   3.494
 1538SOL     OW 5512   4.126   5.584   6.454
 1538SOL    HW1 5513   4.199   5.620   6.512
 1538SOL    HW2 5514   4.160   5.574   6.360
 1539SOL     OW 5515   4.214   3.877   1.804
 1539SOL    HW1 5516   4.262   3.935   1.870
 1539SOL    HW2 5517   4.261   3.882   1.715
 1540SOL     OW 5518   1.210   5.722   6.255
 1540SOL    HW1 5519   1.260   5.654   6.202
 1540SOL    HW2 5520   1.145   5.676   6.316
 1541SOL     OW 5521   4.092   3.216   3.329
 1541SOL    HW1 5522   4.078   3.298   3.274
 1541SOL    HW2 5523   4.088   3.136   3.269
 1542SOL     OW 5524   5.786   6.066   2.563
 1542SOL    HW1 5525   5.705   6.014   2.535
 1542SOL    HW2 5526   5.773   6.163   2.540
 1543SOL     OW 5527   3.770   4.680   5.327
 1543SOL    HW1 5528   3.818   4.592   5.333
 1543SOL    HW2 5529   3.751   4.714   5.418
 1544SOL     OW 5530   3.515   3.271   3.004
 1544SOL    HW1 5531   3.487   3.359   2.965
 1544SOL    HW2 5532   3.612   3.255   2.984
 1545SOL     OW 5533   4.869   1.079   3.874
 1545SOL    HW1 5534   4.948   1.070   3.813
 1545SOL    HW2 5535   4.883   1.156   3.936
 1546SOL     OW 5536   3.974   6.151   6.038
 1546SOL    HW1 5537   4.059   6.178   5.993
 1546SOL    HW2 5538   3.936   6.230   6.086
 1547SOL     OW 5539   1.386   3.477   2.924
 1547SOL    HW1 5540   1.430   3.426   2.999
 1547SOL    HW2 5541   1.383   3.420   2.842
 1548SOL     OW 5542   4.717   3.647   5.785
 1548SOL    HW1 5543   4.665   3.564   5.802
 1548SOL    HW2 5544   4.655   3.720   5.756
 1549SOL     OW 5545   4.891   1.395   2.491
 1549SOL    HW1 5546   4.848   1.337   2.560
 1549SOL    HW2 5547   4.951   1.339   2.434
 1550SOL     OW 5548   3.165   4.122   6.810
 1550SOL    HW1 5549   3.210   4.139   6.722
 1550SOL    HW2 5550   3.227   4.146   6.884
 1551SOL     OW 5551   1.769   4.662   6.199
 1551SOL    HW1 5552   1.795   4.670   6.295
 1551SOL    HW2 5553   1.846   4.688   6.142
 1552SOL     OW 5554   0.235   5.996   6.685
 1552SOL    HW1 5555   0.296   6.075   6.683
 1552SOL    HW2 5556   0.285   5.917   6.723
 1553SOL     OW 5557   0.317   1.368   5.614
 1553SOL    HW1 5558   0.225   1.330   5.624
 1553SOL    HW2 5559   0.333   1.394   5.519
 1554SOL     OW 5560   4.346   1.730   3.133
 1554SOL    HW1 5561   4.276   1.695   3.196
 1554SOL    HW2 5562   4.436   1.715   3.173
 1555SOL     OW 5563   5.241   2.152   0.019
 1555SOL    HW1 5564   5.341   2.145   0.018
 1555SOL    HW2 5565   5.209   2.184   6.953
 1556SOL     OW 5566   3.235   0.863   0.980
 1556SOL    HW1 5567   3.176   0.892   1.056
 1556SOL    HW2 5568   3.178   0.840   0.901
 1557SOL     OW 5569   1.812   1.028   6.141
 1557SOL    HW1 5570   1.731   1.000   6.090
 1557SOL    HW2 5571   1.856   1.105   6.093
 1558SOL     OW 5572   4.962   0.483   4.765
 1558SOL    HW1 5573   5.045   0.440   4.729
 1558SOL    HW2 5574   4.986   0.544   4.840
 1559SOL     OW 5575   0.059   2.714   6.624
 1559SOL    HW1 5576   0.104   2.653   6.688
 1559SOL    HW2 5577   0.086   2.808   6.642
 1560SOL     OW 5578   1.765   1.512   5.511
 1560SOL    HW1 5579   1.855   1.493   5.471
 1560SOL    HW2 5580   1.767   1.600   5.559
 1561SOL     OW 5581   6.016   6.391   4.492
 1561SOL    HW1 5582   6.083   6.350   4.554
 1561SOL    HW2 5583   5.973   6.319   4.437
 1562SOL     OW 5584   4.059   5.767   2.540
 1562SOL    HW1 5585   4.105   5.788   2.627
 1562SOL    HW2 5586   4.066   5.669   2.522
 1563SOL     OW 5587   1.883   0.621   6.305
 1563SOL    HW1 5588   1.798   0.589   6.347
 1563SOL    HW2 5589   1.890   0.586   6.212
 1564SOL     OW 5590   1.337   2.923   2.753
 1564SOL    HW1 5591   1.412   2.918   2.687
 1564SOL    HW2 5592   1.283   3.006   2.736
 1565SOL     OW 5593   4.337   4.909   4.826
 1565SOL    HW1 5594   4.396   4.990   4.819
 1565SOL    HW2 5595   4.259   4.920   4.765
 1566SOL     OW 5596   5.209   4.950   3.708
 1566SOL    HW1 5597   5.164   4.992   3.629
 1566SOL    HW2 5598   5.145   4.948   3.785
 1567SOL     OW 5599   6.152   5.680   0.164
 1567SOL    HW1 5600   6.143   5.780   0.169
 1567SOL    HW2 5601   6.087   5.645   0.098
 1568SOL     OW 5602   1.662   5.687   1.621
 1568SOL    HW1 5603   1.735   5.643   1.568
 1568SOL    HW2 5604   1.645   5.634   1.704
 1569SOL     OW 5605   3.653   6.459   3.674
 1569SOL    HW1 5606   3.604   6.426   3.594
 1569SOL    HW2 5607   3.672   6.383   3.736
 1570SOL     OW 5608   2.098   6.291   1.037
 1570SOL    HW1 5609   1.999   6.305   1.030
 1570SOL    HW2 5610   2.137   6.284   0.945
 1571SOL     OW 5611   5.981   1.600   1.864
 1571SOL    HW1 5612   6.007   1.640   1.952
 1571SOL    HW2 5613   6.048   1.626   1.794
 1572SOL     OW 5614   0.480   6.837   0.668
 1572SOL    HW1 5615   0.579   6.831   0.652
 1572SOL    HW2 5616   0.438   6.890   0.594
 1573SOL     OW 5617   6.057   3.457   1.894
 1573SOL    HW1 5618   6.147   3.481   1.930
 1573SOL    HW2 5619   5.987   3.515   1.936
 1574SOL     OW 5620   0.373   0.863   2.578
 1574SOL    HW1 5621   0.394   0.793   2.646
 1574SOL    HW2 5622   0.350   0.948   2.623
 1575SOL     OW 5623   3.472   1.873   0.924
 1575SOL    HW1 5624   3.483   1.969   0.951
 1575SOL    HW2 5625   3.448   1.819   1.004
 1576SOL     OW 5626   1.007   0.458   3.190
 1576SOL    HW1 5627   0.965   0.373   3.160
 1576SOL    HW2 5628   1.078   0.438   3.258
 1577SOL     OW 5629   2.699   0.756   5.042
 1577SOL    HW1 5630   2.637   0.831   5.061
 1577SOL    HW2 5631   2.766   0.747   5.116
 1578SOL     OW 5632   6.019   2.804   5.812
 1578SOL    HW1 5633   5.942   2.803   5.876
 1578SOL    HW2 5634   5.991   2.847   5.726
 1579SOL     OW 5635   0.925   1.882   2.380
 1579SOL    HW1 5636   0.868   1.900   2.300
 1579SOL    HW2 5637   0.989   1.808   2.360
 1580SOL     OW 5638   3.194   4.028   4.168
 1580SOL    HW1 5639   3.189   4.065   4.076
 1580SOL    HW2 5640   3.262   4.079   4.221
 1581SOL     OW 5641   6.986   3.964   5.082
 1581SOL    HW1 5642   7.017   3.924   4.995
 1581SOL    HW2 5643   6.890   3.988   5.075
 1582SOL     OW 5644   2.045   0.137   4.096
 1582SOL    HW1 5645   2.095   0.160   4.013
 1582SOL    HW2 5646   1.978   0.065   4.076
 1583SOL     OW 5647   1.363   4.771   3.361
 1583SOL    HW1 5648   1.343   4.856   3.312
 1583SOL    HW2 5649   1.442   4.726   3.318
 1584SOL     OW 5650   1.339   6.279   5.889
 1584SOL    HW1 5651   1.294   6.343   5.951
 1584SOL    HW2 5652   1.319   6.185   5.917
 1585SOL     OW 5653   5.602   1.227   3.476
 1585SOL    HW1 5654   5.536   1.278   3.532
 1585SOL    HW2 5655   5.554   1.164   3.416
 1586SOL     OW 5656   3.514   4.998   2.052
 1586SOL    HW1 5657   3.557   4.914   2.019
 1586SOL    HW2 5658   3.415   4.986   2.053
 1587SOL     OW 5659   3.006   5.319   6.219
 1587SOL    HW1 5660   2.949   5.237   6.218
 1587SOL    HW2 5661   3.101   5.294   6.240
 1588SOL     OW 5662   4.103   0.937   3.145
 1588SOL    HW1 5663   4.197   0.909   3.122
 1588SOL    HW2 5664   4.099   1.037   3.153
 1589SOL     OW 5665   5.737   3.477   1.514
 1589SOL    HW1 5666   5.677   3.553   1.538
 1589SOL    HW2 5667   5.828   3.512   1.491
 1590SOL     OW 5668   4.074   6.083   5.761
 1590SOL    HW1 5669   4.007   6.155   5.772
 1590SOL    HW2 5670   4.028   5.996   5.743
 1591SOL     OW 5671   6.856   4.981   2.762
 1591SOL    HW1 5672   6.910   4.897   2.750
 1591SOL    HW2 5673   6.911   5.060   2.736
 1592SOL     OW 5674   2.138   4.414   6.434
 1592SOL    HW1 5675   2.141   4.396   6.532
 1592SOL    HW2 5676   2.190   4.342   6.386
 1593SOL     OW 5677   1.452   6.009   4.857
 1593SOL    HW1 5678   1.435   6.017   4.759
 1593SOL    HW2 5679   1.446   5.913   4.884
 1594SOL     OW 5680   0.230   6.208   2.506
 1594SOL    HW1 5681   0.205   6.243   2.416
 1594SOL    HW2 5682   0.164   6.239   2.574
 1595SOL     OW 5683   1.462   5.521   0.559
 1595SOL    HW1 5684   1.470   5.456   0.635
 1595SOL    HW2 5685   1.370   5.516   0.520
 1596SOL     OW 5686   0.310   2.376   3.827
 1596SOL    HW1 5687   0.275   2.285   3.847
 1596SOL    HW2 5688   0.264   2.413   3.746
 1597SOL     OW 5689   1.992   6.277   0.753
 1597SOL    HW1 5690   2.083   6.237   0.759
 1597SOL    HW2 5691   1.997   6.363   0.701
 1598SOL     OW 5692   0.847   3.813   6.316
 1598SOL    HW1 5693   0.866   3.823   6.219
 1598SOL    HW2 5694   0.838   3.904   6.358
 1599SOL     OW 5695   4.945   4.539   5.372
 1599SOL    HW1 5696   5.015   4.468   5.365
 1599SOL    HW2 5697   4.863   4.501   5.415
 1600SOL     OW 5698   4.451   1.674   3.982
 1600SOL    HW1 5699   4.486   1.762   4.013
 1600SOL    HW2 5700   4.411   1.683   3.890
 1601SOL     OW 5701   0.129   4.609   4.777
 1601SOL    HW1 5702   0.213   4.561   4.804
 1601SOL    HW2 5703   0.050   4.557   4.809
 1602SOL     OW 5704   3.135   4.865   3.276
 1602SOL    HW1 5705   3.139   4.964   3.289
 1602SOL    HW2 5706   3.136   4.844   3.178
 1603SOL     OW 5707   0.563   6.281   2.465
 1603SOL    HW1 5708   0.647   6.335   2.455
 1603SOL    HW2 5709   0.485   6.335   2.435
 1604SOL     OW 5710   5.663   5.397   1.828
 1604SOL    HW1 5711   5.738   5.380   1.893
 1604SOL    HW2 5712   5.606   5.315   1.821
 1605SOL     OW 5713   6.819   6.303   1.375
 1605SOL    HW1 5714   6.752   6.325   1.304
 1605SOL    HW2 5715   6.875   6.225   1.346
 1606SOL     OW 5716   3.187   0.801   4.715
 1606SOL    HW1 5717   3.114   0.851   4.762
 1606SOL    HW2 5718   3.187   0.825   4.618
 1607SOL     OW 5719   4.311   0.949   1.101
 1607SOL    HW1 5720   4.285   0.915   1.011
 1607SOL    HW2 5721   4.329   1.047   1.097
 1608SOL     OW 5722   0.829   0.374   3.834
 1608SOL    HW1 5723   0.906   0.334   3.883
 1608SOL    HW2 5724   0.770   0.301   3.798
 1609SOL     OW 5725   3.727   0.073   0.532
 1609SOL    HW1 5726   3.683   0.102   0.446
 1609SOL    HW2 5727   3.785   7.016   0.515
 1610SOL     OW 5728   5.745   4.729   6.865
 1610SOL    HW1 5729   5.688   4.800   6.904
 1610SOL    HW2 5730   5.715   4.639   6.898
 1611SOL     OW 5731   2.084   3.578   1.282
 1611SOL    HW1 5732   2.103   3.673   1.308
 1611SOL    HW2 5733   2.086   3.521   1.364
 1612SOL     OW 5734   2.944   0.567   5.708
 1612SOL    HW1 5735   2.860   0.619   5.694
 1612SOL    HW2 5736   2.990   0.554   5.620
 1613SOL     OW 5737   2.187   5.143   1.786
 1613SOL    HW1 5738   2.118   5.123   1.717
 1613SOL    HW2 5739   2.202   5.242   1.790
 1614SOL     OW 5740   5.835   3.574   6.982
 1614SOL    HW1 5741   5.804   3.656   0.005
 1614SOL    HW2 5742   5.799   3.493   0.005
 1615SOL     OW 5743   6.280   5.241   0.797
 1615SOL    HW1 5744   6.279   5.172   0.869
 1615SOL    HW2 5745   6.375   5.263   0.773
 1616SOL     OW 5746   2.948   0.918   4.811
 1616SOL    HW1 5747   2.941   1.010   4.774
 1616SOL    HW2 5748   2.946   0.921   4.911
 1617SOL     OW 5749   6.063   0.407   2.654
 1617SOL    HW1 5750   6.001   0.340   2.696
 1617SOL    HW2 5751   6.020   0.498   2.656
 1618SOL     OW 5752   1.796   3.890   1.686
 1618SOL    HW1 5753   1.809   3.985   1.712
 1618SOL    HW2 5754   1.709   3.880   1.638
 1619SOL     OW 5755   1.330   3.133   2.347
 1619SOL    HW1 5756   1.301   3.121   2.442
 1619SOL    HW2 5757   1.302   3.223   2.315
 1620SOL     OW 5758   2.746   4.790   1.827
 1620SOL    HW1 5759   2.790   4.816   1.741
 1620SOL    HW2 5760   2.808   4.732   1.880
 1621SOL     OW 5761   0.361   1.217   0.502
 1621SOL    HW1 5762   0.410   1.155   0.564
 1621SOL    HW2 5763   0.398   1.309   0.510
 1622SOL     OW 5764   0.210   3.061   4.883
 1622SOL    HW1 5765   0.137   3.088   4.945
 1622SOL    HW2 5766   0.236   3.140   4.826
 1623SOL     OW 5767   2.115   3.395   5.661
 1623SOL    HW1 5768   2.054   3.432   5.731
 1623SOL    HW2 5769   2.155   3.469   5.608
 1624SOL     OW 5770   2.828   0.436   5.063
 1624SOL    HW1 5771   2.906   0.485   5.026
 1624SOL    HW2 5772   2.761   0.419   4.991
 1625SOL     OW 5773   1.114   5.435   1.404
 1625SOL    HW1 5774   1.128   5.336   1.397
 1625SOL    HW2 5775   1.023   5.453   1.440
 1626SOL     OW 5776   4.166   1.771   6.887
 1626SOL    HW1 5777   4.232   1.836   6.926
 1626SOL    HW2 5778   4.215   1.690   6.854
 1627SOL     OW 5779   0.201   3.482   3.896
 1627SOL    HW1 5780   0.202   3.504   3.994
 1627SOL    HW2 5781   0.220   3.564   3.843
 1628SOL     OW 5782   4.341   4.635   0.418
 1628SOL    HW1 5783   4.295   4.705   0.363
 1628SOL    HW2 5784   4.290   4.549   0.412
 1629SOL     OW 5785   2.774   0.690   4.144
 1629SOL    HW1 5786   2.818   0.765   4.193
 1629SOL    HW2 5787   2.746   0.620   4.209
 1630SOL     OW 5788   1.621   5.477   5.518
 1630SOL    HW1 5789   1.596   5.385   5.550
 1630SOL    HW2 5790   1.539   5.535   5.517
 1631SOL     OW 5791   0.946   2.739   6.388
 1631SOL    HW1 5792   1.027   2.787   6.420
 1631SOL    HW2 5793   0.964   2.641   6.385
 1632SOL     OW 5794   0.180   1.980   6.835
 1632SOL    HW1 5795   0.091   1.959   6.876
 1632SOL    HW2 5796   0.173   1.976   6.735
 1633SOL     OW 5797   5.307   3.216   4.733
 1633SOL    HW1 5798   5.242   3.291   4.748
 1633SOL    HW2 5799   5.391   3.235   4.784
 1634SOL     OW 5800   4.462   5.547   6.212
 1634SOL    HW1 5801   4.473   5.477   6.282
 1634SOL    HW2 5802   4.397   5.516   6.143
 1635SOL     OW 5803   6.769   5.770   5.799
 1635SOL    HW1 5804   6.859   5.810   5.778
 1635SOL    HW2 5805   6.699   5.841   5.793
 1636SOL     OW 5806   3.127   4.353   1.663
 1636SOL    HW1 5807   3.047   4.376   1.720
 1636SOL    HW2 5808   3.179   4.280   1.707
 1637SOL     OW 5809   0.932   0.250   2.751
 1637SOL    HW1 5810   1.028   0.227   2.763
 1637SOL    HW2 5811   0.924   0.345   2.720
 1638SOL     OW 5812   0.497   4.473   3.713
 1638SOL    HW1 5813   0.567   4.539   3.685
 1638SOL    HW2 5814   0.459   4.499   3.801
 1639SOL     OW 5815   4.707   6.819   2.868
 1639SOL    HW1 5816   4.650   6.850   2.792
 1639SOL    HW2 5817   4.738   6.899   2.921
 1640SOL     OW 5818   5.943   1.156   0.457
 1640SOL    HW1 5819   5.870   1.186   0.394
 1640SOL    HW2 5820   5.936   1.208   0.542
 1641SOL     OW 5821   4.978   2.856   3.967
 1641SOL    HW1 5822   4.940   2.917   4.036
 1641SOL    HW2 5823   4.904   2.817   3.912
 1642SOL     OW 5824   5.526   3.599   6.556
 1642SOL    HW1 5825   5.572   3.515   6.530
 1642SOL    HW2 5826   5.494   3.592   6.650
 1643SOL     OW 5827   3.089   5.125   4.084
 1643SOL    HW1 5828   3.125   5.048   4.031
 1643SOL    HW2 5829   2.990   5.117   4.091
 1644SOL     OW 5830   6.987   3.015   0.947
 1644SOL    HW1 5831   6.896   2.976   0.962
 1644SOL    HW2 5832   0.032   2.961   0.996
 1645SOL     OW 5833   3.414   5.592   5.474
 1645SOL    HW1 5834   3.372   5.501   5.472
 1645SOL    HW2 5835   3.347   5.660   5.444
 1646SOL     OW 5836   2.802   5.828   0.485
 1646SOL    HW1 5837   2.766   5.737   0.464
 1646SOL    HW2 5838   2.878   5.819   0.549
 1647SOL     OW 5839   6.237   3.127   4.857
 1647SOL    HW1 5840   6.283   3.216   4.855
 1647SOL    HW2 5841   6.237   3.087   4.765
 1648SOL     OW 5842   5.715   5.265   1.235
 1648SOL    HW1 5843   5.706   5.231   1.141
 1648SOL    HW2 5844   5.767   5.351   1.233
 1649SOL     OW 5845   3.281   0.399   4.433
 1649SOL    HW1 5846   3.240   0.461   4.366
 1649SOL    HW2 5847   3.350   0.342   4.387
 1650SOL     OW 5848   2.003   6.227   5.441
 1650SOL    HW1 5849   2.058   6.158   5.489
 1650SOL    HW2 5850   2.033   6.318   5.468
 1651SOL     OW 5851   0.548   1.837   0.955
 1651SOL    HW1 5852   0.609   1.792   0.889
 1651SOL    HW2 5853   0.471   1.878   0.906
 1652SOL     OW 5854   0.944   3.388   2.568
 1652SOL    HW1 5855   0.855   3.408   2.526
 1652SOL    HW2 5856   0.937   3.398   2.667
 1653SOL     OW 5857   1.413   0.206   0.969
 1653SOL    HW1 5858   1.435   0.114   0.937
 1653SOL    HW2 5859   1.401   0.204   1.068
 1654SOL     OW 5860   6.769   3.578   1.501
 1654SOL    HW1 5861   6.722   3.666   1.508
 1654SOL    HW2 5862   6.718   3.509   1.553
 1655SOL     OW 5863   6.230   2.436   5.110
 1655SOL    HW1 5864   6.216   2.338   5.124
 1655SOL    HW2 5865   6.210   2.485   5.195
 1656SOL     OW 5866   2.408   4.618   1.583
 1656SOL    HW1 5867   2.468   4.600   1.661
 1656SOL    HW2 5868   2.384   4.715   1.581
 1657SOL     OW 5869   6.641   0.875   3.838
 1657SOL    HW1 5870   6.644   0.781   3.805
 1657SOL    HW2 5871   6.546   0.902   3.853
 1658SOL     OW 5872   1.198   7.008   1.208
 1658SOL    HW1 5873   1.141   0.067   1.212
 1658SOL    HW2 5874   1.210   6.971   1.301
 1659SOL     OW 5875   3.743   0.564   6.025
 1659SOL    HW1 5876   3.827   0.603   5.986
 1659SOL    HW2 5877   3.762   0.471   6.059
 1660SOL     OW 5878   1.210   5.380   4.349
 1660SOL    HW1 5879   1.264   5.297   4.339
 1660SOL    HW2 5880   1.151   5.392   4.269
 1661SOL     OW 5881   2.070   0.911   1.686
 1661SOL    HW1 5882   1.997   0.847   1.661
 1661SOL    HW2 5883   2.081   0.979   1.614
 1662SOL     OW 5884   6.660   0.027   3.940
 1662SOL    HW1 5885   6.574   0.050   3.893
 1662SOL    HW2 5886   6.654   0.053   4.036
 1663SOL     OW 5887   3.937   6.421   2.410
 1663SOL    HW1 5888   3.981   6.505   2.377
 1663SOL    HW2 5889   4.006   6.361   2.451
 1664SOL     OW 5890   2.080   6.689   4.724
 1664SOL    HW1 5891   2.027   6.727   4.800
 1664SOL    HW2 5892   2.049   6.731   4.638
 1665SOL     OW 5893   6.990   1.687   3.384
 1665SOL    HW1 5894   0.006   1.765   3.433
 1665SOL    HW2 5895   6.890   1.692   3.389
 1666SOL     OW 5896   5.608   2.927   0.069
 1666SOL    HW1 5897   5.522   2.937   0.019
 1666SOL    HW2 5898   5.616   2.833   0.102
 1667SOL     OW 5899   6.276   6.504   1.811
 1667SOL    HW1 5900   6.284   6.598   1.779
 1667SOL    HW2 5901   6.187   6.467   1.785
 1668SOL     OW 5902   5.598   6.406   5.610
 1668SOL    HW1 5903   5.568   6.383   5.702
 1668SOL    HW2 5904   5.666   6.339   5.579
 1669SOL     OW 5905   0.166   5.952   6.199
 1669SOL    HW1 5906   0.147   5.947   6.101
 1669SOL    HW2 5907   0.219   5.872   6.227
 1670SOL     OW 5908   0.589   4.054   6.210
 1670SOL    HW1 5909   0.614   4.111   6.133
 1670SOL    HW2 5910   0.669   4.040   6.269
 1671SOL     OW 5911   4.724   2.346   1.346
 1671SOL    HW1 5912   4.762   2.326   1.256
 1671SOL    HW2 5913   4.797   2.356   1.413
 1672SOL     OW 5914   1.693   3.033   1.050
 1672SOL    HW1 5915   1.787   3.065   1.037
 1672SOL    HW2 5916   1.691   2.933   1.044
 1673SOL     OW 5917   0.276   2.568   4.038
 1673SOL    HW1 5918   0.318   2.542   4.125
 1673SOL    HW2 5919   0.306   2.505   3.966
 1674SOL     OW 5920   0.381   4.060   2.268
 1674SOL    HW1 5921   0.435   4.062   2.183
 1674SOL    HW2 5922   0.423   4.121   2.335
 1675SOL     OW 5923   4.256   0.549   6.337
 1675SOL    HW1 5924   4.280   0.559   6.240
 1675SOL    HW2 5925   4.283   0.458   6.368
 1676SOL     OW 5926   2.158   2.037   2.171
 1676SOL    HW1 5927   2.140   2.004   2.079
 1676SOL    HW2 5928   2.177   2.135   2.168
 1677SOL     OW 5929   3.087   2.915   5.251
 1677SOL    HW1 5930   3.009   2.859   5.280
 1677SOL    HW2 5931   3.169   2.857   5.244
 1678SOL     OW 5932   4.584   4.647   4.493
 1678SOL    HW1 5933   4.534   4.691   4.568
 1678SOL    HW2 5934   4.520   4.595   4.436
 1679SOL     OW 5935   2.438   2.534   4.790
 1679SOL    HW1 5936   2.363   2.578   4.840
 1679SOL    HW2 5937   2.450   2.580   4.702
 1680SOL     OW 5938   6.960   3.578   4.775
 1680SOL    HW1 5939   6.903   3.642   4.724
 1680SOL    HW2 5940   6.925   3.485   4.764
 1681SOL     OW 5941   6.325   5.885   6.797
 1681SOL    HW1 5942   6.334   5.874   6.896
 1681SOL    HW2 5943   6.228   5.878   6.772
 1682SOL     OW 5944   0.471   1.650   4.713
 1682SOL    HW1 5945   0.406   1.620   4.644
 1682SOL    HW2 5946   0.542   1.581   4.724
 1683SOL     OW 5947   4.416   5.405   1.237
 1683SOL    HW1 5948   4.454   5.317   1.268
 1683SOL    HW2 5949   4.324   5.390   1.201
 1684SOL     OW 5950   1.242   6.192   2.576
 1684SOL    HW1 5951   1.320   6.165   2.519
 1684SOL    HW2 5952   1.273   6.256   2.646
 1685SOL     OW 5953   2.315   0.585   5.578
 1685SOL    HW1 5954   2.274   0.668   5.541
 1685SOL    HW2 5955   2.243   0.518   5.598
 1686SOL     OW 5956   2.610   5.417   4.673
 1686SOL    HW1 5957   2.677   5.412   4.599
 1686SOL    HW2 5958   2.592   5.325   4.708
 1687SOL     OW 5959   2.450   3.376   1.295
 1687SOL    HW1 5960   2.470   3.472   1.316
 1687SOL    HW2 5961   2.375   3.345   1.355
 1688SOL     OW 5962   1.662   2.495   4.842
 1688SOL    HW1 5963   1.734   2.468   4.779
 1688SOL    HW2 5964   1.612   2.414   4.873
 1689SOL     OW 5965   5.447   1.061   2.470
 1689SOL    HW1 5966   5.400   1.144   2.440
 1689SOL    HW2 5967   5.387   0.982   2.456
 1690SOL     OW 5968   1.736   2.870   3.520
 1690SOL    HW1 5969   1.757   2.966   3.541
 1690SOL    HW2 5970   1.770   2.812   3.594
 1691SOL     OW 5971   5.978   3.965   3.306
 1691SOL    HW1 5972   6.068   3.925   3.292
 1691SOL    HW2 5973   5.981   4.062   3.282
 1692SOL     OW 5974   5.838   0.155   1.669
 1692SOL    HW1 5975   5.914   0.203   1.713
 1692SOL    HW2 5976   5.863   0.131   1.575
 1693SOL     OW 5977   0.594   2.423   1.900
 1693SOL    HW1 5978   0.692   2.401   1.895
 1693SOL    HW2 5979   0.550   2.363   1.966
 1694SOL     OW 5980   5.419   0.602   3.308
 1694SOL    HW1 5981   5.505   0.552   3.292
 1694SOL    HW2 5982   5.351   0.574   3.240
 1695SOL     OW 5983   3.075   1.723   6.471
 1695SOL    HW1 5984   3.172   1.699   6.473
 1695SOL    HW2 5985   3.039   1.706   6.379
 1696SOL     OW 5986   5.006   4.330   0.730
 1696SOL    HW1 5987   5.016   4.429   0.724
 1696SOL    HW2 5988   4.921   4.307   0.778
 1697SOL     OW 5989   5.918   6.288   1.466
 1697SOL    HW1 5990   5.950   6.247   1.552
 1697SOL    HW2 5991   5.854   6.362   1.487
 1698SOL     OW 5992   4.363   0.721   0.118
 1698SOL    HW1 5993   4.385   0.759   0.027
 1698SOL    HW2 5994   4.264   0.718   0.130
 1699SOL     OW 5995   2.601   1.122   0.804
 1699SOL    HW1 5996   2.625   1.200   0.862
 1699SOL    HW2 5997   2.527   1.070   0.847
 1700SOL     OW 5998   5.538   2.383   3.176
 1700SOL    HW1 5999   5.626   2.363   3.132
 1700SOL    HW2 6000   5.554   2.409   3.271
 1701SOL     OW 6001   5.091   4.305   5.897
 1701SOL    HW1 6002   5.001   4.327   5.859
 1701SOL    HW2 6003   5.152   4.275   5.824
 1702SOL     OW 6004   0.012   2.915   6.986
 1702SOL    HW1 6005   0.106   2.893   7.012
 1702SOL    HW2 6006   7.009   3.004   7.023
 1703SOL     OW 6007   3.371   3.024   2.176
 1703SOL    HW1 6008   3.359   3.007   2.079
 1703SOL    HW2 6009   3.354   3.121   2.195
 1704SOL     OW 6010   0.881   2.558   1.232
 1704SOL    HW1 6011   0.786   2.584   1.245
 1704SOL    HW2 6012   0.934   2.637   1.201
 1705SOL     OW 6013   3.516   1.909   1.616
 1705SOL    HW1 6014   3.536   2.003   1.644
 1705SOL    HW2 6015   3.452   1.911   1.538
 1706SOL     OW 6016   4.961   1.242   1.495
 1706SOL    HW1 6017   4.933   1.335   1.473
 1706SOL    HW2 6018   4.883   1.181   1.490
 1707SOL     OW 6019   5.367   2.122   2.552
 1707SOL    HW1 6020   5.350   2.038   2.604
 1707SOL    HW2 6021   5.367   2.101   2.454
 1708SOL     OW 6022   5.265   5.191   2.314
 1708SOL    HW1 6023   5.203   5.262   2.348
 1708SOL    HW2 6024   5.359   5.218   2.334
 1709SOL     OW 6025   2.975   5.433   1.587
 1709SOL    HW1 6026   2.958   5.339   1.615
 1709SOL    HW2 6027   2.925   5.495   1.647
 1710SOL     OW 6028   5.385   5.118   3.948
 1710SOL    HW1 6029   5.460   5.083   4.004
 1710SOL    HW2 6030   5.298   5.085   3.985
 1711SOL     OW 6031   1.028   4.750   4.591
 1711SOL    HW1 6032   1.087   4.677   4.625
 1711SOL    HW2 6033   1.018   4.742   4.492
 1712SOL     OW 6034   0.123   3.160   5.633
 1712SOL    HW1 6035   0.158   3.249   5.603
 1712SOL    HW2 6036   0.125   3.096   5.556
 1713SOL     OW 6037   4.217   2.241   2.095
 1713SOL    HW1 6038   4.242   2.329   2.055
 1713SOL    HW2 6039   4.281   2.171   2.063
 1714SOL     OW 6040   3.657   1.809   5.476
 1714SOL    HW1 6041   3.643   1.711   5.465
 1714SOL    HW2 6042   3.637   1.835   5.571
 1715SOL     OW 6043   0.165   4.448   2.999
 1715SOL    HW1 6044   0.175   4.537   2.954
 1715SOL    HW2 6045   0.171   4.460   3.098
 1716SOL     OW 6046   4.329   7.009   2.960
 1716SOL    HW1 6047   4.375   0.042   2.891
 1716SOL    HW2 6048   4.230   0.002   2.957
 1717SOL     OW 6049   2.450   6.164   6.070
 1717SOL    HW1 6050   2.473   6.067   6.076
 1717SOL    HW2 6051   2.509   6.207   6.002
 1718SOL     OW 6052   2.379   2.514   1.755
 1718SOL    HW1 6053   2.477   2.513   1.771
 1718SOL    HW2 6054   2.334   2.573   1.822
 1719SOL     OW 6055   1.777   3.803   0.849
 1719SOL    HW1 6056   1.785   3.771   0.755
 1719SOL    HW2 6057   1.743   3.728   0.906
 1720SOL     OW 6058   0.626   2.735   0.098
 1720SOL    HW1 6059   0.547   2.693   0.142
 1720SOL    HW2 6060   0.609   2.742   7.023
 1721SOL     OW 6061   1.392   6.452   1.449
 1721SOL    HW1 6062   1.477   6.484   1.407
 1721SOL    HW2 6063   1.353   6.378   1.394
 1722SOL     OW 6064   4.184   2.301   4.228
 1722SOL    HW1 6065   4.108   2.244   4.261
 1722SOL    HW2 6066   4.164   2.334   4.136
 1723SOL     OW 6067   6.708   2.753   2.370
 1723SOL    HW1 6068   6.753   2.837   2.341
 1723SOL    HW2 6069   6.628   2.737   2.312
 1724SOL     OW 6070   6.419   2.183   0.540
 1724SOL    HW1 6071   6.465   2.126   0.472
 1724SOL    HW2 6072   6.404   2.129   0.623
 1725SOL     OW 6073   2.416   5.071   6.838
 1725SOL    HW1 6074   2.503   5.115   6.863
 1725SOL    HW2 6075   2.406   4.986   6.890
 1726SOL     OW 6076   5.013   4.597   5.634
 1726SOL    HW1 6077   5.071   4.565   5.559
 1726SOL    HW2 6078   4.975   4.687   5.610
 1727SOL     OW 6079   3.831   3.262   4.367
 1727SOL    HW1 6080   3.887   3.190   4.407
 1727SOL    HW2 6081   3.741   3.226   4.345
 1728SOL     OW 6082   4.919   4.834   5.541
 1728SOL    HW1 6083   4.976   4.890   5.480
 1728SOL    HW2 6084   4.825   4.866   5.537
 1729SOL     OW 6085   2.185   4.133   2.541
 1729SOL    HW1 6086   2.182   4.109   2.444
 1729SOL    HW2 6087   2.267   4.188   2.559
 1730SOL     OW 6088   1.226   6.975   5.700
 1730SOL    HW1 6089   1.153   0.012   5.666
 1730SOL    HW2 6090   1.305   0.007   5.726
 1731SOL     OW 6091   0.243   4.310   2.170
 1731SOL    HW1 6092   0.234   4.210   2.174
 1731SOL    HW2 6093   0.303   4.335   2.093
 1732SOL     OW 6094   2.626   4.603   5.565
 1732SOL    HW1 6095   2.684   4.671   5.519
 1732SOL    HW2 6096   2.641   4.513   5.524
 1733SOL     OW 6097   1.705   4.061   1.998
 1733SOL    HW1 6098   1.657   4.052   1.911
 1733SOL    HW2 6099   1.792   4.108   1.984
 1734SOL     OW 6100   4.945   3.233   1.563
 1734SOL    HW1 6101   4.883   3.209   1.488
 1734SOL    HW2 6102   5.026   3.175   1.560
 1735SOL     OW 6103   5.091   6.153   1.259
 1735SOL    HW1 6104   5.149   6.134   1.180
 1735SOL    HW2 6105   5.145   6.145   1.343
 1736SOL     OW 6106   3.689   2.880   1.175
 1736SOL    HW1 6107   3.745   2.902   1.255
 1736SOL    HW2 6108   3.592   2.884   1.199
 1737SOL     OW 6109   2.067   1.545   4.242
 1737SOL    HW1 6110   2.125   1.599   4.304
 1737SOL    HW2 6111   2.125   1.486   4.185
 1738SOL     OW 6112   1.901   1.929   3.809
 1738SOL    HW1 6113   1.935   1.875   3.886
 1738SOL    HW2 6114   1.972   1.994   3.780
 1739SOL     OW 6115   6.442   2.268   5.502
 1739SOL    HW1 6116   6.346   2.277   5.527
 1739SOL    HW2 6117   6.452   2.202   5.428
 1740SOL     OW 6118   6.470   1.823   5.699
 1740SOL    HW1 6119   6.539   1.892   5.680
 1740SOL    HW2 6120   6.383   1.868   5.718
 1741SOL     OW 6121   1.868   0.669   4.114
 1741SOL    HW1 6122   1.840   0.760   4.081
 1741SOL    HW2 6123   1.816   0.599   4.064
 1742SOL     OW 6124   5.356   0.434   6.220
 1742SOL    HW1 6125   5.330   0.338   6.215
 1742SOL    HW2 6126   5.455   0.442   6.228
 1743SOL     OW 6127   1.282   2.328   1.830
 1743SOL    HW1 6128   1.231   2.327   1.916
 1743SOL    HW2 6129   1.217   2.325   1.754
 1744SOL     OW 6130   0.407   1.468   2.256
 1744SOL    HW1 6131   0.475   1.511   2.314
 1744SOL    HW2 6132   0.448   1.392   2.206
 1745SOL     OW 6133   6.352   6.997   3.220
 1745SOL    HW1 6134   6.319   6.904   3.205
 1745SOL    HW2 6135   6.431   7.015   3.162
 1746SOL     OW 6136   2.267   5.098   4.898
 1746SOL    HW1 6137   2.296   5.091   4.993
 1746SOL    HW2 6138   2.212   5.017   4.874
 1747SOL     OW 6139   5.818   1.879   2.797
 1747SOL    HW1 6140   5.719   1.875   2.808
 1747SOL    HW2 6141   5.848   1.975   2.796
 1748SOL     OW 6142   1.049   0.740   4.471
 1748SOL    HW1 6143   1.016   0.738   4.565
 1748SOL    HW2 6144   1.101   0.657   4.452
 1749SOL     OW 6145   2.883   6.672   4.326
 1749SOL    HW1 6146   2.798   6.683   4.377
 1749SOL    HW2 6147   2.959   6.660   4.391
 1750SOL     OW 6148   6.035   0.277   3.950
 1750SOL    HW1 6149   6.032   0.234   3.860
 1750SOL    HW2 6150   5.950   0.329   3.965
 1751SOL     OW 6151   3.901   5.904   5.314
 1751SOL    HW1 6152   3.832   5.928   5.246
 1751SOL    HW2 6153   3.928   5.986   5.364
 1752SOL     OW 6154   6.790   2.390   1.433
 1752SOL    HW1 6155   6.712   2.452   1.446
 1752SOL    HW2 6156   6.811   2.383   1.336
 1753SOL     OW 6157   0.335   1.714   0.594
 1753SOL    HW1 6158   0.287   1.760   0.519
 1753SOL    HW2 6159   0.270   1.686   0.664
 1754SOL     OW 6160   2.392   3.848   1.227
 1754SOL    HW1 6161   2.299   3.854   1.264
 1754SOL    HW2 6162   2.404   3.917   1.155
 1755SOL     OW 6163   6.264   6.094   1.947
 1755SOL    HW1 6164   6.319   6.177   1.937
 1755SOL    HW2 6165   6.228   6.089   2.040
 1756SOL     OW 6166   4.208   5.264   6.288
 1756SOL    HW1 6167   4.302   5.265   6.322
 1756SOL    HW2 6168   4.183   5.170   6.263
 1757SOL     OW 6169   2.265   5.189   4.624
 1757SOL    HW1 6170   2.274   5.179   4.723
 1757SOL    HW2 6171   2.228   5.279   4.603
 1758SOL     OW 6172   1.705   0.394   3.996
 1758SOL    HW1 6173   1.722   0.473   3.938
 1758SOL    HW2 6174   1.653   0.325   3.945
 1759SOL     OW 6175   2.204   5.460   6.623
 1759SOL    HW1 6176   2.238   5.450   6.529
 1759SOL    HW2 6177   2.106   5.444   6.625
 1760SOL     OW 6178   5.928   1.785   2.524
 1760SOL    HW1 6179   6.019   1.746   2.537
 1760SOL    HW2 6180   5.903   1.839   2.604
 1761SOL     OW 6181   0.433   0.298   0.181
 1761SOL    HW1 6182   0.439   0.255   0.091
 1761SOL    HW2 6183   0.512   0.271   0.236
 1762SOL     OW 6184   0.323   1.901   4.918
 1762SOL    HW1 6185   0.245   1.956   4.888
 1762SOL    HW2 6186   0.320   1.892   5.018
 1763SOL     OW 6187   1.339   3.573   3.957
 1763SOL    HW1 6188   1.409   3.573   3.885
 1763SOL    HW2 6189   1.293   3.485   3.958
 1764SOL     OW 6190   2.006   3.691   2.192
 1764SOL    HW1 6191   2.067   3.626   2.148
 1764SOL    HW2 6192   2.037   3.784   2.173
 1765SOL     OW 6193   3.959   0.994   0.750
 1765SOL    HW1 6194   3.981   0.927   0.822
 1765SOL    HW2 6195   3.958   1.086   0.789
 1766SOL     OW 6196   4.888   3.229   2.907
 1766SOL    HW1 6197   4.867   3.325   2.925
 1766SOL    HW2 6198   4.987   3.218   2.896
 1767SOL     OW 6199   0.264   3.292   2.993
 1767SOL    HW1 6200   0.267   3.343   2.907
 1767SOL    HW2 6201   0.231   3.352   3.066
 1768SOL     OW 6202   3.838   1.460   5.521
 1768SOL    HW1 6203   3.868   1.527   5.452
 1768SOL    HW2 6204   3.877   1.370   5.499
 1769SOL     OW 6205   4.253   3.001   5.817
 1769SOL    HW1 6206   4.182   3.022   5.750
 1769SOL    HW2 6207   4.342   2.996   5.771
 1770SOL     OW 6208   6.670   5.038   4.782
 1770SOL    HW1 6209   6.644   5.125   4.740
 1770SOL    HW2 6210   6.768   5.038   4.800
 1771SOL     OW 6211   2.745   5.207   0.203
 1771SOL    HW1 6212   2.675   5.137   0.215
 1771SOL    HW2 6213   2.831   5.164   0.178
 1772SOL     OW 6214   3.523   6.769   3.315
 1772SOL    HW1 6215   3.575   6.852   3.294
 1772SOL    HW2 6216   3.547   6.736   3.406
 1773SOL     OW 6217   3.339   3.895   6.460
 1773SOL    HW1 6218   3.297   3.946   6.385
 1773SOL    HW2 6219   3.272   3.830   6.497
 1774SOL     OW 6220   4.505   0.539   1.674
 1774SOL    HW1 6221   4.507   0.628   1.627
 1774SOL    HW2 6222   4.436   0.481   1.632
 1775SOL     OW 6223   1.339   5.191   4.052
 1775SOL    HW1 6224   1.279   5.144   4.117
 1775SOL    HW2 6225   1.307   5.173   3.959
 1776SOL     OW 6226   3.265   0.537   5.740
 1776SOL    HW1 6227   3.347   0.514   5.793
 1776SOL    HW2 6228   3.258   0.477   5.661
 1777SOL     OW 6229   3.353   5.283   5.539
 1777SOL    HW1 6230   3.328   5.209   5.600
 1777SOL    HW2 6231   3.317   5.266   5.448
 1778SOL     OW 6232   4.368   2.107   4.974
 1778SOL    HW1 6233   4.416   2.177   5.028
 1778SOL    HW2 6234   4.314   2.152   4.903
 1779SOL     OW 6235   4.877   2.166   4.002
 1779SOL    HW1 6236   4.934   2.135   4.078
 1779SOL    HW2 6237   4.820   2.242   4.032
 1780SOL     OW 6238   2.450   4.546   5.841
 1780SOL    HW1 6239   2.518   4.554   5.768
 1780SOL    HW2 6240   2.395   4.629   5.844
 1781SOL     OW 6241   4.219   5.490   3.554
 1781SOL    HW1 6242   4.174   5.422   3.611
 1781SOL    HW2 6243   4.315   5.498   3.580
 1782SOL     OW 6244   2.856   1.486   3.097
 1782SOL    HW1 6245   2.911   1.570   3.096
 1782SOL    HW2 6246   2.904   1.415   3.146
 1783SOL     OW 6247   1.710   3.534   6.578
 1783SOL    HW1 6248   1.806   3.511   6.597
 1783SOL    HW2 6249   1.653   3.455   6.602
 1784SOL     OW 6250   2.845   0.552   3.643
 1784SOL    HW1 6251   2.843   0.460   3.684
 1784SOL    HW2 6252   2.884   0.617   3.707
 1785SOL     OW 6253   5.102   6.127   3.808
 1785SOL    HW1 6254   5.187   6.177   3.824
 1785SOL    HW2 6255   5.066   6.147   3.717
 1786SOL     OW 6256   1.351   3.111   0.681
 1786SOL    HW1 6257   1.288   3.124   0.604
 1786SOL    HW2 6258   1.399   3.023   0.671
 1787SOL     OW 6259   2.301   1.113   4.472
 1787SOL    HW1 6260   2.358   1.192   4.493
 1787SOL    HW2 6261   2.352   1.050   4.414
 1788SOL     OW 6262   2.907   3.289   0.191
 1788SOL    HW1 6263   2.938   3.263   0.100
 1788SOL    HW2 6264   2.909   3.209   0.251
 1789SOL     OW 6265   0.023   2.157   2.122
 1789SOL    HW1 6266   6.982   2.082   2.140
 1789SOL    HW2 6267   0.018   2.183   2.026
 1790SOL     OW 6268   3.800   5.897   4.333
 1790SOL    HW1 6269   3.888   5.914   4.377
 1790SOL    HW2 6270   3.726   5.917   4.397
 1791SOL     OW 6271   0.140   2.336   4.950
 1791SOL    HW1 6272   0.081   2.316   4.871
 1791SOL    HW2 6273   0.099   2.296   5.032
 1792SOL     OW 6274   0.811   2.728   4.277
 1792SOL    HW1 6275   0.904   2.748   4.244
 1792SOL    HW2 6276   0.788   2.633   4.254
 1793SOL     OW 6277   6.814   0.276   3.286
 1793SOL    HW1 6278   6.814   0.363   3.238
 1793SOL    HW2 6279   6.720   0.249   3.307
 1794SOL     OW 6280   5.260   6.225   6.640
 1794SOL    HW1 6281   5.191   6.201   6.572
 1794SOL    HW2 6282   5.280   6.323   6.633
 1795SOL     OW 6283   0.685   4.405   2.259
 1795SOL    HW1 6284   0.704   4.459   2.342
 1795SOL    HW2 6285   0.756   4.335   2.248
 1796SOL     OW 6286   1.800   1.288   4.868
 1796SOL    HW1 6287   1.861   1.353   4.824
 1796SOL    HW2 6288   1.713   1.332   4.889
 1797SOL     OW 6289   1.403   0.558   6.185
 1797SOL    HW1 6290   1.434   0.490   6.119
 1797SOL    HW2 6291   1.460   0.554   6.266
 1798SOL     OW 6292   4.601   2.660   5.731
 1798SOL    HW1 6293   4.556   2.749   5.721
 1798SOL    HW2 6294   4.558   2.594   5.669
 1799SOL     OW 6295   6.628   2.003   6.413
 1799SOL    HW1 6296   6.596   2.097   6.405
 1799SOL    HW2 6297   6.550   1.942   6.425
 1800SOL     OW 6298   4.379   5.341   3.321
 1800SOL    HW1 6299   4.342   5.339   3.415
 1800SOL    HW2 6300   4.471   5.379   3.323
 1801SOL     OW 6301   1.120   1.358   2.320
 1801SOL    HW1 6302   1.209   1.352   2.274
 1801SOL    HW2 6303   1.049   1.320   2.260
 1802SOL     OW 6304   5.683   5.139   3.004
 1802SOL    HW1 6305   5.750   5.083   2.955
 1802SOL    HW2 6306   5.592   5.099   2.992
 1803SOL     OW 6307   6.713   5.945   0.624
 1803SOL    HW1 6308   6.723   6.043   0.603
 1803SOL    HW2 6309   6.803   5.903   0.630
 1804SOL     OW 6310   2.401   3.452   5.989
 1804SOL    HW1 6311   2.478   3.401   6.028
 1804SOL    HW2 6312   2.400   3.440   5.890
 1805SOL     OW 6313   0.535   4.192   5.671
 1805SOL    HW1 6314   0.547   4.104   5.625
 1805SOL    HW2 6315   0.557   4.266   5.608
 1806SOL     OW 6316   1.431   0.920   1.276
 1806SOL    HW1 6317   1.482   0.891   1.357
 1806SOL    HW2 6318   1.426   0.845   1.211
 1807SOL     OW 6319   5.416   2.443   6.343
 1807SOL    HW1 6320   5.371   2.406   6.424
 1807SOL    HW2 6321   5.355   2.433   6.264
 1808SOL     OW 6322   6.135   3.748   5.227
 1808SOL    HW1 6323   6.050   3.797   5.247
 1808SOL    HW2 6324   6.128   3.655   5.264
 1809SOL     OW 6325   2.185   2.896   4.572
 1809SOL    HW1 6326   2.205   2.945   4.656
 1809SOL    HW2 6327   2.113   2.828   4.589
 1810SOL     OW 6328   2.549   0.183   5.681
 1810SOL    HW1 6329   2.502   0.222   5.760
 1810SOL    HW2 6330   2.560   0.253   5.610
 1811SOL     OW 6331   4.068   4.743   3.213
 1811SOL    HW1 6332   4.054   4.694   3.298
 1811SOL    HW2 6333   4.148   4.706   3.166
 1812SOL     OW 6334   4.429   0.150   6.216
 1812SOL    HW1 6335   4.497   0.115   6.281
 1812SOL    HW2 6336   4.394   0.074   6.160
 1813SOL     OW 6337   4.085   4.842   1.105
 1813SOL    HW1 6338   4.104   4.921   1.048
 1813SOL    HW2 6339   3.988   4.820   1.102
 1814SOL     OW 6340   6.929   0.417   6.882
 1814SOL    HW1 6341   6.851   0.355   6.874
 1814SOL    HW2 6342   6.900   0.510   6.860
 1815SOL     OW 6343   6.726   1.851   1.562
 1815SOL    HW1 6344   6.767   1.802   1.484
 1815SOL    HW2 6345   6.721   1.949   1.540
 1816SOL     OW 6346   1.843   4.128   1.078
 1816SOL    HW1 6347   1.811   4.196   1.144
 1816SOL    HW2 6348   1.941   4.138   1.063
 1817SOL     OW 6349   3.606   6.354   2.948
 1817SOL    HW1 6350   3.701   6.384   2.943
 1817SOL    HW2 6351   3.553   6.419   3.002
 1818SOL     OW 6352   2.600   5.791   2.115
 1818SOL    HW1 6353   2.630   5.867   2.171
 1818SOL    HW2 6354   2.658   5.712   2.132
 1819SOL     OW 6355   0.602   5.366   1.692
 1819SOL    HW1 6356   0.694   5.329   1.685
 1819SOL    HW2 6357   0.563   5.343   1.782
 1820SOL     OW 6358   2.549   0.777   2.297
 1820SOL    HW1 6359   2.504   0.726   2.224
 1820SOL    HW2 6360   2.539   0.728   2.384
 1821SOL     OW 6361   2.378   0.672   2.081
 1821SOL    HW1 6362   2.393   0.574   2.066
 1821SOL    HW2 6363   2.436   0.725   2.019
 1822SOL     OW 6364   1.483   3.755   1.307
 1822SOL    HW1 6365   1.440   3.708   1.230
 1822SOL    HW2 6366   1.546   3.825   1.272
 1823SOL     OW 6367   2.573   5.487   2.525
 1823SOL    HW1 6368   2.586   5.480   2.623
 1823SOL    HW2 6369   2.525   5.573   2.504
 1824SOL     OW 6370   3.307   3.682   1.479
 1824SOL    HW1 6371   3.275   3.683   1.573
 1824SOL    HW2 6372   3.229   3.697   1.417
 1825SOL     OW 6373   1.458   2.405   4.413
 1825SOL    HW1 6374   1.531   2.363   4.468
 1825SOL    HW2 6375   1.369   2.384   4.455
 1826SOL     OW 6376   3.332   0.609   1.259
 1826SOL    HW1 6377   3.233   0.596   1.258
 1826SOL    HW2 6378   3.376   0.523   1.231
 1827SOL     OW 6379   6.909   5.983   1.674
 1827SOL    HW1 6380   7.007   5.998   1.656
 1827SOL    HW2 6381   6.880   5.898   1.631
 1828SOL     OW 6382   1.200   2.558   0.543
 1828SOL    HW1 6383   1.246   2.541   0.456
 1828SOL    HW2 6384   1.172   2.471   0.583
 1829SOL     OW 6385   2.704   0.911   3.372
 1829SOL    HW1 6386   2.614   0.902   3.328
 1829SOL    HW2 6387   2.767   0.959   3.311
 1830SOL     OW 6388   5.979   6.585   3.667
 1830SOL    HW1 6389   5.934   6.582   3.578
 1830SOL    HW2 6390   6.070   6.543   3.659
 1831SOL     OW 6391   5.870   0.455   2.044
 1831SOL    HW1 6392   5.912   0.462   2.134
 1831SOL    HW2 6393   5.789   0.397   2.049
 1832SOL     OW 6394   4.693   1.563   1.239
 1832SOL    HW1 6395   4.676   1.651   1.281
 1832SOL    HW2 6396   4.685   1.571   1.139
 1833SOL     OW 6397   5.554   0.813   0.411
 1833SOL    HW1 6398   5.613   0.847   0.338
 1833SOL    HW2 6399   5.510   0.890   0.457
 1834SOL     OW 6400   2.729   3.299   0.657
 1834SOL    HW1 6401   2.745   3.299   0.558
 1834SOL    HW2 6402   2.743   3.206   0.692
 1835SOL     OW 6403   0.442   4.744   2.102
 1835SOL    HW1 6404   0.351   4.778   2.127
 1835SOL    HW2 6405   0.478   4.798   2.026
 1836SOL     OW 6406   5.106   1.843   1.621
 1836SOL    HW1 6407   5.134   1.811   1.711
 1836SOL    HW2 6408   5.183   1.834   1.557
 1837SOL     OW 6409   0.815   0.119   4.682
 1837SOL    HW1 6410   0.880   0.172   4.735
 1837SOL    HW2 6411   0.769   0.178   4.616
 1838SOL     OW 6412   6.818   1.207   4.707
 1838SOL    HW1 6413   6.807   1.238   4.613
 1838SOL    HW2 6414   6.738   1.234   4.761
 1839SOL     OW 6415   6.087   2.029   4.827
 1839SOL    HW1 6416   6.186   2.017   4.825
 1839SOL    HW2 6417   6.064   2.112   4.877
 1840SOL     OW 6418   4.135   0.086   1.448
 1840SOL    HW1 6419   4.058   0.033   1.486
 1840SOL    HW2 6420   4.103   0.178   1.424
 1841SOL     OW 6421   2.007   1.373   3.274
 1841SOL    HW1 6422   1.961   1.284   3.272
 1841SOL    HW2 6423   1.943   1.445   3.247
 1842SOL     OW 6424   1.880   5.757   0.136
 1842SOL    HW1 6425   1.830   5.672   0.154
 1842SOL    HW2 6426   1.827   5.835   0.171
 1843SOL     OW 6427   6.344   2.129   3.221
 1843SOL    HW1 6428   6.404   2.152   3.298
 1843SOL    HW2 6429   6.249   2.129   3.253
 1844SOL     OW 6430   3.200   6.641   5.180
 1844SOL    HW1 6431   3.182   6.719   5.240
 1844SOL    HW2 6432   3.171   6.557   5.226
 1845SOL     OW 6433   3.196   6.760   4.310
 1845SOL    HW1 6434   3.150   6.778   4.223
 1845SOL    HW2 6435   3.291   6.732   4.293
 1846SOL     OW 6436   3.360   1.640   1.551
 1846SOL    HW1 6437   3.327   1.611   1.461
 1846SOL    HW2 6438   3.284   1.677   1.604
 1847SOL     OW 6439   1.464   0.845   6.761
 1847SOL    HW1 6440   1.461   0.912   6.835
 1847SOL    HW2 6441   1.378   0.847   6.710
 1848SOL     OW 6442   1.589   5.762   3.865
 1848SOL    HW1 6443   1.547   5.766   3.955
 1848SOL    HW2 6444   1.601   5.666   3.838
 1849SOL     OW 6445   3.856   2.281   1.517
 1849SOL    HW1 6446   3.912   2.358   1.488
 1849SOL    HW2 6447   3.782   2.268   1.451
 1850SOL     OW 6448   0.256   3.100   1.724
 1850SOL    HW1 6449   0.283   3.118   1.818
 1850SOL    HW2 6450   0.253   3.001   1.708
 1851SOL     OW 6451   0.429   2.397   0.276
 1851SOL    HW1 6452   0.398   2.399   0.371
 1851SOL    HW2 6453   0.484   2.315   0.261
 1852SOL     OW 6454   6.490   4.573   2.800
 1852SOL    HW1 6455   6.561   4.643   2.811
 1852SOL    HW2 6456   6.499   4.506   2.874
 1853SOL     OW 6457   0.440   2.356   2.848
 1853SOL    HW1 6458   0.426   2.271   2.900
 1853SOL    HW2 6459   0.445   2.433   2.911
 1854SOL     OW 6460   2.351   5.817   2.912
 1854SOL    HW1 6461   2.430   5.875   2.896
 1854SOL    HW2 6462   2.381   5.726   2.942
 1855SOL     OW 6463   4.819   2.956   5.521
 1855SOL    HW1 6464   4.790   3.000   5.436
 1855SOL    HW2 6465   4.847   3.026   5.588
 1856SOL     OW 6466   5.997   4.280   5.864
 1856SOL    HW1 6467   6.050   4.284   5.779
 1856SOL    HW2 6468   6.054   4.311   5.940
 1857SOL     OW 6469   4.698   1.871   6.079
 1857SOL    HW1 6470   4.698   1.797   6.012
 1857SOL    HW2 6471   4.735   1.838   6.166
 1858SOL     OW 6472   5.762   3.995   3.959
 1858SOL    HW1 6473   5.751   3.972   4.056
 1858SOL    HW2 6474   5.858   3.987   3.933
 1859SOL     OW 6475   5.783   2.674   3.789
 1859SOL    HW1 6476   5.854   2.716   3.845
 1859SOL    HW2 6477   5.824   2.626   3.712
 1860SOL     OW 6478   0.101   0.625   5.508
 1860SOL    HW1 6479   0.109   0.670   5.419
 1860SOL    HW2 6480   0.007   0.594   5.521
 1861SOL     OW 6481   6.261   6.782   1.710
 1861SOL    HW1 6482   6.211   6.746   1.631
 1861SOL    HW2 6483   6.198   6.830   1.771
 1862SOL     OW 6484   3.588   0.090   6.291
 1862SOL    HW1 6485   3.496   0.055   6.305
 1862SOL    HW2 6486   3.596   0.180   6.334
 1863SOL     OW 6487   0.814   3.307   3.979
 1863SOL    HW1 6488   0.847   3.388   3.932
 1863SOL    HW2 6489   0.764   3.249   3.914
 1864SOL     OW 6490   1.778   6.849   4.662
 1864SOL    HW1 6491   1.810   6.939   4.633
 1864SOL    HW2 6492   1.819   6.826   4.750
 1865SOL     OW 6493   3.174   6.766   0.009
 1865SOL    HW1 6494   3.257   6.818   7.013
 1865SOL    HW2 6495   3.169   6.688   6.971
 1866SOL     OW 6496   5.187   5.032   3.337
 1866SOL    HW1 6497   5.158   5.068   3.249
 1866SOL    HW2 6498   5.107   5.025   3.398
 1867SOL     OW 6499   0.722   4.093   0.288
 1867SOL    HW1 6500   0.763   4.175   0.328
 1867SOL    HW2 6501   0.661   4.120   0.214
 1868SOL     OW 6502   4.951   2.997   6.042
 1868SOL    HW1 6503   5.026   2.936   6.018
 1868SOL    HW2 6504   4.873   2.980   5.982
 1869SOL     OW 6505   5.871   3.510   5.507
 1869SOL    HW1 6506   5.882   3.493   5.605
 1869SOL    HW2 6507   5.931   3.449   5.456
 1870SOL     OW 6508   1.484   2.828   5.146
 1870SOL    HW1 6509   1.523   2.855   5.058
 1870SOL    HW2 6510   1.533   2.874   5.220
 1871SOL     OW 6511   0.623   0.376   6.754
 1871SOL    HW1 6512   0.656   0.466   6.726
 1871SOL    HW2 6513   0.527   0.382   6.779
 1872SOL     OW 6514   4.262   1.528   6.759
 1872SOL    HW1 6515   4.331   1.461   6.787
 1872SOL    HW2 6516   4.170   1.490   6.775
 1873SOL     OW 6517   5.187   1.296   6.140
 1873SOL    HW1 6518   5.110   1.284   6.077
 1873SOL    HW2 6519   5.174   1.379   6.194
 1874SOL     OW 6520   2.799   0.914   0.777
 1874SOL    HW1 6521   2.731   0.988   0.774
 1874SOL    HW2 6522   2.791   0.858   0.694
 1875SOL     OW 6523   0.131   0.329   0.181
 1875SOL    HW1 6524   0.108   0.416   0.137
 1875SOL    HW2 6525   0.225   0.304   0.157
 1876SOL     OW 6526   3.564   5.819   6.348
 1876SOL    HW1 6527   3.600   5.725   6.351
 1876SOL    HW2 6528   3.473   5.819   6.305
 1877SOL     OW 6529   0.876   1.397   3.161
 1877SOL    HW1 6530   0.897   1.442   3.074
 1877SOL    HW2 6531   0.939   1.430   3.231
 1878SOL     OW 6532   6.811   3.174   3.986
 1878SOL    HW1 6533   6.867   3.220   4.054
 1878SOL    HW2 6534   6.870   3.126   3.921
 1879SOL     OW 6535   1.898   5.144   3.430
 1879SOL    HW1 6536   1.870   5.158   3.335
 1879SOL    HW2 6537   1.851   5.064   3.467
 1880SOL     OW 6538   6.684   0.617   3.846
 1880SOL    HW1 6539   6.650   0.595   3.937
 1880SOL    HW2 6540   6.725   0.536   3.804
 1881SOL     OW 6541   6.832   3.343   2.920
 1881SOL    HW1 6542   6.907   3.304   2.867
 1881SOL    HW2 6543   6.752   3.355   2.861
 1882SOL     OW 6544   1.224   3.966   0.213
 1882SOL    HW1 6545   1.138   4.012   0.232
 1882SOL    HW2 6546   1.274   3.952   0.298
 1883SOL     OW 6547   1.245   3.036   3.753
 1883SOL    HW1 6548   1.310   3.087   3.696
 1883SOL    HW2 6549   1.155   3.079   3.745
 1884SOL     OW 6550   6.191   3.091   6.821
 1884SOL    HW1 6551   6.152   3.173   6.863
 1884SOL    HW2 6552   6.262   3.118   6.755
 1885SOL     OW 6553   0.756   2.217   5.789
 1885SOL    HW1 6554   0.735   2.314   5.796
 1885SOL    HW2 6555   0.855   2.204   5.785
 1886SOL     OW 6556   2.394   0.382   1.323
 1886SOL    HW1 6557   2.471   0.404   1.383
 1886SOL    HW2 6558   2.416   0.299   1.271
 1887SOL     OW 6559   1.716   5.982   5.748
 1887SOL    HW1 6560   1.774   5.906   5.721
 1887SOL    HW2 6561   1.739   6.063   5.694
 1888SOL     OW 6562   2.987   2.552   6.767
 1888SOL    HW1 6563   2.972   2.468   6.819
 1888SOL    HW2 6564   2.904   2.573   6.714
 1889SOL     OW 6565   6.567   3.458   6.164
 1889SOL    HW1 6566   6.583   3.463   6.262
 1889SOL    HW2 6567   6.584   3.365   6.131
 1890SOL     OW 6568   1.826   5.865   4.419
 1890SOL    HW1 6569   1.749   5.821   4.465
 1890SOL    HW2 6570   1.796   5.900   4.330
 1891SOL     OW 6571   6.101   2.444   2.958
 1891SOL    HW1 6572   6.170   2.516   2.949
 1891SOL    HW2 6573   6.081   2.430   3.054
 1892SOL     OW 6574   3.105   1.281   0.892
 1892SOL    HW1 6575   3.132   1.262   0.797
 1892SOL    HW2 6576   3.180   1.329   0.938
 1893SOL     OW 6577   3.361   2.683   0.434
 1893SOL    HW1 6578   3.418   2.634   0.368
 1893SOL    HW2 6579   3.289   2.622   0.467
 1894SOL     OW 6580   3.866   3.685   3.493
 1894SOL    HW1 6581   3.779   3.659   3.452
 1894SOL    HW2 6582   3.866   3.784   3.512
 1895SOL     OW 6583   6.148   0.915   2.117
 1895SOL    HW1 6584   6.211   0.988   2.090
 1895SOL    HW2 6585   6.200   0.834   2.144
 1896SOL     OW 6586   6.616   0.669   1.442
 1896SOL    HW1 6587   6.685   0.635   1.505
 1896SOL    HW2 6588   6.563   0.741   1.487
 1897SOL     OW 6589   1.454   4.561   2.400
 1897SOL    HW1 6590   1.496   4.597   2.483
 1897SOL    HW2 6591   1.387   4.491   2.425
 1898SOL     OW 6592   2.981   4.921   2.684
 1898SOL    HW1 6593   3.081   4.921   2.682
 1898SOL    HW2 6594   2.949   4.999   2.738
 1899SOL     OW 6595   0.988   1.534   2.035
 1899SOL    HW1 6596   1.042   1.512   1.954
 1899SOL    HW2 6597   0.930   1.456   2.058
 1900SOL     OW 6598   1.425   0.579   6.695
 1900SOL    HW1 6599   1.339   0.580   6.643
 1900SOL    HW2 6600   1.437   0.668   6.739
 1901SOL     OW 6601   2.000   2.286   1.413
 1901SOL    HW1 6602   1.996   2.376   1.369
 1901SOL    HW2 6603   2.085   2.240   1.387
 1902SOL     OW 6604   2.293   1.953   4.826
 1902SOL    HW1 6605   2.386   1.990   4.818
 1902SOL    HW2 6606   2.235   2.020   4.872
 1903SOL     OW 6607   6.747   3.531   3.164
 1903SOL    HW1 6608   6.799   3.490   3.089
 1903SOL    HW2 6609   6.664   3.574   3.128
 1904SOL     OW 6610   5.537   6.330   4.720
 1904SOL    HW1 6611   5.610   6.393   4.749
 1904SOL    HW2 6612   5.448   6.370   4.742
 1905SOL     OW 6613   1.466   0.587   4.056
 1905SOL    HW1 6614   1.490   0.680   4.029
 1905SOL    HW2 6615   1.549   0.537   4.080
 1906SOL     OW 6616   2.002   0.646   5.083
 1906SOL    HW1 6617   2.071   0.639   5.011
 1906SOL    HW2 6618   1.938   0.570   5.075
 1907SOL     OW 6619   3.529   6.730   2.880
 1907SOL    HW1 6620   3.521   6.683   2.792
 1907SOL    HW2 6621   3.529   6.663   2.954
 1908SOL     OW 6622   3.513   0.023   5.114
 1908SOL    HW1 6623   3.485   0.085   5.041
 1908SOL    HW2 6624   3.472   6.956   5.100
 1909SOL     OW 6625   0.631   4.468   2.684
 1909SOL    HW1 6626   0.569   4.475   2.762
 1909SOL    HW2 6627   0.707   4.408   2.708
 1910SOL     OW 6628   6.971   2.826   6.213
 1910SOL    HW1 6629   6.964   2.741   6.265
 1910SOL    HW2 6630   6.887   2.879   6.222
 1911SOL     OW 6631   5.517   3.078   5.263
 1911SOL    HW1 6632   5.436   3.112   5.311
 1911SOL    HW2 6633   5.509   3.099   5.165
 1912SOL     OW 6634   3.457   6.146   0.621
 1912SOL    HW1 6635   3.367   6.186   0.642
 1912SOL    HW2 6636   3.461   6.053   0.655
 1913SOL     OW 6637   1.805   5.706   4.781
 1913SOL    HW1 6638   1.787   5.623   4.728
 1913SOL    HW2 6639   1.743   5.711   4.859
 1914SOL     OW 6640   4.202   2.880   6.491
 1914SOL    HW1 6641   4.268   2.839   6.554
 1914SOL    HW2 6642   4.207   2.980   6.498
 1915SOL     OW 6643   4.306   2.267   5.392
 1915SOL    HW1 6644   4.226   2.310   5.435
 1915SOL    HW2 6645   4.334   2.187   5.445
 1916SOL     OW 6646   4.054   5.650   1.154
 1916SOL    HW1 6647   4.051   5.731   1.212
 1916SOL    HW2 6648   4.146   5.639   1.116
 1917SOL     OW 6649   2.968   3.153   5.275
 1917SOL    HW1 6650   3.034   3.079   5.266
 1917SOL    HW2 6651   2.875   3.115   5.270
 1918SOL     OW 6652   0.775   1.176   5.065
 1918SOL    HW1 6653   0.734   1.154   5.153
 1918SOL    HW2 6654   0.723   1.131   4.992
 1919SOL     OW 6655   2.312   0.612   1.602
 1919SOL    HW1 6656   2.325   0.594   1.699
 1919SOL    HW2 6657   2.282   0.528   1.556
 1920SOL     OW 6658   1.588   4.405   2.709
 1920SOL    HW1 6659   1.553   4.311   2.704
 1920SOL    HW2 6660   1.670   4.413   2.652
 1921SOL     OW 6661   1.365   4.818   6.897
 1921SOL    HW1 6662   1.285   4.873   6.921
 1921SOL    HW2 6663   1.445   4.877   6.890
 1922SOL     OW 6664   2.105   4.190   1.085
 1922SOL    HW1 6665   2.111   4.284   1.050
 1922SOL    HW2 6666   2.192   4.163   1.125
 1923SOL     OW 6667   3.351   0.766   5.353
 1923SOL    HW1 6668   3.264   0.806   5.380
 1923SOL    HW2 6669   3.419   0.839   5.340
 1924SOL     OW 6670   4.627   5.545   1.335
 1924SOL    HW1 6671   4.597   5.637   1.361
 1924SOL    HW2 6672   4.553   5.498   1.287
 1925SOL     OW 6673   2.077   4.994   0.384
 1925SOL    HW1 6674   2.167   4.974   0.345
 1925SOL    HW2 6675   2.032   5.065   0.330
 1926SOL     OW 6676   2.281   6.860   3.284
 1926SOL    HW1 6677   2.340   6.856   3.365
 1926SOL    HW2 6678   2.336   6.880   3.203
 1927SOL     OW 6679   2.729   4.909   6.595
 1927SOL    HW1 6680   2.647   4.864   6.629
 1927SOL    HW2 6681   2.769   4.854   6.522
 1928SOL     OW 6682   6.834   4.484   5.915
 1928SOL    HW1 6683   6.921   4.436   5.927
 1928SOL    HW2 6684   6.832   4.564   5.975
 1929SOL     OW 6685   1.514   5.145   1.313
 1929SOL    HW1 6686   1.546   5.240   1.308
 1929SOL    HW2 6687   1.508   5.117   1.408
 1930SOL     OW 6688   3.573   4.018   6.361
 1930SOL    HW1 6689   3.501   3.955   6.391
 1930SOL    HW2 6690   3.662   3.983   6.391
 1931SOL     OW 6691   0.860   4.210   2.269
 1931SOL    HW1 6692   0.862   4.222   2.368
 1931SOL    HW2 6693   0.916   4.130   2.244
 1932SOL     OW 6694   5.044   3.465   3.197
 1932SOL    HW1 6695   4.971   3.534   3.194
 1932SOL    HW2 6696   5.004   3.375   3.182
 1933SOL     OW 6697   1.942   3.117   0.778
 1933SOL    HW1 6698   2.006   3.178   0.731
 1933SOL    HW2 6699   1.960   3.118   0.876
 1934SOL     OW 6700   0.382   0.017   5.242
 1934SOL    HW1 6701   0.371   7.001   5.151
 1934SOL    HW2 6702   0.475   0.001   5.274
 1935SOL     OW 6703   3.958   6.496   3.798
 1935SOL    HW1 6704   3.878   6.535   3.752
 1935SOL    HW2 6705   4.012   6.444   3.732
 1936SOL     OW 6706   6.139   3.776   3.692
 1936SOL    HW1 6707   6.120   3.760   3.789
 1936SOL    HW2 6708   6.054   3.770   3.640
 1937SOL     OW 6709   4.054   6.868   1.245
 1937SOL    HW1 6710   3.977   6.897   1.187
 1937SOL    HW2 6711   4.023   6.863   1.340
 1938SOL     OW 6712   2.341   1.818   1.817
 1938SOL    HW1 6713   2.420   1.796   1.874
 1938SOL    HW2 6714   2.332   1.751   1.744
 1939SOL     OW 6715   6.263   0.479   4.478
 1939SOL    HW1 6716   6.165   0.467   4.467
 1939SOL    HW2 6717   6.293   0.433   4.562
 1940SOL     OW 6718   5.699   4.939   0.927
 1940SOL    HW1 6719   5.773   4.873   0.912
 1940SOL    HW2 6720   5.642   4.944   0.845
 1941SOL     OW 6721   0.743   3.465   4.482
 1941SOL    HW1 6722   0.673   3.400   4.454
 1941SOL    HW2 6723   0.770   3.445   4.576
 1942SOL     OW 6724   5.250   2.245   1.641
 1942SOL    HW1 6725   5.196   2.223   1.560
 1942SOL    HW2 6726   5.316   2.172   1.658
 1943SOL     OW 6727   1.952   6.036   4.013
 1943SOL    HW1 6728   2.043   6.028   4.053
 1943SOL    HW2 6729   1.949   6.114   3.951
 1944SOL     OW 6730   6.242   2.881   6.989
 1944SOL    HW1 6731   6.311   2.865   0.036
 1944SOL    HW2 6732   6.265   2.964   6.938
 1945SOL     OW 6733   3.896   5.144   0.644
 1945SOL    HW1 6734   3.881   5.240   0.669
 1945SOL    HW2 6735   3.992   5.130   0.620
 1946SOL     OW 6736   6.078   6.595   0.856
 1946SOL    HW1 6737   6.145   6.532   0.895
 1946SOL    HW2 6738   6.003   6.543   0.816
 1947SOL     OW 6739   4.925   6.249   4.252
 1947SOL    HW1 6740   4.908   6.300   4.168
 1947SOL    HW2 6741   4.846   6.190   4.272
 1948SOL     OW 6742   5.783   5.358   3.844
 1948SOL    HW1 6743   5.713   5.366   3.773
 1948SOL    HW2 6744   5.825   5.267   3.839
 1949SOL     OW 6745   3.525   3.720   6.009
 1949SOL    HW1 6746   3.577   3.656   6.065
 1949SOL    HW2 6747   3.477   3.671   5.937
 1950SOL     OW 6748   4.113   3.129   0.533
 1950SOL    HW1 6749   4.016   3.113   0.552
 1950SOL    HW2 6750   4.163   3.043   0.540
 1951SOL     OW 6751   6.107   4.079   0.242
 1951SOL    HW1 6752   6.059   4.164   0.222
 1951SOL    HW2 6753   6.203   4.099   0.262
 1952SOL     OW 6754   4.832   3.760   1.292
 1952SOL    HW1 6755   4.735   3.739   1.306
 1952SOL    HW2 6756   4.887   3.679   1.310
 1953SOL     OW 6757   6.367   1.533   5.713
 1953SOL    HW1 6758   6.386   1.466   5.785
 1953SOL    HW2 6759   6.428   1.611   5.723
 1954SOL     OW 6760   7.003   0.698   2.592
 1954SOL    HW1 6761   0.055   0.650   2.637
 1954SOL    HW2 6762   0.002   0.712   2.496
 1955SOL     OW 6763   0.730   1.196   2.378
 1955SOL    HW1 6764   0.793   1.262   2.421
 1955SOL    HW2 6765   0.648   1.186   2.434
 1956SOL     OW 6766   4.762   0.497   2.012
 1956SOL    HW1 6767   4.712   0.411   2.006
 1956SOL    HW2 6768   4.714   0.560   2.073
 1957SOL     OW 6769   5.666   4.230   4.285
 1957SOL    HW1 6770   5.730   4.210   4.210
 1957SOL    HW2 6771   5.717   4.258   4.366
 1958SOL     OW 6772   4.743   1.984   2.169
 1958SOL    HW1 6773   4.812   2.048   2.134
 1958SOL    HW2 6774   4.769   1.956   2.262
 1959SOL     OW 6775   1.334   0.082   4.091
 1959SOL    HW1 6776   1.417   0.081   4.146
 1959SOL    HW2 6777   1.315   0.175   4.060
 1960SOL     OW 6778   7.008   4.901   1.713
 1960SOL    HW1 6779   6.994   4.957   1.631
 1960SOL    HW2 6780   6.923   4.899   1.766
 1961SOL     OW 6781   5.835   4.235   4.544
 1961SOL    HW1 6782   5.843   4.136   4.545
 1961SOL    HW2 6783   5.899   4.275   4.610
 1962SOL     OW 6784   1.281   6.733   2.979
 1962SOL    HW1 6785   1.190   6.772   2.994
 1962SOL    HW2 6786   1.288   6.646   3.029
 1963SOL     OW 6787   1.150   1.941   1.119
 1963SOL    HW1 6788   1.144   1.919   1.216
 1963SOL    HW2 6789   1.166   2.040   1.108
 1964SOL     OW 6790   4.939   4.448   1.111
 1964SOL    HW1 6791   4.928   4.541   1.145
 1964SOL    HW2 6792   4.880   4.435   1.030
 1965SOL     OW 6793   1.880   2.944   5.094
 1965SOL    HW1 6794   1.867   3.020   5.031
 1965SOL    HW2 6795   1.844   2.860   5.052
 1966SOL     OW 6796   0.346   6.307   0.775
 1966SOL    HW1 6797   0.380   6.312   0.869
 1966SOL    HW2 6798   0.351   6.212   0.743
 1967SOL     OW 6799   5.625   2.706   5.326
 1967SOL    HW1 6800   5.725   2.699   5.315
 1967SOL    HW2 6801   5.594   2.794   5.292
 1968SOL     OW 6802   1.483   6.849   5.147
 1968SOL    HW1 6803   1.430   6.823   5.228
 1968SOL    HW2 6804   1.421   6.875   5.073
 1969SOL     OW 6805   2.203   1.952   0.639
 1969SOL    HW1 6806   2.196   1.883   0.567
 1969SOL    HW2 6807   2.183   1.910   0.728
 1970SOL     OW 6808   2.928   6.192   6.404
 1970SOL    HW1 6809   2.945   6.250   6.325
 1970SOL    HW2 6810   2.908   6.249   6.484
 1971SOL     OW 6811   0.501   0.312   5.853
 1971SOL    HW1 6812   0.549   0.267   5.929
 1971SOL    HW2 6813   0.447   0.244   5.804
 1972SOL     OW 6814   5.370   2.060   2.253
 1972SOL    HW1 6815   5.445   2.088   2.193
 1972SOL    HW2 6816   5.296   2.021   2.199
 1973SOL     OW 6817   3.001   2.757   0.379
 1973SOL    HW1 6818   3.022   2.793   0.287
 1973SOL    HW2 6819   2.905   2.772   0.400
 1974SOL     OW 6820   5.519   6.837   5.031
 1974SOL    HW1 6821   5.458   6.910   5.060
 1974SOL    HW2 6822   5.613   6.872   5.024
 1975SOL     OW 6823   1.911   1.675   4.055
 1975SOL    HW1 6824   1.948   1.613   4.125
 1975SOL    HW2 6825   1.981   1.741   4.028
 1976SOL     OW 6826   6.065   0.042   0.605
 1976SOL    HW1 6827   6.157   0.065   0.637
 1976SOL    HW2 6828   6.071   7.008   0.524
 1977SOL     OW 6829   1.741   3.370   4.841
 1977SOL    HW1 6830   1.818   3.306   4.843
 1977SOL    HW2 6831   1.750   3.430   4.761
 1978SOL     OW 6832   1.801   6.305   3.154
 1978SOL    HW1 6833   1.860   6.240   3.106
 1978SOL    HW2 6834   1.821   6.398   3.123
 1979SOL     OW 6835   5.963   4.309   0.163
 1979SOL    HW1 6836   5.885   4.328   0.222
 1979SOL    HW2 6837   5.937   4.323   0.068
 1980SOL     OW 6838   3.477   6.695   4.240
 1980SOL    HW1 6839   3.526   6.632   4.181
 1980SOL    HW2 6840   3.540   6.767   4.272
 1981SOL     OW 6841   6.931   2.986   1.963
 1981SOL    HW1 6842   6.845   2.953   2.002
 1981SOL    HW2 6843   7.006   2.930   1.998
 1982SOL     OW 6844   0.907   4.265   4.256
 1982SOL    HW1 6845   0.849   4.187   4.232
 1982SOL    HW2 6846   1.003   4.242   4.239
 1983SOL     OW 6847   0.947   0.837   2.346
 1983SOL    HW1 6848   0.980   0.751   2.384
 1983SOL    HW2 6849   0.961   0.910   2.413
 1984SOL     OW 6850   4.950   2.114   4.936
 1984SOL    HW1 6851   4.919   2.019   4.931
 1984SOL    HW2 6852   4.872   2.175   4.918
 1985SOL     OW 6853   0.953   6.461   2.316
 1985SOL    HW1 6854   0.986   6.369   2.293
 1985SOL    HW2 6855   1.018   6.504   2.378
 1986SOL     OW 6856   2.944   1.120   6.883
 1986SOL    HW1 6857   2.874   1.061   6.843
 1986SOL    HW2 6858   2.960   1.199   6.824
 1987SOL     OW 6859   1.656   1.894   2.691
 1987SOL    HW1 6860   1.638   1.826   2.620
 1987SOL    HW2 6861   1.722   1.856   2.757
 1988SOL     OW 6862   6.107   3.497   0.282
 1988SOL    HW1 6863   6.107   3.497   0.182
 1988SOL    HW2 6864   6.013   3.512   0.315
 1989SOL     OW 6865   2.018   5.398   4.835
 1989SOL    HW1 6866   1.932   5.416   4.789
 1989SOL    HW2 6867   2.002   5.337   4.913
 1990SOL     OW 6868   3.810   5.638   0.384
 1990SOL    HW1 6869   3.803   5.705   0.310
 1990SOL    HW2 6870   3.867   5.561   0.354
 1991SOL     OW 6871   2.858   4.744   6.866
 1991SOL    HW1 6872   2.900   4.758   6.955
 1991SOL    HW2 6873   2.889   4.815   6.802
 1992SOL     OW 6874   0.362   1.030   0.291
 1992SOL    HW1 6875   0.304   1.094   0.342
 1992SOL    HW2 6876   0.442   1.007   0.347
 1993SOL     OW 6877   3.701   2.503   5.362
 1993SOL    HW1 6878   3.767   2.554   5.308
 1993SOL    HW2 6879   3.684   2.413   5.320
 1994SOL     OW 6880   0.698   1.600   0.400
 1994SOL    HW1 6881   0.632   1.654   0.452
 1994SOL    HW2 6882   0.747   1.539   0.462
 1995SOL     OW 6883   5.542   2.626   3.678
 1995SOL    HW1 6884   5.633   2.662   3.698
 1995SOL    HW2 6885   5.495   2.606   3.764
 1996SOL     OW 6886   2.332   2.730   0.385
 1996SOL    HW1 6887   2.414   2.711   0.331
 1996SOL    HW2 6888   2.349   2.806   0.447
 1997SOL     OW 6889   3.022   2.011   5.048
 1997SOL    HW1 6890   3.100   1.950   5.056
 1997SOL    HW2 6891   3.054   2.106   5.044
 1998SOL     OW 6892   3.010   3.763   0.181
 1998SOL    HW1 6893   2.943   3.712   0.127
 1998SOL    HW2 6894   3.102   3.743   0.146
 1999SOL     OW 6895   2.055   6.241   6.097
 1999SOL    HW1 6896   2.103   6.327   6.080
 1999SOL    HW2 6897   2.062   6.183   6.016
 2000SOL     OW 6898   4.305   2.871   5.388
 2000SOL    HW1 6899   4.306   2.832   5.297
 2000SOL    HW2 6900   4.215   2.910   5.407
 2001SOL     OW 6901   2.787   0.090   1.666
 2001SOL    HW1 6902   2.728   0.029   1.719
 2001SOL    HW2 6903   2.879   0.051   1.663
 2002SOL     OW 6904   0.786   4.637   6.776
 2002SOL    HW1 6905   0.768   4.596   6.686
 2002SOL    HW2 6906   0.884   4.657   6.785
 2003SOL     OW 6907   6.170   5.526   2.900
 2003SOL    HW1 6908   6.189   5.467   2.821
 2003SOL    HW2 6909   6.112   5.477   2.965
 2004SOL     OW 6910   5.033   1.604   4.409
 2004SOL    HW1 6911   4.983   1.647   4.483
 2004SOL    HW2 6912   4.983   1.524   4.376
 2005SOL     OW 6913   0.085   5.076   0.518
 2005SOL    HW1 6914   0.100   5.084   0.419
 2005SOL    HW2 6915   0.044   4.987   0.539
 2006SOL     OW 6916   5.815   6.950   2.910
 2006SOL    HW1 6917   5.912   6.926   2.904
 2006SOL    HW2 6918   5.761   6.880   2.863
 2007SOL     OW 6919   4.430   4.237   0.732
 2007SOL    HW1 6920   4.470   4.329   0.727
 2007SOL    HW2 6921   4.503   4.170   0.743
 2008SOL     OW 6922   1.922   4.173   4.081
 2008SOL    HW1 6923   1.934   4.246   4.013
 2008SOL    HW2 6924   1.954   4.205   4.170
 2009SOL     OW 6925   5.585   6.849   2.537
 2009SOL    HW1 6926   5.570   6.792   2.456
 2009SOL    HW2 6927   5.513   6.919   2.542
 2010SOL     OW 6928   3.032   1.863   2.113
 2010SOL    HW1 6929   3.023   1.784   2.174
 2010SOL    HW2 6930   3.040   1.946   2.168
 2011SOL     OW 6931   0.111   0.261   5.080
 2011SOL    HW1 6932   0.067   0.317   5.010
 2011SOL    HW2 6933   0.044   0.196   5.117
 2012SOL     OW 6934   1.127   4.607   1.964
 2012SOL    HW1 6935   1.194   4.644   2.028
 2012SOL    HW2 6936   1.144   4.509   1.952
 2013SOL     OW 6937   6.546   2.533   2.987
 2013SOL    HW1 6938   6.636   2.571   3.010
 2013SOL    HW2 6939   6.526   2.456   3.046
 2014SOL     OW 6940   2.435   6.283   3.426
 2014SOL    HW1 6941   2.474   6.266   3.336
 2014SOL    HW2 6942   2.347   6.329   3.416
 2015SOL     OW 6943   1.877   0.521   0.296
 2015SOL    HW1 6944   1.900   0.423   0.299
 2015SOL    HW2 6945   1.909   0.565   0.380
 2016SOL     OW 6946   1.621   6.163   5.980
 2016SOL    HW1 6947   1.588   6.247   5.936
 2016SOL    HW2 6948   1.645   6.096   5.910
 2017SOL     OW 6949   3.659   0.123   3.854
 2017SOL    HW1 6950   3.562   0.134   3.873
 2017SOL    HW2 6951   3.679   0.026   3.839
 2018SOL     OW 6952   5.378   2.138   4.286
 2018SOL    HW1 6953   5.453   2.204   4.280
 2018SOL    HW2 6954   5.350   2.129   4.382
 2019SOL     OW 6955   5.132   3.642   6.170
 2019SOL    HW1 6956   5.111   3.718   6.108
 2019SOL    HW2 6957   5.223   3.655   6.209
 2020SOL     OW 6958   1.811   6.963   5.160
 2020SOL    HW1 6959   1.832   6.898   5.232
 2020SOL    HW2 6960   1.798   6.914   5.073
 2021SOL     OW 6961   0.158   6.399   4.668
 2021SOL    HW1 6962   0.112   6.417   4.755
 2021SOL    HW2 6963   0.185   6.486   4.626
 2022SOL     OW 6964   1.496   5.085   3.555
 2022SOL    HW1 6965   1.594   5.064   3.546
 2022SOL    HW2 6966   1.447   5.001   3.579
 2023SOL     OW 6967   6.991   0.679   6.456
 2023SOL    HW1 6968   7.000   0.770   6.498
 2023SOL    HW2 6969   0.041   0.666   6.389
 2024SOL     OW 6970   0.005   6.154   3.236
 2024SOL    HW1 6971   6.971   6.226   3.277
 2024SOL    HW2 6972   0.017   6.080   3.301
 2025SOL     OW 6973   3.191   1.388   3.890
 2025SOL    HW1 6974   3.137   1.428   3.816
 2025SOL    HW2 6975   3.288   1.402   3.872
 2026SOL     OW 6976   6.460   3.631   5.821
 2026SOL    HW1 6977   6.362   3.624   5.842
 2026SOL    HW2 6978   6.504   3.694   5.885
 2027SOL     OW 6979   1.359   0.065   0.339
 2027SOL    HW1 6980   1.355   0.163   0.325
 2027SOL    HW2 6981   1.387   0.046   0.434
 2028SOL     OW 6982   2.946   5.461   4.611
 2028SOL    HW1 6983   2.938   5.362   4.618
 2028SOL    HW2 6984   3.010   5.484   4.538
 2029SOL     OW 6985   6.406   1.710   0.266
 2029SOL    HW1 6986   6.334   1.660   0.315
 2029SOL    HW2 6987   6.491   1.704   0.317
 2030SOL     OW 6988   2.729   0.950   3.867
 2030SOL    HW1 6989   2.759   0.855   3.878
 2030SOL    HW2 6990   2.798   1.012   3.905
 2031SOL     OW 6991   7.004   5.624   1.356
 2031SOL    HW1 6992   6.938   5.551   1.337
 2031SOL    HW2 6993   0.043   5.594   1.428
 2032SOL     OW 6994   4.421   0.817   1.899
 2032SOL    HW1 6995   4.456   0.812   1.806
 2032SOL    HW2 6996   4.403   0.725   1.934
 2033SOL     OW 6997   3.482   2.904   6.611
 2033SOL    HW1 6998   3.560   2.900   6.673
 2033SOL    HW2 6999   3.446   2.812   6.595
 2034SOL     OW 7000   2.163   5.018   5.558
 2034SOL    HW1 7001   2.122   4.959   5.489
 2034SOL    HW2 7002   2.255   5.045   5.529
 2035SOL     OW 7003   6.373   6.419   3.874
 2035SOL    HW1 7004   6.460   6.463   3.899
 2035SOL    HW2 7005   6.364   6.332   3.922
 2036SOL     OW 7006   0.664   3.909   3.079
 2036SOL    HW1 7007   0.670   3.939   2.983
 2036SOL    HW2 7008   0.737   3.844   3.098
 2037SOL     OW 7009   6.678   3.198   6.091
 2037SOL    HW1 7010   6.680   3.152   6.002
 2037SOL    HW2 7011   6.739   3.277   6.089
 2038SOL     OW 7012   2.114   1.935   0.135
 2038SOL    HW1 7013   2.109   1.908   0.039
 2038SOL    HW2 7014   2.110   2.035   0.141
 2039SOL     OW 7015   0.138   5.683   3.542
 2039SOL    HW1 7016   0.130   5.589   3.509
 2039SOL    HW2 7017   0.058   5.706   3.597
 2040SOL     OW 7018   2.232   2.956   5.971
 2040SOL    HW1 7019   2.163   2.998   6.030
 2040SOL    HW2 7020   2.205   2.969   5.875
 2041SOL     OW 7021   1.011   6.380   5.787
 2041SOL    HW1 7022   1.088   6.426   5.830
 2041SOL    HW2 7023   1.044   6.316   5.718
 2042SOL     OW 7024   4.537   6.192   0.001
 2042SOL    HW1 7025   4.561   6.275   0.051
 2042SOL    HW2 7026   4.462   6.146   0.048
 2043SOL     OW 7027   6.237   3.864   3.190
 2043SOL    HW1 7028   6.212   3.775   3.152
 2043SOL    HW2 7029   6.330   3.860   3.227
 2044SOL     OW 7030   6.949   0.654   1.412
 2044SOL    HW1 7031   6.906   0.613   1.493
 2044SOL    HW2 7032   6.957   0.585   1.341
 2045SOL     OW 7033   1.858   5.245   4.158
 2045SOL    HW1 7034   1.761   5.223   4.164
 2045SOL    HW2 7035   1.879   5.320   4.221
 2046SOL     OW 7036   6.851   1.823   4.404
 2046SOL    HW1 7037   6.849   1.732   4.445
 2046SOL    HW2 7038   6.913   1.882   4.456
 2047SOL     OW 7039   0.037   3.323   0.551
 2047SOL    HW1 7040   6.965   3.354   0.543
 2047SOL    HW2 7041   0.043   3.251   0.621
 2048SOL     OW 7042   1.425   6.613   5.809
 2048SOL    HW1 7043   1.493   6.679   5.778
 2048SOL    HW2 7044   1.467   6.522   5.815
 2049SOL     OW 7045   5.774   1.676   4.070
 2049SOL    HW1 7046   5.751   1.586   4.033
 2049SOL    HW2 7047   5.861   1.670   4.120
 2050SOL     OW 7048   6.255   2.707   3.841
 2050SOL    HW1 7049   6.164   2.711   3.882
 2050SOL    HW2 7050   6.318   2.766   3.892
 2051SOL     OW 7051   1.318   6.139   6.804
 2051SOL    HW1 7052   1.369   6.063   6.764
 2051SOL    HW2 7053   1.377   6.192   6.864
 2052SOL     OW 7054   1.771   2.937   1.639
 2052SOL    HW1 7055   1.679   2.932   1.678
 2052SOL    HW2 7056   1.829   2.867   1.681
 2053SOL     OW 7057   6.108   6.020   4.686
 2053SOL    HW1 7058   6.118   5.946   4.752
 2053SOL    HW2 7059   6.087   5.982   4.596
 2054SOL     OW 7060   3.449   4.137   3.204
 2054SOL    HW1 7061   3.372   4.077   3.182
 2054SOL    HW2 7062   3.474   4.190   3.123
 2055SOL     OW 7063   5.438   3.322   4.292
 2055SOL    HW1 7064   5.345   3.352   4.268
 2055SOL    HW2 7065   5.496   3.327   4.211
 2056SOL     OW 7066   4.294   5.651   1.009
 2056SOL    HW1 7067   4.357   5.587   0.967
 2056SOL    HW2 7068   4.346   5.724   1.054
 2057SOL     OW 7069   5.284   4.486   6.080
 2057SOL    HW1 7070   5.203   4.444   6.039
 2057SOL    HW2 7071   5.318   4.427   6.153
 2058SOL     OW 7072   0.578   0.059   3.297
 2058SOL    HW1 7073   0.600   6.992   3.332
 2058SOL    HW2 7074   0.644   0.126   3.331
 2059SOL     OW 7075   1.636   5.845   6.241
 2059SOL    HW1 7076   1.615   5.833   6.144
 2059SOL    HW2 7077   1.642   5.943   6.261
 2060SOL     OW 7078   0.450   4.014   1.536
 2060SOL    HW1 7079   0.455   4.087   1.468
 2060SOL    HW2 7080   0.410   3.932   1.494
 2061SOL     OW 7081   1.649   1.895   2.047
 2061SOL    HW1 7082   1.613   1.961   1.982
 2061SOL    HW2 7083   1.718   1.939   2.105
 2062SOL     OW 7084   6.984   5.284   5.222
 2062SOL    HW1 7085   7.016   5.376   5.242
 2062SOL    HW2 7086   6.884   5.284   5.211
 2063SOL     OW 7087   1.155   6.648   5.071
 2063SOL    HW1 7088   1.179   6.691   4.984
 2063SOL    HW2 7089   1.057   6.658   5.087
 2064SOL     OW 7090   7.001   2.611   4.691
 2064SOL    HW1 7091   0.061   2.652   4.654
 2064SOL    HW2 7092   6.922   2.643   4.639
 2065SOL     OW 7093   6.088   2.563   5.722
 2065SOL    HW1 7094   6.152   2.540   5.796
 2065SOL    HW2 7095   6.053   2.656   5.735
 2066SOL     OW 7096   6.955   4.404   4.924
 2066SOL    HW1 7097   6.864   4.445   4.922
 2066SOL    HW2 7098   6.979   4.380   5.018
 2067SOL     OW 7099   6.980   5.151   0.747
 2067SOL    HW1 7100   0.001   5.151   0.658
 2067SOL    HW2 7101   0.026   5.143   0.819
 2068SOL     OW 7102   2.320   0.459   4.380
 2068SOL    HW1 7103   2.236   0.513   4.369
 2068SOL    HW2 7104   2.301   0.364   4.357
 2069SOL     OW 7105   6.631   2.524   4.040
 2069SOL    HW1 7106   6.681   2.600   3.997
 2069SOL    HW2 7107   6.697   2.460   4.080
 2070SOL     OW 7108   1.168   1.507   0.551
 2070SOL    HW1 7109   1.183   1.550   0.461
 2070SOL    HW2 7110   1.224   1.554   0.619
 2071SOL     OW 7111   5.975   0.718   5.728
 2071SOL    HW1 7112   6.037   0.658   5.779
 2071SOL    HW2 7113   5.911   0.761   5.791
 2072SOL     OW 7114   4.742   5.184   5.040
 2072SOL    HW1 7115   4.782   5.109   4.988
 2072SOL    HW2 7116   4.657   5.153   5.083
 2073SOL     OW 7117   4.492   6.842   4.849
 2073SOL    HW1 7118   4.427   6.773   4.881
 2073SOL    HW2 7119   4.512   6.906   4.923
 2074SOL     OW 7120   2.235   2.371   6.083
 2074SOL    HW1 7121   2.179   2.453   6.069
 2074SOL    HW2 7122   2.178   2.289   6.071
 2075SOL     OW 7123   6.836   2.597   2.970
 2075SOL    HW1 7124   6.867   2.688   2.941
 2075SOL    HW2 7125   6.912   2.549   3.015
 2076SOL     OW 7126   5.181   6.599   6.203
 2076SOL    HW1 7127   5.243   6.558   6.136
 2076SOL    HW2 7128   5.149   6.687   6.169
 2077SOL     OW 7129   7.019   1.787   2.221
 2077SOL    HW1 7130   0.017   1.795   2.318
 2077SOL    HW2 7131   0.080   1.764   2.170
 2078SOL     OW 7132   1.686   5.076   6.583
 2078SOL    HW1 7133   1.659   5.166   6.617
 2078SOL    HW2 7134   1.676   5.073   6.484
 2079SOL     OW 7135   0.190   1.774   2.933
 2079SOL    HW1 7136   0.179   1.821   3.022
 2079SOL    HW2 7137   0.238   1.835   2.870
 2080SOL     OW 7138   2.263   0.586   4.888
 2080SOL    HW1 7139   2.341   0.578   4.827
 2080SOL    HW2 7140   2.230   0.495   4.913
 2081SOL     OW 7141   0.725   6.532   4.418
 2081SOL    HW1 7142   0.775   6.560   4.500
 2081SOL    HW2 7143   0.763   6.446   4.384
 2082SOL     OW 7144   0.986   6.767   3.007
 2082SOL    HW1 7145   0.906   6.754   2.949
 2082SOL    HW2 7146   0.990   6.695   3.076
 2083SOL     OW 7147   1.279   5.215   5.428
 2083SOL    HW1 7148   1.307   5.263   5.511
 2083SOL    HW2 7149   1.221   5.137   5.453
 2084SOL     OW 7150   0.897   4.273   2.522
 2084SOL    HW1 7151   0.906   4.354   2.580
 2084SOL    HW2 7152   0.922   4.191   2.573
 2085SOL     OW 7153   4.756   0.647   1.069
 2085SOL    HW1 7154   4.785   0.660   0.974
 2085SOL    HW2 7155   4.667   0.690   1.083
 2086SOL     OW 7156   3.574   6.589   6.945
 2086SOL    HW1 7157   3.531   6.680   6.949
 2086SOL    HW2 7158   3.658   6.590   6.998
 2087SOL     OW 7159   5.265   1.587   1.713
 2087SOL    HW1 7160   5.175   1.551   1.690
 2087SOL    HW2 7161   5.324   1.583   1.632
 2088SOL     OW 7162   1.103   5.856   6.884
 2088SOL    HW1 7163   1.102   5.869   6.785
 2088SOL    HW2 7164   1.197   5.866   6.918
 2089SOL     OW 7165   4.541   2.708   6.009
 2089SOL    HW1 7166   4.580   2.676   6.095
 2089SOL    HW2 7167   4.613   2.746   5.951
 2090SOL     OW 7168   4.225   3.275   5.905
 2090SOL    HW1 7169   4.273   3.333   5.840
 2090SOL    HW2 7170   4.217   3.182   5.867
 2091SOL     OW 7171   6.740   4.495   0.810
 2091SOL    HW1 7172   6.660   4.478   0.868
 2091SOL    HW2 7173   6.722   4.461   0.718
 2092SOL     OW 7174   5.549   3.674   0.414
 2092SOL    HW1 7175   5.471   3.733   0.395
 2092SOL    HW2 7176   5.609   3.719   0.480
 2093SOL     OW 7177   3.131   2.395   1.664
 2093SOL    HW1 7178   3.175   2.308   1.685
 2093SOL    HW2 7179   3.050   2.407   1.722
 2094SOL     OW 7180   5.931   1.486   1.632
 2094SOL    HW1 7181   5.940   1.528   1.722
 2094SOL    HW2 7182   5.964   1.392   1.636
 2095SOL     OW 7183   6.253   6.493   4.882
 2095SOL    HW1 7184   6.346   6.477   4.916
 2095SOL    HW2 7185   6.206   6.559   4.941
 2096SOL     OW 7186   4.760   5.125   3.582
 2096SOL    HW1 7187   4.756   5.218   3.619
 2096SOL    HW2 7188   4.701   5.119   3.502
 2097SOL     OW 7189   3.122   2.755   6.354
 2097SOL    HW1 7190   3.143   2.835   6.298
 2097SOL    HW2 7191   3.101   2.785   6.448
 2098SOL     OW 7192   4.263   5.761   1.858
 2098SOL    HW1 7193   4.276   5.676   1.806
 2098SOL    HW2 7194   4.167   5.786   1.858
 2099SOL     OW 7195   3.495   1.386   0.139
 2099SOL    HW1 7196   3.449   1.472   0.161
 2099SOL    HW2 7197   3.462   1.314   0.200
 2100SOL     OW 7198   5.762   1.483   0.854
 2100SOL    HW1 7199   5.687   1.535   0.813
 2100SOL    HW2 7200   5.842   1.542   0.864
 2101SOL     OW 7201   0.477   6.569   1.045
 2101SOL    HW1 7202   0.420   6.523   1.114
 2101SOL    HW2 7203   0.426   6.577   0.960
 2102SOL     OW 7204   5.096   3.940   1.928
 2102SOL    HW1 7205   5.102   4.040   1.925
 2102SOL    HW2 7206   5.006   3.911   1.896
 2103SOL     OW 7207   3.264   3.525   6.880
 2103SOL    HW1 7208   3.314   3.477   6.808
 2103SOL    HW2 7209   3.169   3.492   6.881
 2104SOL     OW 7210   1.805   4.432   2.550
 2104SOL    HW1 7211   1.788   4.372   2.472
 2104SOL    HW2 7212   1.783   4.527   2.525
 2105SOL     OW 7213   4.571   4.390   6.441
 2105SOL    HW1 7214   4.626   4.426   6.365
 2105SOL    HW2 7215   4.624   4.393   6.525
 2106SOL     OW 7216   5.157   3.964   1.411
 2106SOL    HW1 7217   5.117   3.913   1.487
 2106SOL    HW2 7218   5.154   4.062   1.431
 2107SOL     OW 7219   6.300   2.052   5.720
 2107SOL    HW1 7220   6.298   2.118   5.795
 2107SOL    HW2 7221   6.352   2.090   5.644
 2108SOL     OW 7222   6.075   5.124   5.149
 2108SOL    HW1 7223   6.074   5.111   5.248
 2108SOL    HW2 7224   6.098   5.219   5.128
 2109SOL     OW 7225   3.758   6.138   2.549
 2109SOL    HW1 7226   3.796   6.102   2.634
 2109SOL    HW2 7227   3.830   6.139   2.479
 2110SOL     OW 7228   3.060   0.830   0.778
 2110SOL    HW1 7229   3.029   0.735   0.769
 2110SOL    HW2 7230   2.981   0.891   0.779
 2111SOL     OW 7231   2.017   3.527   6.580
 2111SOL    HW1 7232   2.090   3.596   6.578
 2111SOL    HW2 7233   2.009   3.489   6.672
 2112SOL     OW 7234   4.994   1.940   0.686
 2112SOL    HW1 7235   4.944   1.894   0.759
 2112SOL    HW2 7236   5.074   1.886   0.661
 2113SOL     OW 7237   2.411   1.253   5.098
 2113SOL    HW1 7238   2.368   1.177   5.146
 2113SOL    HW2 7239   2.508   1.234   5.084
 2114SOL     OW 7240   2.653   1.763   6.647
 2114SOL    HW1 7241   2.743   1.804   6.663
 2114SOL    HW2 7242   2.614   1.800   6.562
 2115SOL     OW 7243   0.738   4.465   1.957
 2115SOL    HW1 7244   0.655   4.427   1.996
 2115SOL    HW2 7245   0.725   4.482   1.859
 2116SOL     OW 7246   1.277   3.665   2.452
 2116SOL    HW1 7247   1.203   3.703   2.508
 2116SOL    HW2 7248   1.240   3.637   2.364
 2117SOL     OW 7249   5.866   3.980   1.474
 2117SOL    HW1 7250   5.809   4.024   1.406
 2117SOL    HW2 7251   5.934   3.922   1.429
 2118SOL     OW 7252   6.616   3.229   3.394
 2118SOL    HW1 7253   6.642   3.172   3.316
 2118SOL    HW2 7254   6.521   3.211   3.419
 2119SOL     OW 7255   1.945   0.016   0.648
 2119SOL    HW1 7256   1.849   7.017   0.634
 2119SOL    HW2 7257   1.954   0.111   0.675
 2120SOL     OW 7258   0.656   4.072   2.852
 2120SOL    HW1 7259   0.743   4.101   2.814
 2120SOL    HW2 7260   0.590   4.059   2.778
 2121SOL     OW 7261   1.310   2.195   5.529
 2121SOL    HW1 7262   1.270   2.104   5.543
 2121SOL    HW2 7263   1.348   2.199   5.436
 2122SOL     OW 7264   5.580   6.104   6.611
 2122SOL    HW1 7265   5.502   6.114   6.672
 2122SOL    HW2 7266   5.637   6.186   6.615
 2123SOL     OW 7267   6.574   5.912   1.352
 2123SOL    HW1 7268   6.660   5.863   1.342
 2123SOL    HW2 7269   6.587   5.988   1.416
 2124SOL     OW 7270   2.814   1.556   0.205
 2124SOL    HW1 7271   2.720   1.585   0.185
 2124SOL    HW2 7272   2.852   1.614   0.277
 2125SOL     OW 7273   0.977   5.976   1.987
 2125SOL    HW1 7274   1.010   5.892   1.943
 2125SOL    HW2 7275   0.986   5.968   2.086
 2126SOL     OW 7276   3.404   2.488   6.861
 2126SOL    HW1 7277   3.348   2.490   6.778
 2126SOL    HW2 7278   3.490   2.537   6.844
 2127SOL     OW 7279   0.727   1.432   5.358
 2127SOL    HW1 7280   0.697   1.426   5.453
 2127SOL    HW2 7281   0.796   1.362   5.340
 2128SOL     OW 7282   6.349   2.730   2.503
 2128SOL    HW1 7283   6.355   2.649   2.445
 2128SOL    HW2 7284   6.409   2.719   2.582
 2129SOL     OW 7285   4.589   4.352   5.077
 2129SOL    HW1 7286   4.497   4.390   5.066
 2129SOL    HW2 7287   4.593   4.302   5.163
 2130SOL     OW 7288   2.925   0.172   2.567
 2130SOL    HW1 7289   2.856   0.120   2.516
 2130SOL    HW2 7290   3.012   0.124   2.564
 2131SOL     OW 7291   4.989   1.305   0.526
 2131SOL    HW1 7292   4.932   1.288   0.607
 2131SOL    HW2 7293   5.064   1.240   0.524
 2132SOL     OW 7294   2.920   2.030   6.799
 2132SOL    HW1 7295   2.924   1.960   6.870
 2132SOL    HW2 7296   2.909   1.985   6.710
 2133SOL     OW 7297   3.502   2.703   0.968
 2133SOL    HW1 7298   3.511   2.774   1.038
 2133SOL    HW2 7299   3.421   2.720   0.913
 2134SOL     OW 7300   0.784   1.002   4.585
 2134SOL    HW1 7301   0.685   1.011   4.589
 2134SOL    HW2 7302   0.810   0.968   4.494
 2135SOL     OW 7303   0.705   1.303   4.393
 2135SOL    HW1 7304   0.635   1.232   4.399
 2135SOL    HW2 7305   0.717   1.330   4.297
 2136SOL     OW 7306   1.283   4.325   4.781
 2136SOL    HW1 7307   1.216   4.361   4.845
 2136SOL    HW2 7308   1.246   4.242   4.738
 2137SOL     OW 7309   6.870   6.174   4.435
 2137SOL    HW1 7310   6.839   6.111   4.364
 2137SOL    HW2 7311   6.935   6.127   4.495
 2138SOL     OW 7312   6.557   1.606   1.895
 2138SOL    HW1 7313   6.518   1.618   1.804
 2138SOL    HW2 7314   6.570   1.509   1.913
 2139SOL     OW 7315   3.807   0.546   2.862
 2139SOL    HW1 7316   3.747   0.491   2.921
 2139SOL    HW2 7317   3.850   0.618   2.916
 2140SOL     OW 7318   3.041   5.743   2.920
 2140SOL    HW1 7319   3.039   5.826   2.864
 2140SOL    HW2 7320   2.991   5.670   2.874
 2141SOL     OW 7321   0.097   4.047   1.017
 2141SOL    HW1 7322   7.021   4.053   1.007
 2141SOL    HW2 7323   0.135   3.994   0.941
 2142SOL     OW 7324   1.132   2.288   2.658
 2142SOL    HW1 7325   1.056   2.233   2.625
 2142SOL    HW2 7326   1.218   2.238   2.645
 2143SOL     OW 7327   3.557   4.890   1.475
 2143SOL    HW1 7328   3.539   4.888   1.376
 2143SOL    HW2 7329   3.470   4.892   1.524
 2144SOL     OW 7330   1.488   6.888   3.063
 2144SOL    HW1 7331   1.401   6.845   3.036
 2144SOL    HW2 7332   1.530   6.929   2.982
 2145SOL     OW 7333   3.667   5.946   3.744
 2145SOL    HW1 7334   3.731   5.963   3.818
 2145SOL    HW2 7335   3.574   5.965   3.775
 2146SOL     OW 7336   2.857   3.494   2.287
 2146SOL    HW1 7337   2.909   3.452   2.212
 2146SOL    HW2 7338   2.760   3.498   2.262
 2147SOL     OW 7339   0.148   0.536   6.944
 2147SOL    HW1 7340   0.134   0.606   7.014
 2147SOL    HW2 7341   0.063   0.485   6.930
 2148SOL     OW 7342   5.105   2.842   4.342
 2148SOL    HW1 7343   5.134   2.751   4.312
 2148SOL    HW2 7344   5.116   2.850   4.441
 2149SOL     OW 7345   3.845   1.081   1.312
 2149SOL    HW1 7346   3.857   0.991   1.356
 2149SOL    HW2 7347   3.802   1.069   1.223
 2150SOL     OW 7348   1.978   2.417   2.676
 2150SOL    HW1 7349   1.993   2.483   2.602
 2150SOL    HW2 7350   2.054   2.352   2.679
 2151SOL     OW 7351   1.671   1.515   4.002
 2151SOL    HW1 7352   1.750   1.577   4.002
 2151SOL    HW2 7353   1.595   1.559   4.050
 2152SOL     OW 7354   3.628   6.400   1.082
 2152SOL    HW1 7355   3.727   6.395   1.095
 2152SOL    HW2 7356   3.607   6.468   1.011
 2153SOL     OW 7357   3.907   0.051   3.083
 2153SOL    HW1 7358   3.853   7.002   3.040
 2153SOL    HW2 7359   3.857   0.087   3.162
 2154SOL     OW 7360   5.019   0.319   4.450
 2154SOL    HW1 7361   5.098   0.365   4.491
 2154SOL    HW2 7362   4.967   0.384   4.395
 2155SOL     OW 7363   2.114   5.636   0.204
 2155SOL    HW1 7364   2.033   5.691   0.184
 2155SOL    HW2 7365   2.169   5.626   0.121
 2156SOL     OW 7366   2.486   0.363   2.626
 2156SOL    HW1 7367   2.495   0.390   2.722
 2156SOL    HW2 7368   2.577   0.341   2.589
 2157SOL     OW 7369   6.001   1.370   3.115
 2157SOL    HW1 7370   6.014   1.439   3.187
 2157SOL    HW2 7371   5.905   1.371   3.085
 2158SOL     OW 7372   4.351   6.090   1.002
 2158SOL    HW1 7373   4.401   6.003   0.993
 2158SOL    HW2 7374   4.386   6.139   1.082
 2159SOL     OW 7375   1.810   5.662   5.410
 2159SOL    HW1 7376   1.821   5.620   5.320
 2159SOL    HW2 7377   1.734   5.619   5.459
 2160SOL     OW 7378   4.489   3.226   1.471
 2160SOL    HW1 7379   4.470   3.163   1.546
 2160SOL    HW2 7380   4.454   3.186   1.385
 2161SOL     OW 7381   5.391   2.731   3.456
 2161SOL    HW1 7382   5.429   2.715   3.548
 2161SOL    HW2 7383   5.302   2.687   3.449
 2162SOL     OW 7384   2.805   0.775   6.983
 2162SOL    HW1 7385   2.754   0.786   6.898
 2162SOL    HW2 7386   2.901   0.755   6.963
 2163SOL     OW 7387   0.334   5.623   6.195
 2163SOL    HW1 7388   0.275   5.546   6.218
 2163SOL    HW2 7389   0.312   5.655   6.103
 2164SOL     OW 7390   1.594   2.507   0.258
 2164SOL    HW1 7391   1.556   2.516   0.166
 2164SOL    HW2 7392   1.555   2.428   0.304
 2165SOL     OW 7393   1.093   1.570   2.520
 2165SOL    HW1 7394   1.069   1.603   2.429
 2165SOL    HW2 7395   1.153   1.490   2.512
 2166SOL     OW 7396   2.037   2.092   5.343
 2166SOL    HW1 7397   1.956   2.140   5.311
 2166SOL    HW2 7398   2.071   2.032   5.271
 2167SOL     OW 7399   1.857   1.034   3.241
 2167SOL    HW1 7400   1.844   0.955   3.301
 2167SOL    HW2 7401   1.938   1.020   3.184
 2168SOL     OW 7402   0.442   2.268   3.565
 2168SOL    HW1 7403   0.430   2.245   3.661
 2168SOL    HW2 7404   0.375   2.217   3.510
 2169SOL     OW 7405   6.006   2.227   5.859
 2169SOL    HW1 7406   5.992   2.153   5.925
 2169SOL    HW2 7407   6.100   2.261   5.866
 2170SOL     OW 7408   5.758   4.759   5.726
 2170SOL    HW1 7409   5.731   4.733   5.633
 2170SOL    HW2 7410   5.816   4.687   5.765
 2171SOL     OW 7411   6.240   3.236   0.907
 2171SOL    HW1 7412   6.268   3.146   0.872
 2171SOL    HW2 7413   6.269   3.244   1.003
 2172SOL     OW 7414   2.269   1.419   0.687
 2172SOL    HW1 7415   2.239   1.442   0.780
 2172SOL    HW2 7416   2.368   1.406   0.687
 2173SOL     OW 7417   3.887   0.091   5.537
 2173SOL    HW1 7418   3.918   0.005   5.496
 2173SOL    HW2 7419   3.814   0.073   5.602
 2174SOL     OW 7420   5.986   5.040   5.976
 2174SOL    HW1 7421   5.897   5.081   5.956
 2174SOL    HW2 7422   5.974   4.943   5.997
 2175SOL     OW 7423   3.195   2.002   3.378
 2175SOL    HW1 7424   3.282   2.049   3.364
 2175SOL    HW2 7425   3.176   1.994   3.476
 2176SOL     OW 7426   0.640   2.808   0.527
 2176SOL    HW1 7427   0.589   2.779   0.608
 2176SOL    HW2 7428   0.710   2.740   0.507
 2177SOL     OW 7429   6.652   0.548   2.906
 2177SOL    HW1 7430   6.626   0.601   2.987
 2177SOL    HW2 7431   6.629   0.599   2.823
 2178SOL     OW 7432   2.002   4.691   0.445
 2178SOL    HW1 7433   1.959   4.663   0.531
 2178SOL    HW2 7434   2.017   4.790   0.445
 2179SOL     OW 7435   1.791   5.437   4.675
 2179SOL    HW1 7436   1.777   5.451   4.577
 2179SOL    HW2 7437   1.734   5.361   4.706
 2180SOL     OW 7438   2.959   3.732   2.107
 2180SOL    HW1 7439   2.912   3.683   2.033
 2180SOL    HW2 7440   3.005   3.666   2.166
 2181SOL     OW 7441   5.499   4.656   5.955
 2181SOL    HW1 7442   5.459   4.588   6.017
 2181SOL    HW2 7443   5.439   4.668   5.876
 2182SOL     OW 7444   6.020   3.021   5.016
 2182SOL    HW1 7445   6.081   3.077   4.960
 2182SOL    HW2 7446   5.980   2.949   4.960
 2183SOL     OW 7447   3.456   3.609   6.482
 2183SOL    HW1 7448   3.555   3.611   6.498
 2183SOL    HW2 7449   3.419   3.701   6.492
 2184SOL     OW 7450   3.617   1.274   5.258
 2184SOL    HW1 7451   3.649   1.368   5.245
 2184SOL    HW2 7452   3.658   1.235   5.340
 2185SOL     OW 7453   1.517   2.315   0.902
 2185SOL    HW1 7454   1.466   2.400   0.896
 2185SOL    HW2 7455   1.591   2.325   0.969
 2186SOL     OW 7456   0.165   4.891   2.500
 2186SOL    HW1 7457   0.203   4.805   2.534
 2186SOL    HW2 7458   0.071   4.875   2.467
 2187SOL     OW 7459   0.321   1.959   1.693
 2187SOL    HW1 7460   0.340   2.043   1.641
 2187SOL    HW2 7461   0.318   1.881   1.630
 2188SOL     OW 7462   5.564   5.884   4.448
 2188SOL    HW1 7463   5.560   5.945   4.527
 2188SOL    HW2 7464   5.541   5.791   4.476
 2189SOL     OW 7465   1.704   6.353   6.432
 2189SOL    HW1 7466   1.768   6.402   6.491
 2189SOL    HW2 7467   1.616   6.344   6.478
 2190SOL     OW 7468   0.228   2.450   2.028
 2190SOL    HW1 7469   0.161   2.388   1.987
 2190SOL    HW2 7470   0.181   2.530   2.066
 2191SOL     OW 7471   3.028   1.679   6.200
 2191SOL    HW1 7472   3.105   1.717   6.149
 2191SOL    HW2 7473   2.999   1.593   6.159
 2192SOL     OW 7474   3.720   6.857   3.905
 2192SOL    HW1 7475   3.777   6.873   3.986
 2192SOL    HW2 7476   3.756   6.778   3.855
 2193SOL     OW 7477   6.987   6.338   6.076
 2193SOL    HW1 7478   6.890   6.351   6.057
 2193SOL    HW2 7479   0.018   6.395   6.014
 2194SOL     OW 7480   2.416   4.249   6.842
 2194SOL    HW1 7481   2.317   4.255   6.859
 2194SOL    HW2 7482   2.441   4.308   6.766
 2195SOL     OW 7483   0.649   6.502   2.897
 2195SOL    HW1 7484   0.694   6.420   2.932
 2195SOL    HW2 7485   0.553   6.481   2.878
 2196SOL     OW 7486   3.272   0.373   5.512
 2196SOL    HW1 7487   3.246   0.284   5.474
 2196SOL    HW2 7488   3.203   0.441   5.486
 2197SOL     OW 7489   4.772   3.602   1.647
 2197SOL    HW1 7490   4.792   3.504   1.646
 2197SOL    HW2 7491   4.679   3.617   1.613
 2198SOL     OW 7492   6.473   1.881   0.017
 2198SOL    HW1 7493   6.422   1.858   0.100
 2198SOL    HW2 7494   6.562   1.920   0.043
 2199SOL     OW 7495   5.454   1.002   1.843
 2199SOL    HW1 7496   5.528   0.971   1.903
 2199SOL    HW2 7497   5.408   0.923   1.804
 2200SOL     OW 7498   4.235   0.448   4.755
 2200SOL    HW1 7499   4.171   0.470   4.829
 2200SOL    HW2 7500   4.204   0.364   4.709
 2201SOL     OW 7501   6.694   2.896   2.056
 2201SOL    HW1 7502   6.658   2.982   2.094
 2201SOL    HW2 7503   6.619   2.846   2.012
 2202SOL     OW 7504   3.692   5.282   4.117
 2202SOL    HW1 7505   3.669   5.351   4.049
 2202SOL    HW2 7506   3.755   5.215   4.076
 2203SOL     OW 7507   2.222   2.291   2.132
 2203SOL    HW1 7508   2.146   2.332   2.081
 2203SOL    HW2 7509   2.235   2.340   2.218
 2204SOL     OW 7510   3.675   1.459   6.970
 2204SOL    HW1 7511   3.622   1.439   0.029
 2204SOL    HW2 7512   3.641   1.544   6.929
 2205SOL     OW 7513   1.784   0.058   6.289
 2205SOL    HW1 7514   1.871   0.047   6.337
 2205SOL    HW2 7515   1.744   0.146   6.313
 2206SOL     OW 7516   3.041   4.021   5.237
 2206SOL    HW1 7517   3.012   4.117   5.239
 2206SOL    HW2 7518   3.099   4.006   5.156
 2207SOL     OW 7519   1.951   3.768   6.180
 2207SOL    HW1 7520   2.050   3.761   6.194
 2207SOL    HW2 7521   1.915   3.679   6.154
 2208SOL     OW 7522   1.800   4.845   2.205
 2208SOL    HW1 7523   1.763   4.873   2.116
 2208SOL    HW2 7524   1.864   4.914   2.237
 2209SOL     OW 7525   1.425   5.518   6.173
 2209SOL    HW1 7526   1.502   5.526   6.110
 2209SOL    HW2 7527   1.459   5.525   6.267
 2210SOL     OW 7528   0.364   5.004   3.911
 2210SOL    HW1 7529   0.450   5.014   3.962
 2210SOL    HW2 7530   0.374   5.046   3.821
 2211SOL     OW 7531   5.433   1.302   6.801
 2211SOL    HW1 7532   5.494   1.238   6.847
 2211SOL    HW2 7533   5.480   1.389   6.788
 2212SOL     OW 7534   1.740   6.202   0.742
 2212SOL    HW1 7535   1.716   6.196   0.838
 2212SOL    HW2 7536   1.834   6.236   0.733
 2213SOL     OW 7537   3.959   2.807   5.483
 2213SOL    HW1 7538   3.987   2.711   5.494
 2213SOL    HW2 7539   4.002   2.845   5.401
 2214SOL     OW 7540   4.751   1.187   5.328
 2214SOL    HW1 7541   4.749   1.088   5.346
 2214SOL    HW2 7542   4.667   1.228   5.363
 2215SOL     OW 7543   6.597   2.064   5.923
 2215SOL    HW1 7544   6.542   2.098   5.999
 2215SOL    HW2 7545   6.657   1.991   5.954
 2216SOL     OW 7546   1.840   0.580   6.916
 2216SOL    HW1 7547   1.855   0.547   6.823
 2216SOL    HW2 7548   1.800   0.507   6.971
 2217SOL     OW 7549   3.171   0.293   1.758
 2217SOL    HW1 7550   3.093   0.353   1.777
 2217SOL    HW2 7551   3.139   0.213   1.706
 2218SOL     OW 7552   1.354   6.915   0.984
 2218SOL    HW1 7553   1.298   6.965   1.051
 2218SOL    HW2 7554   1.450   6.918   1.011
 2219SOL     OW 7555   0.751   3.928   3.405
 2219SOL    HW1 7556   0.820   3.997   3.425
 2219SOL    HW2 7557   0.772   3.885   3.317
 2220SOL     OW 7558   0.075   1.299   4.374
 2220SOL    HW1 7559   0.078   1.305   4.274
 2220SOL    HW2 7560   0.036   1.211   4.401
 2221SOL     OW 7561   6.921   0.913   0.046
 2221SOL    HW1 7562   6.899   0.993   7.013
 2221SOL    HW2 7563   6.838   0.877   0.088
 2222SOL     OW 7564   3.803   0.658   0.776
 2222SOL    HW1 7565   3.864   0.706   0.838
 2222SOL    HW2 7566   3.817   0.691   0.682
 2223SOL     OW 7567   5.560   6.722   3.889
 2223SOL    HW1 7568   5.541   6.814   3.856
 2223SOL    HW2 7569   5.573   6.724   3.988
 2224SOL     OW 7570   2.160   4.505   1.811
 2224SOL    HW1 7571   2.166   4.545   1.903
 2224SOL    HW2 7572   2.139   4.576   1.745
 2225SOL     OW 7573   6.184   5.763   3.005
 2225SOL    HW1 7574   6.185   5.670   2.969
 2225SOL    HW2 7575   6.173   5.761   3.104
 2226SOL     OW 7576   4.248   3.482   0.798
 2226SOL    HW1 7577   4.164   3.472   0.850
 2226SOL    HW2 7578   4.284   3.392   0.774
 2227SOL     OW 7579   6.142   4.493   0.258
 2227SOL    HW1 7580   6.081   4.419   0.229
 2227SOL    HW2 7581   6.109   4.532   0.344
 2228SOL     OW 7582   3.141   5.973   0.651
 2228SOL    HW1 7583   3.095   5.956   0.564
 2228SOL    HW2 7584   3.165   5.886   0.694
 2229SOL     OW 7585   4.145   1.386   4.361
 2229SOL    HW1 7586   4.108   1.441   4.436
 2229SOL    HW2 7587   4.182   1.301   4.397
 2230SOL     OW 7588   0.816   6.069   4.618
 2230SOL    HW1 7589   0.809   5.995   4.684
 2230SOL    HW2 7590   0.820   6.031   4.525
 2231SOL     OW 7591   1.700   1.367   1.125
 2231SOL    HW1 7592   1.754   1.388   1.043
 2231SOL    HW2 7593   1.747   1.298   1.179
 2232SOL     OW 7594   1.081   2.301   3.884
 2232SOL    HW1 7595   1.072   2.237   3.808
 2232SOL    HW2 7596   1.146   2.373   3.861
 2233SOL     OW 7597   2.611   4.420   0.490
 2233SOL    HW1 7598   2.662   4.420   0.404
 2233SOL    HW2 7599   2.579   4.327   0.510
 2234SOL     OW 7600   4.934   2.369   1.498
 2234SOL    HW1 7601   4.955   2.306   1.573
 2234SOL    HW2 7602   4.966   2.461   1.522
 2235SOL     OW 7603   1.749   0.047   0.426
 2235SOL    HW1 7604   1.755   0.137   0.469
 2235SOL    HW2 7605   1.732   0.057   0.328
 2236SOL     OW 7606   1.098   4.484   0.514
 2236SOL    HW1 7607   1.138   4.575   0.513
 2236SOL    HW2 7608   1.167   4.417   0.541
 2237SOL     OW 7609   5.651   3.921   4.244
 2237SOL    HW1 7610   5.624   4.017   4.240
 2237SOL    HW2 7611   5.573   3.865   4.272
 2238SOL     OW 7612   6.673   5.956   2.793
 2238SOL    HW1 7613   6.727   5.887   2.842
 2238SOL    HW2 7614   6.602   5.992   2.854
 2239SOL     OW 7615   3.891   5.324   3.759
 2239SOL    HW1 7616   3.821   5.287   3.697
 2239SOL    HW2 7617   3.864   5.416   3.788
 2240SOL     OW 7618   5.912   5.887   4.067
 2240SOL    HW1 7619   5.858   5.959   4.024
 2240SOL    HW2 7620   5.862   5.800   4.062
 2241SOL     OW 7621   0.282   6.738   2.152
 2241SOL    HW1 7622   0.247   6.768   2.064
 2241SOL    HW2 7623   0.382   6.729   2.147
 2242SOL     OW 7624   5.942   2.297   2.790
 2242SOL    HW1 7625   5.999   2.360   2.843
 2242SOL    HW2 7626   5.846   2.320   2.802
 2243SOL     OW 7627   2.966   6.237   5.345
 2243SOL    HW1 7628   2.938   6.175   5.418
 2243SOL    HW2 7629   2.888   6.290   5.313
 2244SOL     OW 7630   3.474   0.778   3.247
 2244SOL    HW1 7631   3.437   0.791   3.155
 2244SOL    HW2 7632   3.573   0.796   3.246
 2245SOL     OW 7633   0.186   2.215   1.221
 2245SOL    HW1 7634   0.270   2.252   1.182
 2245SOL    HW2 7635   0.169   2.258   1.310
 2246SOL     OW 7636   1.658   1.681   4.698
 2246SOL    HW1 7637   1.666   1.758   4.761
 2246SOL    HW2 7638   1.714   1.698   4.617
 2247SOL     OW 7639   2.279   2.533   6.398
 2247SOL    HW1 7640   2.186   2.566   6.411
 2247SOL    HW2 7641   2.320   2.579   6.320
 2248SOL     OW 7642   4.538   3.863   6.147
 2248SOL    HW1 7643   4.615   3.920   6.118
 2248SOL    HW2 7644   4.570   3.771   6.166
 2249SOL     OW 7645   5.020   6.401   3.089
 2249SOL    HW1 7646   5.019   6.400   2.989
 2249SOL    HW2 7647   4.990   6.490   3.122
 2250SOL     OW 7648   5.157   3.793   1.188
 2250SOL    HW1 7649   5.148   3.842   1.101
 2250SOL    HW2 7650   5.128   3.852   1.263
 2251SOL     OW 7651   5.695   1.526   0.319
 2251SOL    HW1 7652   5.613   1.571   0.355
 2251SOL    HW2 7653   5.716   1.563   0.228
 2252SOL     OW 7654   6.399   2.366   4.331
 2252SOL    HW1 7655   6.383   2.464   4.320
 2252SOL    HW2 7656   6.497   2.349   4.338
 2253SOL     OW 7657   1.193   3.182   6.997
 2253SOL    HW1 7658   1.143   3.242   0.036
 2253SOL    HW2 7659   1.219   3.098   0.023
 2254SOL     OW 7660   2.396   2.802   5.598
 2254SOL    HW1 7661   2.410   2.898   5.622
 2254SOL    HW2 7662   2.384   2.794   5.499
 2255SOL     OW 7663   6.688   2.244   0.690
 2255SOL    HW1 7664   6.676   2.163   0.632
 2255SOL    HW2 7665   6.600   2.290   0.701
 2256SOL     OW 7666   4.024   5.702   1.467
 2256SOL    HW1 7667   4.102   5.765   1.468
 2256SOL    HW2 7668   4.012   5.666   1.374
 2257SOL     OW 7669   0.131   2.970   4.306
 2257SOL    HW1 7670   0.063   2.913   4.352
 2257SOL    HW2 7671   0.216   2.970   4.358
 2258SOL     OW 7672   1.106   5.836   4.873
 2258SOL    HW1 7673   1.049   5.792   4.943
 2258SOL    HW2 7674   1.200   5.801   4.882
 2259SOL     OW 7675   4.319   3.473   6.296
 2259SOL    HW1 7676   4.364   3.432   6.375
 2259SOL    HW2 7677   4.252   3.409   6.258
 2260SOL     OW 7678   4.686   4.433   3.244
 2260SOL    HW1 7679   4.599   4.480   3.258
 2260SOL    HW2 7680   4.761   4.493   3.271
 2261SOL     OW 7681   5.942   6.740   1.049
 2261SOL    HW1 7682   5.978   6.832   1.064
 2261SOL    HW2 7683   5.994   6.695   0.976
 2262SOL     OW 7684   6.169   3.159   2.605
 2262SOL    HW1 7685   6.167   3.111   2.693
 2262SOL    HW2 7686   6.083   3.141   2.556
 2263SOL     OW 7687   2.724   5.609   6.259
 2263SOL    HW1 7688   2.801   5.564   6.303
 2263SOL    HW2 7689   2.666   5.651   6.328
 2264SOL     OW 7690   3.136   3.918   2.341
 2264SOL    HW1 7691   3.166   3.919   2.437
 2264SOL    HW2 7692   3.047   3.872   2.335
 2265SOL     OW 7693   0.358   0.656   3.743
 2265SOL    HW1 7694   0.429   0.589   3.767
 2265SOL    HW2 7695   0.363   0.678   3.646
 2266SOL     OW 7696   6.315   1.108   1.124
 2266SOL    HW1 7697   6.361   1.020   1.117
 2266SOL    HW2 7698   6.360   1.164   1.194
 2267SOL     OW 7699   5.495   2.596   5.007
 2267SOL    HW1 7700   5.510   2.584   4.909
 2267SOL    HW2 7701   5.515   2.690   5.034
 2268SOL     OW 7702   6.643   4.783   0.174
 2268SOL    HW1 7703   6.673   4.861   0.118
 2268SOL    HW2 7704   6.544   4.777   0.171
 2269SOL     OW 7705   6.045   5.827   5.700
 2269SOL    HW1 7706   5.978   5.755   5.720
 2269SOL    HW2 7707   5.997   5.914   5.688
 2270SOL     OW 7708   4.004   3.674   0.058
 2270SOL    HW1 7709   4.076   3.738   0.031
 2270SOL    HW2 7710   4.044   3.600   0.113
 2271SOL     OW 7711   5.997   4.236   1.183
 2271SOL    HW1 7712   6.058   4.211   1.258
 2271SOL    HW2 7713   5.902   4.223   1.212
 2272SOL     OW 7714   5.978   2.083   4.560
 2272SOL    HW1 7715   6.033   2.083   4.643
 2272SOL    HW2 7716   5.883   2.106   4.582
 2273SOL     OW 7717   1.930   1.715   1.523
 2273SOL    HW1 7718   1.934   1.762   1.611
 2273SOL    HW2 7719   1.840   1.676   1.509
 2274SOL     OW 7720   1.095   3.403   5.955
 2274SOL    HW1 7721   1.187   3.415   5.917
 2274SOL    HW2 7722   1.102   3.384   6.053
 2275SOL     OW 7723   5.131   0.049   4.757
 2275SOL    HW1 7724   5.066   0.102   4.811
 2275SOL    HW2 7725   5.086   0.011   4.677
 2276SOL     OW 7726   3.333   5.227   1.415
 2276SOL    HW1 7727   3.273   5.298   1.452
 2276SOL    HW2 7728   3.405   5.207   1.481
 2277SOL     OW 7729   3.102   3.959   4.628
 2277SOL    HW1 7730   3.043   3.939   4.707
 2277SOL    HW2 7731   3.176   4.019   4.657
 2278SOL     OW 7732   4.807   6.683   4.048
 2278SOL    HW1 7733   4.731   6.735   4.009
 2278SOL    HW2 7734   4.861   6.644   3.974
 2279SOL     OW 7735   5.367   5.379   4.475
 2279SOL    HW1 7736   5.355   5.366   4.573
 2279SOL    HW2 7737   5.297   5.327   4.426
 2280SOL     OW 7738   6.474   6.291   5.204
 2280SOL    HW1 7739   6.473   6.388   5.178
 2280SOL    HW2 7740   6.473   6.234   5.122
 2281SOL     OW 7741   3.944   1.034   1.815
 2281SOL    HW1 7742   3.939   1.053   1.717
 2281SOL    HW2 7743   4.039   1.032   1.845
 2282SOL     OW 7744   5.768   6.919   4.957
 2282SOL    HW1 7745   5.720   6.947   4.873
 2282SOL    HW2 7746   5.866   6.916   4.939
 2283SOL     OW 7747   6.751   4.389   1.151
 2283SOL    HW1 7748   6.752   4.325   1.074
 2283SOL    HW2 7749   6.844   4.424   1.166
 2284SOL     OW 7750   2.205   1.405   0.397
 2284SOL    HW1 7751   2.242   1.411   0.490
 2284SOL    HW2 7752   2.217   1.492   0.351
 2285SOL     OW 7753   1.910   3.446   6.834
 2285SOL    HW1 7754   1.863   3.405   6.912
 2285SOL    HW2 7755   1.905   3.545   6.840
 2286SOL     OW 7756   6.238   6.765   4.345
 2286SOL    HW1 7757   6.254   6.707   4.265
 2286SOL    HW2 7758   6.189   6.713   4.414
 2287SOL     OW 7759   2.504   2.507   2.085
 2287SOL    HW1 7760   2.465   2.599   2.088
 2287SOL    HW2 7761   2.556   2.496   2.001
 2288SOL     OW 7762   6.813   5.259   4.281
 2288SOL    HW1 7763   6.775   5.340   4.325
 2288SOL    HW2 7764   6.780   5.252   4.187
 2289SOL     OW 7765   6.423   3.616   2.686
 2289SOL    HW1 7766   6.335   3.575   2.662
 2289SOL    HW2 7767   6.408   3.705   2.728
 2290SOL     OW 7768   2.175   3.743   1.843
 2290SOL    HW1 7769   2.099   3.723   1.782
 2290SOL    HW2 7770   2.179   3.675   1.916
 2291SOL     OW 7771   2.085   2.191   0.187
 2291SOL    HW1 7772   2.145   2.245   0.246
 2291SOL    HW2 7773   2.006   2.161   0.239
 2292SOL     OW 7774   5.039   2.743   3.624
 2292SOL    HW1 7775   4.965   2.792   3.671
 2292SOL    HW2 7776   5.001   2.676   3.561
 2293SOL     OW 7777   6.495   0.146   1.260
 2293SOL    HW1 7778   6.520   0.243   1.260
 2293SOL    HW2 7779   6.578   0.090   1.265
 2294SOL     OW 7780   3.208   1.804   6.049
 2294SOL    HW1 7781   3.249   1.725   6.003
 2294SOL    HW2 7782   3.209   1.883   5.987
 2295SOL     OW 7783   0.174   1.070   2.974
 2295SOL    HW1 7784   0.129   1.159   2.980
 2295SOL    HW2 7785   0.106   0.998   2.964
 2296SOL     OW 7786   2.747   4.922   3.028
 2296SOL    HW1 7787   2.680   4.915   2.954
 2296SOL    HW2 7788   2.717   4.866   3.106
 2297SOL     OW 7789   5.014   4.631   6.202
 2297SOL    HW1 7790   5.067   4.560   6.250
 2297SOL    HW2 7791   5.072   4.676   6.135
 2298SOL     OW 7792   3.583   3.486   3.162
 2298SOL    HW1 7793   3.548   3.399   3.129
 2298SOL    HW2 7794   3.677   3.474   3.195
 2299SOL     OW 7795   4.964   4.275   5.123
 2299SOL    HW1 7796   4.891   4.222   5.165
 2299SOL    HW2 7797   4.965   4.258   5.024
 2300SOL     OW 7798   2.854   6.601   3.355
 2300SOL    HW1 7799   2.872   6.608   3.257
 2300SOL    HW2 7800   2.801   6.518   3.374
 2301SOL     OW 7801   3.609   2.959   3.803
 2301SOL    HW1 7802   3.699   2.936   3.767
 2301SOL    HW2 7803   3.616   3.037   3.864
 2302SOL     OW 7804   3.356   0.254   1.305
 2302SOL    HW1 7805   3.455   0.241   1.304
 2302SOL    HW2 7806   3.314   0.202   1.231
 2303SOL     OW 7807   2.259   3.163   1.181
 2303SOL    HW1 7808   2.275   3.092   1.249
 2303SOL    HW2 7809   2.333   3.230   1.184
 2304SOL     OW 7810   5.519   5.639   4.568
 2304SOL    HW1 7811   5.541   5.623   4.665
 2304SOL    HW2 7812   5.451   5.573   4.538
 2305SOL     OW 7813   1.895   0.639   3.399
 2305SOL    HW1 7814   1.850   0.727   3.412
 2305SOL    HW2 7815   1.992   0.648   3.418
 2306SOL     OW 7816   1.896   5.401   1.674
 2306SOL    HW1 7817   1.816   5.452   1.704
 2306SOL    HW2 7818   1.956   5.461   1.621
 2307SOL     OW 7819   0.413   3.066   5.409
 2307SOL    HW1 7820   0.477   2.991   5.423
 2307SOL    HW2 7821   0.417   3.096   5.314
 2308SOL     OW 7822   2.766   4.861   1.116
 2308SOL    HW1 7823   2.718   4.788   1.166
 2308SOL    HW2 7824   2.823   4.912   1.180
 2309SOL     OW 7825   2.001   0.944   4.626
 2309SOL    HW1 7826   1.970   0.931   4.721
 2309SOL    HW2 7827   1.921   0.952   4.567
 2310SOL     OW 7828   5.672   6.160   2.885
 2310SOL    HW1 7829   5.756   6.212   2.904
 2310SOL    HW2 7830   5.595   6.223   2.878
 2311SOL     OW 7831   3.086   5.970   6.819
 2311SOL    HW1 7832   3.180   5.951   6.848
 2311SOL    HW2 7833   3.024   5.904   6.862
 2312SOL     OW 7834   4.320   5.841   3.478
 2312SOL    HW1 7835   4.235   5.791   3.462
 2312SOL    HW2 7836   4.314   5.931   3.435
 2313SOL     OW 7837   4.972   4.962   2.373
 2313SOL    HW1 7838   5.030   4.960   2.292
 2313SOL    HW2 7839   4.890   4.906   2.356
 2314SOL     OW 7840   4.086   6.955   2.716
 2314SOL    HW1 7841   4.030   6.882   2.754
 2314SOL    HW2 7842   4.086   0.010   2.778
 2315SOL     OW 7843   5.087   3.332   5.761
 2315SOL    HW1 7844   5.073   3.375   5.850
 2315SOL    HW2 7845   5.114   3.401   5.694
 2316SOL     OW 7846   4.983   2.180   3.750
 2316SOL    HW1 7847   4.933   2.153   3.833
 2316SOL    HW2 7848   5.073   2.136   3.751
 2317SOL     OW 7849   0.166   5.423   3.458
 2317SOL    HW1 7850   0.099   5.386   3.394
 2317SOL    HW2 7851   0.258   5.397   3.429
 2318SOL     OW 7852   0.462   2.970   3.309
 2318SOL    HW1 7853   0.519   3.050   3.330
 2318SOL    HW2 7854   0.426   2.932   3.394
 2319SOL     OW 7855   1.588   4.922   4.697
 2319SOL    HW1 7856   1.600   4.831   4.659
 2319SOL    HW2 7857   1.671   4.949   4.747
 2320SOL     OW 7858   1.237   2.877   4.447
 2320SOL    HW1 7859   1.296   2.930   4.386
 2320SOL    HW2 7860   1.181   2.939   4.502
 2321SOL     OW 7861   3.524   1.053   5.017
 2321SOL    HW1 7862   3.488   1.057   4.925
 2321SOL    HW2 7863   3.556   1.144   5.045
 2322SOL     OW 7864   2.347   1.757   5.340
 2322SOL    HW1 7865   2.442   1.768   5.366
 2322SOL    HW2 7866   2.323   1.826   5.271
 2323SOL     OW 7867   2.557   4.585   2.305
 2323SOL    HW1 7868   2.618   4.580   2.383
 2323SOL    HW2 7869   2.466   4.613   2.335
 2324SOL     OW 7870   0.499   6.186   2.720
 2324SOL    HW1 7871   0.440   6.260   2.752
 2324SOL    HW2 7872   0.548   6.216   2.638
 2325SOL     OW 7873   1.146   4.002   1.662
 2325SOL    HW1 7874   1.136   3.906   1.635
 2325SOL    HW2 7875   1.070   4.055   1.625
 2326SOL     OW 7876   2.780   4.095   6.079
 2326SOL    HW1 7877   2.682   4.080   6.063
 2326SOL    HW2 7878   2.795   4.117   6.176
 2327SOL     OW 7879   5.212   2.381   4.839
 2327SOL    HW1 7880   5.249   2.436   4.764
 2327SOL    HW2 7881   5.282   2.366   4.908
 2328SOL     OW 7882   5.002   1.481   4.006
 2328SOL    HW1 7883   5.033   1.482   4.101
 2328SOL    HW2 7884   4.969   1.572   3.982
 2329SOL     OW 7885   1.630   5.239   4.781
 2329SOL    HW1 7886   1.703   5.172   4.793
 2329SOL    HW2 7887   1.545   5.191   4.759
 2330SOL     OW 7888   0.384   4.378   1.820
 2330SOL    HW1 7889   0.416   4.287   1.794
 2330SOL    HW2 7890   0.427   4.405   1.907
 2331SOL     OW 7891   6.023   4.737   6.580
 2331SOL    HW1 7892   6.069   4.773   6.661
 2331SOL    HW2 7893   6.021   4.807   6.509
 2332SOL     OW 7894   4.932   2.079   5.507
 2332SOL    HW1 7895   4.947   2.178   5.511
 2332SOL    HW2 7896   4.842   2.057   5.542
 2333SOL     OW 7897   0.267   4.883   3.107
 2333SOL    HW1 7898   0.299   4.828   3.030
 2333SOL    HW2 7899   0.346   4.914   3.161
 2334SOL     OW 7900   2.788   6.756   6.990
 2334SOL    HW1 7901   2.725   6.736   0.042
 2334SOL    HW2 7902   2.819   6.670   6.949
 2335SOL     OW 7903   6.219   1.203   3.152
 2335SOL    HW1 7904   6.144   1.267   3.135
 2335SOL    HW2 7905   6.279   1.199   3.072
 2336SOL     OW 7906   4.529   1.615   5.199
 2336SOL    HW1 7907   4.442   1.570   5.220
 2336SOL    HW2 7908   4.595   1.548   5.166
 2337SOL     OW 7909   5.044   0.831   3.730
 2337SOL    HW1 7910   4.986   0.789   3.660
 2337SOL    HW2 7911   5.128   0.864   3.688
 2338SOL     OW 7912   0.902   0.096   6.507
 2338SOL    HW1 7913   0.881   0.126   6.601
 2338SOL    HW2 7914   0.971   0.156   6.468
 2339SOL     OW 7915   3.503   3.756   5.421
 2339SOL    HW1 7916   3.433   3.734   5.489
 2339SOL    HW2 7917   3.460   3.792   5.338
 2340SOL     OW 7918   4.740   6.865   5.751
 2340SOL    HW1 7919   4.644   6.850   5.771
 2340SOL    HW2 7920   4.758   6.844   5.655
 2341SOL     OW 7921   5.378   4.031   0.664
 2341SOL    HW1 7922   5.303   3.988   0.613
 2341SOL    HW2 7923   5.341   4.109   0.716
 2342SOL     OW 7924   0.585   6.318   5.336
 2342SOL    HW1 7925   0.548   6.266   5.413
 2342SOL    HW2 7926   0.614   6.409   5.368
 2343SOL     OW 7927   1.750   6.764   1.186
 2343SOL    HW1 7928   1.800   6.770   1.099
 2343SOL    HW2 7929   1.685   6.839   1.192
 2344SOL     OW 7930   2.095   1.494   1.582
 2344SOL    HW1 7931   2.033   1.570   1.564
 2344SOL    HW2 7932   2.162   1.488   1.508
 2345SOL     OW 7933   1.630   6.499   5.560
 2345SOL    HW1 7934   1.632   6.487   5.461
 2345SOL    HW2 7935   1.581   6.422   5.602
 2346SOL     OW 7936   4.680   2.919   5.252
 2346SOL    HW1 7937   4.709   2.837   5.301
 2346SOL    HW2 7938   4.678   2.901   5.154
 2347SOL     OW 7939   1.748   4.405   2.231
 2347SOL    HW1 7940   1.697   4.488   2.207
 2347SOL    HW2 7941   1.688   4.326   2.222
 2348SOL     OW 7942   2.293   6.031   3.425
 2348SOL    HW1 7943   2.329   6.124   3.416
 2348SOL    HW2 7944   2.199   6.036   3.460
 2349SOL     OW 7945   0.981   6.298   6.962
 2349SOL    HW1 7946   1.020   6.267   0.026
 2349SOL    HW2 7947   1.022   6.386   6.938
 2350SOL     OW 7948   3.899   6.691   5.735
 2350SOL    HW1 7949   3.806   6.724   5.750
 2350SOL    HW2 7950   3.963   6.767   5.745
 2351SOL     OW 7951   3.329   5.309   3.351
 2351SOL    HW1 7952   3.237   5.348   3.342
 2351SOL    HW2 7953   3.364   5.329   3.442
 2352SOL     OW 7954   0.714   4.703   3.320
 2352SOL    HW1 7955   0.657   4.625   3.292
 2352SOL    HW2 7956   0.722   4.703   3.420
 2353SOL     OW 7957   2.594   4.676   4.336
 2353SOL    HW1 7958   2.659   4.646   4.266
 2353SOL    HW2 7959   2.516   4.722   4.292
 2354SOL     OW 7960   3.974   2.021   6.485
 2354SOL    HW1 7961   3.925   1.934   6.482
 2354SOL    HW2 7962   4.063   2.008   6.528
 2355SOL     OW 7963   0.446   6.090   0.609
 2355SOL    HW1 7964   0.491   6.025   0.548
 2355SOL    HW2 7965   0.365   6.127   0.564
 2356SOL     OW 7966   2.542   3.971   1.701
 2356SOL    HW1 7967   2.502   3.887   1.664
 2356SOL    HW2 7968   2.544   4.042   1.631
 2357SOL     OW 7969   4.345   5.506   3.950
 2357SOL    HW1 7970   4.357   5.482   3.853
 2357SOL    HW2 7971   4.255   5.477   3.981
 2358SOL     OW 7972   3.170   6.336   4.220
 2358SOL    HW1 7973   3.248   6.359   4.278
 2358SOL    HW2 7974   3.192   6.358   4.125
 2359SOL     OW 7975   2.096   1.110   6.015
 2359SOL    HW1 7976   2.118   1.206   6.002
 2359SOL    HW2 7977   2.176   1.054   5.993
 2360SOL     OW 7978   4.335   4.605   6.647
 2360SOL    HW1 7979   4.366   4.545   6.721
 2360SOL    HW2 7980   4.324   4.698   6.681
 2361SOL     OW 7981   2.862   6.666   3.879
 2361SOL    HW1 7982   2.802   6.744   3.866
 2361SOL    HW2 7983   2.811   6.581   3.862
 2362SOL     OW 7984   4.202   6.244   5.321
 2362SOL    HW1 7985   4.300   6.227   5.326
 2362SOL    HW2 7986   4.184   6.323   5.261
 2363SOL     OW 7987   4.701   2.591   5.327
 2363SOL    HW1 7988   4.637   2.564   5.398
 2363SOL    HW2 7989   4.778   2.527   5.324
 2364SOL     OW 7990   6.020   2.002   2.021
 2364SOL    HW1 7991   6.090   2.061   2.062
 2364SOL    HW2 7992   6.040   1.906   2.042
 2365SOL     OW 7993   5.564   4.532   5.574
 2365SOL    HW1 7994   5.602   4.452   5.620
 2365SOL    HW2 7995   5.638   4.592   5.544
 2366SOL     OW 7996   1.152   4.093   5.870
 2366SOL    HW1 7997   1.234   4.039   5.889
 2366SOL    HW2 7998   1.095   4.044   5.804
 2367SOL     OW 7999   0.864   3.108   6.092
 2367SOL    HW1 8000   0.822   3.026   6.052
 2367SOL    HW2 8001   0.849   3.186   6.031
 2368SOL     OW 8002   4.483   1.049   5.049
 2368SOL    HW1 8003   4.431   0.979   5.000
 2368SOL    HW2 8004   4.572   1.011   5.075
 2369SOL     OW 8005   2.104   1.862   4.010
 2369SOL    HW1 8006   2.151   1.819   4.087
 2369SOL    HW2 8007   2.140   1.954   3.996
 2370SOL     OW 8008   4.768   3.014   0.621
 2370SOL    HW1 8009   4.786   2.983   0.528
 2370SOL    HW2 8010   4.761   3.114   0.622
 2371SOL     OW 8011   1.343   5.730   2.480
 2371SOL    HW1 8012   1.396   5.698   2.559
 2371SOL    HW2 8013   1.327   5.654   2.418
 2372SOL     OW 8014   0.316   1.514   6.870
 2372SOL    HW1 8015   0.217   1.526   6.870
 2372SOL    HW2 8016   0.340   1.436   6.928
 2373SOL     OW 8017   6.683   1.398   6.348
 2373SOL    HW1 8018   6.658   1.409   6.252
 2373SOL    HW2 8019   6.608   1.433   6.405
 2374SOL     OW 8020   6.093   5.708   3.280
 2374SOL    HW1 8021   6.071   5.627   3.334
 2374SOL    HW2 8022   6.182   5.743   3.307
 2375SOL     OW 8023   0.940   0.480   4.190
 2375SOL    HW1 8024   0.913   0.510   4.098
 2375SOL    HW2 8025   1.036   0.453   4.189
 2376SOL     OW 8026   6.310   2.670   2.982
 2376SOL    HW1 8027   6.394   2.617   2.990
 2376SOL    HW2 8028   6.306   2.737   3.056
 2377SOL     OW 8029   3.287   3.838   4.399
 2377SOL    HW1 8030   3.265   3.892   4.317
 2377SOL    HW2 8031   3.222   3.858   4.471
 2378SOL     OW 8032   5.511   1.829   0.297
 2378SOL    HW1 8033   5.436   1.874   0.248
 2378SOL    HW2 8034   5.474   1.775   0.372
 2379SOL     OW 8035   6.497   3.641   6.904
 2379SOL    HW1 8036   6.550   3.713   6.949
 2379SOL    HW2 8037   6.546   3.555   6.912
 2380SOL     OW 8038   6.242   1.187   5.384
 2380SOL    HW1 8039   6.144   1.187   5.362
 2380SOL    HW2 8040   6.254   1.212   5.480
 2381SOL     OW 8041   1.513   4.362   5.337
 2381SOL    HW1 8042   1.515   4.285   5.273
 2381SOL    HW2 8043   1.589   4.355   5.400
 2382SOL     OW 8044   2.272   5.631   2.541
 2382SOL    HW1 8045   2.313   5.709   2.493
 2382SOL    HW2 8046   2.237   5.662   2.630
 2383SOL     OW 8047   5.694   6.390   6.545
 2383SOL    HW1 8048   5.630   6.383   6.468
 2383SOL    HW2 8049   5.780   6.431   6.513
 2384SOL     OW 8050   1.338   2.451   1.141
 2384SOL    HW1 8051   1.318   2.517   1.069
 2384SOL    HW2 8052   1.433   2.464   1.172
 2385SOL     OW 8053   0.522   0.846   0.435
 2385SOL    HW1 8054   0.445   0.802   0.481
 2385SOL    HW2 8055   0.607   0.822   0.483
 2386SOL     OW 8056   3.033   5.723   4.229
 2386SOL    HW1 8057   3.090   5.650   4.268
 2386SOL    HW2 8058   2.940   5.716   4.266
 2387SOL     OW 8059   6.678   3.415   4.487
 2387SOL    HW1 8060   6.759   3.447   4.438
 2387SOL    HW2 8061   6.630   3.348   4.432
 2388SOL     OW 8062   0.619   1.645   5.689
 2388SOL    HW1 8063   0.538   1.609   5.736
 2388SOL    HW2 8064   0.594   1.726   5.637
 2389SOL     OW 8065   4.296   4.729   3.743
 2389SOL    HW1 8066   4.353   4.810   3.726
 2389SOL    HW2 8067   4.346   4.647   3.715
 2390SOL     OW 8068   3.677   3.607   4.667
 2390SOL    HW1 8069   3.633   3.629   4.580
 2390SOL    HW2 8070   3.741   3.680   4.692
 2391SOL     OW 8071   3.700   4.059   6.107
 2391SOL    HW1 8072   3.703   3.962   6.085
 2391SOL    HW2 8073   3.663   4.071   6.199
 2392SOL     OW 8074   3.159   4.008   6.299
 2392SOL    HW1 8075   3.145   3.950   6.219
 2392SOL    HW2 8076   3.073   4.055   6.322
 2393SOL     OW 8077   3.889   5.229   1.188
 2393SOL    HW1 8078   3.898   5.151   1.248
 2393SOL    HW2 8079   3.826   5.207   1.114
 2394SOL     OW 8080   0.748   4.032   4.162
 2394SOL    HW1 8081   0.703   4.025   4.251
 2394SOL    HW2 8082   0.751   3.942   4.118
 2395SOL     OW 8083   6.956   3.088   6.693
 2395SOL    HW1 8084   6.964   3.166   6.630
 2395SOL    HW2 8085   0.023   3.046   6.706
 2396SOL     OW 8086   5.951   6.362   0.748
 2396SOL    HW1 8087   6.049   6.352   0.729
 2396SOL    HW2 8088   5.899   6.324   0.672
 2397SOL     OW 8089   6.742   4.861   0.425
 2397SOL    HW1 8090   6.698   4.941   0.464
 2397SOL    HW2 8091   6.698   4.838   0.338
 2398SOL     OW 8092   3.017   4.853   4.820
 2398SOL    HW1 8093   3.112   4.881   4.834
 2398SOL    HW2 8094   2.996   4.776   4.880
 2399SOL     OW 8095   3.548   1.934   3.309
 2399SOL    HW1 8096   3.550   2.005   3.379
 2399SOL    HW2 8097   3.634   1.882   3.311
 2400SOL     OW 8098   2.665   3.776   0.686
 2400SOL    HW1 8099   2.667   3.694   0.743
 2400SOL    HW2 8100   2.666   3.751   0.590
 2401SOL     OW 8101   3.439   0.506   4.165
 2401SOL    HW1 8102   3.539   0.512   4.177
 2401SOL    HW2 8103   3.417   0.426   4.109
 2402SOL     OW 8104   0.244   1.534   3.895
 2402SOL    HW1 8105   0.171   1.517   3.961
 2402SOL    HW2 8106   0.331   1.499   3.932
 2403SOL     OW 8107   2.993   3.100   0.430
 2403SOL    HW1 8108   3.089   3.099   0.457
 2403SOL    HW2 8109   2.942   3.033   0.484
 2404SOL     OW 8110   5.688   2.140   1.646
 2404SOL    HW1 8111   5.699   2.103   1.739
 2404SOL    HW2 8112   5.660   2.067   1.584
 2405SOL     OW 8113   3.396   4.095   5.486
 2405SOL    HW1 8114   3.338   4.044   5.549
 2405SOL    HW2 8115   3.492   4.077   5.507
 2406SOL     OW 8116   2.247   0.212   4.275
 2406SOL    HW1 8117   2.290   0.122   4.281
 2406SOL    HW2 8118   2.158   0.203   4.230
 2407SOL     OW 8119   4.490   2.420   3.243
 2407SOL    HW1 8120   4.507   2.496   3.306
 2407SOL    HW2 8121   4.476   2.456   3.150
 2408SOL     OW 8122   3.042   4.862   2.979
 2408SOL    HW1 8123   3.033   4.805   2.897
 2408SOL    HW2 8124   2.954   4.907   2.998
 2409SOL     OW 8125   2.427   2.769   1.127
 2409SOL    HW1 8126   2.384   2.832   1.192
 2409SOL    HW2 8127   2.356   2.724   1.073
 2410SOL     OW 8128   6.107   3.713   5.586
 2410SOL    HW1 8129   6.094   3.811   5.595
 2410SOL    HW2 8130   6.094   3.686   5.490
 2411SOL     OW 8131   3.071   3.424   5.716
 2411SOL    HW1 8132   3.092   3.357   5.787
 2411SOL    HW2 8133   3.148   3.429   5.652
 2412SOL     OW 8134   2.667   2.946   0.530
 2412SOL    HW1 8135   2.699   3.028   0.483
 2412SOL    HW2 8136   2.587   2.968   0.585
 2413SOL     OW 8137   5.421   3.704   6.232
 2413SOL    HW1 8138   5.473   3.622   6.257
 2413SOL    HW2 8139   5.468   3.785   6.266
 2414SOL     OW 8140   5.465   3.592   3.464
 2414SOL    HW1 8141   5.373   3.564   3.493
 2414SOL    HW2 8142   5.492   3.539   3.384
 2415SOL     OW 8143   2.022   0.044   1.825
 2415SOL    HW1 8144   2.015   0.108   1.748
 2415SOL    HW2 8145   1.939   0.050   1.880
 2416SOL     OW 8146   1.329   2.041   4.735
 2416SOL    HW1 8147   1.298   2.020   4.643
 2416SOL    HW2 8148   1.327   1.958   4.791
 2417SOL     OW 8149   5.245   2.201   0.890
 2417SOL    HW1 8150   5.179   2.141   0.935
 2417SOL    HW2 8151   5.292   2.151   0.818
 2418SOL     OW 8152   3.382   3.276   4.886
 2418SOL    HW1 8153   3.480   3.276   4.906
 2418SOL    HW2 8154   3.331   3.262   4.970
 2419SOL     OW 8155   1.490   0.120   4.518
 2419SOL    HW1 8156   1.477   0.039   4.575
 2419SOL    HW2 8157   1.489   0.093   4.422
 2420SOL     OW 8158   3.807   6.429   1.846
 2420SOL    HW1 8159   3.773   6.392   1.759
 2420SOL    HW2 8160   3.730   6.453   1.905
 2421SOL     OW 8161   3.437   6.778   3.910
 2421SOL    HW1 8162   3.463   6.817   3.998
 2421SOL    HW2 8163   3.494   6.815   3.838
 2422SOL     OW 8164   5.007   0.175   0.468
 2422SOL    HW1 8165   5.046   0.217   0.550
 2422SOL    HW2 8166   5.059   0.204   0.387
 2423SOL     OW 8167   1.947   5.117   1.605
 2423SOL    HW1 8168   1.893   5.062   1.542
 2423SOL    HW2 8169   1.928   5.214   1.588
 2424SOL     OW 8170   5.636   6.682   6.971
 2424SOL    HW1 8171   5.726   6.725   6.974
 2424SOL    HW2 8172   5.638   6.602   6.911
 2425SOL     OW 8173   5.981   6.671   6.097
 2425SOL    HW1 8174   6.052   6.627   6.153
 2425SOL    HW2 8175   5.975   6.768   6.121
 2426SOL     OW 8176   1.008   5.425   4.557
 2426SOL    HW1 8177   1.094   5.449   4.513
 2426SOL    HW2 8178   1.002   5.325   4.566
 2427SOL     OW 8179   5.288   5.859   0.314
 2427SOL    HW1 8180   5.301   5.882   0.217
 2427SOL    HW2 8181   5.369   5.888   0.366
 2428SOL     OW 8182   0.646   0.453   2.767
 2428SOL    HW1 8183   0.732   0.484   2.726
 2428SOL    HW2 8184   0.667   0.403   2.852
 2429SOL     OW 8185   5.924   4.805   3.231
 2429SOL    HW1 8186   5.831   4.767   3.234
 2429SOL    HW2 8187   5.988   4.738   3.267
 2430SOL     OW 8188   5.482   3.115   0.278
 2430SOL    HW1 8189   5.527   3.026   0.269
 2430SOL    HW2 8190   5.447   3.143   0.189
 2431SOL     OW 8191   4.573   0.942   0.823
 2431SOL    HW1 8192   4.603   0.973   0.913
 2431SOL    HW2 8193   4.569   0.842   0.821
 2432SOL     OW 8194   3.137   6.481   2.392
 2432SOL    HW1 8195   3.076   6.541   2.340
 2432SOL    HW2 8196   3.152   6.519   2.484
 2433SOL     OW 8197   1.845   6.375   0.116
 2433SOL    HW1 8198   1.756   6.359   0.160
 2433SOL    HW2 8199   1.886   6.287   0.091
 2434SOL     OW 8200   5.555   1.811   3.058
 2434SOL    HW1 8201   5.552   1.711   3.063
 2434SOL    HW2 8202   5.479   1.849   3.111
 2435SOL     OW 8203   5.264   5.059   7.009
 2435SOL    HW1 8204   5.300   5.150   0.005
 2435SOL    HW2 8205   5.172   5.050   0.024
 2436SOL     OW 8206   1.736   6.793   1.585
 2436SOL    HW1 8207   1.783   6.736   1.518
 2436SOL    HW2 8208   1.733   6.744   1.673
 2437SOL     OW 8209   4.999   6.900   1.249
 2437SOL    HW1 8210   4.910   6.944   1.259
 2437SOL    HW2 8211   5.057   6.955   1.188
 2438SOL     OW 8212   4.128   0.914   4.064
 2438SOL    HW1 8213   4.166   1.004   4.042
 2438SOL    HW2 8214   4.119   0.905   4.163
 2439SOL     OW 8215   0.766   4.269   0.656
 2439SOL    HW1 8216   0.806   4.250   0.566
 2439SOL    HW2 8217   0.760   4.184   0.708
 2440SOL     OW 8218   3.940   6.311   5.705
 2440SOL    HW1 8219   4.003   6.347   5.636
 2440SOL    HW2 8220   3.941   6.371   5.785
 2441SOL     OW 8221   5.995   1.127   6.885
 2441SOL    HW1 8222   5.940   1.105   6.804
 2441SOL    HW2 8223   6.091   1.108   6.865
 2442SOL     OW 8224   5.283   5.618   3.193
 2442SOL    HW1 8225   5.257   5.623   3.290
 2442SOL    HW2 8226   5.383   5.620   3.186
 2443SOL     OW 8227   3.242   0.177   6.493
 2443SOL    HW1 8228   3.152   0.218   6.478
 2443SOL    HW2 8229   3.238   0.117   6.573
 2444SOL     OW 8230   3.782   3.579   0.648
 2444SOL    HW1 8231   3.814   3.641   0.577
 2444SOL    HW2 8232   3.774   3.486   0.611
 2445SOL     OW 8233   6.199   1.661   1.713
 2445SOL    HW1 8234   6.207   1.677   1.615
 2445SOL    HW2 8235   6.253   1.581   1.739
 2446SOL     OW 8236   0.806   3.262   4.975
 2446SOL    HW1 8237   0.717   3.218   4.962
 2446SOL    HW2 8238   0.793   3.350   5.020
 2447SOL     OW 8239   2.662   1.243   1.270
 2447SOL    HW1 8240   2.599   1.166   1.276
 2447SOL    HW2 8241   2.631   1.317   1.329
 2448SOL     OW 8242   6.537   1.044   4.145
 2448SOL    HW1 8243   6.595   1.086   4.075
 2448SOL    HW2 8244   6.575   0.954   4.169
 2449SOL     OW 8245   0.789   4.082   1.913
 2449SOL    HW1 8246   0.874   4.032   1.934
 2449SOL    HW2 8247   0.810   4.179   1.903
 2450SOL     OW 8248   3.578   4.364   6.421
 2450SOL    HW1 8249   3.535   4.414   6.496
 2450SOL    HW2 8250   3.594   4.426   6.344
 2451SOL     OW 8251   1.647   6.962   3.753
 2451SOL    HW1 8252   1.634   6.863   3.753
 2451SOL    HW2 8253   1.633   6.998   3.661
 2452SOL     OW 8254   2.537   2.017   4.036
 2452SOL    HW1 8255   2.509   2.041   3.943
 2452SOL    HW2 8256   2.491   2.077   4.101
 2453SOL     OW 8257   0.626   3.760   0.673
 2453SOL    HW1 8258   0.527   3.773   0.682
 2453SOL    HW2 8259   0.647   3.662   0.675
 2454SOL     OW 8260   2.802   0.380   6.965
 2454SOL    HW1 8261   2.802   0.381   0.042
 2454SOL    HW2 8262   2.839   0.294   6.933
 2455SOL     OW 8263   3.927   0.246   0.335
 2455SOL    HW1 8264   3.887   0.300   0.409
 2455SOL    HW2 8265   3.858   0.184   0.297
 2456SOL     OW 8266   6.735   2.688   6.755
 2456SOL    HW1 8267   6.724   2.682   6.656
 2456SOL    HW2 8268   6.760   2.782   6.779
 2457SOL     OW 8269   6.634   0.945   6.457
 2457SOL    HW1 8270   6.673   0.998   6.382
 2457SOL    HW2 8271   6.674   0.976   6.544
 2458SOL     OW 8272   1.685   6.675   3.795
 2458SOL    HW1 8273   1.644   6.679   3.886
 2458SOL    HW2 8274   1.622   6.632   3.731
 2459SOL     OW 8275   3.069   5.870   5.951
 2459SOL    HW1 8276   3.127   5.943   5.987
 2459SOL    HW2 8277   3.013   5.832   6.025
 2460SOL     OW 8278   1.226   1.362   1.194
 2460SOL    HW1 8279   1.176   1.323   1.117
 2460SOL    HW2 8280   1.186   1.329   1.280
 2461SOL     OW 8281   5.192   0.751   3.098
 2461SOL    HW1 8282   5.206   0.654   3.080
 2461SOL    HW2 8283   5.129   0.789   3.030
 2462SOL     OW 8284   2.168   5.428   6.890
 2462SOL    HW1 8285   2.196   5.447   6.796
 2462SOL    HW2 8286   2.230   5.473   6.953
 2463SOL     OW 8287   5.673   1.999   6.847
 2463SOL    HW1 8288   5.657   1.905   6.816
 2463SOL    HW2 8289   5.719   2.050   6.775
 2464SOL     OW 8290   1.915   4.140   2.729
 2464SOL    HW1 8291   1.976   4.198   2.674
 2464SOL    HW2 8292   1.970   4.074   2.780
 2465SOL     OW 8293   0.895   6.858   6.589
 2465SOL    HW1 8294   0.845   6.807   6.519
 2465SOL    HW2 8295   0.919   6.948   6.553
 2466SOL     OW 8296   2.615   1.619   3.083
 2466SOL    HW1 8297   2.704   1.580   3.057
 2466SOL    HW2 8298   2.601   1.607   3.181
 2467SOL     OW 8299   5.218   1.645   4.607
 2467SOL    HW1 8300   5.184   1.603   4.523
 2467SOL    HW2 8301   5.268   1.728   4.585
 2468SOL     OW 8302   4.906   6.696   1.723
 2468SOL    HW1 8303   4.879   6.709   1.628
 2468SOL    HW2 8304   4.842   6.744   1.783
 2469SOL     OW 8305   4.156   3.621   5.079
 2469SOL    HW1 8306   4.234   3.631   5.141
 2469SOL    HW2 8307   4.108   3.709   5.072
 2470SOL     OW 8308   4.636   4.261   6.177
 2470SOL    HW1 8309   4.628   4.205   6.095
 2470SOL    HW2 8310   4.662   4.204   6.255
 2471SOL     OW 8311   2.858   6.120   0.712
 2471SOL    HW1 8312   2.783   6.114   0.646
 2471SOL    HW2 8313   2.945   6.125   0.663
 2472SOL     OW 8314   4.666   2.218   3.313
 2472SOL    HW1 8315   4.604   2.296   3.317
 2472SOL    HW2 8316   4.696   2.205   3.218
 2473SOL     OW 8317   1.880   3.813   4.783
 2473SOL    HW1 8318   1.853   3.876   4.856
 2473SOL    HW2 8319   1.968   3.772   4.805
 2474SOL     OW 8320   0.134   6.176   1.526
 2474SOL    HW1 8321   0.197   6.191   1.451
 2474SOL    HW2 8322   0.166   6.100   1.582
 2475SOL     OW 8323   3.682   0.431   3.077
 2475SOL    HW1 8324   3.609   0.436   3.145
 2475SOL    HW2 8325   3.771   0.443   3.123
 2476SOL     OW 8326   6.740   1.190   2.610
 2476SOL    HW1 8327   6.741   1.090   2.600
 2476SOL    HW2 8328   6.647   1.223   2.603
 2477SOL     OW 8329   4.454   1.367   2.206
 2477SOL    HW1 8330   4.533   1.311   2.181
 2477SOL    HW2 8331   4.372   1.330   2.162
 2478SOL     OW 8332   6.385   0.928   1.863
 2478SOL    HW1 8333   6.304   0.887   1.905
 2478SOL    HW2 8334   6.442   0.970   1.934
 2479SOL     OW 8335   1.246   3.620   2.175
 2479SOL    HW1 8336   1.304   3.696   2.146
 2479SOL    HW2 8337   1.157   3.628   2.130
 2480SOL     OW 8338   4.667   4.064   0.734
 2480SOL    HW1 8339   4.680   4.059   0.833
 2480SOL    HW2 8340   4.754   4.090   0.690
 2481SOL     OW 8341   3.342   6.695   0.245
 2481SOL    HW1 8342   3.353   6.762   0.171
 2481SOL    HW2 8343   3.244   6.683   0.264
 2482SOL     OW 8344   5.382   3.776   5.971
 2482SOL    HW1 8345   5.375   3.756   6.069
 2482SOL    HW2 8346   5.469   3.821   5.952
 2483SOL     OW 8347   1.713   1.047   0.608
 2483SOL    HW1 8348   1.761   1.100   0.678
 2483SOL    HW2 8349   1.780   0.995   0.554
 2484SOL     OW 8350   3.532   0.881   0.227
 2484SOL    HW1 8351   3.545   0.882   0.128
 2484SOL    HW2 8352   3.435   0.894   0.249
 2485SOL     OW 8353   6.372   3.615   1.463
 2485SOL    HW1 8354   6.299   3.554   1.492
 2485SOL    HW2 8355   6.444   3.617   1.533
 2486SOL     OW 8356   2.113   4.951   4.275
 2486SOL    HW1 8357   2.034   4.962   4.215
 2486SOL    HW2 8358   2.091   4.990   4.365
 2487SOL     OW 8359   3.855   6.043   0.318
 2487SOL    HW1 8360   3.902   5.984   0.383
 2487SOL    HW2 8361   3.775   6.084   0.361
 2488SOL     OW 8362   1.727   4.696   2.442
 2488SOL    HW1 8363   1.717   4.770   2.509
 2488SOL    HW2 8364   1.776   4.731   2.362
 2489SOL     OW 8365   1.561   5.774   3.345
 2489SOL    HW1 8366   1.600   5.859   3.310
 2489SOL    HW2 8367   1.484   5.746   3.287
 2490SOL     OW 8368   6.831   4.660   1.673
 2490SOL    HW1 8369   6.918   4.636   1.631
 2490SOL    HW2 8370   6.833   4.639   1.771
 2491SOL     OW 8371   2.194   5.302   0.865
 2491SOL    HW1 8372   2.106   5.321   0.908
 2491SOL    HW2 8373   2.265   5.302   0.935
 2492SOL     OW 8374   4.359   2.612   0.841
 2492SOL    HW1 8375   4.274   2.642   0.799
 2492SOL    HW2 8376   4.420   2.576   0.770
 2493SOL     OW 8377   5.665   0.381   1.657
 2493SOL    HW1 8378   5.640   0.380   1.753
 2493SOL    HW2 8379   5.710   0.295   1.633
 2494SOL     OW 8380   5.325   4.242   2.676
 2494SOL    HW1 8381   5.387   4.170   2.645
 2494SOL    HW2 8382   5.252   4.255   2.609
 2495SOL     OW 8383   5.669   0.490   4.705
 2495SOL    HW1 8384   5.712   0.417   4.652
 2495SOL    HW2 8385   5.685   0.578   4.660
 2496SOL     OW 8386   6.779   3.703   6.091
 2496SOL    HW1 8387   6.712   3.629   6.095
 2496SOL    HW2 8388   6.857   3.674   6.036
 2497SOL     OW 8389   0.281   0.455   0.605
 2497SOL    HW1 8390   0.254   0.530   0.666
 2497SOL    HW2 8391   0.339   0.491   0.532
 2498SOL     OW 8392   2.538   1.662   4.326
 2498SOL    HW1 8393   2.544   1.720   4.244
 2498SOL    HW2 8394   2.565   1.569   4.303
 2499SOL     OW 8395   6.311   2.543   1.912
 2499SOL    HW1 8396   6.226   2.588   1.886
 2499SOL    HW2 8397   6.300   2.444   1.901
 2500SOL     OW 8398   4.343   3.087   0.034
 2500SOL    HW1 8399   4.254   3.088   0.080
 2500SOL    HW2 8400   4.338   3.024   6.979
 2501SOL     OW 8401   5.810   5.032   0.636
 2501SOL    HW1 8402   5.714   5.057   0.627
 2501SOL    HW2 8403   5.861   5.108   0.676
 2502SOL     OW 8404   1.245   5.903   3.599
 2502SOL    HW1 8405   1.293   5.989   3.618
 2502SOL    HW2 8406   1.242   5.887   3.501
 2503SOL     OW 8407   2.712   5.879   4.046
 2503SOL    HW1 8408   2.695   5.818   3.969
 2503SOL    HW2 8409   2.723   5.824   4.129
 2504SOL     OW 8410   3.907   5.495   4.504
 2504SOL    HW1 8411   3.932   5.586   4.537
 2504SOL    HW2 8412   3.812   5.495   4.473
 2505SOL     OW 8413   1.246   6.350   2.866
 2505SOL    HW1 8414   1.174   6.281   2.877
 2505SOL    HW2 8415   1.264   6.394   2.954
 2506SOL     OW 8416   6.296   3.949   5.246
 2506SOL    HW1 8417   6.289   3.974   5.150
 2506SOL    HW2 8418   6.246   3.864   5.262
 2507SOL     OW 8419   1.334   4.076   0.788
 2507SOL    HW1 8420   1.423   4.061   0.831
 2507SOL    HW2 8421   1.266   4.016   0.830
 2508SOL     OW 8422   2.558   1.282   2.618
 2508SOL    HW1 8423   2.636   1.332   2.654
 2508SOL    HW2 8424   2.512   1.336   2.548
 2509SOL     OW 8425   6.542   2.609   1.502
 2509SOL    HW1 8426   6.517   2.563   1.587
 2509SOL    HW2 8427   6.633   2.650   1.512
 2510SOL     OW 8428   3.063   4.458   1.401
 2510SOL    HW1 8429   3.003   4.538   1.404
 2510SOL    HW2 8430   3.132   4.465   1.473
 2511SOL     OW 8431   2.787   2.344   4.402
 2511SOL    HW1 8432   2.693   2.349   4.436
 2511SOL    HW2 8433   2.848   2.313   4.476
 2512SOL     OW 8434   5.195   4.437   5.264
 2512SOL    HW1 8435   5.270   4.478   5.211
 2512SOL    HW2 8436   5.132   4.392   5.201
 2513SOL     OW 8437   1.474   3.961   5.101
 2513SOL    HW1 8438   1.551   3.953   5.165
 2513SOL    HW2 8439   1.466   3.876   5.048
 2514SOL     OW 8440   6.138   3.608   4.836
 2514SOL    HW1 8441   6.198   3.632   4.913
 2514SOL    HW2 8442   6.062   3.552   4.870
 2515SOL     OW 8443   1.927   6.511   0.627
 2515SOL    HW1 8444   1.984   6.579   0.581
 2515SOL    HW2 8445   1.838   6.505   0.582
 2516SOL     OW 8446   6.138   1.165   2.394
 2516SOL    HW1 8447   6.065   1.103   2.423
 2516SOL    HW2 8448   6.120   1.256   2.430
 2517SOL     OW 8449   0.914   5.774   5.736
 2517SOL    HW1 8450   0.945   5.756   5.829
 2517SOL    HW2 8451   0.955   5.859   5.703
 2518SOL     OW 8452   1.110   4.635   0.220
 2518SOL    HW1 8453   1.095   4.538   0.201
 2518SOL    HW2 8454   1.183   4.670   0.161
 2519SOL     OW 8455   4.435   6.850   3.188
 2519SOL    HW1 8456   4.431   6.934   3.134
 2519SOL    HW2 8457   4.382   6.778   3.142
 2520SOL     OW 8458   2.308   2.322   0.302
 2520SOL    HW1 8459   2.259   2.376   0.371
 2520SOL    HW2 8460   2.371   2.381   0.253
 2521SOL     OW 8461   1.265   0.239   4.993
 2521SOL    HW1 8462   1.272   0.270   4.898
 2521SOL    HW2 8463   1.346   0.269   5.044
 2522SOL     OW 8464   0.252   3.636   5.003
 2522SOL    HW1 8465   0.257   3.540   5.031
 2522SOL    HW2 8466   0.183   3.682   5.058
 2523SOL     OW 8467   7.000   2.863   1.259
 2523SOL    HW1 8468   0.046   2.925   1.297
 2523SOL    HW2 8469   6.924   2.854   1.323
 2524SOL     OW 8470   1.299   6.420   4.973
 2524SOL    HW1 8471   1.324   6.516   4.960
 2524SOL    HW2 8472   1.266   6.382   4.887
 2525SOL     OW 8473   0.863   2.170   5.152
 2525SOL    HW1 8474   0.948   2.220   5.167
 2525SOL    HW2 8475   0.819   2.204   5.069
 2526SOL     OW 8476   1.626   4.068   5.693
 2526SOL    HW1 8477   1.619   4.162   5.727
 2526SOL    HW2 8478   1.721   4.037   5.701
 2527SOL     OW 8479   5.035   5.790   4.745
 2527SOL    HW1 8480   5.098   5.733   4.692
 2527SOL    HW2 8481   4.967   5.732   4.789
 2528SOL     OW 8482   5.728   5.055   1.414
 2528SOL    HW1 8483   5.718   5.134   1.353
 2528SOL    HW2 8484   5.769   4.979   1.363
 2529SOL     OW 8485   0.014   6.763   6.034
 2529SOL    HW1 8486   0.020   6.847   5.981
 2529SOL    HW2 8487   6.942   6.744   6.058
 2530SOL     OW 8488   2.518   6.943   5.669
 2530SOL    HW1 8489   2.513   0.019   5.684
 2530SOL    HW2 8490   2.502   6.896   5.756
 2531SOL     OW 8491   4.825   5.872   4.415
 2531SOL    HW1 8492   4.918   5.846   4.442
 2531SOL    HW2 8493   4.768   5.790   4.410
 2532SOL     OW 8494   0.877   6.948   1.200
 2532SOL    HW1 8495   0.847   6.990   1.285
 2532SOL    HW2 8496   0.861   7.011   1.124
 2533SOL     OW 8497   3.097   6.745   3.292
 2533SOL    HW1 8498   3.027   6.693   3.339
 2533SOL    HW2 8499   3.169   6.771   3.356
 2534SOL     OW 8500   3.460   0.570   3.680
 2534SOL    HW1 8501   3.387   0.638   3.686
 2534SOL    HW2 8502   3.481   0.535   3.771
 2535SOL     OW 8503   3.220   2.105   5.534
 2535SOL    HW1 8504   3.143   2.055   5.496
 2535SOL    HW2 8505   3.275   2.043   5.590
 2536SOL     OW 8506   0.643   2.629   4.669
 2536SOL    HW1 8507   0.698   2.632   4.585
 2536SOL    HW2 8508   0.566   2.693   4.661
 2537SOL     OW 8509   3.580   0.352   6.361
 2537SOL    HW1 8510   3.535   0.333   6.449
 2537SOL    HW2 8511   3.671   0.391   6.379
 2538SOL     OW 8512   0.950   4.828   5.313
 2538SOL    HW1 8513   0.978   4.924   5.312
 2538SOL    HW2 8514   0.982   4.785   5.398
 2539SOL     OW 8515   5.320   1.067   5.300
 2539SOL    HW1 8516   5.306   1.002   5.225
 2539SOL    HW2 8517   5.406   1.044   5.347
 2540SOL     OW 8518   3.776   1.000   2.585
 2540SOL    HW1 8519   3.733   1.057   2.654
 2540SOL    HW2 8520   3.731   1.015   2.497
 2541SOL     OW 8521   2.536   6.984   5.095
 2541SOL    HW1 8522   2.610   6.916   5.087
 2541SOL    HW2 8523   2.449   6.937   5.109
 2542SOL     OW 8524   4.648   1.360   5.848
 2542SOL    HW1 8525   4.573   1.295   5.848
 2542SOL    HW2 8526   4.708   1.343   5.926
 2543SOL     OW 8527   1.265   1.447   2.956
 2543SOL    HW1 8528   1.325   1.380   2.912
 2543SOL    HW2 8529   1.177   1.404   2.977
 2544SOL     OW 8530   0.342   6.019   1.106
 2544SOL    HW1 8531   0.291   5.963   1.171
 2544SOL    HW2 8532   0.328   5.984   1.013
 2545SOL     OW 8533   2.150   0.978   1.252
 2545SOL    HW1 8534   2.157   1.004   1.156
 2545SOL    HW2 8535   2.241   0.984   1.295
 2546SOL     OW 8536   6.949   1.511   1.168
 2546SOL    HW1 8537   6.901   1.526   1.082
 2546SOL    HW2 8538   6.964   1.413   1.182
 2547SOL     OW 8539   6.432   4.261   0.781
 2547SOL    HW1 8540   6.489   4.298   0.853
 2547SOL    HW2 8541   6.345   4.310   0.777
 2548SOL     OW 8542   2.513   6.563   5.710
 2548SOL    HW1 8543   2.518   6.526   5.617
 2548SOL    HW2 8544   2.598   6.544   5.757
 2549SOL     OW 8545   1.976   0.847   0.800
 2549SOL    HW1 8546   1.903   0.842   0.868
 2549SOL    HW2 8547   2.022   0.936   0.808
 2550SOL     OW 8548   0.071   0.346   5.873
 2550SOL    HW1 8549   0.133   0.389   5.807
 2550SOL    HW2 8550   0.020   0.273   5.828
 2551SOL     OW 8551   3.517   4.595   0.863
 2551SOL    HW1 8552   3.427   4.554   0.849
 2551SOL    HW2 8553   3.568   4.542   0.931
 2552SOL     OW 8554   2.216   6.101   5.712
 2552SOL    HW1 8555   2.163   6.030   5.666
 2552SOL    HW2 8556   2.169   6.127   5.797
 2553SOL     OW 8557   4.135   2.958   6.201
 2553SOL    HW1 8558   4.139   2.898   6.121
 2553SOL    HW2 8559   4.146   2.904   6.284
 2554SOL     OW 8560   2.010   5.998   0.789
 2554SOL    HW1 8561   1.913   6.008   0.769
 2554SOL    HW2 8562   2.022   5.963   0.882
 2555SOL     OW 8563   5.887   0.125   6.643
 2555SOL    HW1 8564   5.841   0.050   6.595
 2555SOL    HW2 8565   5.848   0.212   6.613
 2556SOL     OW 8566   4.702   5.685   0.337
 2556SOL    HW1 8567   4.715   5.732   0.250
 2556SOL    HW2 8568   4.669   5.750   0.405
 2557SOL     OW 8569   2.576   3.308   6.146
 2557SOL    HW1 8570   2.632   3.384   6.177
 2557SOL    HW2 8571   2.614   3.222   6.179
 2558SOL     OW 8572   4.484   2.433   5.905
 2558SOL    HW1 8573   4.583   2.446   5.911
 2558SOL    HW2 8574   4.437   2.507   5.953
 2559SOL     OW 8575   6.229   4.277   3.831
 2559SOL    HW1 8576   6.223   4.194   3.776
 2559SOL    HW2 8577   6.137   4.308   3.855
 2560SOL     OW 8578   5.720   3.204   4.212
 2560SOL    HW1 8579   5.668   3.143   4.272
 2560SOL    HW2 8580   5.727   3.163   4.120
 2561SOL     OW 8581   2.672   6.498   4.954
 2561SOL    HW1 8582   2.579   6.536   4.956
 2561SOL    HW2 8583   2.709   6.508   4.861
 2562SOL     OW 8584   1.049   5.441   2.210
 2562SOL    HW1 8585   0.971   5.479   2.261
 2562SOL    HW2 8586   1.066   5.348   2.241
 2563SOL     OW 8587   3.928   2.145   0.715
 2563SOL    HW1 8588   3.832   2.121   0.704
 2563SOL    HW2 8589   3.972   2.149   0.625
 2564SOL     OW 8590   1.958   6.123   5.857
 2564SOL    HW1 8591   1.896   6.055   5.897
 2564SOL    HW2 8592   1.916   6.163   5.776
 2565SOL     OW 8593   0.253   6.927   6.841
 2565SOL    HW1 8594   0.233   6.962   6.933
 2565SOL    HW2 8595   0.242   7.001   6.774
 2566SOL     OW 8596   2.281   7.012   1.067
 2566SOL    HW1 8597   2.227   7.004   1.151
 2566SOL    HW2 8598   2.296   6.921   1.029
 2567SOL     OW 8599   0.760   1.444   1.212
 2567SOL    HW1 8600   0.707   1.359   1.210
 2567SOL    HW2 8601   0.795   1.464   1.120
 2568SOL     OW 8602   3.372   6.398   0.157
 2568SOL    HW1 8603   3.396   6.487   0.119
 2568SOL    HW2 8604   3.426   6.381   0.239
 2569SOL     OW 8605   2.810   1.335   1.672
 2569SOL    HW1 8606   2.761   1.390   1.605
 2569SOL    HW2 8607   2.875   1.275   1.626
 2570SOL     OW 8608   5.536   0.137   6.097
 2570SOL    HW1 8609   5.440   0.162   6.104
 2570SOL    HW2 8610   5.582   0.199   6.033
 2571SOL     OW 8611   2.332   4.468   4.827
 2571SOL    HW1 8612   2.315   4.533   4.753
 2571SOL    HW2 8613   2.354   4.518   4.911
 2572SOL     OW 8614   2.499   5.687   0.230
 2572SOL    HW1 8615   2.559   5.611   0.203
 2572SOL    HW2 8616   2.458   5.667   0.319
 2573SOL     OW 8617   6.490   2.125   1.439
 2573SOL    HW1 8618   6.505   2.028   1.460
 2573SOL    HW2 8619   6.578   2.170   1.423
 2574SOL     OW 8620   6.160   4.011   6.826
 2574SOL    HW1 8621   6.240   4.035   6.882
 2574SOL    HW2 8622   6.160   3.913   6.808
 2575SOL     OW 8623   5.488   5.520   0.320
 2575SOL    HW1 8624   5.564   5.496   0.380
 2575SOL    HW2 8625   5.523   5.552   0.231
 2576SOL     OW 8626   3.455   0.209   4.332
 2576SOL    HW1 8627   3.552   0.206   4.308
 2576SOL    HW2 8628   3.439   0.156   4.415
 2577SOL     OW 8629   3.413   0.255   1.860
 2577SOL    HW1 8630   3.400   0.296   1.951
 2577SOL    HW2 8631   3.326   0.256   1.811
 2578SOL     OW 8632   4.671   1.455   3.703
 2578SOL    HW1 8633   4.760   1.488   3.735
 2578SOL    HW2 8634   4.637   1.515   3.631
 2579SOL     OW 8635   1.058   6.206   2.341
 2579SOL    HW1 8636   1.101   6.235   2.426
 2579SOL    HW2 8637   0.975   6.154   2.361
 2580SOL     OW 8638   2.558   2.665   6.469
 2580SOL    HW1 8639   2.502   2.582   6.464
 2580SOL    HW2 8640   2.503   2.745   6.444
 2581SOL     OW 8641   0.907   4.715   0.874
 2581SOL    HW1 8642   0.944   4.637   0.824
 2581SOL    HW2 8643   0.963   4.732   0.955
 2582SOL     OW 8644   0.842   4.889   2.201
 2582SOL    HW1 8645   0.855   4.791   2.185
 2582SOL    HW2 8646   0.834   4.936   2.113
 2583SOL     OW 8647   0.888   1.039   0.370
 2583SOL    HW1 8648   0.832   1.091   0.305
 2583SOL    HW2 8649   0.974   1.089   0.387
 2584SOL     OW 8650   4.091   5.792   0.319
 2584SOL    HW1 8651   4.110   5.853   0.395
 2584SOL    HW2 8652   4.008   5.740   0.337
 2585SOL     OW 8653   4.910   2.199   0.694
 2585SOL    HW1 8654   4.864   2.169   0.777
 2585SOL    HW2 8655   4.971   2.127   0.660
 2586SOL     OW 8656   3.435   1.473   3.786
 2586SOL    HW1 8657   3.446   1.540   3.713
 2586SOL    HW2 8658   3.510   1.482   3.852
 2587SOL     OW 8659   0.377   0.801   3.492
 2587SOL    HW1 8660   0.291   0.750   3.488
 2587SOL    HW2 8661   0.362   0.894   3.459
 2588SOL     OW 8662   4.557   0.582   6.476
 2588SOL    HW1 8663   4.469   0.595   6.429
 2588SOL    HW2 8664   4.631   0.612   6.416
 2589SOL     OW 8665   0.348   6.277   6.357
 2589SOL    HW1 8666   0.390   6.265   6.266
 2589SOL    HW2 8667   0.262   6.226   6.361
 2590SOL     OW 8668   3.898   5.783   0.739
 2590SOL    HW1 8669   3.864   5.849   0.806
 2590SOL    HW2 8670   3.994   5.764   0.756
 2591SOL     OW 8671   6.945   5.555   2.715
 2591SOL    HW1 8672   7.014   5.497   2.673
 2591SOL    HW2 8673   6.922   5.630   2.652
 2592SOL     OW 8674   3.540   5.098   0.425
 2592SOL    HW1 8675   3.468   5.143   0.477
 2592SOL    HW2 8676   3.613   5.163   0.406
 2593SOL     OW 8677   3.363   5.268   0.587
 2593SOL    HW1 8678   3.288   5.203   0.601
 2593SOL    HW2 8679   3.337   5.357   0.624
 2594SOL     OW 8680   1.125   5.223   6.345
 2594SOL    HW1 8681   1.129   5.207   6.247
 2594SOL    HW2 8682   1.044   5.179   6.384
 2595SOL     OW 8683   6.576   1.688   4.008
 2595SOL    HW1 8684   6.583   1.631   3.927
 2595SOL    HW2 8685   6.658   1.676   4.064
 2596SOL     OW 8686   2.952   1.574   1.776
 2596SOL    HW1 8687   2.925   1.477   1.777
 2596SOL    HW2 8688   2.897   1.624   1.843
 2597SOL     OW 8689   1.478   4.813   5.901
 2597SOL    HW1 8690   1.575   4.800   5.878
 2597SOL    HW2 8691   1.426   4.732   5.871
 2598SOL     OW 8692   6.875   1.364   2.795
 2598SOL    HW1 8693   6.848   1.435   2.729
 2598SOL    HW2 8694   6.817   1.284   2.784
 2599SOL     OW 8695   2.139   6.332   1.344
 2599SOL    HW1 8696   2.054   6.316   1.295
 2599SOL    HW2 8697   2.209   6.366   1.281
 2600SOL     OW 8698   5.441   3.203   5.030
 2600SOL    HW1 8699   5.345   3.229   5.030
 2600SOL    HW2 8700   5.493   3.266   4.973
 2601SOL     OW 8701   2.562   1.422   1.457
 2601SOL    HW1 8702   2.522   1.420   1.549
 2601SOL    HW2 8703   2.523   1.498   1.406
 2602SOL     OW 8704   1.179   4.114   4.667
 2602SOL    HW1 8705   1.125   4.088   4.587
 2602SOL    HW2 8706   1.252   4.047   4.682
 2603SOL     OW 8707   2.189   1.139   3.986
 2603SOL    HW1 8708   2.186   1.223   4.040
 2603SOL    HW2 8709   2.096   1.112   3.962
 2604SOL     OW 8710   4.413   1.780   2.797
 2604SOL    HW1 8711   4.318   1.792   2.826
 2604SOL    HW2 8712   4.421   1.696   2.743
 2605SOL     OW 8713   1.905   3.325   2.878
 2605SOL    HW1 8714   1.834   3.322   2.949
 2605SOL    HW2 8715   1.870   3.286   2.794
 2606SOL     OW 8716   5.373   4.352   2.280
 2606SOL    HW1 8717   5.455   4.387   2.235
 2606SOL    HW2 8718   5.292   4.392   2.237
 2607SOL     OW 8719   1.594   1.648   1.018
 2607SOL    HW1 8720   1.536   1.729   1.018
 2607SOL    HW2 8721   1.550   1.575   1.070
 2608SOL     OW 8722   4.830   5.364   1.198
 2608SOL    HW1 8723   4.791   5.285   1.151
 2608SOL    HW2 8724   4.774   5.387   1.277
 2609SOL     OW 8725   6.583   1.008   1.414
 2609SOL    HW1 8726   6.683   1.010   1.414
 2609SOL    HW2 8727   6.550   0.967   1.500
 2610SOL     OW 8728   1.117   4.412   4.979
 2610SOL    HW1 8729   1.078   4.490   5.028
 2610SOL    HW2 8730   1.128   4.335   5.041
 2611SOL     OW 8731   4.495   6.821   1.219
 2611SOL    HW1 8732   4.410   6.838   1.169
 2611SOL    HW2 8733   4.553   6.759   1.167
 2612SOL     OW 8734   6.436   0.247   5.937
 2612SOL    HW1 8735   6.518   0.290   5.976
 2612SOL    HW2 8736   6.457   0.212   5.846
 2613SOL     OW 8737   2.854   5.937   6.409
 2613SOL    HW1 8738   2.872   6.035   6.394
 2613SOL    HW2 8739   2.765   5.926   6.452
 2614SOL     OW 8740   6.766   1.068   5.750
 2614SOL    HW1 8741   6.668   1.048   5.745
 2614SOL    HW2 8742   6.786   1.150   5.698
 2615SOL     OW 8743   6.942   3.520   2.356
 2615SOL    HW1 8744   6.890   3.455   2.411
 2615SOL    HW2 8745   6.886   3.552   2.279
 2616SOL     OW 8746   3.260   2.744   5.930
 2616SOL    HW1 8747   3.213   2.685   5.996
 2616SOL    HW2 8748   3.328   2.690   5.880
 2617SOL     OW 8749   3.793   6.490   0.351
 2617SOL    HW1 8750   3.703   6.468   0.389
 2617SOL    HW2 8751   3.859   6.500   0.426
 2618SOL     OW 8752   6.900   0.418   4.122
 2618SOL    HW1 8753   6.900   0.356   4.044
 2618SOL    HW2 8754   6.807   0.450   4.140
 2619SOL     OW 8755   3.690   1.679   3.060
 2619SOL    HW1 8756   3.618   1.747   3.048
 2619SOL    HW2 8757   3.776   1.714   3.026
 2620SOL     OW 8758   6.420   6.943   3.781
 2620SOL    HW1 8759   6.360   7.013   3.819
 2620SOL    HW2 8760   6.430   6.958   3.682
 2621SOL     OW 8761   0.924   5.192   2.477
 2621SOL    HW1 8762   0.829   5.176   2.451
 2621SOL    HW2 8763   0.928   5.243   2.563
 2622SOL     OW 8764   1.654   3.617   5.313
 2622SOL    HW1 8765   1.686   3.605   5.219
 2622SOL    HW2 8766   1.560   3.582   5.320
 2623SOL     OW 8767   0.936   1.221   5.631
 2623SOL    HW1 8768   0.936   1.188   5.725
 2623SOL    HW2 8769   1.001   1.297   5.622
 2624SOL     OW 8770   6.990   1.004   5.461
 2624SOL    HW1 8771   6.913   1.058   5.497
 2624SOL    HW2 8772   6.955   0.935   5.398
 2625SOL     OW 8773   2.421   3.332   5.467
 2625SOL    HW1 8774   2.410   3.233   5.453
 2625SOL    HW2 8775   2.452   3.374   5.382
 2626SOL     OW 8776   0.477   0.545   5.981
 2626SOL    HW1 8777   0.417   0.531   6.060
 2626SOL    HW2 8778   0.479   0.462   5.925
 2627SOL     OW 8779   0.516   1.058   6.180
 2627SOL    HW1 8780   0.558   1.135   6.228
 2627SOL    HW2 8781   0.587   1.000   6.141
 2628SOL     OW 8782   1.951   4.648   5.979
 2628SOL    HW1 8783   2.012   4.625   6.055
 2628SOL    HW2 8784   1.992   4.619   5.893
 2629SOL     OW 8785   3.544   3.426   2.369
 2629SOL    HW1 8786   3.624   3.372   2.344
 2629SOL    HW2 8787   3.557   3.520   2.340
 2630SOL     OW 8788   3.274   1.793   2.622
 2630SOL    HW1 8789   3.262   1.822   2.526
 2630SOL    HW2 8790   3.199   1.829   2.677
 2631SOL     OW 8791   5.450   0.762   6.223
 2631SOL    HW1 8792   5.516   0.692   6.198
 2631SOL    HW2 8793   5.437   0.825   6.147
 2632SOL     OW 8794   5.072   3.006   6.379
 2632SOL    HW1 8795   5.151   2.989   6.437
 2632SOL    HW2 8796   5.102   3.039   6.290
 2633SOL     OW 8797   0.223   2.607   4.534
 2633SOL    HW1 8798   0.144   2.565   4.489
 2633SOL    HW2 8799   0.254   2.549   4.609
 2634SOL     OW 8800   0.682   4.684   3.593
 2634SOL    HW1 8801   0.767   4.726   3.625
 2634SOL    HW2 8802   0.605   4.725   3.641
 2635SOL     OW 8803   6.640   6.005   5.349
 2635SOL    HW1 8804   6.693   5.968   5.273
 2635SOL    HW2 8805   6.544   6.014   5.321
 2636SOL     OW 8806   3.797   0.521   4.900
 2636SOL    HW1 8807   3.708   0.529   4.855
 2636SOL    HW2 8808   3.839   0.612   4.908
 2637SOL     OW 8809   5.572   1.502   3.121
 2637SOL    HW1 8810   5.494   1.467   3.172
 2637SOL    HW2 8811   5.582   1.453   3.035
 2638SOL     OW 8812   6.897   0.155   3.966
 2638SOL    HW1 8813   6.812   0.105   3.949
 2638SOL    HW2 8814   6.969   0.118   3.907
 2639SOL     OW 8815   0.676   6.048   0.712
 2639SOL    HW1 8816   0.586   6.061   0.671
 2639SOL    HW2 8817   0.740   6.018   0.641
 2640SOL     OW 8818   0.466   6.159   5.552
 2640SOL    HW1 8819   0.518   6.082   5.591
 2640SOL    HW2 8820   0.371   6.131   5.538
 2641SOL     OW 8821   5.910   2.989   2.142
 2641SOL    HW1 8822   5.948   2.961   2.054
 2641SOL    HW2 8823   5.873   3.081   2.135
 2642SOL     OW 8824   5.339   0.124   3.730
 2642SOL    HW1 8825   5.298   0.083   3.649
 2642SOL    HW2 8826   5.368   0.217   3.709
 2643SOL     OW 8827   0.874   3.536   3.391
 2643SOL    HW1 8828   0.849   3.583   3.475
 2643SOL    HW2 8829   0.795   3.485   3.357
 2644SOL     OW 8830   5.095   6.232   5.268
 2644SOL    HW1 8831   5.001   6.235   5.302
 2644SOL    HW2 8832   5.098   6.271   5.176
 2645SOL     OW 8833   3.948   5.600   3.848
 2645SOL    HW1 8834   3.957   5.637   3.755
 2645SOL    HW2 8835   3.858   5.625   3.885
 2646SOL     OW 8836   5.891   1.355   0.025
 2646SOL    HW1 8837   5.941   1.277   7.012
 2646SOL    HW2 8838   5.955   1.429   0.046
 2647SOL     OW 8839   6.265   0.003   2.109
 2647SOL    HW1 8840   6.326   6.949   2.125
 2647SOL    HW2 8841   6.191   0.001   2.177
 2648SOL     OW 8842   0.642   6.829   3.372
 2648SOL    HW1 8843   0.728   6.789   3.405
 2648SOL    HW2 8844   0.613   6.781   3.289
 2649SOL     OW 8845   6.649   3.517   0.311
 2649SOL    HW1 8846   6.695   3.553   0.230
 2649SOL    HW2 8847   6.608   3.429   0.290
 2650SOL     OW 8848   0.913   4.674   3.899
 2650SOL    HW1 8849   0.908   4.574   3.892
 2650SOL    HW2 8850   0.842   4.706   3.962
 2651SOL     OW 8851   2.229   1.476   1.335
 2651SOL    HW1 8852   2.167   1.510   1.264
 2651SOL    HW2 8853   2.318   1.519   1.324
 2652SOL     OW 8854   4.171   3.364   4.977
 2652SOL    HW1 8855   4.251   3.328   5.024
 2652SOL    HW2 8856   4.160   3.461   4.999
 2653SOL     OW 8857   4.912   6.803   5.958
 2653SOL    HW1 8858   4.878   6.710   5.973
 2653SOL    HW2 8859   4.856   6.848   5.888
 2654SOL     OW 8860   4.791   0.298   2.361
 2654SOL    HW1 8861   4.866   0.349   2.403
 2654SOL    HW2 8862   4.796   0.202   2.388
 2655SOL     OW 8863   5.369   6.653   4.134
 2655SOL    HW1 8864   5.440   6.722   4.148
 2655SOL    HW2 8865   5.305   6.654   4.211
 2656SOL     OW 8866   3.644   5.183   4.499
 2656SOL    HW1 8867   3.688   5.098   4.530
 2656SOL    HW2 8868   3.557   5.161   4.456
 2657SOL     OW 8869   1.016   4.394   0.093
 2657SOL    HW1 8870   1.112   4.392   0.066
 2657SOL    HW2 8871   0.969   4.314   0.056
 2658SOL     OW 8872   5.121   4.625   0.806
 2658SOL    HW1 8873   5.199   4.637   0.867
 2658SOL    HW2 8874   5.153   4.605   0.713
 2659SOL     OW 8875   5.071   2.848   4.605
 2659SOL    HW1 8876   4.978   2.811   4.596
 2659SOL    HW2 8877   5.068   2.932   4.658
 2660SOL     OW 8878   1.791   6.716   1.848
 2660SOL    HW1 8879   1.881   6.710   1.805
 2660SOL    HW2 8880   1.770   6.629   1.892
 2661SOL     OW 8881   2.596   6.997   1.879
 2661SOL    HW1 8882   2.570   6.927   1.813
 2661SOL    HW2 8883   2.669   6.961   1.938
 2662SOL     OW 8884   4.189   6.406   5.550
 2662SOL    HW1 8885   4.206   6.389   5.452
 2662SOL    HW2 8886   4.272   6.383   5.602
 2663SOL     OW 8887   3.390   4.207   6.227
 2663SOL    HW1 8888   3.387   4.107   6.224
 2663SOL    HW2 8889   3.465   4.236   6.287
 2664SOL     OW 8890   4.631   3.385   5.343
 2664SOL    HW1 8891   4.656   3.444   5.266
 2664SOL    HW2 8892   4.554   3.425   5.392
 2665SOL     OW 8893   2.729   2.977   5.341
 2665SOL    HW1 8894   2.647   2.991   5.286
 2665SOL    HW2 8895   2.750   2.879   5.345
 2666SOL     OW 8896   6.878   5.159   1.593
 2666SOL    HW1 8897   6.811   5.227   1.564
 2666SOL    HW2 8898   6.901   5.175   1.689
 2667SOL     OW 8899   0.693   5.617   4.160
 2667SOL    HW1 8900   0.617   5.670   4.197
 2667SOL    HW2 8901   0.681   5.521   4.185
 2668SOL     OW 8902   0.273   3.362   5.068
 2668SOL    HW1 8903   0.232   3.360   5.159
 2668SOL    HW2 8904   0.340   3.288   5.061
 2669SOL     OW 8905   2.838   4.912   5.849
 2669SOL    HW1 8906   2.828   4.831   5.907
 2669SOL    HW2 8907   2.776   4.905   5.771
 2670SOL     OW 8908   5.394   3.560   5.786
 2670SOL    HW1 8909   5.459   3.568   5.711
 2670SOL    HW2 8910   5.365   3.652   5.815
 2671SOL     OW 8911   4.462   5.331   6.708
 2671SOL    HW1 8912   4.391   5.338   6.778
 2671SOL    HW2 8913   4.517   5.249   6.725
 2672SOL     OW 8914   2.080   4.979   0.699
 2672SOL    HW1 8915   2.072   5.003   0.602
 2672SOL    HW2 8916   2.001   5.013   0.749
 2673SOL     OW 8917   6.907   1.243   1.964
 2673SOL    HW1 8918   6.865   1.215   2.050
 2673SOL    HW2 8919   6.902   1.342   1.954
 2674SOL     OW 8920   1.521   4.883   3.844
 2674SOL    HW1 8921   1.577   4.859   3.924
 2674SOL    HW2 8922   1.539   4.818   3.771
 2675SOL     OW 8923   5.946   5.158   4.221
 2675SOL    HW1 8924   5.896   5.113   4.294
 2675SOL    HW2 8925   5.886   5.224   4.175
 2676SOL     OW 8926   3.919   2.672   1.291
 2676SOL    HW1 8927   3.825   2.649   1.266
 2676SOL    HW2 8928   3.925   2.768   1.319
 2677SOL     OW 8929   2.897   3.959   0.027
 2677SOL    HW1 8930   2.988   3.943   0.066
 2677SOL    HW2 8931   2.888   4.056   0.005
 2678SOL     OW 8932   0.041   2.397   1.372
 2678SOL    HW1 8933   0.051   2.451   1.289
 2678SOL    HW2 8934   6.981   2.425   1.420
 2679SOL     OW 8935   1.804   4.646   1.687
 2679SOL    HW1 8936   1.730   4.714   1.689
 2679SOL    HW2 8937   1.787   4.577   1.757
 2680SOL     OW 8938   1.325   1.587   0.827
 2680SOL    HW1 8939   1.407   1.610   0.879
 2680SOL    HW2 8940   1.255   1.657   0.843
 2681SOL     OW 8941   1.772   2.251   5.288
 2681SOL    HW1 8942   1.720   2.236   5.372
 2681SOL    HW2 8943   1.720   2.215   5.210
 2682SOL     OW 8944   4.669   4.310   3.520
 2682SOL    HW1 8945   4.606   4.330   3.445
 2682SOL    HW2 8946   4.758   4.282   3.482
 2683SOL     OW 8947   2.790   5.600   1.774
 2683SOL    HW1 8948   2.742   5.688   1.773
 2683SOL    HW2 8949   2.837   5.589   1.862
 2684SOL     OW 8950   4.631   6.350   1.630
 2684SOL    HW1 8951   4.531   6.349   1.636
 2684SOL    HW2 8952   4.658   6.374   1.536
 2685SOL     OW 8953   5.868   6.122   5.954
 2685SOL    HW1 8954   5.930   6.089   6.026
 2685SOL    HW2 8955   5.829   6.210   5.980
 2686SOL     OW 8956   2.183   1.388   5.924
 2686SOL    HW1 8957   2.120   1.465   5.915
 2686SOL    HW2 8958   2.226   1.369   5.835
 2687SOL     OW 8959   5.287   5.477   1.211
 2687SOL    HW1 8960   5.325   5.551   1.155
 2687SOL    HW2 8961   5.336   5.392   1.192
 2688SOL     OW 8962   3.120   3.638   0.420
 2688SOL    HW1 8963   3.057   3.560   0.427
 2688SOL    HW2 8964   3.080   3.707   0.360
 2689SOL     OW 8965   1.258   4.023   2.766
 2689SOL    HW1 8966   1.251   3.999   2.669
 2689SOL    HW2 8967   1.174   4.068   2.795
 2690SOL     OW 8968   3.645   3.296   4.945
 2690SOL    HW1 8969   3.646   3.203   4.907
 2690SOL    HW2 8970   3.675   3.293   5.040
 2691SOL     OW 8971   1.060   5.074   3.614
 2691SOL    HW1 8972   1.154   5.097   3.639
 2691SOL    HW2 8973   0.998   5.145   3.647
 2692SOL     OW 8974   2.617   5.946   2.927
 2692SOL    HW1 8975   2.632   5.944   3.026
 2692SOL    HW2 8976   2.681   6.010   2.884
 2693SOL     OW 8977   2.146   5.053   3.472
 2693SOL    HW1 8978   2.052   5.080   3.448
 2693SOL    HW2 8979   2.185   4.998   3.398
 2694SOL     OW 8980   4.101   6.422   2.911
 2694SOL    HW1 8981   4.177   6.427   2.976
 2694SOL    HW2 8982   4.125   6.473   2.828
 2695SOL     OW 8983   6.108   1.387   2.054
 2695SOL    HW1 8984   6.101   1.389   1.954
 2695SOL    HW2 8985   6.028   1.432   2.094
 2696SOL     OW 8986   3.569   3.109   5.633
 2696SOL    HW1 8987   3.486   3.078   5.586
 2696SOL    HW2 8988   3.555   3.202   5.667
 2697SOL     OW 8989   3.297   1.227   3.602
 2697SOL    HW1 8990   3.347   1.250   3.519
 2697SOL    HW2 8991   3.218   1.287   3.611
 2698SOL     OW 8992   2.198   4.751   0.770
 2698SOL    HW1 8993   2.162   4.830   0.719
 2698SOL    HW2 8994   2.166   4.755   0.864
 2699SOL     OW 8995   2.499   5.568   0.756
 2699SOL    HW1 8996   2.547   5.655   0.752
 2699SOL    HW2 8997   2.402   5.584   0.775
 2700SOL     OW 8998   3.030   3.197   6.995
 2700SOL    HW1 8999   3.097   3.222   0.042
 2700SOL    HW2 9000   3.077   3.158   6.916
 2701SOL     OW 9001   5.152   1.759   5.675
 2701SOL    HW1 9002   5.151   1.843   5.621
 2701SOL    HW2 9003   5.242   1.749   5.719
 2702SOL     OW 9004   0.314   2.836   3.111
 2702SOL    HW1 9005   0.376   2.868   3.183
 2702SOL    HW2 9006   0.233   2.894   3.108
 2703SOL     OW 9007   1.110   0.272   0.894
 2703SOL    HW1 9008   1.164   0.353   0.916
 2703SOL    HW2 9009   1.117   0.253   0.796
 2704SOL     OW 9010   6.599   5.787   1.962
 2704SOL    HW1 9011   6.537   5.738   2.024
 2704SOL    HW2 9012   6.560   5.876   1.939
 2705SOL     OW 9013   7.022   6.400   4.408
 2705SOL    HW1 9014   0.085   6.375   4.364
 2705SOL    HW2 9015   6.960   6.321   4.408
 2706SOL     OW 9016   6.580   5.103   2.735
 2706SOL    HW1 9017   6.673   5.066   2.731
 2706SOL    HW2 9018   6.581   5.191   2.782
 2707SOL     OW 9019   4.068   0.377   4.351
 2707SOL    HW1 9020   4.122   0.293   4.353
 2707SOL    HW2 9021   4.118   0.447   4.300
 2708SOL     OW 9022   0.289   2.602   1.049
 2708SOL    HW1 9023   0.349   2.672   1.088
 2708SOL    HW2 9024   0.277   2.619   0.951
 2709SOL     OW 9025   4.971   0.054   0.003
 2709SOL    HW1 9026   4.905   0.115   6.981
 2709SOL    HW2 9027   4.943   6.982   7.011
 2710SOL     OW 9028   1.077   3.351   4.518
 2710SOL    HW1 9029   1.174   3.338   4.539
 2710SOL    HW2 9030   1.025   3.355   4.604
 2711SOL     OW 9031   1.968   0.538   3.736
 2711SOL    HW1 9032   2.067   0.533   3.724
 2711SOL    HW2 9033   1.938   0.633   3.729
 2712SOL     OW 9034   2.934   4.204   1.435
 2712SOL    HW1 9035   3.001   4.144   1.392
 2712SOL    HW2 9036   2.966   4.298   1.432
 2713SOL     OW 9037   2.229   2.627   5.203
 2713SOL    HW1 9038   2.184   2.695   5.146
 2713SOL    HW2 9039   2.177   2.615   5.288
 2714SOL     OW 9040   3.886   2.589   0.079
 2714SOL    HW1 9041   3.914   2.635   0.164
 2714SOL    HW2 9042   3.864   2.493   0.099
 2715SOL     OW 9043   4.885   2.286   1.114
 2715SOL    HW1 9044   4.839   2.328   1.036
 2715SOL    HW2 9045   4.961   2.344   1.142
 2716SOL     OW 9046   5.652   3.208   3.020
 2716SOL    HW1 9047   5.690   3.293   3.058
 2716SOL    HW2 9048   5.585   3.230   2.950
 2717SOL     OW 9049   0.174   0.366   2.837
 2717SOL    HW1 9050   0.218   0.277   2.853
 2717SOL    HW2 9051   0.075   0.357   2.850
 2718SOL     OW 9052   1.580   1.464   4.826
 2718SOL    HW1 9053   1.618   1.547   4.787
 2718SOL    HW2 9054   1.483   1.457   4.801
 2719SOL     OW 9055   0.349   5.004   1.728
 2719SOL    HW1 9056   0.294   5.087   1.715
 2719SOL    HW2 9057   0.415   4.997   1.654
 2720SOL     OW 9058   2.026   6.056   1.892
 2720SOL    HW1 9059   2.039   5.985   1.823
 2720SOL    HW2 9060   2.037   6.016   1.984
 2721SOL     OW 9061   3.239   6.518   3.567
 2721SOL    HW1 9062   3.172   6.487   3.635
 2721SOL    HW2 9063   3.234   6.617   3.557
 2722SOL     OW 9064   6.449   5.231   0.378
 2722SOL    HW1 9065   6.548   5.230   0.387
 2722SOL    HW2 9066   6.421   5.173   0.301
 2723SOL     OW 9067   0.877   5.856   6.410
 2723SOL    HW1 9068   0.945   5.832   6.480
 2723SOL    HW2 9069   0.916   5.922   6.346
 2724SOL     OW 9070   1.938   5.913   6.942
 2724SOL    HW1 9071   1.958   5.859   6.860
 2724SOL    HW2 9072   1.927   5.852   7.020
 2725SOL     OW 9073   5.097   4.776   5.092
 2725SOL    HW1 9074   5.101   4.683   5.054
 2725SOL    HW2 9075   5.154   4.837   5.038
 2726SOL     OW 9076   0.068   1.880   1.172
 2726SOL    HW1 9077   0.028   1.969   1.148
 2726SOL    HW2 9078   0.166   1.881   1.154
 2727SOL     OW 9079   1.288   4.865   3.590
 2727SOL    HW1 9080   1.312   4.809   3.510
 2727SOL    HW2 9081   1.282   4.806   3.670
 2728SOL     OW 9082   4.678   6.522   5.652
 2728SOL    HW1 9083   4.668   6.450   5.721
 2728SOL    HW2 9084   4.769   6.563   5.660
 2729SOL     OW 9085   7.019   6.162   0.609
 2729SOL    HW1 9086   6.929   6.140   0.572
 2729SOL    HW2 9087   0.060   6.090   0.584
 2730SOL     OW 9088   2.098   5.503   1.510
 2730SOL    HW1 9089   2.152   5.489   1.593
 2730SOL    HW2 9090   2.131   5.443   1.437
 2731SOL     OW 9091   3.165   3.533   3.088
 2731SOL    HW1 9092   3.111   3.588   3.024
 2731SOL    HW2 9093   3.260   3.564   3.086
 2732SOL     OW 9094   5.393   2.865   1.965
 2732SOL    HW1 9095   5.362   2.952   2.005
 2732SOL    HW2 9096   5.352   2.790   2.017
 2733SOL     OW 9097   6.373   1.992   4.447
 2733SOL    HW1 9098   6.372   1.935   4.529
 2733SOL    HW2 9099   6.437   1.953   4.380
 2734SOL     OW 9100   3.487   5.501   0.772
 2734SOL    HW1 9101   3.564   5.538   0.721
 2734SOL    HW2 9102   3.401   5.524   0.726
 2735SOL     OW 9103   1.696   3.435   1.683
 2735SOL    HW1 9104   1.599   3.452   1.663
 2735SOL    HW2 9105   1.705   3.351   1.737
 2736SOL     OW 9106   5.410   6.106   4.891
 2736SOL    HW1 9107   5.397   6.095   4.990
 2736SOL    HW2 9108   5.487   6.167   4.874
 2737SOL     OW 9109   2.767   4.106   5.655
 2737SOL    HW1 9110   2.750   4.008   5.667
 2737SOL    HW2 9111   2.823   4.121   5.574
 2738SOL     OW 9112   4.718   6.164   1.816
 2738SOL    HW1 9113   4.687   6.238   1.757
 2738SOL    HW2 9114   4.812   6.139   1.791
 2739SOL     OW 9115   1.315   4.651   1.239
 2739SOL    HW1 9116   1.319   4.639   1.140
 2739SOL    HW2 9117   1.346   4.743   1.262
 2740SOL     OW 9118   6.835   4.202   2.098
 2740SOL    HW1 9119   6.879   4.199   2.008
 2740SOL    HW2 9120   6.879   4.136   2.159
 2741SOL     OW 9121   6.689   0.619   4.818
 2741SOL    HW1 9122   6.707   0.523   4.801
 2741SOL    HW2 9123   6.763   0.675   4.779
 2742SOL     OW 9124   2.247   5.357   0.315
 2742SOL    HW1 9125   2.202   5.396   0.235
 2742SOL    HW2 9126   2.317   5.292   0.286
 2743SOL     OW 9127   6.391   4.615   2.264
 2743SOL    HW1 9128   6.488   4.621   2.243
 2743SOL    HW2 9129   6.337   4.640   2.184
 2744SOL     OW 9130   4.297   2.188   0.676
 2744SOL    HW1 9131   4.232   2.245   0.727
 2744SOL    HW2 9132   4.389   2.226   0.685
 2745SOL     OW 9133   0.011   0.525   5.207
 2745SOL    HW1 9134   0.069   0.607   5.215
 2745SOL    HW2 9135   0.058   0.447   5.248
 2746SOL     OW 9136   1.488   2.235   4.828
 2746SOL    HW1 9137   1.427   2.309   4.801
 2746SOL    HW2 9138   1.444   2.147   4.810
 2747SOL     OW 9139   5.026   4.457   6.611
 2747SOL    HW1 9140   5.052   4.545   6.650
 2747SOL    HW2 9141   4.927   4.446   6.617
 2748SOL     OW 9142   4.880   1.571   2.185
 2748SOL    HW1 9143   4.784   1.588   2.167
 2748SOL    HW2 9144   4.935   1.600   2.107
 2749SOL     OW 9145   0.301   4.582   1.327
 2749SOL    HW1 9146   0.315   4.566   1.425
 2749SOL    HW2 9147   0.204   4.595   1.309
 2750SOL     OW 9148   1.264   4.112   1.316
 2750SOL    HW1 9149   1.192   4.161   1.363
 2750SOL    HW2 9150   1.234   4.090   1.223
 2751SOL     OW 9151   1.259   3.504   1.794
 2751SOL    HW1 9152   1.203   3.442   1.847
 2751SOL    HW2 9153   1.342   3.527   1.845
 2752SOL     OW 9154   3.869   5.050   5.328
 2752SOL    HW1 9155   3.938   5.022   5.395
 2752SOL    HW2 9156   3.793   5.096   5.375
 2753SOL     OW 9157   0.362   6.377   5.156
 2753SOL    HW1 9158   0.429   6.370   5.231
 2753SOL    HW2 9159   0.401   6.431   5.082
 2754SOL     OW 9160   0.759   0.857   1.427
 2754SOL    HW1 9161   0.756   0.954   1.452
 2754SOL    HW2 9162   0.673   0.813   1.451
 2755SOL     OW 9163   2.179   0.146   2.569
 2755SOL    HW1 9164   2.261   0.121   2.620
 2755SOL    HW2 9165   2.110   0.075   2.579
 2756SOL     OW 9166   6.027   5.459   6.990
 2756SOL    HW1 9167   5.948   5.506   6.948
 2756SOL    HW2 9168   5.997   5.372   0.004
 2757SOL     OW 9169   2.178   0.626   6.706
 2757SOL    HW1 9170   2.140   0.708   6.664
 2757SOL    HW2 9171   2.253   0.651   6.767
 2758SOL     OW 9172   3.691   6.502   4.147
 2758SOL    HW1 9173   3.630   6.462   4.077
 2758SOL    HW2 9174   3.752   6.431   4.182
 2759SOL     OW 9175   5.596   0.205   5.601
 2759SOL    HW1 9176   5.671   0.268   5.579
 2759SOL    HW2 9177   5.509   0.245   5.572
 2760SOL     OW 9178   0.251   6.003   1.893
 2760SOL    HW1 9179   0.189   6.031   1.966
 2760SOL    HW2 9180   0.331   5.959   1.932
 2761SOL     OW 9181   2.058   5.664   4.856
 2761SOL    HW1 9182   1.970   5.686   4.814
 2761SOL    HW2 9183   2.080   5.568   4.837
 2762SOL     OW 9184   1.229   1.353   4.937
 2762SOL    HW1 9185   1.201   1.265   4.976
 2762SOL    HW2 9186   1.237   1.421   5.009
 2763SOL     OW 9187   5.020   1.492   3.295
 2763SOL    HW1 9188   5.020   1.494   3.195
 2763SOL    HW2 9189   4.927   1.509   3.329
 2764SOL     OW 9190   5.756   0.994   1.117
 2764SOL    HW1 9191   5.772   0.916   1.056
 2764SOL    HW2 9192   5.793   1.077   1.076
 2765SOL     OW 9193   5.888   0.240   1.016
 2765SOL    HW1 9194   5.901   0.289   1.103
 2765SOL    HW2 9195   5.797   0.261   0.980
 2766SOL     OW 9196   5.418   2.429   0.946
 2766SOL    HW1 9197   5.370   2.345   0.921
 2766SOL    HW2 9198   5.512   2.424   0.912
 2767SOL     OW 9199   6.963   5.501   0.065
 2767SOL    HW1 9200   6.977   5.417   0.013
 2767SOL    HW2 9201   6.989   5.485   0.161
 2768SOL     OW 9202   4.482   0.731   1.102
 2768SOL    HW1 9203   4.436   0.820   1.107
 2768SOL    HW2 9204   4.423   0.660   1.140
 2769SOL     OW 9205   2.125   4.413   4.490
 2769SOL    HW1 9206   2.182   4.494   4.477
 2769SOL    HW2 9207   2.170   4.350   4.553
 2770SOL     OW 9208   4.935   6.225   5.950
 2770SOL    HW1 9209   4.970   6.267   6.034
 2770SOL    HW2 9210   4.952   6.127   5.952
 2771SOL     OW 9211   6.759   0.882   4.113
 2771SOL    HW1 9212   6.735   0.900   4.017
 2771SOL    HW2 9213   6.855   0.905   4.128
 2772SOL     OW 9214   4.208   1.289   0.823
 2772SOL    HW1 9215   4.227   1.210   0.764
 2772SOL    HW2 9216   4.112   1.288   0.851
 2773SOL     OW 9217   6.163   1.690   5.230
 2773SOL    HW1 9218   6.171   1.595   5.260
 2773SOL    HW2 9219   6.079   1.702   5.178
 2774SOL     OW 9220   5.444   3.336   2.866
 2774SOL    HW1 9221   5.374   3.387   2.917
 2774SOL    HW2 9222   5.524   3.394   2.852
 2775SOL     OW 9223   6.602   5.311   6.128
 2775SOL    HW1 9224   6.574   5.324   6.033
 2775SOL    HW2 9225   6.577   5.219   6.157
 2776SOL     OW 9226   4.216   5.022   5.658
 2776SOL    HW1 9227   4.194   5.095   5.593
 2776SOL    HW2 9228   4.255   4.944   5.609
 2777SOL     OW 9229   2.675   1.310   2.339
 2777SOL    HW1 9230   2.625   1.224   2.325
 2777SOL    HW2 9231   2.614   1.377   2.380
 2778SOL     OW 9232   1.678   6.927   5.480
 2778SOL    HW1 9233   1.717   7.011   5.518
 2778SOL    HW2 9234   1.634   6.949   5.393
 2779SOL     OW 9235   4.768   6.671   1.477
 2779SOL    HW1 9236   4.669   6.684   1.488
 2779SOL    HW2 9237   4.789   6.659   1.380
 2780SOL     OW 9238   6.390   6.521   6.912
 2780SOL    HW1 9239   6.465   6.462   6.881
 2780SOL    HW2 9240   6.370   6.589   6.842
 2781SOL     OW 9241   5.450   6.457   2.170
 2781SOL    HW1 9242   5.448   6.401   2.087
 2781SOL    HW2 9243   5.404   6.544   2.153
 2782SOL     OW 9244   4.709   2.110   6.349
 2782SOL    HW1 9245   4.636   2.042   6.347
 2782SOL    HW2 9246   4.674   2.197   6.315
 2783SOL     OW 9247   5.313   4.228   3.900
 2783SOL    HW1 9248   5.375   4.283   3.956
 2783SOL    HW2 9249   5.316   4.260   3.805
 2784SOL     OW 9250   3.268   1.387   2.315
 2784SOL    HW1 9251   3.250   1.384   2.217
 2784SOL    HW2 9252   3.361   1.419   2.331
 2785SOL     OW 9253   5.099   1.558   0.497
 2785SOL    HW1 9254   5.057   1.473   0.527
 2785SOL    HW2 9255   5.038   1.605   0.434
 2786SOL     OW 9256   4.935   0.154   2.076
 2786SOL    HW1 9257   4.974   0.243   2.099
 2786SOL    HW2 9258   4.958   0.088   2.147
 2787SOL     OW 9259   4.903   1.309   6.049
 2787SOL    HW1 9260   4.874   1.225   6.096
 2787SOL    HW2 9261   4.977   1.288   5.985
 2788SOL     OW 9262   2.253   5.341   6.118
 2788SOL    HW1 9263   2.224   5.426   6.074
 2788SOL    HW2 9264   2.239   5.347   6.217
 2789SOL     OW 9265   1.604   2.134   3.631
 2789SOL    HW1 9266   1.632   2.044   3.663
 2789SOL    HW2 9267   1.563   2.185   3.707
 2790SOL     OW 9268   3.353   5.470   2.430
 2790SOL    HW1 9269   3.345   5.487   2.332
 2790SOL    HW2 9270   3.407   5.387   2.445
 2791SOL     OW 9271   0.426   3.090   3.791
 2791SOL    HW1 9272   0.485   3.063   3.715
 2791SOL    HW2 9273   0.406   3.009   3.847
 2792SOL     OW 9274   2.062   6.782   3.877
 2792SOL    HW1 9275   2.131   6.828   3.821
 2792SOL    HW2 9276   2.036   6.696   3.833
 2793SOL     OW 9277   5.521   4.072   2.501
 2793SOL    HW1 9278   5.430   4.031   2.494
 2793SOL    HW2 9279   5.581   4.011   2.553
 2794SOL     OW 9280   0.214   2.617   6.434
 2794SOL    HW1 9281   0.296   2.664   6.467
 2794SOL    HW2 9282   0.135   2.645   6.488
 2795SOL     OW 9283   1.236   3.294   0.469
 2795SOL    HW1 9284   1.318   3.265   0.418
 2795SOL    HW2 9285   1.253   3.382   0.512
 2796SOL     OW 9286   6.818   6.436   3.286
 2796SOL    HW1 9287   6.834   6.504   3.358
 2796SOL    HW2 9288   6.891   6.440   3.219
 2797SOL     OW 9289   5.172   5.252   4.318
 2797SOL    HW1 9290   5.111   5.304   4.258
 2797SOL    HW2 9291   5.222   5.185   4.264
 2798SOL     OW 9292   0.188   5.240   1.782
 2798SOL    HW1 9293   0.091   5.215   1.786
 2798SOL    HW2 9294   0.205   5.318   1.843
 2799SOL     OW 9295   5.942   5.626   6.619
 2799SOL    HW1 9296   5.845   5.603   6.612
 2799SOL    HW2 9297   5.993   5.582   6.545
 2800SOL     OW 9298   4.953   6.525   0.319
 2800SOL    HW1 9299   4.991   6.603   0.370
 2800SOL    HW2 9300   4.920   6.556   0.230
 2801SOL     OW 9301   6.614   5.548   6.302
 2801SOL    HW1 9302   6.704   5.585   6.325
 2801SOL    HW2 9303   6.625   5.468   6.244
 2802SOL     OW 9304   5.220   1.271   5.176
 2802SOL    HW1 9305   5.128   1.283   5.214
 2802SOL    HW2 9306   5.268   1.201   5.229
 2803SOL     OW 9307   3.877   5.315   6.727
 2803SOL    HW1 9308   3.817   5.235   6.729
 2803SOL    HW2 9309   3.876   5.354   6.635
 2804SOL     OW 9310   0.445   5.231   5.159
 2804SOL    HW1 9311   0.346   5.223   5.166
 2804SOL    HW2 9312   0.480   5.160   5.098
 2805SOL     OW 9313   5.783   3.208   1.642
 2805SOL    HW1 9314   5.701   3.180   1.692
 2805SOL    HW2 9315   5.767   3.294   1.596
 2806SOL     OW 9316   6.860   4.682   6.121
 2806SOL    HW1 9317   6.879   4.774   6.156
 2806SOL    HW2 9318   6.870   4.615   6.195
 2807SOL     OW 9319   4.417   6.217   4.785
 2807SOL    HW1 9320   4.396   6.120   4.799
 2807SOL    HW2 9321   4.503   6.225   4.735
 2808SOL     OW 9322   5.980   4.780   1.989
 2808SOL    HW1 9323   5.946   4.687   2.005
 2808SOL    HW2 9324   5.927   4.823   1.916
 2809SOL     OW 9325   5.884   2.993   0.797
 2809SOL    HW1 9326   5.840   3.068   0.845
 2809SOL    HW2 9327   5.854   2.991   0.702
 2810SOL     OW 9328   3.642   4.966   3.626
 2810SOL    HW1 9329   3.715   4.912   3.584
 2810SOL    HW2 9330   3.612   4.920   3.710
 2811SOL     OW 9331   1.135   2.151   3.085
 2811SOL    HW1 9332   1.116   2.059   3.051
 2811SOL    HW2 9333   1.098   2.161   3.177
 2812SOL     OW 9334   5.039   3.837   6.933
 2812SOL    HW1 9335   5.094   3.797   6.859
 2812SOL    HW2 9336   4.947   3.799   6.930
 2813SOL     OW 9337   7.023   0.183   6.325
 2813SOL    HW1 9338   0.049   0.096   6.332
 2813SOL    HW2 9339   6.981   0.205   6.413
 2814SOL     OW 9340   3.935   3.770   5.311
 2814SOL    HW1 9341   3.952   3.709   5.234
 2814SOL    HW2 9342   3.973   3.861   5.290
 2815SOL     OW 9343   6.146   0.366   5.702
 2815SOL    HW1 9344   6.179   0.454   5.735
 2815SOL    HW2 9345   6.138   0.303   5.779
 2816SOL     OW 9346   6.579   5.563   3.463
 2816SOL    HW1 9347   6.552   5.659   3.469
 2816SOL    HW2 9348   6.519   5.516   3.397
 2817SOL     OW 9349   2.847   6.745   1.609
 2817SOL    HW1 9350   2.866   6.775   1.516
 2817SOL    HW2 9351   2.762   6.693   1.611
 2818SOL     OW 9352   0.744   0.609   0.919
 2818SOL    HW1 9353   0.819   0.590   0.982
 2818SOL    HW2 9354   0.666   0.551   0.942
 2819SOL     OW 9355   0.962   1.081   1.182
 2819SOL    HW1 9356   1.042   1.067   1.123
 2819SOL    HW2 9357   0.905   1.154   1.144
 2820SOL     OW 9358   0.738   2.772   2.884
 2820SOL    HW1 9359   0.684   2.775   2.968
 2820SOL    HW2 9360   0.679   2.795   2.806
 2821SOL     OW 9361   4.077   3.352   6.751
 2821SOL    HW1 9362   3.980   3.337   6.728
 2821SOL    HW2 9363   4.089   3.445   6.786
 2822SOL     OW 9364   3.858   1.824   0.120
 2822SOL    HW1 9365   3.915   1.746   0.145
 2822SOL    HW2 9366   3.837   1.878   0.202
 2823SOL     OW 9367   4.661   0.444   0.379
 2823SOL    HW1 9368   4.659   0.475   0.284
 2823SOL    HW2 9369   4.702   0.515   0.436
 2824SOL     OW 9370   2.024   1.203   3.595
 2824SOL    HW1 9371   2.065   1.112   3.597
 2824SOL    HW2 9372   2.097   1.272   3.600
 2825SOL     OW 9373   5.850   0.416   6.702
 2825SOL    HW1 9374   5.781   0.418   6.774
 2825SOL    HW2 9375   5.814   0.460   6.620
 2826SOL     OW 9376   4.913   1.155   6.440
 2826SOL    HW1 9377   4.849   1.100   6.493
 2826SOL    HW2 9378   5.007   1.136   6.471
 2827SOL     OW 9379   0.321   0.819   5.564
 2827SOL    HW1 9380   0.386   0.807   5.638
 2827SOL    HW2 9381   0.260   0.740   5.558
 2828SOL     OW 9382   2.111   0.818   0.418
 2828SOL    HW1 9383   2.142   0.878   0.492
 2828SOL    HW2 9384   2.184   0.810   0.349
 2829SOL     OW 9385   3.339   3.671   5.040
 2829SOL    HW1 9386   3.279   3.610   4.987
 2829SOL    HW2 9387   3.433   3.659   5.009
 2830SOL     OW 9388   1.673   2.733   5.777
 2830SOL    HW1 9389   1.585   2.721   5.821
 2830SOL    HW2 9390   1.746   2.718   5.843
 2831SOL     OW 9391   0.922   4.824   3.669
 2831SOL    HW1 9392   0.947   4.783   3.757
 2831SOL    HW2 9393   1.005   4.849   3.619
 2832SOL     OW 9394   1.096   2.991   2.119
 2832SOL    HW1 9395   1.103   3.088   2.100
 2832SOL    HW2 9396   1.155   2.968   2.197
 2833SOL     OW 9397   3.262   1.843   2.337
 2833SOL    HW1 9398   3.212   1.921   2.300
 2833SOL    HW2 9399   3.344   1.827   2.282
 2834SOL     OW 9400   3.879   5.310   6.165
 2834SOL    HW1 9401   3.971   5.279   6.186
 2834SOL    HW2 9402   3.812   5.247   6.203
 2835SOL     OW 9403   0.555   6.756   2.217
 2835SOL    HW1 9404   0.577   6.720   2.307
 2835SOL    HW2 9405   0.575   6.854   2.215
 2836SOL     OW 9406   6.584   0.011   2.388
 2836SOL    HW1 9407   6.591   0.097   2.338
 2836SOL    HW2 9408   6.665   6.978   2.369
 2837SOL     OW 9409   5.323   4.906   2.543
 2837SOL    HW1 9410   5.246   4.952   2.587
 2837SOL    HW2 9411   5.408   4.952   2.569
 2838SOL     OW 9412   2.737   3.819   0.971
 2838SOL    HW1 9413   2.726   3.845   1.067
 2838SOL    HW2 9414   2.670   3.749   0.947
 2839SOL     OW 9415   6.752   2.402   2.468
 2839SOL    HW1 9416   6.783   2.495   2.489
 2839SOL    HW2 9417   6.678   2.407   2.401
 2840SOL     OW 9418   1.205   0.270   3.008
 2840SOL    HW1 9419   1.269   0.205   3.049
 2840SOL    HW2 9420   1.118   0.225   2.991
 2841SOL     OW 9421   0.557   0.767   6.393
 2841SOL    HW1 9422   0.488   0.828   6.354
 2841SOL    HW2 9423   0.513   0.705   6.457
 2842SOL     OW 9424   0.529   4.331   4.165
 2842SOL    HW1 9425   0.536   4.429   4.184
 2842SOL    HW2 9426   0.498   4.283   4.247
 2843SOL     OW 9427   2.354   2.552   2.781
 2843SOL    HW1 9428   2.260   2.523   2.796
 2843SOL    HW2 9429   2.357   2.618   2.706
 2844SOL     OW 9430   6.749   5.120   0.596
 2844SOL    HW1 9431   6.835   5.135   0.644
 2844SOL    HW2 9432   6.753   5.162   0.505
 2845SOL     OW 9433   6.345   2.965   0.822
 2845SOL    HW1 9434   6.265   2.918   0.858
 2845SOL    HW2 9435   6.380   2.916   0.743
 2846SOL     OW 9436   3.934   1.270   0.392
 2846SOL    HW1 9437   3.865   1.328   0.351
 2846SOL    HW2 9438   4.018   1.322   0.406
 2847SOL     OW 9439   4.922   3.445   3.490
 2847SOL    HW1 9440   4.912   3.543   3.473
 2847SOL    HW2 9441   5.017   3.418   3.475
 2848SOL     OW 9442   1.816   2.579   5.263
 2848SOL    HW1 9443   1.858   2.490   5.281
 2848SOL    HW2 9444   1.861   2.649   5.318
 2849SOL     OW 9445   4.418   6.561   0.661
 2849SOL    HW1 9446   4.508   6.549   0.620
 2849SOL    HW2 9447   4.408   6.499   0.739
 2850SOL     OW 9448   1.535   6.965   2.418
 2850SOL    HW1 9449   1.571   0.017   2.362
 2850SOL    HW2 9450   1.486   7.003   2.497
 2851SOL     OW 9451   6.248   1.301   6.296
 2851SOL    HW1 9452   6.270   1.367   6.224
 2851SOL    HW2 9453   6.210   1.349   6.375
 2852SOL     OW 9454   5.959   4.205   6.815
 2852SOL    HW1 9455   5.889   4.135   6.830
 2852SOL    HW2 9456   6.049   4.163   6.819
 2853SOL     OW 9457   1.371   1.357   6.616
 2853SOL    HW1 9458   1.301   1.363   6.546
 2853SOL    HW2 9459   1.445   1.421   6.596
 2854SOL     OW 9460   4.145   1.327   4.770
 2854SOL    HW1 9461   4.105   1.347   4.860
 2854SOL    HW2 9462   4.227   1.271   4.782
 2855SOL     OW 9463   2.373   1.427   6.525
 2855SOL    HW1 9464   2.321   1.380   6.454
 2855SOL    HW2 9465   2.413   1.360   6.587
 2856SOL     OW 9466   0.908   2.715   5.278
 2856SOL    HW1 9467   1.007   2.717   5.265
 2856SOL    HW2 9468   0.865   2.672   5.199
 2857SOL     OW 9469   2.166   2.225   2.586
 2857SOL    HW1 9470   2.265   2.212   2.584
 2857SOL    HW2 9471   2.127   2.169   2.660
 2858SOL     OW 9472   4.697   4.177   2.245
 2858SOL    HW1 9473   4.645   4.157   2.162
 2858SOL    HW2 9474   4.795   4.178   2.224
 2859SOL     OW 9475   5.685   0.904   6.672
 2859SOL    HW1 9476   5.741   0.867   6.746
 2859SOL    HW2 9477   5.742   0.960   6.612
 2860SOL     OW 9478   3.165   1.310   1.617
 2860SOL    HW1 9479   3.110   1.232   1.647
 2860SOL    HW2 9480   3.211   1.351   1.696
 2861SOL     OW 9481   4.059   4.009   5.925
 2861SOL    HW1 9482   4.050   3.996   6.023
 2861SOL    HW2 9483   4.074   4.106   5.905
 2862SOL     OW 9484   6.188   1.691   2.454
 2862SOL    HW1 9485   6.228   1.618   2.399
 2862SOL    HW2 9486   6.204   1.779   2.409
 2863SOL     OW 9487   4.862   1.580   6.538
 2863SOL    HW1 9488   4.957   1.597   6.564
 2863SOL    HW2 9489   4.861   1.520   6.457
 2864SOL     OW 9490   4.542   1.608   2.062
 2864SOL    HW1 9491   4.527   1.555   2.145
 2864SOL    HW2 9492   4.459   1.606   2.006
 2865SOL     OW 9493   4.066   4.547   6.227
 2865SOL    HW1 9494   3.974   4.516   6.203
 2865SOL    HW2 9495   4.134   4.482   6.192
 2866SOL     OW 9496   6.647   5.512   0.023
 2866SOL    HW1 9497   6.737   5.483   7.013
 2866SOL    HW2 9498   6.579   5.503   6.973
 2867SOL     OW 9499   0.038   5.792   2.979
 2867SOL    HW1 9500   0.129   5.796   2.938
 2867SOL    HW2 9501   0.045   5.772   3.076
 2868SOL     OW 9502   0.817   1.703   5.282
 2868SOL    HW1 9503   0.737   1.756   5.253
 2868SOL    HW2 9504   0.787   1.619   5.327
 2869SOL     OW 9505   6.858   1.412   3.739
 2869SOL    HW1 9506   6.921   1.395   3.664
 2869SOL    HW2 9507   6.826   1.507   3.735
 2870SOL     OW 9508   0.555   1.980   4.753
 2870SOL    HW1 9509   0.618   1.951   4.825
 2870SOL    HW2 9510   0.487   1.908   4.737
 2871SOL     OW 9511   0.152   2.194   6.630
 2871SOL    HW1 9512   0.245   2.200   6.666
 2871SOL    HW2 9513   0.128   2.099   6.614
 2872SOL     OW 9514   2.437   2.143   2.565
 2872SOL    HW1 9515   2.526   2.176   2.533
 2872SOL    HW2 9516   2.444   2.046   2.588
 2873SOL     OW 9517   0.199   5.493   3.067
 2873SOL    HW1 9518   0.237   5.550   3.140
 2873SOL    HW2 9519   0.099   5.496   3.071
 2874SOL     OW 9520   4.328   6.528   3.071
 2874SOL    HW1 9521   4.328   6.539   3.171
 2874SOL    HW2 9522   4.293   6.612   3.028
 2875SOL     OW 9523   4.579   6.906   0.567
 2875SOL    HW1 9524   4.669   6.870   0.592
 2875SOL    HW2 9525   4.538   6.952   0.646
 2876SOL     OW 9526   1.553   0.612   1.897
 2876SOL    HW1 9527   1.578   0.516   1.908
 2876SOL    HW2 9528   1.463   0.628   1.936
 2877SOL     OW 9529   3.072   2.557   5.356
 2877SOL    HW1 9530   3.102   2.486   5.292
 2877SOL    HW2 9531   3.113   2.540   5.446
 2878SOL     OW 9532   3.535   5.060   5.214
 2878SOL    HW1 9533   3.523   4.961   5.224
 2878SOL    HW2 9534   3.584   5.096   5.293
 2879SOL     OW 9535   5.705   5.188   0.239
 2879SOL    HW1 9536   5.621   5.175   0.290
 2879SOL    HW2 9537   5.685   5.230   0.150
 2880SOL     OW 9538   0.063   0.939   1.786
 2880SOL    HW1 9539   0.084   1.015   1.846
 2880SOL    HW2 9540   0.102   0.855   1.823
 2881SOL     OW 9541   5.514   5.783   6.782
 2881SOL    HW1 9542   5.455   5.856   6.749
 2881SOL    HW2 9543   5.561   5.813   6.865
 2882SOL     OW 9544   0.655   5.059   2.342
 2882SOL    HW1 9545   0.733   5.021   2.292
 2882SOL    HW2 9546   0.571   5.018   2.310
 2883SOL     OW 9547   5.324   0.131   3.274
 2883SOL    HW1 9548   5.373   0.081   3.203
 2883SOL    HW2 9549   5.388   0.159   3.345
 2884SOL     OW 9550   1.105   7.013   2.491
 2884SOL    HW1 9551   1.016   6.994   2.533
 2884SOL    HW2 9552   1.124   6.942   2.422
 2885SOL     OW 9553   1.070   3.540   3.714
 2885SOL    HW1 9554   1.037   3.506   3.802
 2885SOL    HW2 9555   1.060   3.640   3.712
 2886SOL     OW 9556   1.558   4.064   6.100
 2886SOL    HW1 9557   1.491   4.118   6.152
 2886SOL    HW2 9558   1.650   4.088   6.130
 2887SOL     OW 9559   0.306   0.482   5.061
 2887SOL    HW1 9560   0.265   0.392   5.077
 2887SOL    HW2 9561   0.242   0.539   5.010
 2888SOL     OW 9562   0.545   4.162   0.099
 2888SOL    HW1 9563   0.487   4.184   0.178
 2888SOL    HW2 9564   0.487   4.137   0.022
 2889SOL     OW 9565   2.032   6.256   2.467
 2889SOL    HW1 9566   2.087   6.173   2.473
 2889SOL    HW2 9567   2.039   6.295   2.375
 2890SOL     OW 9568   2.250   5.874   0.627
 2890SOL    HW1 9569   2.153   5.900   0.633
 2890SOL    HW2 9570   2.257   5.779   0.597
 2891SOL     OW 9571   1.369   4.533   3.655
 2891SOL    HW1 9572   1.432   4.485   3.594
 2891SOL    HW2 9573   1.279   4.490   3.649
 2892SOL     OW 9574   5.843   3.119   6.951
 2892SOL    HW1 9575   5.849   3.203   7.006
 2892SOL    HW2 9576   5.889   3.045   7.000
 2893SOL     OW 9577   6.769   6.321   4.794
 2893SOL    HW1 9578   6.855   6.290   4.754
 2893SOL    HW2 9579   6.696   6.312   4.726
 2894SOL     OW 9580   1.204   3.353   2.243
 2894SOL    HW1 9581   1.235   3.444   2.215
 2894SOL    HW2 9582   1.110   3.339   2.213
 2895SOL     OW 9583   4.955   2.750   5.399
 2895SOL    HW1 9584   4.950   2.653   5.422
 2895SOL    HW2 9585   4.887   2.800   5.452
 2896SOL     OW 9586   4.926   5.552   6.344
 2896SOL    HW1 9587   4.936   5.573   6.247
 2896SOL    HW2 9588   4.859   5.479   6.356
 2897SOL     OW 9589   4.327   4.935   2.948
 2897SOL    HW1 9590   4.278   4.858   2.990
 2897SOL    HW2 9591   4.365   4.906   2.860
 2898SOL     OW 9592   4.793   4.865   4.645
 2898SOL    HW1 9593   4.761   4.781   4.601
 2898SOL    HW2 9594   4.772   4.943   4.587
 2899SOL     OW 9595   1.429   1.664   0.158
 2899SOL    HW1 9596   1.420   1.628   0.065
 2899SOL    HW2 9597   1.386   1.755   0.163
 2900SOL     OW 9598   2.002   3.794   5.869
 2900SOL    HW1 9599   2.088   3.829   5.905
 2900SOL    HW2 9600   1.926   3.847   5.905
 2901SOL     OW 9601   3.038   5.304   3.502
 2901SOL    HW1 9602   2.939   5.299   3.491
 2901SOL    HW2 9603   3.065   5.261   3.589
 2902SOL     OW 9604   5.167   6.858   3.018
 2902SOL    HW1 9605   5.248   6.806   2.991
 2902SOL    HW2 9606   5.124   6.813   3.096
 2903SOL     OW 9607   3.099   0.381   0.624
 2903SOL    HW1 9608   3.080   0.285   0.642
 2903SOL    HW2 9609   3.198   0.394   0.611
 2904SOL     OW 9610   2.162   3.825   4.583
 2904SOL    HW1 9611   2.160   3.742   4.639
 2904SOL    HW2 9612   2.168   3.905   4.642
 2905SOL     OW 9613   1.613   2.888   4.898
 2905SOL    HW1 9614   1.686   2.828   4.932
 2905SOL    HW2 9615   1.557   2.838   4.832
 2906SOL     OW 9616   4.210   5.392   1.466
 2906SOL    HW1 9617   4.286   5.412   1.405
 2906SOL    HW2 9618   4.123   5.416   1.422
 2907SOL     OW 9619   0.610   1.327   3.226
 2907SOL    HW1 9620   0.696   1.375   3.207
 2907SOL    HW2 9621   0.629   1.228   3.230
 2908SOL     OW 9622   5.019   6.269   3.584
 2908SOL    HW1 9623   4.943   6.223   3.538
 2908SOL    HW2 9624   5.003   6.368   3.584
 2909SOL     OW 9625   1.219   5.411   3.726
 2909SOL    HW1 9626   1.252   5.388   3.634
 2909SOL    HW2 9627   1.192   5.507   3.728
 2910SOL     OW 9628   4.813   0.183   4.566
 2910SOL    HW1 9629   4.785   0.161   4.473
 2910SOL    HW2 9630   4.887   0.250   4.563
 2911SOL     OW 9631   0.626   5.302   3.550
 2911SOL    HW1 9632   0.666   5.376   3.604
 2911SOL    HW2 9633   0.695   5.233   3.531
 2912SOL     OW 9634   4.621   0.556   0.129
 2912SOL    HW1 9635   4.585   0.497   0.057
 2912SOL    HW2 9636   4.557   0.632   0.144
 2913SOL     OW 9637   2.773   4.682   2.497
 2913SOL    HW1 9638   2.843   4.639   2.440
 2913SOL    HW2 9639   2.799   4.777   2.516
 2914SOL     OW 9640   6.565   6.374   6.747
 2914SOL    HW1 9641   6.641   6.375   6.812
 2914SOL    HW2 9642   6.577   6.299   6.682
 2915SOL     OW 9643   5.238   2.062   3.788
 2915SOL    HW1 9644   5.210   2.077   3.883
 2915SOL    HW2 9645   5.315   2.123   3.767
 2916SOL     OW 9646   1.179   6.532   0.115
 2916SOL    HW1 9647   1.133   6.458   0.164
 2916SOL    HW2 9648   1.277   6.527   0.132
 2917SOL     OW 9649   3.019   6.789   3.655
 2917SOL    HW1 9650   3.013   6.754   3.748
 2917SOL    HW2 9651   2.929   6.821   3.626
 2918SOL     OW 9652   6.424   5.115   4.909
 2918SOL    HW1 9653   6.520   5.117   4.882
 2918SOL    HW2 9654   6.403   5.026   4.950
 2919SOL     OW 9655   6.918   0.883   2.342
 2919SOL    HW1 9656   7.011   0.862   2.372
 2919SOL    HW2 9657   6.899   0.980   2.354
 2920SOL     OW 9658   2.470   1.537   1.722
 2920SOL    HW1 9659   2.522   1.620   1.701
 2920SOL    HW2 9660   2.494   1.505   1.814
 2921SOL     OW 9661   0.913   0.136   4.152
 2921SOL    HW1 9662   0.864   0.213   4.111
 2921SOL    HW2 9663   0.938   0.070   4.081
 2922SOL     OW 9664   5.111   1.072   0.562
 2922SOL    HW1 9665   5.147   1.010   0.492
 2922SOL    HW2 9666   5.157   1.055   0.649
 2923SOL     OW 9667   6.562   5.302   2.300
 2923SOL    HW1 9668   6.470   5.277   2.329
 2923SOL    HW2 9669   6.569   5.299   2.201
 2924SOL     OW 9670   6.708   2.332   5.545
 2924SOL    HW1 9671   6.770   2.371   5.477
 2924SOL    HW2 9672   6.624   2.300   5.499
 2925SOL     OW 9673   4.610   1.156   2.144
 2925SOL    HW1 9674   4.648   1.079   2.093
 2925SOL    HW2 9675   4.510   1.151   2.144
 2926SOL     OW 9676   0.102   2.015   4.128
 2926SOL    HW1 9677   0.005   2.019   4.104
 2926SOL    HW2 9678   0.157   2.019   4.044
 2927SOL     OW 9679   1.220   3.183   1.881
 2927SOL    HW1 9680   1.211   3.091   1.842
 2927SOL    HW2 9681   1.308   3.192   1.926
 2928SOL     OW 9682   6.937   1.615   6.279
 2928SOL    HW1 9683   7.002   1.676   6.234
 2928SOL    HW2 9684   6.844   1.648   6.264
 2929SOL     OW 9685   0.172   2.323   6.916
 2929SOL    HW1 9686   0.197   2.258   6.843
 2929SOL    HW2 9687   0.211   2.412   6.895
 2930SOL     OW 9688   4.317   0.856   4.932
 2930SOL    HW1 9689   4.355   0.824   4.845
 2930SOL    HW2 9690   4.222   0.883   4.919
 2931SOL     OW 9691   5.438   4.954   0.467
 2931SOL    HW1 9692   5.399   4.917   0.382
 2931SOL    HW2 9693   5.477   5.044   0.449
 2932SOL     OW 9694   0.841   5.460   1.450
 2932SOL    HW1 9695   0.836   5.531   1.521
 2932SOL    HW2 9696   0.834   5.370   1.492
 2933SOL     OW 9697   0.145   5.111   3.063
 2933SOL    HW1 9698   0.051   5.083   3.082
 2933SOL    HW2 9699   0.207   5.034   3.081
 2934SOL     OW 9700   4.598   1.035   0.139
 2934SOL    HW1 9701   4.530   0.988   0.196
 2934SOL    HW2 9702   4.689   1.001   0.161
 2935SOL     OW 9703   6.111   3.583   7.020
 2935SOL    HW1 9704   6.179   3.592   6.947
 2935SOL    HW2 9705   6.020   3.603   6.983
 2936SOL     OW 9706   4.213   6.595   0.948
 2936SOL    HW1 9707   4.236   6.690   0.969
 2936SOL    HW2 9708   4.194   6.546   1.034
 2937SOL     OW 9709   4.822   4.665   0.407
 2937SOL    HW1 9710   4.849   4.578   0.449
 2937SOL    HW2 9711   4.800   4.650   0.310
 2938SOL     OW 9712   4.692   4.743   6.554
 2938SOL    HW1 9713   4.610   4.800   6.548
 2938SOL    HW2 9714   4.753   4.763   6.478
 2939SOL     OW 9715   1.253   1.050   2.955
 2939SOL    HW1 9716   1.184   1.121   2.937
 2939SOL    HW2 9717   1.261   0.991   2.875
 2940SOL     OW 9718   5.667   5.261   6.343
 2940SOL    HW1 9719   5.697   5.272   6.249
 2940SOL    HW2 9720   5.567   5.264   6.347
 2941SOL     OW 9721   2.008   2.702   4.650
 2941SOL    HW1 9722   1.942   2.704   4.575
 2941SOL    HW2 9723   1.979   2.636   4.719
 2942SOL     OW 9724   2.841   2.690   0.788
 2942SOL    HW1 9725   2.752   2.727   0.817
 2942SOL    HW2 9726   2.828   2.632   0.707
 2943SOL     OW 9727   4.563   4.666   3.316
 2943SOL    HW1 9728   4.628   4.629   3.383
 2943SOL    HW2 9729   4.505   4.734   3.360
 2944SOL     OW 9730   2.882   5.913   4.471
 2944SOL    HW1 9731   2.925   5.928   4.382
 2944SOL    HW2 9732   2.816   5.985   4.489
 2945SOL     OW 9733   3.595   4.156   3.668
 2945SOL    HW1 9734   3.538   4.174   3.748
 2945SOL    HW2 9735   3.683   4.119   3.697
 2946SOL     OW 9736   1.102   4.880   6.167
 2946SOL    HW1 9737   1.075   4.975   6.182
 2946SOL    HW2 9738   1.201   4.872   6.168
 2947SOL     OW 9739   0.229   3.905   0.833
 2947SOL    HW1 9740   0.252   3.871   0.924
 2947SOL    HW2 9741   0.295   3.869   0.767
 2948SOL     OW 9742   0.846   4.339   5.860
 2948SOL    HW1 9743   0.915   4.386   5.916
 2948SOL    HW2 9744   0.882   4.250   5.832
 2949SOL     OW 9745   3.351   5.188   0.918
 2949SOL    HW1 9746   3.389   5.226   1.002
 2949SOL    HW2 9747   3.421   5.184   0.848
 2950SOL     OW 9748   5.154   4.281   4.470
 2950SOL    HW1 9749   5.064   4.245   4.446
 2950SOL    HW2 9750   5.223   4.237   4.411
 2951SOL     OW 9751   5.621   1.232   0.894
 2951SOL    HW1 9752   5.599   1.214   0.990
 2951SOL    HW2 9753   5.610   1.330   0.875
 2952SOL     OW 9754   1.014   5.127   5.315
 2952SOL    HW1 9755   0.934   5.164   5.267
 2952SOL    HW2 9756   1.098   5.162   5.275
 2953SOL     OW 9757   5.228   3.111   2.417
 2953SOL    HW1 9758   5.236   3.210   2.428
 2953SOL    HW2 9759   5.305   3.066   2.463
 2954SOL     OW 9760   0.300   5.512   1.984
 2954SOL    HW1 9761   0.302   5.490   2.081
 2954SOL    HW2 9762   0.394   5.528   1.951
 2955SOL     OW 9763   0.610   4.170   1.712
 2955SOL    HW1 9764   0.534   4.112   1.682
 2955SOL    HW2 9765   0.683   4.112   1.749
 2956SOL     OW 9766   5.617   6.567   3.504
 2956SOL    HW1 9767   5.607   6.524   3.593
 2956SOL    HW2 9768   5.700   6.534   3.459
 2957SOL     OW 9769   6.167   3.060   1.241
 2957SOL    HW1 9770   6.174   3.157   1.214
 2957SOL    HW2 9771   6.073   3.040   1.268
 2958SOL     OW 9772   2.304   5.119   3.834
 2958SOL    HW1 9773   2.280   5.166   3.919
 2958SOL    HW2 9774   2.230   5.056   3.809
 2959SOL     OW 9775   4.929   4.094   0.612
 2959SOL    HW1 9776   4.969   4.181   0.639
 2959SOL    HW2 9777   4.985   4.019   0.647
 2960SOL     OW 9778   3.052   0.678   6.842
 2960SOL    HW1 9779   3.068   0.718   6.751
 2960SOL    HW2 9780   3.049   0.579   6.835
 2961SOL     OW 9781   4.891   3.508   2.939
 2961SOL    HW1 9782   4.897   3.548   2.847
 2961SOL    HW2 9783   4.909   3.579   3.007
 2962SOL     OW 9784   4.599   0.509   3.186
 2962SOL    HW1 9785   4.556   0.592   3.152
 2962SOL    HW2 9786   4.529   0.441   3.208
 2963SOL     OW 9787   2.147   0.471   6.466
 2963SOL    HW1 9788   2.183   0.527   6.540
 2963SOL    HW2 9789   2.047   0.474   6.467
 2964SOL     OW 9790   0.738   0.853   2.900
 2964SOL    HW1 9791   0.657   0.897   2.937
 2964SOL    HW2 9792   0.775   0.788   2.967
 2965SOL     OW 9793   6.759   2.181   4.638
 2965SOL    HW1 9794   6.792   2.102   4.586
 2965SOL    HW2 9795   6.731   2.151   4.729
 2966SOL     OW 9796   5.459   6.173   4.077
 2966SOL    HW1 9797   5.457   6.076   4.051
 2966SOL    HW2 9798   5.422   6.184   4.169
 2967SOL     OW 9799   6.212   0.487   4.889
 2967SOL    HW1 9800   6.233   0.576   4.929
 2967SOL    HW2 9801   6.261   0.477   4.801
 2968SOL     OW 9802   0.982   3.372   6.392
 2968SOL    HW1 9803   1.057   3.352   6.329
 2968SOL    HW2 9804   0.900   3.322   6.362
 2969SOL     OW 9805   4.787   1.322   3.987
 2969SOL    HW1 9806   4.850   1.388   4.027
 2969SOL    HW2 9807   4.750   1.359   3.901
 2970SOL     OW 9808   1.680   4.915   6.167
 2970SOL    HW1 9809   1.698   4.816   6.162
 2970SOL    HW2 9810   1.718   4.960   6.086
 2971SOL     OW 9811   4.693   4.061   0.402
 2971SOL    HW1 9812   4.781   4.039   0.362
 2971SOL    HW2 9813   4.705   4.090   0.497
 2972SOL     OW 9814   6.317   4.874   6.498
 2972SOL    HW1 9815   6.305   4.845   6.593
 2972SOL    HW2 9816   6.240   4.844   6.443
 2973SOL     OW 9817   5.225   0.104   3.004
 2973SOL    HW1 9818   5.193   0.010   3.012
 2973SOL    HW2 9819   5.166   0.164   3.058
 2974SOL     OW 9820   0.790   4.662   2.878
 2974SOL    HW1 9821   0.704   4.671   2.827
 2974SOL    HW2 9822   0.819   4.566   2.878
 2975SOL     OW 9823   5.562   3.347   4.551
 2975SOL    HW1 9824   5.661   3.336   4.539
 2975SOL    HW2 9825   5.517   3.336   4.462
 2976SOL     OW 9826   4.116   2.049   3.270
 2976SOL    HW1 9827   4.144   2.129   3.324
 2976SOL    HW2 9828   4.182   2.033   3.197
 2977SOL     OW 9829   2.668   6.970   3.195
 2977SOL    HW1 9830   2.678   7.015   3.284
 2977SOL    HW2 9831   2.753   6.925   3.170
 2978SOL     OW 9832   4.914   4.407   0.449
 2978SOL    HW1 9833   4.945   4.357   0.530
 2978SOL    HW2 9834   4.815   4.396   0.439
 2979SOL     OW 9835   3.943   0.726   4.079
 2979SOL    HW1 9836   3.988   0.807   4.040
 2979SOL    HW2 9837   3.913   0.746   4.172
 2980SOL     OW 9838   1.302   5.914   4.343
 2980SOL    HW1 9839   1.351   5.967   4.274
 2980SOL    HW2 9840   1.264   5.831   4.301
 2981SOL     OW 9841   2.164   0.924   5.688
 2981SOL    HW1 9842   2.210   0.968   5.766
 2981SOL    HW2 9843   2.133   0.833   5.715
 2982SOL     OW 9844   4.152   5.170   2.934
 2982SOL    HW1 9845   4.213   5.094   2.914
 2982SOL    HW2 9846   4.205   5.254   2.946
 2983SOL     OW 9847   0.873   1.518   2.895
 2983SOL    HW1 9848   0.776   1.541   2.909
 2983SOL    HW2 9849   0.924   1.601   2.874
 2984SOL     OW 9850   5.599   5.698   1.341
 2984SOL    HW1 9851   5.520   5.645   1.372
 2984SOL    HW2 9852   5.597   5.706   1.241
 2985SOL     OW 9853   1.438   2.634   5.911
 2985SOL    HW1 9854   1.430   2.535   5.907
 2985SOL    HW2 9855   1.346   2.675   5.911
 2986SOL     OW 9856   3.262   4.158   4.684
 2986SOL    HW1 9857   3.242   4.223   4.758
 2986SOL    HW2 9858   3.360   4.161   4.664
 2987SOL     OW 9859   6.536   1.493   4.275
 2987SOL    HW1 9860   6.539   1.534   4.184
 2987SOL    HW2 9861   6.458   1.430   4.280
 2988SOL     OW 9862   1.073   6.103   2.980
 2988SOL    HW1 9863   1.169   6.075   2.968
 2988SOL    HW2 9864   1.037   6.060   3.063
 2989SOL     OW 9865   6.734   5.931   6.555
 2989SOL    HW1 9866   6.711   5.973   6.467
 2989SOL    HW2 9867   6.832   5.942   6.572
 2990SOL     OW 9868   3.733   1.912   4.700
 2990SOL    HW1 9869   3.821   1.871   4.723
 2990SOL    HW2 9870   3.664   1.880   4.765
 2991SOL     OW 9871   6.659   4.490   5.708
 2991SOL    HW1 9872   6.737   4.504   5.769
 2991SOL    HW2 9873   6.661   4.558   5.634
 2992SOL     OW 9874   2.759   6.014   4.870
 2992SOL    HW1 9875   2.702   6.060   4.802
 2992SOL    HW2 9876   2.856   6.022   4.844
 2993SOL     OW 9877   0.277   5.169   1.358
 2993SOL    HW1 9878   0.307   5.241   1.421
 2993SOL    HW2 9879   0.219   5.209   1.286
 2994SOL     OW 9880   4.250   6.565   6.935
 2994SOL    HW1 9881   4.256   6.507   7.017
 2994SOL    HW2 9882   4.341   6.601   6.914
 2995SOL     OW 9883   2.963   2.419   6.328
 2995SOL    HW1 9884   3.031   2.354   6.294
 2995SOL    HW2 9885   2.877   2.371   6.343
 2996SOL     OW 9886   1.612   0.760   3.344
 2996SOL    HW1 9887   1.549   0.709   3.403
 2996SOL    HW2 9888   1.568   0.777   3.256
 2997SOL     OW 9889   5.693   0.387   2.807
 2997SOL    HW1 9890   5.703   0.415   2.711
 2997SOL    HW2 9891   5.780   0.398   2.854
 2998SOL     OW 9892   4.356   0.118   4.508
 2998SOL    HW1 9893   4.361   0.020   4.493
 2998SOL    HW2 9894   4.336   0.164   4.422
 2999SOL     OW 9895   3.215   4.982   4.981
 2999SOL    HW1 9896   3.237   5.072   4.943
 2999SOL    HW2 9897   3.298   4.941   5.020
 3000SOL     OW 9898   2.362   3.406   6.859
 3000SOL    HW1 9899   2.282   3.355   6.889
 3000SOL    HW2 9900   2.410   3.354   6.788
 3001SOL     OW 9901   5.283   0.070   6.460
 3001SOL    HW1 9902   5.221   0.101   6.532
 3001SOL    HW2 9903   5.371   0.116   6.470
 3002SOL     OW 9904   3.818   1.042   0.088
 3002SOL    HW1 9905   3.904   1.000   0.060
 3002SOL    HW2 9906   3.824   1.069   0.184
 3003SOL     OW 9907   2.101   6.300   0.330
 3003SOL    HW1 9908   2.115   6.391   0.369
 3003SOL    HW2 9909   2.189   6.252   0.323
 3004SOL     OW 9910   1.140   4.583   2.792
 3004SOL    HW1 9911   1.235   4.558   2.808
 3004SOL    HW2 9912   1.131   4.683   2.788
 3005SOL     OW 9913   3.185   1.888   0.339
 3005SOL    HW1 9914   3.249   1.937   0.280
 3005SOL    HW2 9915   3.213   1.900   0.435
 3006SOL     OW 9916   5.070   1.586   5.381
 3006SOL    HW1 9917   5.133   1.599   5.457
 3006SOL    HW2 9918   5.030   1.674   5.354
 3007SOL     OW 9919   6.000   5.167   1.460
 3007SOL    HW1 9920   5.909   5.137   1.431
 3007SOL    HW2 9921   6.045   5.093   1.509
 3008SOL     OW 9922   3.885   1.929   6.024
 3008SOL    HW1 9923   3.983   1.926   6.043
 3008SOL    HW2 9924   3.842   2.003   6.075
 3009SOL     OW 9925   0.488   1.542   2.606
 3009SOL    HW1 9926   0.578   1.508   2.633
 3009SOL    HW2 9927   0.417   1.491   2.654
 3010SOL     OW 9928   3.744   5.389   3.370
 3010SOL    HW1 9929   3.749   5.332   3.452
 3010SOL    HW2 9930   3.707   5.336   3.294
 3011SOL     OW 9931   6.008   1.462   1.260
 3011SOL    HW1 9932   5.955   1.531   1.309
 3011SOL    HW2 9933   6.085   1.432   1.317
 3012SOL     OW 9934   1.388   3.941   5.834
 3012SOL    HW1 9935   1.434   3.860   5.870
 3012SOL    HW2 9936   1.454   4.016   5.827
 3013SOL     OW 9937   5.700   6.242   5.012
 3013SOL    HW1 9938   5.743   6.239   4.922
 3013SOL    HW2 9939   5.654   6.330   5.024
 3014SOL     OW 9940   4.566   2.574   4.608
 3014SOL    HW1 9941   4.611   2.654   4.566
 3014SOL    HW2 9942   4.510   2.529   4.539
 3015SOL     OW 9943   3.466   1.646   0.453
 3015SOL    HW1 9944   3.391   1.651   0.520
 3015SOL    HW2 9945   3.488   1.739   0.422
 3016SOL     OW 9946   2.226   6.076   3.716
 3016SOL    HW1 9947   2.203   6.025   3.799
 3016SOL    HW2 9948   2.322   6.101   3.717
 3017SOL     OW 9949   6.610   4.760   2.472
 3017SOL    HW1 9950   6.681   4.831   2.480
 3017SOL    HW2 9951   6.626   4.689   2.540
 3018SOL     OW 9952   3.425   6.022   5.784
 3018SOL    HW1 9953   3.352   5.974   5.735
 3018SOL    HW2 9954   3.501   6.040   5.721
 3019SOL     OW 9955   0.454   6.827   6.645
 3019SOL    HW1 9956   0.397   6.825   6.728
 3019SOL    HW2 9957   0.460   6.921   6.612
 3020SOL     OW 9958   4.138   3.063   1.697
 3020SOL    HW1 9959   4.237   3.070   1.702
 3020SOL    HW2 9960   4.110   2.968   1.710
 3021SOL     OW 9961   3.207   6.831   6.649
 3021SOL    HW1 9962   3.273   6.812   6.575
 3021SOL    HW2 9963   3.209   6.755   6.714
 3022SOL     OW 9964   3.559   5.654   4.017
 3022SOL    HW1 9965   3.576   5.614   3.927
 3022SOL    HW2 9966   3.646   5.669   4.064
 3023SOL     OW 9967   4.202   0.650   2.903
 3023SOL    HW1 9968   4.157   0.716   2.843
 3023SOL    HW2 9969   4.247   0.699   2.978
 3024SOL     OW 9970   4.106   6.749   5.011
 3024SOL    HW1 9971   4.137   6.843   4.999
 3024SOL    HW2 9972   4.082   6.733   5.106
 3025SOL     OW 9973   3.158   0.841   0.525
 3025SOL    HW1 9974   3.110   0.773   0.470
 3025SOL    HW2 9975   3.103   0.866   0.604
 3026SOL     OW 9976   1.517   0.327   0.478
 3026SOL    HW1 9977   1.615   0.315   0.493
 3026SOL    HW2 9978   1.466   0.288   0.554
 3027SOL     OW 9979   3.843   0.227   3.342
 3027SOL    HW1 9980   3.774   0.281   3.390
 3027SOL    HW2 9981   3.902   0.288   3.289
 3028SOL     OW 9982   1.303   4.033   5.308
 3028SOL    HW1 9983   1.274   3.946   5.349
 3028SOL    HW2 9984   1.358   4.015   5.226
 3029SOL     OW 9985   6.945   2.697   5.197
 3029SOL    HW1 9986   6.946   2.615   5.255
 3029SOL    HW2 9987   6.982   2.674   5.107
 3030SOL     OW 9988   0.637   3.468   6.459
 3030SOL    HW1 9989   0.683   3.556   6.449
 3030SOL    HW2 9990   0.688   3.398   6.409
 3031SOL     OW 9991   0.323   3.851   0.440
 3031SOL    HW1 9992   0.268   3.916   0.387
 3031SOL    HW2 9993   0.397   3.815   0.382
 3032SOL     OW 9994   3.694   7.010   1.382
 3032SOL    HW1 9995   3.666   0.063   1.324
 3032SOL    HW2 9996   3.666   0.005   1.477
 3033SOL     OW 9997   6.032   2.221   1.759
 3033SOL    HW1 9998   6.106   2.215   1.827
 3033SOL    HW2 9999   5.953   2.169   1.791
 3034SOL     OW10000   1.451   5.837   2.918
 3034SOL    HW110001   1.396   5.921   2.921
 3034SOL    HW210002   1.542   5.856   2.955
 3035SOL     OW10003   0.330   3.150   6.525
 3035SOL    HW110004   0.345   3.248   6.513
 3035SOL    HW210005   0.406   3.099   6.484
 3036SOL     OW10006   1.684   1.432   6.584
 3036SOL    HW110007   1.675   1.462   6.679
 3036SOL    HW210008   1.773   1.387   6.571
 3037SOL     OW10009   6.236   5.413   5.779
 3037SOL    HW110010   6.233   5.501   5.733
 3037SOL    HW210011   6.153   5.362   5.759
 3038SOL     OW10012   5.903   6.497   6.397
 3038SOL    HW110013   5.983   6.504   6.337
 3038SOL    HW210014   5.820   6.499   6.342
 3039SOL     OW10015   0.025   3.784   0.571
 3039SOL    HW110016   0.057   3.813   0.661
 3039SOL    HW210017   0.078   3.705   0.540
 3040SOL     OW10018   3.720   3.221   6.121
 3040SOL    HW110019   3.760   3.248   6.034
 3040SOL    HW210020   3.696   3.303   6.173
 3041SOL     OW10021   2.238   2.833   4.095
 3041SOL    HW110022   2.150   2.801   4.060
 3041SOL    HW210023   2.223   2.888   4.177
 3042SOL     OW10024   4.301   6.027   1.824
 3042SOL    HW110025   4.274   5.933   1.844
 3042SOL    HW210026   4.296   6.043   1.725
 3043SOL     OW10027   2.382   4.878   1.559
 3043SOL    HW110028   2.432   4.909   1.640
 3043SOL    HW210029   2.332   4.955   1.519
 3044SOL     OW10030   3.881   3.878   5.782
 3044SOL    HW110031   3.786   3.895   5.810
 3044SOL    HW210032   3.942   3.932   5.838
 3045SOL     OW10033   4.882   0.756   2.866
 3045SOL    HW110034   4.877   0.669   2.915
 3045SOL    HW210035   4.808   0.761   2.799
 3046SOL     OW10036   1.972   0.873   6.308
 3046SOL    HW110037   1.923   0.911   6.229
 3046SOL    HW210038   1.955   0.775   6.313
 3047SOL     OW10039   5.674   0.665   1.974
 3047SOL    HW110040   5.752   0.607   1.996
 3047SOL    HW210041   5.663   0.670   1.875
 3048SOL     OW10042   3.864   2.164   1.757
 3048SOL    HW110043   3.831   2.227   1.827
 3048SOL    HW210044   3.847   2.203   1.667
 3049SOL     OW10045   1.488   6.487   2.259
 3049SOL    HW110046   1.471   6.585   2.262
 3049SOL    HW210047   1.583   6.471   2.233
 3050SOL     OW10048   3.317   1.432   1.813
 3050SOL    HW110049   3.283   1.480   1.894
 3050SOL    HW210050   3.354   1.499   1.748
 3051SOL     OW10051   2.331   3.904   0.179
 3051SOL    HW110052   2.265   3.978   0.194
 3051SOL    HW210053   2.282   3.821   0.151
 3052SOL     OW10054   5.385   7.022   1.725
 3052SOL    HW110055   5.315   0.056   1.766
 3052SOL    HW210056   5.345   6.968   1.651
 3053SOL     OW10057   6.988   1.622   6.933
 3053SOL    HW110058   0.037   1.654   6.995
 3053SOL    HW210059   6.923   1.697   6.918
 3054SOL     OW10060   6.671   2.044   0.513
 3054SOL    HW110061   6.631   1.956   0.489
 3054SOL    HW210062   6.770   2.032   0.528
 3055SOL     OW10063   5.213   0.077   4.389
 3055SOL    HW110064   5.157   0.157   4.368
 3055SOL    HW210065   5.169   0.025   4.463
 3056SOL     OW10066   5.960   0.420   4.658
 3056SOL    HW110067   5.963   0.351   4.729
 3056SOL    HW210068   5.949   0.511   4.700
 3057SOL     OW10069   3.952   6.062   2.745
 3057SOL    HW110070   4.006   6.039   2.826
 3057SOL    HW210071   4.013   6.070   2.666
 3058SOL     OW10072   0.130   4.929   1.414
 3058SOL    HW110073   0.151   5.026   1.424
 3058SOL    HW210074   0.207   4.875   1.446
 3059SOL     OW10075   2.349   2.494   4.476
 3059SOL    HW110076   2.347   2.585   4.518
 3059SOL    HW210077   2.334   2.503   4.378
 3060SOL     OW10078   0.904   5.503   0.353
 3060SOL    HW110079   0.852   5.426   0.316
 3060SOL    HW210080   0.968   5.536   0.283
 3061SOL     OW10081   0.155   6.949   5.346
 3061SOL    HW110082   0.231   7.000   5.306
 3061SOL    HW210083   0.153   6.856   5.308
 3062SOL     OW10084   1.974   6.876   0.141
 3062SOL    HW110085   1.960   6.786   0.181
 3062SOL    HW210086   1.966   6.946   0.213
 3063SOL     OW10087   2.669   5.256   1.930
 3063SOL    HW110088   2.636   5.162   1.930
 3063SOL    HW210089   2.600   5.316   1.970
 3064SOL     OW10090   5.809   4.308   3.011
 3064SOL    HW110091   5.870   4.368   3.063
 3064SOL    HW210092   5.760   4.247   3.074
 3065SOL     OW10093   2.722   0.728   0.593
 3065SOL    HW110094   2.742   0.712   0.496
 3065SOL    HW210095   2.625   0.746   0.605
 3066SOL     OW10096   5.314   5.203   0.920
 3066SOL    HW110097   5.355   5.165   1.003
 3066SOL    HW210098   5.274   5.129   0.865
 3067SOL     OW10099   3.593   2.246   5.268
 3067SOL    HW110100   3.501   2.252   5.306
 3067SOL    HW210101   3.619   2.150   5.257
 3068SOL     OW10102   6.189   6.827   1.244
 3068SOL    HW110103   6.111   6.770   1.270
 3068SOL    HW210104   6.233   6.863   1.326
 3069SOL     OW10105   6.594   6.523   1.599
 3069SOL    HW110106   6.680   6.554   1.559
 3069SOL    HW210107   6.520   6.533   1.533
 3070SOL     OW10108   1.997   1.655   0.830
 3070SOL    HW110109   2.003   1.644   0.731
 3070SOL    HW210110   1.981   1.752   0.852
 3071SOL     OW10111   5.864   6.503   3.367
 3071SOL    HW110112   5.930   6.570   3.332
 3071SOL    HW210113   5.891   6.411   3.338
 3072SOL     OW10114   1.809   6.203   0.388
 3072SOL    HW110115   1.904   6.228   0.370
 3072SOL    HW210116   1.796   6.192   0.487
 3073SOL     OW10117   6.303   3.251   4.124
 3073SOL    HW110118   6.397   3.219   4.110
 3073SOL    HW210119   6.285   3.260   4.222
 3074SOL     OW10120   5.902   3.716   1.259
 3074SOL    HW110121   5.925   3.680   1.350
 3074SOL    HW210122   5.977   3.773   1.226
 3075SOL     OW10123   2.718   6.156   1.731
 3075SOL    HW110124   2.673   6.147   1.819
 3075SOL    HW210125   2.782   6.080   1.718
 3076SOL     OW10126   6.621   0.358   4.722
 3076SOL    HW110127   6.625   0.284   4.789
 3076SOL    HW210128   6.696   0.347   4.656
 3077SOL     OW10129   4.970   5.791   2.248
 3077SOL    HW110130   4.968   5.693   2.230
 3077SOL    HW210131   4.934   5.840   2.168
 3078SOL     OW10132   0.354   2.769   2.201
 3078SOL    HW110133   0.329   2.687   2.252
 3078SOL    HW210134   0.372   2.844   2.264
 3079SOL     OW10135   2.410   2.472   3.767
 3079SOL    HW110136   2.445   2.413   3.839
 3079SOL    HW210137   2.459   2.454   3.682
 3080SOL     OW10138   4.796   3.919   3.048
 3080SOL    HW110139   4.794   3.913   2.948
 3080SOL    HW210140   4.771   4.011   3.076
 3081SOL     OW10141   0.484   2.525   5.604
 3081SOL    HW110142   0.548   2.493   5.534
 3081SOL    HW210143   0.506   2.483   5.692
 3082SOL     OW10144   2.827   6.134   3.952
 3082SOL    HW110145   2.762   6.058   3.958
 3082SOL    HW210146   2.841   6.173   4.043
 3083SOL     OW10147   3.659   5.664   3.732
 3083SOL    HW110148   3.672   5.763   3.731
 3083SOL    HW210149   3.661   5.629   3.638
 3084SOL     OW10150   6.077   4.069   5.013
 3084SOL    HW110151   6.016   4.135   5.057
 3084SOL    HW210152   6.025   3.988   4.985
 3085SOL     OW10153   6.432   4.234   1.155
 3085SOL    HW110154   6.510   4.279   1.112
 3085SOL    HW210155   6.392   4.295   1.224
 3086SOL     OW10156   4.511   1.304   1.243
 3086SOL    HW110157   4.547   1.272   1.155
 3086SOL    HW210158   4.587   1.333   1.301
 3087SOL     OW10159   0.533   5.379   3.931
 3087SOL    HW110160   0.560   5.474   3.921
 3087SOL    HW210161   0.536   5.354   4.028
 3088SOL     OW10162   1.874   4.799   4.856
 3088SOL    HW110163   1.803   4.785   4.926
 3088SOL    HW210164   1.951   4.738   4.875
 3089SOL     OW10165   1.139   3.528   6.773
 3089SOL    HW110166   1.096   3.437   6.773
 3089SOL    HW210167   1.070   3.597   6.794
 3090SOL     OW10168   2.426   2.204   1.891
 3090SOL    HW110169   2.394   2.196   1.986
 3090SOL    HW210170   2.524   2.224   1.891
 3091SOL     OW10171   1.592   0.789   0.753
 3091SOL    HW110172   1.548   0.867   0.797
 3091SOL    HW210173   1.611   0.811   0.657
 3092SOL     OW10174   4.902   0.659   0.129
 3092SOL    HW110175   4.803   0.645   0.131
 3092SOL    HW210176   4.940   0.609   0.051
 3093SOL     OW10177   5.930   6.716   5.815
 3093SOL    HW110178   6.013   6.734   5.763
 3093SOL    HW210179   5.954   6.688   5.908
 3094SOL     OW10180   1.747   6.687   4.364
 3094SOL    HW110181   1.735   6.723   4.456
 3094SOL    HW210182   1.678   6.616   4.346
 3095SOL     OW10183   1.807   4.922   5.618
 3095SOL    HW110184   1.869   4.874   5.555
 3095SOL    HW210185   1.716   4.927   5.577
 3096SOL     OW10186   1.644   5.970   5.399
 3096SOL    HW110187   1.741   5.945   5.391
 3096SOL    HW210188   1.619   6.029   5.322
 3097SOL     OW10189   6.292   2.175   0.034
 3097SOL    HW110190   6.224   2.106   0.008
 3097SOL    HW210191   6.282   2.197   0.131
 3098SOL     OW10192   2.503   3.145   0.755
 3098SOL    HW110193   2.529   3.240   0.740
 3098SOL    HW210194   2.567   3.103   0.820
 3099SOL     OW10195   0.741   6.775   2.866
 3099SOL    HW110196   0.721   6.678   2.852
 3099SOL    HW210197   0.658   6.823   2.895
 3100SOL     OW10198   6.177   6.171   4.322
 3100SOL    HW110199   6.079   6.184   4.307
 3100SOL    HW210200   6.225   6.258   4.306
 3101SOL     OW10201   5.422   6.826   6.436
 3101SOL    HW110202   5.354   6.897   6.423
 3101SOL    HW210203   5.503   6.845   6.380
 3102SOL     OW10204   6.925   5.234   1.828
 3102SOL    HW110205   6.890   5.163   1.889
 3102SOL    HW210206   6.895   5.324   1.860
 3103SOL     OW10207   4.354   0.798   2.610
 3103SOL    HW110208   4.336   0.719   2.550
 3103SOL    HW210209   4.297   0.875   2.581
 3104SOL     OW10210   5.052   0.552   5.009
 3104SOL    HW110211   5.149   0.531   5.024
 3104SOL    HW210212   5.003   0.544   5.096
 3105SOL     OW10213   6.114   4.668   1.586
 3105SOL    HW110214   6.065   4.608   1.523
 3105SOL    HW210215   6.181   4.615   1.638
 3106SOL     OW10216   6.651   1.202   3.105
 3106SOL    HW110217   6.678   1.278   3.164
 3106SOL    HW210218   6.556   1.215   3.076
 3107SOL     OW10219   4.334   1.135   4.804
 3107SOL    HW110220   4.373   1.145   4.895
 3107SOL    HW210221   4.366   1.049   4.764
 3108SOL     OW10222   1.265   6.206   4.360
 3108SOL    HW110223   1.195   6.136   4.373
 3108SOL    HW210224   1.318   6.185   4.277
 3109SOL     OW10225   5.831   6.036   3.197
 3109SOL    HW110226   5.831   5.936   3.207
 3109SOL    HW210227   5.749   6.064   3.146
 3110SOL     OW10228   1.743   2.159   2.833
 3110SOL    HW110229   1.745   2.065   2.800
 3110SOL    HW210230   1.718   2.220   2.758
 3111SOL     OW10231   6.483   5.542   3.894
 3111SOL    HW110232   6.566   5.503   3.856
 3111SOL    HW210233   6.433   5.470   3.944
 3112SOL     OW10234   5.197   2.293   6.767
 3112SOL    HW110235   5.239   2.362   6.709
 3112SOL    HW210236   5.098   2.308   6.770
 3113SOL     OW10237   2.501   5.858   3.500
 3113SOL    HW110238   2.511   5.759   3.491
 3113SOL    HW210239   2.410   5.885   3.468
 3114SOL     OW10240   4.293   1.222   1.101
 3114SOL    HW110241   4.362   1.272   1.155
 3114SOL    HW210242   4.276   1.271   1.016
 3115SOL     OW10243   3.833   3.284   6.544
 3115SOL    HW110244   3.901   3.321   6.480
 3115SOL    HW210245   3.741   3.309   6.514
 3116SOL     OW10246   1.073   2.984   6.832
 3116SOL    HW110247   1.020   2.925   6.892
 3116SOL    HW210248   1.101   3.066   6.881
 3117SOL     OW10249   4.365   3.688   5.305
 3117SOL    HW110250   4.371   3.623   5.381
 3117SOL    HW210251   4.449   3.683   5.251
 3118SOL     OW10252   0.557   5.574   1.959
 3118SOL    HW110253   0.561   5.477   1.981
 3118SOL    HW210254   0.633   5.622   2.003
 3119SOL     OW10255   1.769   3.346   5.959
 3119SOL    HW110256   1.753   3.376   5.865
 3119SOL    HW210257   1.851   3.289   5.961
 3120SOL     OW10258   3.007   6.337   4.756
 3120SOL    HW110259   2.911   6.350   4.731
 3120SOL    HW210260   3.039   6.418   4.806
 3121SOL     OW10261   0.449   1.065   3.708
 3121SOL    HW110262   0.457   1.088   3.611
 3121SOL    HW210263   0.354   1.042   3.729
 3122SOL     OW10264   3.998   6.508   5.913
 3122SOL    HW110265   4.068   6.553   5.858
 3122SOL    HW210266   3.913   6.561   5.908
 3123SOL     OW10267   3.112   1.754   3.781
 3123SOL    HW110268   3.084   1.665   3.743
 3123SOL    HW210269   3.196   1.784   3.737
 3124SOL     OW10270   3.674   0.265   4.620
 3124SOL    HW110271   3.685   0.186   4.679
 3124SOL    HW210272   3.583   0.265   4.580
 3125SOL     OW10273   6.570   2.390   4.944
 3125SOL    HW110274   6.493   2.412   4.885
 3125SOL    HW210275   6.603   2.298   4.923
 3126SOL     OW10276   5.026   4.987   5.757
 3126SOL    HW110277   4.960   4.937   5.813
 3126SOL    HW210278   5.009   4.967   5.660
 3127SOL     OW10279   1.381   3.384   4.446
 3127SOL    HW110280   1.477   3.396   4.471
 3127SOL    HW210281   1.375   3.349   4.353
 3128SOL     OW10282   2.534   0.599   5.984
 3128SOL    HW110283   2.456   0.539   6.002
 3128SOL    HW210284   2.598   0.553   5.923
 3129SOL     OW10285   6.550   3.892   6.297
 3129SOL    HW110286   6.501   3.828   6.237
 3129SOL    HW210287   6.585   3.843   6.377
 3130SOL     OW10288   1.817   4.152   1.687
 3130SOL    HW110289   1.756   4.201   1.625
 3130SOL    HW210290   1.908   4.145   1.645
 3131SOL     OW10291   6.974   2.116   1.086
 3131SOL    HW110292   6.930   2.165   1.011
 3131SOL    HW210293   0.035   2.164   1.112
 3132SOL     OW10294   4.337   5.317   6.016
 3132SOL    HW110295   4.338   5.318   6.116
 3132SOL    HW210296   4.316   5.225   5.983
 3133SOL     OW10297   3.355   1.866   4.423
 3133SOL    HW110298   3.338   1.818   4.509
 3133SOL    HW210299   3.372   1.963   4.441
 3134SOL     OW10300   4.644   4.084   1.494
 3134SOL    HW110301   4.728   4.067   1.546
 3134SOL    HW210302   4.564   4.062   1.550
 3135SOL     OW10303   4.838   0.619   5.547
 3135SOL    HW110304   4.905   0.660   5.487
 3135SOL    HW210305   4.768   0.686   5.571
 3136SOL     OW10306   5.359   0.783   0.902
 3136SOL    HW110307   5.386   0.720   0.829
 3136SOL    HW210308   5.439   0.836   0.931
 3137SOL     OW10309   6.807   0.876   3.166
 3137SOL    HW110310   6.710   0.850   3.162
 3137SOL    HW210311   6.824   0.947   3.098
 3138SOL     OW10312   6.345   4.070   3.995
 3138SOL    HW110313   6.289   4.131   3.939
 3138SOL    HW210314   6.368   3.988   3.942
 3139SOL     OW10315   5.252   6.593   0.536
 3139SOL    HW110316   5.309   6.594   0.618
 3139SOL    HW210317   5.307   6.564   0.458
 3140SOL     OW10318   5.750   0.053   6.933
 3140SOL    HW110319   5.803   0.081   6.853
 3140SOL    HW210320   5.655   0.036   6.906
 3141SOL     OW10321   0.037   6.202   6.546
 3141SOL    HW110322   0.093   6.134   6.594
 3141SOL    HW210323   0.049   6.191   6.447
 3142SOL     OW10324   3.446   6.815   1.911
 3142SOL    HW110325   3.348   6.830   1.910
 3142SOL    HW210326   3.467   6.723   1.876
 3143SOL     OW10327   6.587   1.724   6.815
 3143SOL    HW110328   6.548   1.751   6.904
 3143SOL    HW210329   6.587   1.803   6.754
 3144SOL     OW10330   4.650   3.994   1.777
 3144SOL    HW110331   4.614   4.086   1.793
 3144SOL    HW210332   4.578   3.936   1.739
 3145SOL     OW10333   2.264   5.757   1.527
 3145SOL    HW110334   2.181   5.811   1.539
 3145SOL    HW210335   2.240   5.661   1.511
 3146SOL     OW10336   1.352   6.846   3.447
 3146SOL    HW110337   1.430   6.843   3.384
 3146SOL    HW210338   1.271   6.877   3.398
 3147SOL     OW10339   3.690   4.790   0.746
 3147SOL    HW110340   3.663   4.836   0.661
 3147SOL    HW210341   3.623   4.720   0.768
 3148SOL     OW10342   5.262   5.733   4.949
 3148SOL    HW110343   5.228   5.640   4.961
 3148SOL    HW210344   5.362   5.733   4.952
 3149SOL     OW10345   2.678   1.041   5.797
 3149SOL    HW110346   2.630   1.100   5.732
 3149SOL    HW210347   2.621   0.963   5.820
 3150SOL     OW10348   5.783   5.968   4.303
 3150SOL    HW110349   5.803   5.910   4.224
 3150SOL    HW210350   5.709   5.928   4.357
 3151SOL     OW10351   5.305   1.461   5.613
 3151SOL    HW110352   5.354   1.474   5.699
 3151SOL    HW210353   5.340   1.524   5.544
 3152SOL     OW10354   1.425   5.848   0.366
 3152SOL    HW110355   1.376   5.819   0.448
 3152SOL    HW210356   1.494   5.780   0.342
 3153SOL     OW10357   6.050   5.002   2.133
 3153SOL    HW110358   6.018   4.955   2.051
 3153SOL    HW210359   6.061   4.936   2.207
 3154SOL     OW10360   5.877   0.982   6.465
 3154SOL    HW110361   5.963   0.932   6.476
 3154SOL    HW210362   5.825   0.941   6.391
 3155SOL     OW10363   6.384   4.180   1.589
 3155SOL    HW110364   6.401   4.137   1.500
 3155SOL    HW210365   6.395   4.279   1.580
 3156SOL     OW10366   3.186   2.963   3.370
 3156SOL    HW110367   3.154   2.897   3.437
 3156SOL    HW210368   3.263   2.923   3.319
 3157SOL     OW10369   2.660   2.396   4.809
 3157SOL    HW110370   2.694   2.379   4.901
 3157SOL    HW210371   2.584   2.461   4.813
 3158SOL     OW10372   4.358   0.848   3.035
 3158SOL    HW110373   4.398   0.842   3.126
 3158SOL    HW210374   4.358   0.944   3.005
 3159SOL     OW10375   5.426   1.597   6.460
 3159SOL    HW110376   5.427   1.498   6.469
 3159SOL    HW210377   5.415   1.639   6.550
 3160SOL     OW10378   0.425   6.404   5.667
 3160SOL    HW110379   0.484   6.437   5.740
 3160SOL    HW210380   0.464   6.321   5.627
 3161SOL     OW10381   1.528   1.698   3.018
 3161SOL    HW110382   1.458   1.766   2.997
 3161SOL    HW210383   1.566   1.662   2.933
 3162SOL     OW10384   1.370   6.181   1.982
 3162SOL    HW110385   1.413   6.261   1.940
 3162SOL    HW210386   1.369   6.193   2.081
 3163SOL     OW10387   4.223   2.565   6.154
 3163SOL    HW110388   4.131   2.540   6.125
 3163SOL    HW210389   4.256   2.641   6.098
 3164SOL     OW10390   4.768   4.330   0.877
 3164SOL    HW110391   4.695   4.391   0.846
 3164SOL    HW210392   4.730   4.260   0.937
 3165SOL     OW10393   0.712   6.446   1.031
 3165SOL    HW110394   0.630   6.503   1.023
 3165SOL    HW210395   0.774   6.467   0.955
 3166SOL     OW10396   4.714   2.094   5.240
 3166SOL    HW110397   4.663   2.009   5.251
 3166SOL    HW210398   4.785   2.100   5.311
 3167SOL     OW10399   6.565   3.861   1.515
 3167SOL    HW110400   6.618   3.929   1.464
 3167SOL    HW210401   6.469   3.865   1.486
 3168SOL     OW10402   4.149   2.200   0.025
 3168SOL    HW110403   4.220   2.130   0.017
 3168SOL    HW210404   4.070   2.175   6.991
 3169SOL     OW10405   1.405   3.696   5.047
 3169SOL    HW110406   1.452   3.619   5.089
 3169SOL    HW210407   1.371   3.670   4.957
 3170SOL     OW10408   3.999   0.598   1.166
 3170SOL    HW110409   4.000   0.532   1.091
 3170SOL    HW210410   3.912   0.592   1.215
 3171SOL     OW10411   0.538   0.000   1.195
 3171SOL    HW110412   0.527   0.028   1.099
 3171SOL    HW210413   0.506   6.929   1.205
 3172SOL     OW10414   0.443   4.898   0.076
 3172SOL    HW110415   0.353   4.858   0.091
 3172SOL    HW210416   0.495   4.842   0.012
 3173SOL     OW10417   2.809   2.081   0.468
 3173SOL    HW110418   2.789   2.009   0.534
 3173SOL    HW210419   2.735   2.087   0.401
 3174SOL     OW10420   3.039   2.604   6.092
 3174SOL    HW110421   3.047   2.650   6.181
 3174SOL    HW210422   2.979   2.525   6.102
 3175SOL     OW10423   7.004   0.616   0.509
 3175SOL    HW110424   0.008   0.520   0.510
 3175SOL    HW210425   0.055   0.671   0.468
 3176SOL     OW10426   1.280   4.742   5.006
 3176SOL    HW110427   1.192   4.726   5.049
 3176SOL    HW210428   1.293   4.841   4.992
 3177SOL     OW10429   4.742   4.390   4.186
 3177SOL    HW110430   4.755   4.429   4.095
 3177SOL    HW210431   4.646   4.401   4.213
 3178SOL     OW10432   6.198   1.644   0.461
 3178SOL    HW110433   6.229   1.594   0.542
 3178SOL    HW210434   6.099   1.636   0.453
 3179SOL     OW10435   1.823   3.339   2.523
 3179SOL    HW110436   1.847   3.248   2.558
 3179SOL    HW210437   1.753   3.330   2.452
 3180SOL     OW10438   4.175   1.392   0.063
 3180SOL    HW110439   4.079   1.413   0.047
 3180SOL    HW210440   4.207   1.439   0.145
 3181SOL     OW10441   0.898   1.375   2.491
 3181SOL    HW110442   0.981   1.351   2.441
 3181SOL    HW210443   0.877   1.472   2.476
 3182SOL     OW10444   2.554   1.422   4.932
 3182SOL    HW110445   2.481   1.385   4.990
 3182SOL    HW210446   2.520   1.428   4.838
 3183SOL     OW10447   4.373   4.196   1.599
 3183SOL    HW110448   4.274   4.189   1.597
 3183SOL    HW210449   4.405   4.198   1.694
 3184SOL     OW10450   1.310   2.586   2.298
 3184SOL    HW110451   1.263   2.506   2.336
 3184SOL    HW210452   1.391   2.555   2.248
 3185SOL     OW10453   6.429   6.008   0.277
 3185SOL    HW110454   6.364   6.063   0.225
 3185SOL    HW210455   6.380   5.950   0.342
 3186SOL     OW10456   4.002   1.823   1.983
 3186SOL    HW110457   4.020   1.729   2.010
 3186SOL    HW210458   4.088   1.872   1.970
 3187SOL     OW10459   4.788   3.682   0.578
 3187SOL    HW110460   4.728   3.612   0.539
 3187SOL    HW210461   4.733   3.743   0.636
 3188SOL     OW10462   3.552   6.507   4.655
 3188SOL    HW110463   3.644   6.486   4.688
 3188SOL    HW210464   3.521   6.594   4.693
 3189SOL     OW10465   1.798   1.531   1.790
 3189SOL    HW110466   1.783   1.504   1.696
 3189SOL    HW210467   1.850   1.616   1.793
 3190SOL     OW10468   0.124   6.396   0.635
 3190SOL    HW110469   0.207   6.353   0.669
 3190SOL    HW210470   0.055   6.326   0.616
 3191SOL     OW10471   4.607   6.724   0.840
 3191SOL    HW110472   4.667   6.739   0.761
 3191SOL    HW210473   4.512   6.720   0.809
 3192SOL     OW10474   0.053   2.826   0.557
 3192SOL    HW110475   6.986   2.784   0.564
 3192SOL    HW210476   0.077   2.840   0.461
 3193SOL     OW10477   4.215   1.703   6.563
 3193SOL    HW110478   4.261   1.661   6.485
 3193SOL    HW210479   4.251   1.664   6.648
 3194SOL     OW10480   0.580   3.389   5.602
 3194SOL    HW110481   0.582   3.305   5.656
 3194SOL    HW210482   0.529   3.374   5.518
 3195SOL     OW10483   2.650   2.222   3.445
 3195SOL    HW110484   2.599   2.150   3.400
 3195SOL    HW210485   2.621   2.230   3.540
 3196SOL     OW10486   0.782   0.519   5.236
 3196SOL    HW110487   0.858   0.491   5.178
 3196SOL    HW210488   0.815   0.534   5.329
 3197SOL     OW10489   1.491   6.224   3.882
 3197SOL    HW110490   1.529   6.151   3.826
 3197SOL    HW210491   1.409   6.261   3.839
 3198SOL     OW10492   6.112   1.871   5.734
 3198SOL    HW110493   6.094   1.830   5.644
 3198SOL    HW210494   6.185   1.939   5.726
 3199SOL     OW10495   4.745   2.758   2.031
 3199SOL    HW110496   4.770   2.743   2.127
 3199SOL    HW210497   4.733   2.855   2.014
 3200SOL     OW10498   6.886   2.637   1.711
 3200SOL    HW110499   6.899   2.661   1.807
 3200SOL    HW210500   6.855   2.542   1.704
 3201SOL     OW10501   4.863   4.247   4.381
 3201SOL    HW110502   4.804   4.212   4.454
 3201SOL    HW210503   4.806   4.285   4.308
 3202SOL     OW10504   1.174   4.553   1.566
 3202SOL    HW110505   1.102   4.490   1.593
 3202SOL    HW210506   1.236   4.508   1.501
 3203SOL     OW10507   6.130   2.923   6.367
 3203SOL    HW110508   6.208   2.878   6.411
 3203SOL    HW210509   6.088   2.987   6.431
 3204SOL     OW10510   4.880   6.436   1.817
 3204SOL    HW110511   4.896   6.531   1.789
 3204SOL    HW210512   4.811   6.395   1.758
 3205SOL     OW10513   0.261   3.640   6.883
 3205SOL    HW110514   0.255   3.678   6.791
 3205SOL    HW210515   0.183   3.580   6.899
 3206SOL     OW10516   0.312   6.859   5.832
 3206SOL    HW110517   0.299   6.803   5.914
 3206SOL    HW210518   0.228   6.860   5.778
 3207SOL     OW10519   1.046   0.900   5.885
 3207SOL    HW110520   1.001   0.989   5.890
 3207SOL    HW210521   1.126   0.906   5.826
 3208SOL     OW10522   4.983   6.560   5.669
 3208SOL    HW110523   5.035   6.612   5.737
 3208SOL    HW210524   5.046   6.522   5.601
 3209SOL     OW10525   4.081   5.506   3.297
 3209SOL    HW110526   4.109   5.454   3.378
 3209SOL    HW210527   4.027   5.447   3.236
 3210SOL     OW10528   0.450   4.158   1.276
 3210SOL    HW110529   0.357   4.150   1.242
 3210SOL    HW210530   0.514   4.159   1.199
 3211SOL     OW10531   1.766   3.357   1.105
 3211SOL    HW110532   1.693   3.322   1.046
 3211SOL    HW210533   1.735   3.356   1.200
 3212SOL     OW10534   2.808   1.136   0.300
 3212SOL    HW110535   2.857   1.190   0.232
 3212SOL    HW210536   2.874   1.086   0.357
 3213SOL     OW10537   6.472   6.120   2.611
 3213SOL    HW110538   6.452   6.048   2.543
 3213SOL    HW210539   6.535   6.083   2.680
 3214SOL     OW10540   4.753   5.649   0.768
 3214SOL    HW110541   4.849   5.623   0.761
 3214SOL    HW210542   4.702   5.576   0.814
 3215SOL     OW10543   0.565   3.471   1.067
 3215SOL    HW110544   0.604   3.495   1.156
 3215SOL    HW210545   0.480   3.521   1.054
 3216SOL     OW10546   5.799   5.676   1.528
 3216SOL    HW110547   5.790   5.584   1.565
 3216SOL    HW210548   5.742   5.685   1.446
 3217SOL     OW10549   0.313   5.460   2.823
 3217SOL    HW110550   0.387   5.524   2.803
 3217SOL    HW210551   0.276   5.479   2.914
 3218SOL     OW10552   3.922   0.047   4.249
 3218SOL    HW110553   3.929   6.975   4.221
 3218SOL    HW210554   3.930   0.106   4.168
 3219SOL     OW10555   0.358   2.012   3.385
 3219SOL    HW110556   0.277   1.956   3.406
 3219SOL    HW210557   0.396   1.983   3.297
 3220SOL     OW10558   6.619   6.598   6.092
 3220SOL    HW110559   6.685   6.574   6.163
 3220SOL    HW210560   6.568   6.679   6.120
 3221SOL     OW10561   3.029   6.928   1.690
 3221SOL    HW110562   3.084   6.944   1.608
 3221SOL    HW210563   2.968   6.851   1.675
 3222SOL     OW10564   4.161   1.354   3.039
 3222SOL    HW110565   4.083   1.320   2.986
 3222SOL    HW210566   4.136   1.441   3.083
 3223SOL     OW10567   2.344   5.574   0.015
 3223SOL    HW110568   2.335   5.624   6.952
 3223SOL    HW210569   2.426   5.604   0.063
 3224SOL     OW10570   4.644   3.391   6.405
 3224SOL    HW110571   4.579   3.439   6.463
 3224SOL    HW210572   4.695   3.324   6.459
 3225SOL     OW10573   4.408   3.495   5.479
 3225SOL    HW110574   4.366   3.405   5.466
 3225SOL    HW210575   4.417   3.514   5.577
 3226SOL     OW10576   1.258   2.082   4.488
 3226SOL    HW110577   1.228   2.177   4.493
 3226SOL    HW210578   1.332   2.074   4.420
 3227SOL     OW10579   2.797   2.004   6.302
 3227SOL    HW110580   2.854   1.990   6.222
 3227SOL    HW210581   2.792   2.101   6.324
 3228SOL     OW10582   5.586   4.117   2.970
 3228SOL    HW110583   5.648   4.181   2.925
 3228SOL    HW210584   5.505   4.166   3.003
 3229SOL     OW10585   3.026   1.929   5.422
 3229SOL    HW110586   2.928   1.926   5.407
 3229SOL    HW210587   3.072   1.968   5.343
 3230SOL     OW10588   1.413   3.279   4.158
 3230SOL    HW110589   1.510   3.258   4.141
 3230SOL    HW210590   1.360   3.256   4.076
 3231SOL     OW10591   2.515   0.219   1.949
 3231SOL    HW110592   2.426   0.248   1.915
 3231SOL    HW210593   2.542   0.134   1.904
 3232SOL     OW10594   3.951   5.228   4.843
 3232SOL    HW110595   3.936   5.247   4.940
 3232SOL    HW210596   3.942   5.129   4.827
 3233SOL     OW10597   0.937   2.724   1.543
 3233SOL    HW110598   0.975   2.632   1.532
 3233SOL    HW210599   1.003   2.791   1.510
 3234SOL     OW10600   6.966   1.736   0.638
 3234SOL    HW110601   6.872   1.733   0.672
 3234SOL    HW210602   6.988   1.648   0.595
 3235SOL     OW10603   4.865   0.809   1.365
 3235SOL    HW110604   4.958   0.817   1.331
 3235SOL    HW210605   4.844   0.713   1.383
 3236SOL     OW10606   1.647   3.578   0.463
 3236SOL    HW110607   1.550   3.586   0.440
 3236SOL    HW210608   1.702   3.631   0.398
 3237SOL     OW10609   5.419   1.050   3.316
 3237SOL    HW110610   5.376   1.014   3.234
 3237SOL    HW210611   5.461   0.975   3.367
 3238SOL     OW10612   0.207   4.891   0.789
 3238SOL    HW110613   0.246   4.909   0.699
 3238SOL    HW210614   0.188   4.978   0.835
 3239SOL     OW10615   6.254   1.473   0.669
 3239SOL    HW110616   6.226   1.412   0.595
 3239SOL    HW210617   6.346   1.450   0.698
 3240SOL     OW10618   1.149   5.821   5.495
 3240SOL    HW110619   1.246   5.803   5.510
 3240SOL    HW210620   1.114   5.759   5.425
 3241SOL     OW10621   4.783   1.153   4.369
 3241SOL    HW110622   4.838   1.069   4.376
 3241SOL    HW210623   4.694   1.132   4.330
 3242SOL     OW10624   3.092   4.734   1.017
 3242SOL    HW110625   3.081   4.728   1.116
 3242SOL    HW210626   3.178   4.781   0.996
 3243SOL     OW10627   5.321   4.884   0.194
 3243SOL    HW110628   5.395   4.828   0.157
 3243SOL    HW210629   5.302   4.960   0.132
 3244SOL     OW10630   5.229   6.068   0.551
 3244SOL    HW110631   5.173   6.143   0.515
 3244SOL    HW210632   5.176   6.016   0.618
 3245SOL     OW10633   4.971   2.476   5.269
 3245SOL    HW110634   5.010   2.555   5.222
 3245SOL    HW210635   5.038   2.401   5.267
 3246SOL     OW10636   6.044   0.869   2.908
 3246SOL    HW110637   6.120   0.846   2.847
 3246SOL    HW210638   6.035   0.969   2.914
 3247SOL     OW10639   6.297   4.583   3.459
 3247SOL    HW110640   6.312   4.517   3.532
 3247SOL    HW210641   6.345   4.554   3.377
 3248SOL     OW10642   6.085   3.384   1.519
 3248SOL    HW110643   6.126   3.357   1.607
 3248SOL    HW210644   6.143   3.351   1.444
 3249SOL     OW10645   3.319   3.635   4.616
 3249SOL    HW110646   3.347   3.690   4.538
 3249SOL    HW210647   3.304   3.541   4.587
 3250SOL     OW10648   4.992   6.834   2.393
 3250SOL    HW110649   4.970   6.789   2.307
 3250SOL    HW210650   5.026   6.767   2.459
 3251SOL     OW10651   3.712   0.731   2.138
 3251SOL    HW110652   3.714   0.714   2.039
 3251SOL    HW210653   3.670   0.820   2.155
 3252SOL     OW10654   2.642   1.979   2.152
 3252SOL    HW110655   2.667   2.065   2.107
 3252SOL    HW210656   2.568   1.995   2.216
 3253SOL     OW10657   5.978   3.366   2.736
 3253SOL    HW110658   6.075   3.373   2.760
 3253SOL    HW210659   5.954   3.270   2.724
 3254SOL     OW10660   4.863   5.630   6.093
 3254SOL    HW110661   4.897   5.580   6.014
 3254SOL    HW210662   4.813   5.711   6.063
 3255SOL     OW10663   4.985   6.074   1.696
 3255SOL    HW110664   5.023   5.982   1.705
 3255SOL    HW210665   5.035   6.137   1.757
 3256SOL     OW10666   5.003   0.704   0.384
 3256SOL    HW110667   4.962   0.686   0.294
 3256SOL    HW210668   4.931   0.704   0.454
 3257SOL     OW10669   1.524   2.121   1.331
 3257SOL    HW110670   1.574   2.100   1.415
 3257SOL    HW210671   1.425   2.116   1.349
 3258SOL     OW10672   3.856   4.899   1.987
 3258SOL    HW110673   3.762   4.910   1.955
 3258SOL    HW210674   3.892   4.812   1.954
 3259SOL     OW10675   4.482   5.868   3.717
 3259SOL    HW110676   4.562   5.928   3.721
 3259SOL    HW210677   4.414   5.907   3.655
 3260SOL     OW10678   1.842   1.761   1.109
 3260SOL    HW110679   1.860   1.851   1.070
 3260SOL    HW210680   1.762   1.721   1.064
 3261SOL     OW10681   4.703   6.503   0.566
 3261SOL    HW110682   4.665   6.435   0.504
 3261SOL    HW210683   4.803   6.502   0.561
 3262SOL     OW10684   3.377   2.117   2.849
 3262SOL    HW110685   3.350   2.138   2.943
 3262SOL    HW210686   3.301   2.135   2.787
 3263SOL     OW10687   3.445   1.451   4.187
 3263SOL    HW110688   3.522   1.489   4.238
 3263SOL    HW210689   3.463   1.458   4.089
 3264SOL     OW10690   1.171   4.314   0.957
 3264SOL    HW110691   1.256   4.265   0.977
 3264SOL    HW210692   1.097   4.248   0.948
 3265SOL     OW10693   4.543   1.857   5.730
 3265SOL    HW110694   4.608   1.807   5.787
 3265SOL    HW210695   4.591   1.925   5.675
 3266SOL     OW10696   0.695   2.966   0.231
 3266SOL    HW110697   0.665   2.898   0.163
 3266SOL    HW210698   0.755   2.922   0.297
 3267SOL     OW10699   4.175   1.099   0.134
 3267SOL    HW110700   4.179   1.076   0.231
 3267SOL    HW210701   4.149   1.195   0.124
 3268SOL     OW10702   1.701   4.575   0.291
 3268SOL    HW110703   1.751   4.536   0.369
 3268SOL    HW210704   1.661   4.662   0.318
 3269SOL     OW10705   4.185   4.942   1.364
 3269SOL    HW110706   4.114   4.922   1.296
 3269SOL    HW210707   4.242   4.862   1.379
 3270SOL     OW10708   1.466   4.590   5.535
 3270SOL    HW110709   1.520   4.508   5.555
 3270SOL    HW210710   1.522   4.658   5.489
 3271SOL     OW10711   5.395   3.942   3.094
 3271SOL    HW110712   5.490   3.966   3.075
 3271SOL    HW210713   5.334   3.995   3.035
 3272SOL     OW10714   3.651   3.824   6.768
 3272SOL    HW110715   3.552   3.814   6.772
 3272SOL    HW210716   3.688   3.763   6.697
 3273SOL     OW10717   0.503   6.038   2.258
 3273SOL    HW110718   0.427   6.065   2.316
 3273SOL    HW210719   0.524   6.112   2.194
 3274SOL     OW10720   3.700   1.400   1.094
 3274SOL    HW110721   3.691   1.383   1.192
 3274SOL    HW210722   3.787   1.447   1.076
 3275SOL     OW10723   0.829   0.780   6.464
 3275SOL    HW110724   0.739   0.784   6.420
 3275SOL    HW210725   0.887   0.715   6.414
 3276SOL     OW10726   3.591   5.599   0.078
 3276SOL    HW110727   3.642   5.513   0.087
 3276SOL    HW210728   3.655   5.676   0.085
 3277SOL     OW10729   5.195   0.128   6.909
 3277SOL    HW110730   5.270   0.090   6.964
 3277SOL    HW210731   5.110   0.082   6.933
 3278SOL     OW10732   0.242   0.989   5.877
 3278SOL    HW110733   0.173   1.053   5.845
 3278SOL    HW210734   0.204   0.896   5.879
 3279SOL     OW10735   6.973   0.740   1.046
 3279SOL    HW110736   6.898   0.744   1.112
 3279SOL    HW210737   6.937   0.756   0.954
 3280SOL     OW10738   3.699   4.821   5.570
 3280SOL    HW110739   3.692   4.832   5.669
 3280SOL    HW210740   3.645   4.892   5.525
 3281SOL     OW10741   1.978   5.547   0.617
 3281SOL    HW110742   1.904   5.587   0.672
 3281SOL    HW210743   1.964   5.449   0.608
 3282SOL     OW10744   1.485   5.349   4.480
 3282SOL    HW110745   1.453   5.292   4.405
 3282SOL    HW210746   1.577   5.383   4.459
 3283SOL     OW10747   3.331   1.387   1.019
 3283SOL    HW110748   3.366   1.403   1.111
 3283SOL    HW210749   3.407   1.363   0.958
 3284SOL     OW10750   6.095   6.150   6.790
 3284SOL    HW110751   6.072   6.118   6.698
 3284SOL    HW210752   6.191   6.176   6.794
 3285SOL     OW10753   5.832   2.997   3.165
 3285SOL    HW110754   5.793   2.909   3.192
 3285SOL    HW210755   5.763   3.051   3.119
 3286SOL     OW10756   4.063   3.665   2.871
 3286SOL    HW110757   3.978   3.614   2.876
 3286SOL    HW210758   4.089   3.695   2.963
 3287SOL     OW10759   1.728   5.954   0.226
 3287SOL    HW110760   1.647   5.971   0.170
 3287SOL    HW210761   1.739   6.030   0.291
 3288SOL     OW10762   0.710   5.535   6.549
 3288SOL    HW110763   0.736   5.533   6.452
 3288SOL    HW210764   0.769   5.598   6.599
 3289SOL     OW10765   2.270   6.853   5.192
 3289SOL    HW110766   2.273   6.762   5.233
 3289SOL    HW210767   2.207   6.911   5.245
 3290SOL     OW10768   0.251   6.694   1.725
 3290SOL    HW110769   0.223   6.754   1.800
 3290SOL    HW210770   0.344   6.718   1.697
 3291SOL     OW10771   0.961   5.845   0.098
 3291SOL    HW110772   0.986   5.854   0.002
 3291SOL    HW210773   0.878   5.899   0.115
 3292SOL     OW10774   0.514   0.822   6.856
 3292SOL    HW110775   0.447   0.865   6.916
 3292SOL    HW210776   0.582   0.889   6.828
 3293SOL     OW10777   6.863   3.384   3.401
 3293SOL    HW110778   6.792   3.314   3.397
 3293SOL    HW210779   6.855   3.444   3.321
 3294SOL     OW10780   0.541   1.374   6.349
 3294SOL    HW110781   0.609   1.357   6.278
 3294SOL    HW210782   0.578   1.437   6.417
 3295SOL     OW10783   1.646   3.282   2.314
 3295SOL    HW110784   1.604   3.371   2.296
 3295SOL    HW210785   1.735   3.278   2.268
 3296SOL     OW10786   2.016   6.291   1.755
 3296SOL    HW110787   1.980   6.289   1.662
 3296SOL    HW210788   2.007   6.201   1.797
 3297SOL     OW10789   3.017   7.013   4.782
 3297SOL    HW110790   3.043   0.015   4.689
 3297SOL    HW210791   2.921   0.012   4.797
 3298SOL     OW10792   6.159   1.959   3.997
 3298SOL    HW110793   6.085   2.025   3.989
 3298SOL    HW210794   6.206   1.972   4.085
 3299SOL     OW10795   1.837   6.411   4.159
 3299SOL    HW110796   1.808   6.454   4.073
 3299SOL    HW210797   1.922   6.454   4.190
 3300SOL     OW10798   0.664   0.654   6.141
 3300SOL    HW110799   0.617   0.670   6.228
 3300SOL    HW210800   0.597   0.626   6.072
 3301SOL     OW10801   2.140   3.351   3.551
 3301SOL    HW110802   2.175   3.416   3.618
 3301SOL    HW210803   2.111   3.399   3.469
 3302SOL     OW10804   1.445   5.921   5.752
 3302SOL    HW110805   1.380   5.966   5.690
 3302SOL    HW210806   1.536   5.958   5.737
 3303SOL     OW10807   3.728   3.034   1.597
 3303SOL    HW110808   3.736   2.956   1.659
 3303SOL    HW210809   3.641   3.029   1.547
 3304SOL     OW10810   1.859   5.453   3.947
 3304SOL    HW110811   1.851   5.369   4.000
 3304SOL    HW210812   1.824   5.530   3.999
 3305SOL     OW10813   2.322   1.366   3.280
 3305SOL    HW110814   2.243   1.410   3.239
 3305SOL    HW210815   2.401   1.427   3.276
 3306SOL     OW10816   2.236   5.525   3.645
 3306SOL    HW110817   2.159   5.586   3.626
 3306SOL    HW210818   2.209   5.455   3.710
 3307SOL     OW10819   6.945   5.875   6.340
 3307SOL    HW110820   6.876   5.947   6.329
 3307SOL    HW210821   0.007   5.905   6.297
 3308SOL     OW10822   4.336   6.040   6.858
 3308SOL    HW110823   4.403   5.992   6.801
 3308SOL    HW210824   4.369   6.042   6.953
 3309SOL     OW10825   1.132   5.044   2.514
 3309SOL    HW110826   1.061   5.111   2.492
 3309SOL    HW210827   1.097   4.981   2.583
 3310SOL     OW10828   6.363   4.146   5.033
 3310SOL    HW110829   6.381   4.244   5.033
 3310SOL    HW210830   6.264   4.130   5.026
 3311SOL     OW10831   2.221   4.256   2.003
 3311SOL    HW110832   2.246   4.173   1.952
 3311SOL    HW210833   2.229   4.335   1.943
 3312SOL     OW10834   3.627   4.411   5.767
 3312SOL    HW110835   3.556   4.442   5.704
 3312SOL    HW210836   3.687   4.488   5.790
 3313SOL     OW10837   0.081   5.532   2.365
 3313SOL    HW110838   0.041   5.554   2.275
 3313SOL    HW210839   0.022   5.467   2.413
 3314SOL     OW10840   1.780   1.724   4.462
 3314SOL    HW110841   1.757   1.762   4.372
 3314SOL    HW210842   1.801   1.626   4.452
 3315SOL     OW10843   6.456   3.774   4.193
 3315SOL    HW110844   6.541   3.723   4.184
 3315SOL    HW210845   6.469   3.868   4.162
 3316SOL     OW10846   3.759   1.415   6.151
 3316SOL    HW110847   3.756   1.414   6.251
 3316SOL    HW210848   3.673   1.452   6.116
 3317SOL     OW10849   4.833   3.265   1.840
 3317SOL    HW110850   4.865   3.252   1.746
 3317SOL    HW210851   4.762   3.198   1.861
 3318SOL     OW10852   2.950   0.139   0.687
 3318SOL    HW110853   2.893   0.065   0.651
 3318SOL    HW210854   2.901   0.187   0.759
 3319SOL     OW10855   6.150   6.996   4.614
 3319SOL    HW110856   6.081   6.963   4.678
 3319SOL    HW210857   6.106   0.002   4.530
 3320SOL     OW10858   5.605   1.029   5.399
 3320SOL    HW110859   5.610   1.107   5.461
 3320SOL    HW210860   5.662   0.955   5.435
 3321SOL     OW10861   3.580   2.212   1.681
 3321SOL    HW110862   3.628   2.264   1.752
 3321SOL    HW210863   3.580   2.264   1.596
 3322SOL     OW10864   5.366   3.451   1.464
 3322SOL    HW110865   5.302   3.482   1.394
 3322SOL    HW210866   5.436   3.393   1.421
 3323SOL     OW10867   2.327   4.234   6.338
 3323SOL    HW110868   2.284   4.151   6.375
 3323SOL    HW210869   2.418   4.244   6.378
 3324SOL     OW10870   1.124   4.105   6.368
 3324SOL    HW110871   1.048   4.070   6.313
 3324SOL    HW210872   1.129   4.054   6.454
 3325SOL     OW10873   2.184   2.833   6.448
 3325SOL    HW110874   2.183   2.783   6.535
 3325SOL    HW210875   2.214   2.927   6.464
 3326SOL     OW10876   5.897   1.486   2.252
 3326SOL    HW110877   5.841   1.405   2.234
 3326SOL    HW210878   5.877   1.521   2.344
 3327SOL     OW10879   3.492   6.541   1.874
 3327SOL    HW110880   3.554   6.541   1.952
 3327SOL    HW210881   3.506   6.458   1.819
 3328SOL     OW10882   4.130   1.932   2.484
 3328SOL    HW110883   4.120   2.031   2.477
 3328SOL    HW210884   4.173   1.896   2.401
 3329SOL     OW10885   5.096   0.658   4.437
 3329SOL    HW110886   5.162   0.630   4.507
 3329SOL    HW210887   5.137   0.731   4.381
 3330SOL     OW10888   6.253   6.351   1.266
 3330SOL    HW110889   6.278   6.419   1.336
 3330SOL    HW210890   6.226   6.399   1.182
 3331SOL     OW10891   0.861   3.761   2.197
 3331SOL    HW110892   0.765   3.771   2.169
 3331SOL    HW210893   0.869   3.779   2.295
 3332SOL     OW10894   6.424   4.307   0.459
 3332SOL    HW110895   6.506   4.282   0.510
 3332SOL    HW210896   6.425   4.405   0.440
 3333SOL     OW10897   3.067   3.815   6.777
 3333SOL    HW110898   2.984   3.781   6.821
 3333SOL    HW210899   3.100   3.896   6.826
 3334SOL     OW10900   2.099   3.661   2.485
 3334SOL    HW110901   2.110   3.700   2.393
 3334SOL    HW210902   2.133   3.567   2.485
 3335SOL     OW10903   4.590   6.987   6.356
 3335SOL    HW110904   4.609   6.958   6.450
 3335SOL    HW210905   4.567   6.907   6.300
 3336SOL     OW10906   1.979   6.534   4.360
 3336SOL    HW110907   1.896   6.590   4.363
 3336SOL    HW210908   1.969   6.455   4.420
 3337SOL     OW10909   2.759   4.096   1.228
 3337SOL    HW110910   2.812   4.126   1.308
 3337SOL    HW210911   2.722   4.005   1.245
 3338SOL     OW10912   0.059   2.612   1.176
 3338SOL    HW110913   0.047   2.700   1.221
 3338SOL    HW210914   0.152   2.606   1.139
 3339SOL     OW10915   1.357   6.938   6.652
 3339SOL    HW110916   1.274   6.903   6.694
 3339SOL    HW210917   1.395   6.868   6.590
 3340SOL     OW10918   3.411   1.021   3.765
 3340SOL    HW110919   3.446   0.938   3.722
 3340SOL    HW210920   3.403   1.094   3.697
 3341SOL     OW10921   1.885   4.528   3.920
 3341SOL    HW110922   1.932   4.440   3.905
 3341SOL    HW210923   1.952   4.597   3.945
 3342SOL     OW10924   1.314   7.009   3.642
 3342SOL    HW110925   1.238   6.991   3.706
 3342SOL    HW210926   1.334   6.927   3.590
 3343SOL     OW10927   5.367   4.506   6.845
 3343SOL    HW110928   5.380   4.553   6.757
 3343SOL    HW210929   5.283   4.539   6.887
 3344SOL     OW10930   5.909   3.849   4.264
 3344SOL    HW110931   5.810   3.863   4.262
 3344SOL    HW210932   5.955   3.936   4.247
 3345SOL     OW10933   1.235   4.568   6.343
 3345SOL    HW110934   1.224   4.492   6.407
 3345SOL    HW210935   1.218   4.535   6.250
 3346SOL     OW10936   0.840   0.742   0.071
 3346SOL    HW110937   0.808   0.822   0.021
 3346SOL    HW210938   0.863   0.669   0.007
 3347SOL     OW10939   1.152   3.266   6.198
 3347SOL    HW110940   1.115   3.180   6.166
 3347SOL    HW210941   1.250   3.256   6.215
 3348SOL     OW10942   4.122   3.403   4.696
 3348SOL    HW110943   4.023   3.390   4.685
 3348SOL    HW210944   4.147   3.386   4.792
 3349SOL     OW10945   2.152   5.017   2.980
 3349SOL    HW110946   2.184   5.111   2.967
 3349SOL    HW210947   2.192   4.958   2.909
 3350SOL     OW10948   0.176   2.912   5.468
 3350SOL    HW110949   0.208   2.818   5.482
 3350SOL    HW210950   0.254   2.972   5.452
 3351SOL     OW10951   4.688   1.233   1.838
 3351SOL    HW110952   4.780   1.227   1.800
 3351SOL    HW210953   4.656   1.142   1.863
 3352SOL     OW10954   6.318   2.383   0.922
 3352SOL    HW110955   6.231   2.430   0.903
 3352SOL    HW210956   6.391   2.450   0.927
 3353SOL     OW10957   3.366   5.890   1.573
 3353SOL    HW110958   3.276   5.915   1.609
 3353SOL    HW210959   3.358   5.810   1.513
 3354SOL     OW10960   4.429   2.567   5.466
 3354SOL    HW110961   4.365   2.536   5.537
 3354SOL    HW210962   4.394   2.650   5.424
 3355SOL     OW10963   1.820   1.748   5.670
 3355SOL    HW110964   1.789   1.778   5.760
 3355SOL    HW210965   1.772   1.800   5.599
 3356SOL     OW10966   0.661   5.681   5.924
 3356SOL    HW110967   0.686   5.721   5.836
 3356SOL    HW210968   0.593   5.608   5.910
 3357SOL     OW10969   3.022   3.341   2.094
 3357SOL    HW110970   3.116   3.346   2.060
 3357SOL    HW210971   2.995   3.245   2.102
 3358SOL     OW10972   4.682   1.489   2.772
 3358SOL    HW110973   4.698   1.548   2.692
 3358SOL    HW210974   4.584   1.477   2.785
 3359SOL     OW10975   0.290   6.032   3.039
 3359SOL    HW110976   0.278   5.984   2.952
 3359SOL    HW210977   0.339   5.973   3.103
 3360SOL     OW10978   1.090   1.485   6.585
 3360SOL    HW110979   1.128   1.440   6.504
 3360SOL    HW210980   1.079   1.582   6.566
 3361SOL     OW10981   7.001   5.542   4.632
 3361SOL    HW110982   0.024   5.455   4.617
 3361SOL    HW210983   6.979   5.584   4.544
 3362SOL     OW10984   3.518   1.669   2.510
 3362SOL    HW110985   3.438   1.729   2.513
 3362SOL    HW210986   3.490   1.576   2.486
 3363SOL     OW10987   6.916   2.032   1.414
 3363SOL    HW110988   6.924   2.131   1.403
 3363SOL    HW210989   6.936   1.987   1.327
 3364SOL     OW10990   2.325   4.583   3.743
 3364SOL    HW110991   2.230   4.575   3.771
 3364SOL    HW210992   2.376   4.634   3.812
 3365SOL     OW10993   6.578   3.139   4.951
 3365SOL    HW110994   6.508   3.196   4.993
 3365SOL    HW210995   6.668   3.182   4.963
 3366SOL     OW10996   5.351   4.648   4.391
 3366SOL    HW110997   5.335   4.588   4.469
 3366SOL    HW210998   5.401   4.729   4.421
 3367SOL     OW10999   3.914   3.914   2.870
 3367SOL    HW111000   3.868   3.909   2.959
 3367SOL    HW211001   3.989   3.847   2.867
 3368SOL     OW11002   0.216   5.542   6.682
 3368SOL    HW111003   0.263   5.528   6.595
 3368SOL    HW211004   0.246   5.628   6.723
 3369SOL     OW11005   4.020   2.075   0.952
 3369SOL    HW111006   3.968   2.033   1.026
 3369SOL    HW211007   3.959   2.090   0.874
 3370SOL     OW11008   6.841   6.569   1.447
 3370SOL    HW111009   6.939   6.567   1.466
 3370SOL    HW211010   6.813   6.482   1.406
 3371SOL     OW11011   2.236   3.218   1.857
 3371SOL    HW111012   2.266   3.309   1.887
 3371SOL    HW211013   2.295   3.186   1.784
 3372SOL     OW11014   6.934   2.159   0.197
 3372SOL    HW111015   6.958   2.191   0.288
 3372SOL    HW211016   6.957   2.062   0.188
 3373SOL     OW11017   0.074   2.378   4.048
 3373SOL    HW111018   0.123   2.346   4.129
 3373SOL    HW211019   0.120   2.458   4.009
 3374SOL     OW11020   0.857   6.580   4.054
 3374SOL    HW111021   0.799   6.498   4.056
 3374SOL    HW211022   0.925   6.574   4.127
 3375SOL     OW11023   6.984   4.829   0.572
 3375SOL    HW111024   6.887   4.826   0.546
 3375SOL    HW211025   6.993   4.862   0.666
 3376SOL     OW11026   3.374   2.936   4.783
 3376SOL    HW111027   3.344   2.862   4.844
 3376SOL    HW211028   3.295   2.991   4.758
 3377SOL     OW11029   0.179   5.343   5.947
 3377SOL    HW111030   0.085   5.326   5.918
 3377SOL    HW211031   0.183   5.343   6.047
 3378SOL     OW11032   1.503   6.513   0.095
 3378SOL    HW111033   1.499   6.462   0.181
 3378SOL    HW211034   1.568   6.588   0.104
 3379SOL     OW11035   0.753   2.226   4.906
 3379SOL    HW111036   0.795   2.305   4.862
 3379SOL    HW211037   0.653   2.233   4.898
 3380SOL     OW11038   4.680   6.593   5.401
 3380SOL    HW111039   4.622   6.530   5.349
 3380SOL    HW211040   4.660   6.584   5.498
 3381SOL     OW11041   6.631   2.728   0.909
 3381SOL    HW111042   6.687   2.795   0.957
 3381SOL    HW211043   6.593   2.663   0.974
 3382SOL     OW11044   0.629   2.658   6.240
 3382SOL    HW111045   0.680   2.678   6.324
 3382SOL    HW211046   0.546   2.713   6.238
 3383SOL     OW11047   3.570   5.232   0.783
 3383SOL    HW111048   3.538   5.327   0.780
 3383SOL    HW211049   3.580   5.197   0.690
 3384SOL     OW11050   1.650   3.464   0.854
 3384SOL    HW111051   1.615   3.372   0.872
 3384SOL    HW211052   1.749   3.462   0.845
 3385SOL     OW11053   6.822   3.731   4.575
 3385SOL    HW111054   6.889   3.744   4.502
 3385SOL    HW211055   6.746   3.794   4.563
 3386SOL     OW11056   5.380   3.889   6.834
 3386SOL    HW111057   5.353   3.965   6.775
 3386SOL    HW211058   5.319   3.811   6.818
 3387SOL     OW11059   4.655   0.011   3.543
 3387SOL    HW111060   4.628   6.977   3.621
 3387SOL    HW211061   4.603   0.096   3.545
 3388SOL     OW11062   5.968   3.324   2.290
 3388SOL    HW111063   5.918   3.332   2.377
 3388SOL    HW211064   5.912   3.276   2.224
 3389SOL     OW11065   6.561   5.952   5.753
 3389SOL    HW111066   6.527   5.928   5.662
 3389SOL    HW211067   6.490   6.001   5.803
 3390SOL     OW11068   5.116   0.201   5.971
 3390SOL    HW111069   5.103   0.154   5.884
 3390SOL    HW211070   5.159   0.290   5.955
 3391SOL     OW11071   4.739   2.466   3.652
 3391SOL    HW111072   4.783   2.509   3.573
 3391SOL    HW211073   4.808   2.418   3.707
 3392SOL     OW11074   3.540   6.215   4.271
 3392SOL    HW111075   3.472   6.156   4.228
 3392SOL    HW211076   3.527   6.215   4.370
 3393SOL     OW11077   6.174   6.082   0.645
 3393SOL    HW111078   6.255   6.117   0.599
 3393SOL    HW211079   6.186   6.090   0.744
 3394SOL     OW11080   5.090   3.895   0.942
 3394SOL    HW111081   5.000   3.909   0.983
 3394SOL    HW211082   5.124   3.982   0.905
 3395SOL     OW11083   5.106   2.535   3.076
 3395SOL    HW111084   5.162   2.468   3.124
 3395SOL    HW211085   5.014   2.537   3.116
 3396SOL     OW11086   5.792   0.891   3.687
 3396SOL    HW111087   5.825   0.814   3.633
 3396SOL    HW211088   5.814   0.976   3.640
 3397SOL     OW11089   3.379   4.793   6.524
 3397SOL    HW111090   3.470   4.774   6.560
 3397SOL    HW211091   3.347   4.714   6.471
 3398SOL     OW11092   1.515   0.542   4.807
 3398SOL    HW111093   1.546   0.498   4.891
 3398SOL    HW211094   1.557   0.632   4.799
 3399SOL     OW11095   5.415   5.354   3.332
 3399SOL    HW111096   5.514   5.359   3.318
 3399SOL    HW211097   5.372   5.318   3.250
 3400SOL     OW11098   5.455   3.455   6.816
 3400SOL    HW111099   5.473   3.518   6.891
 3400SOL    HW211100   5.493   3.365   6.838
 3401SOL     OW11101   6.497   4.069   6.636
 3401SOL    HW111102   6.492   3.972   6.659
 3401SOL    HW211103   6.447   4.085   6.550
 3402SOL     OW11104   5.508   5.978   6.384
 3402SOL    HW111105   5.520   6.006   6.479
 3402SOL    HW211106   5.553   6.043   6.324
 3403SOL     OW11107   5.077   5.165   6.701
 3403SOL    HW111108   5.051   5.216   6.619
 3403SOL    HW211109   5.066   5.223   6.782
 3404SOL     OW11110   5.082   2.418   0.711
 3404SOL    HW111111   5.135   2.355   0.769
 3404SOL    HW211112   4.999   2.373   0.679
 3405SOL     OW11113   5.795   4.133   6.570
 3405SOL    HW111114   5.881   4.183   6.573
 3405SOL    HW211115   5.802   4.050   6.625
 3406SOL     OW11116   1.018   3.143   2.446
 3406SOL    HW111117   0.994   3.230   2.489
 3406SOL    HW211118   1.014   3.152   2.347
 3407SOL     OW11119   1.741   4.294   0.155
 3407SOL    HW111120   1.773   4.366   0.217
 3407SOL    HW211121   1.658   4.325   0.107
 3408SOL     OW11122   4.932   2.578   4.466
 3408SOL    HW111123   4.894   2.544   4.552
 3408SOL    HW211124   4.861   2.627   4.415
 3409SOL     OW11125   4.101   6.168   0.290
 3409SOL    HW111126   4.010   6.127   0.280
 3409SOL    HW211127   4.170   6.105   0.255
 3410SOL     OW11128   6.585   6.570   1.872
 3410SOL    HW111129   6.516   6.635   1.841
 3410SOL    HW211130   6.640   6.540   1.794
 3411SOL     OW11131   0.501   3.010   0.408
 3411SOL    HW111132   0.546   3.005   0.319
 3411SOL    HW211133   0.530   2.932   0.464
 3412SOL     OW11134   5.044   3.649   1.681
 3412SOL    HW111135   5.101   3.566   1.684
 3412SOL    HW211136   4.957   3.627   1.638
 3413SOL     OW11137   6.106   1.245   0.881
 3413SOL    HW111138   6.144   1.160   0.842
 3413SOL    HW211139   6.042   1.221   0.954
 3414SOL     OW11140   3.462   1.856   5.754
 3414SOL    HW111141   3.415   1.779   5.710
 3414SOL    HW211142   3.553   1.828   5.784
 3415SOL     OW11143   1.981   2.356   4.106
 3415SOL    HW111144   1.915   2.309   4.165
 3415SOL    HW211145   1.971   2.323   4.013
 3416SOL     OW11146   5.235   0.318   0.263
 3416SOL    HW111147   5.330   0.333   0.290
 3416SOL    HW211148   5.224   0.340   0.166
 3417SOL     OW11149   0.268   6.309   4.362
 3417SOL    HW111150   0.261   6.259   4.275
 3417SOL    HW211151   0.363   6.339   4.375
 3418SOL     OW11152   4.063   5.774   3.355
 3418SOL    HW111153   4.068   5.683   3.313
 3418SOL    HW211154   3.967   5.800   3.366
 3419SOL     OW11155   3.414   5.273   6.028
 3419SOL    HW111156   3.351   5.346   6.001
 3419SOL    HW211157   3.507   5.309   6.033
 3420SOL     OW11158   5.887   3.520   3.457
 3420SOL    HW111159   5.907   3.617   3.466
 3420SOL    HW211160   5.970   3.470   3.432
 3421SOL     OW11161   4.994   1.729   3.594
 3421SOL    HW111162   4.943   1.814   3.583
 3421SOL    HW211163   5.074   1.730   3.534
 3422SOL     OW11164   2.360   0.323   0.230
 3422SOL    HW111165   2.307   0.332   0.146
 3422SOL    HW211166   2.310   0.365   0.306
 3423SOL     OW11167   0.158   4.880   6.318
 3423SOL    HW111168   0.064   4.915   6.309
 3423SOL    HW211169   0.191   4.850   6.228
 3424SOL     OW11170   2.811   6.546   1.174
 3424SOL    HW111171   2.833   6.488   1.252
 3424SOL    HW211172   2.761   6.627   1.205
 3425SOL     OW11173   5.028   4.734   2.702
 3425SOL    HW111174   4.969   4.813   2.685
 3425SOL    HW211175   4.975   4.661   2.745
 3426SOL     OW11176   5.018   2.766   1.366
 3426SOL    HW111177   4.924   2.743   1.338
 3426SOL    HW211178   5.045   2.710   1.443
 3427SOL     OW11179   0.912   2.139   1.367
 3427SOL    HW111180   0.905   2.058   1.309
 3427SOL    HW211181   0.876   2.119   1.458
 3428SOL     OW11182   3.692   4.450   0.334
 3428SOL    HW111183   3.644   4.362   0.336
 3428SOL    HW211184   3.765   4.450   0.402
 3429SOL     OW11185   0.616   2.067   1.189
 3429SOL    HW111186   0.538   2.019   1.148
 3429SOL    HW211187   0.692   2.003   1.202
 3430SOL     OW11188   2.415   5.412   5.401
 3430SOL    HW111189   2.376   5.465   5.476
 3430SOL    HW211190   2.512   5.435   5.392
 3431SOL     OW11191   1.698   6.039   1.923
 3431SOL    HW111192   1.677   6.110   1.855
 3431SOL    HW211193   1.718   6.082   2.011
 3432SOL     OW11194   2.432   4.496   6.100
 3432SOL    HW111195   2.488   4.572   6.133
 3432SOL    HW211196   2.440   4.490   6.000
 3433SOL     OW11197   1.190   0.928   4.916
 3433SOL    HW111198   1.276   0.979   4.927
 3433SOL    HW211199   1.156   0.902   5.006
 3434SOL     OW11200   3.526   1.689   1.790
 3434SOL    HW111201   3.540   1.778   1.747
 3434SOL    HW211202   3.476   1.630   1.727
 3435SOL     OW11203   2.341   1.277   0.981
 3435SOL    HW111204   2.293   1.364   0.978
 3435SOL    HW211205   2.436   1.291   0.953
 3436SOL     OW11206   3.405   5.856   7.010
 3436SOL    HW111207   3.465   5.778   0.006
 3436SOL    HW211208   3.423   5.890   6.918
 3437SOL     OW11209   2.724   5.960   5.909
 3437SOL    HW111210   2.638   5.940   5.861
 3437SOL    HW211211   2.801   5.926   5.855
 3438SOL     OW11212   0.462   3.566   1.506
 3438SOL    HW111213   0.486   3.620   1.587
 3438SOL    HW211214   0.449   3.470   1.534
 3439SOL     OW11215   3.347   6.106   4.139
 3439SOL    HW111216   3.321   6.010   4.123
 3439SOL    HW211217   3.266   6.160   4.158
 3440SOL     OW11218   3.597   3.022   2.340
 3440SOL    HW111219   3.534   3.011   2.263
 3440SOL    HW211220   3.553   3.078   2.410
 3441SOL     OW11221   6.778   6.083   6.306
 3441SOL    HW111222   6.721   6.158   6.340
 3441SOL    HW211223   6.772   6.080   6.206
 3442SOL     OW11224   2.477   3.620   1.391
 3442SOL    HW111225   2.451   3.663   1.477
 3442SOL    HW211226   2.456   3.682   1.315
 3443SOL     OW11227   3.649   6.054   2.167
 3443SOL    HW111228   3.745   6.039   2.192
 3443SOL    HW211229   3.621   6.145   2.197
 3444SOL     OW11230   4.905   5.506   0.234
 3444SOL    HW111231   4.822   5.457   0.212
 3444SOL    HW211232   4.882   5.596   0.272
 3445SOL     OW11233   6.003   5.386   3.075
 3445SOL    HW111234   5.954   5.408   3.159
 3445SOL    HW211235   6.071   5.315   3.093
 3446SOL     OW11236   5.945   0.316   1.266
 3446SOL    HW111237   5.933   0.390   1.333
 3446SOL    HW211238   6.039   0.285   1.268
 3447SOL     OW11239   4.974   6.482   0.653
 3447SOL    HW111240   5.051   6.455   0.595
 3447SOL    HW211241   4.994   6.460   0.748
 3448SOL     OW11242   3.583   6.760   5.970
 3448SOL    HW111243   3.624   6.790   5.884
 3448SOL    HW211244   3.519   6.830   6.003
 3449SOL     OW11245   5.881   5.008   4.694
 3449SOL    HW111246   5.822   5.088   4.685
 3449SOL    HW211247   5.945   5.023   4.770
 3450SOL     OW11248   0.835   2.172   6.481
 3450SOL    HW111249   0.739   2.141   6.480
 3450SOL    HW211250   0.886   2.123   6.411
 3451SOL     OW11251   2.610   6.357   6.997
 3451SOL    HW111252   2.633   6.260   6.984
 3451SOL    HW211253   2.609   6.378   0.071
 3452SOL     OW11254   5.384   0.714   6.513
 3452SOL    HW111255   5.414   0.686   6.422
 3452SOL    HW211256   5.432   0.798   6.540
 3453SOL     OW11257   5.595   5.715   6.346
 3453SOL    HW111258   5.549   5.651   6.408
 3453SOL    HW211259   5.560   5.807   6.362
 3454SOL     OW11260   0.951   3.819   5.062
 3454SOL    HW111261   1.042   3.804   5.100
 3454SOL    HW211262   0.883   3.809   5.134
 3455SOL     OW11263   2.304   1.651   3.860
 3455SOL    HW111264   2.246   1.699   3.794
 3455SOL    HW211265   2.343   1.717   3.924
 3456SOL     OW11266   5.634   4.768   2.320
 3456SOL    HW111267   5.568   4.714   2.372
 3456SOL    HW211268   5.687   4.825   2.382
 3457SOL     OW11269   4.814   5.824   3.996
 3457SOL    HW111270   4.715   5.834   3.992
 3457SOL    HW211271   4.854   5.908   4.034
 3458SOL     OW11272   4.450   1.526   2.418
 3458SOL    HW111273   4.417   1.462   2.348
 3458SOL    HW211274   4.433   1.620   2.388
 3459SOL     OW11275   4.921   2.567   3.457
 3459SOL    HW111276   5.005   2.514   3.445
 3459SOL    HW211277   4.880   2.586   3.368
 3460SOL     OW11278   3.191   1.929   6.658
 3460SOL    HW111279   3.207   1.873   6.577
 3460SOL    HW211280   3.124   2.000   6.638
 3461SOL     OW11281   4.687   3.587   0.053
 3461SOL    HW111282   4.725   3.628   0.136
 3461SOL    HW211283   4.622   3.515   0.078
 3462SOL     OW11284   1.125   4.029   4.986
 3462SOL    HW111285   1.061   3.955   5.005
 3462SOL    HW211286   1.197   3.997   4.925
 3463SOL     OW11287   0.693   4.387   1.199
 3463SOL    HW111288   0.603   4.417   1.170
 3463SOL    HW211289   0.704   4.289   1.180
 3464SOL     OW11290   7.003   4.470   6.896
 3464SOL    HW111291   0.077   4.447   6.888
 3464SOL    HW211292   6.993   4.565   6.925
 3465SOL     OW11293   1.912   2.669   1.941
 3465SOL    HW111294   1.834   2.718   1.981
 3465SOL    HW211295   1.895   2.654   1.843
 3466SOL     OW11296   0.047   4.993   5.998
 3466SOL    HW111297   0.100   4.911   5.977
 3466SOL    HW211298   0.062   5.062   5.927
 3467SOL     OW11299   1.636   2.826   6.128
 3467SOL    HW111300   1.660   2.910   6.080
 3467SOL    HW211301   1.710   2.760   6.119
 3468SOL     OW11302   4.218   6.551   2.703
 3468SOL    HW111303   4.255   6.626   2.650
 3468SOL    HW211304   4.187   6.478   2.642
 3469SOL     OW11305   6.101   1.402   2.519
 3469SOL    HW111306   6.035   1.423   2.592
 3469SOL    HW211307   6.127   1.487   2.473
 3470SOL     OW11308   6.975   4.466   0.611
 3470SOL    HW111309   6.997   4.432   0.702
 3470SOL    HW211310   6.880   4.445   0.589
 3471SOL     OW11311   4.259   5.218   4.768
 3471SOL    HW111312   4.223   5.309   4.749
 3471SOL    HW211313   4.255   5.200   4.866
 3472SOL     OW11314   2.231   0.463   2.828
 3472SOL    HW111315   2.254   0.427   2.918
 3472SOL    HW211316   2.299   0.432   2.761
 3473SOL     OW11317   6.454   1.583   6.607
 3473SOL    HW111318   6.470   1.485   6.619
 3473SOL    HW211319   6.521   1.635   6.659
 3474SOL     OW11320   3.154   5.248   2.100
 3474SOL    HW111321   3.169   5.254   2.198
 3474SOL    HW211322   3.218   5.182   2.060
 3475SOL     OW11323   1.189   6.304   4.751
 3475SOL    HW111324   1.119   6.344   4.693
 3475SOL    HW211325   1.274   6.293   4.698
 3476SOL     OW11326   3.419   1.465   3.230
 3476SOL    HW111327   3.332   1.437   3.190
 3476SOL    HW211328   3.491   1.455   3.162
 3477SOL     OW11329   3.344   5.692   1.377
 3477SOL    HW111330   3.286   5.616   1.408
 3477SOL    HW211331   3.428   5.656   1.337
 3478SOL     OW11332   2.670   5.490   5.405
 3478SOL    HW111333   2.700   5.545   5.483
 3478SOL    HW211334   2.737   5.417   5.388
 3479SOL     OW11335   0.739   0.483   3.475
 3479SOL    HW111336   0.768   0.390   3.454
 3479SOL    HW211337   0.681   0.481   3.557
 3480SOL     OW11338   7.013   0.403   4.889
 3480SOL    HW111339   0.030   0.495   4.891
 3480SOL    HW211340   0.022   0.355   4.808
 3481SOL     OW11341   4.526   0.235   0.114
 3481SOL    HW111342   4.503   0.262   0.207
 3481SOL    HW211343   4.483   0.299   0.049
 3482SOL     OW11344   5.591   1.672   0.791
 3482SOL    HW111345   5.681   1.715   0.788
 3482SOL    HW211346   5.538   1.711   0.866
 3483SOL     OW11347   3.353   0.980   1.567
 3483SOL    HW111348   3.325   1.022   1.481
 3483SOL    HW211349   3.394   1.048   1.627
 3484SOL     OW11350   2.868   3.639   1.856
 3484SOL    HW111351   2.952   3.611   1.810
 3484SOL    HW211352   2.808   3.685   1.791
 3485SOL     OW11353   1.329   0.357   4.737
 3485SOL    HW111354   1.379   0.288   4.685
 3485SOL    HW211355   1.382   0.441   4.740
 3486SOL     OW11356   3.156   1.351   2.562
 3486SOL    HW111357   3.072   1.298   2.550
 3486SOL    HW211358   3.191   1.377   2.472
 3487SOL     OW11359   5.941   2.063   6.083
 3487SOL    HW111360   6.024   2.025   6.125
 3487SOL    HW211361   5.932   2.159   6.108
 3488SOL     OW11362   5.560   2.742   4.393
 3488SOL    HW111363   5.564   2.831   4.348
 3488SOL    HW211364   5.649   2.697   4.385
 3489SOL     OW11365   3.057   6.555   0.768
 3489SOL    HW111366   3.000   6.501   0.706
 3489SOL    HW211367   3.078   6.643   0.726
 3490SOL     OW11368   4.707   4.434   6.667
 3490SOL    HW111369   4.703   4.403   6.762
 3490SOL    HW211370   4.646   4.513   6.655
 3491SOL     OW11371   5.906   2.925   4.118
 3491SOL    HW111372   5.948   2.962   4.202
 3491SOL    HW211373   5.863   3.000   4.067
 3492SOL     OW11374   0.909   5.836   1.169
 3492SOL    HW111375   0.941   5.928   1.193
 3492SOL    HW211376   0.810   5.832   1.180
 3493SOL     OW11377   6.431   5.308   6.926
 3493SOL    HW111378   6.387   5.393   6.898
 3493SOL    HW211379   6.360   5.239   6.944
 3494SOL     OW11380   4.012   0.364   1.445
 3494SOL    HW111381   3.977   0.325   1.360
 3494SOL    HW211382   3.940   0.417   1.489
 3495SOL     OW11383   4.307   4.705   2.271
 3495SOL    HW111384   4.357   4.625   2.238
 3495SOL    HW211385   4.369   4.765   2.322
 3496SOL     OW11386   0.527   3.023   1.489
 3496SOL    HW111387   0.441   2.976   1.468
 3496SOL    HW211388   0.541   3.024   1.588
 3497SOL     OW11389   4.101   0.107   2.911
 3497SOL    HW111390   4.031   0.084   2.979
 3497SOL    HW211391   4.081   0.196   2.871
 3498SOL     OW11392   2.631   2.491   0.286
 3498SOL    HW111393   2.644   2.412   0.227
 3498SOL    HW211394   2.693   2.565   0.257
 3499SOL     OW11395   5.249   2.549   4.606
 3499SOL    HW111396   5.168   2.575   4.554
 3499SOL    HW211397   5.312   2.500   4.547
 3500SOL     OW11398   0.304   4.273   5.273
 3500SOL    HW111399   0.362   4.206   5.226
 3500SOL    HW211400   0.283   4.241   5.365
 3501SOL     OW11401   0.568   5.367   4.256
 3501SOL    HW111402   0.480   5.349   4.301
 3501SOL    HW211403   0.643   5.347   4.319
 3502SOL     OW11404   0.043   2.640   2.142
 3502SOL    HW111405   6.966   2.636   2.140
 3502SOL    HW211406   0.074   2.724   2.098
 3503SOL     OW11407   5.612   6.510   5.038
 3503SOL    HW111408   5.556   6.528   5.120
 3503SOL    HW211409   5.618   6.594   4.984
 3504SOL     OW11410   2.617   2.735   1.325
 3504SOL    HW111411   2.552   2.736   1.402
 3504SOL    HW211412   2.567   2.748   1.239
 3505SOL     OW11413   5.764   5.073   4.970
 3505SOL    HW111414   5.748   5.122   5.056
 3505SOL    HW211415   5.862   5.078   4.948
 3506SOL     OW11416   4.462   5.804   5.636
 3506SOL    HW111417   4.489   5.718   5.678
 3506SOL    HW211418   4.521   5.878   5.668
 3507SOL     OW11419   2.165   0.354   0.023
 3507SOL    HW111420   2.141   0.334   6.952
 3507SOL    HW211421   2.120   0.439   0.051
 3508SOL     OW11422   3.987   2.495   6.344
 3508SOL    HW111423   4.050   2.418   6.352
 3508SOL    HW211424   3.986   2.528   6.250
 3509SOL     OW11425   5.004   6.456   6.469
 3509SOL    HW111426   5.101   6.440   6.487
 3509SOL    HW211427   4.974   6.537   6.520
 3510SOL     OW11428   1.966   2.506   1.670
 3510SOL    HW111429   2.042   2.453   1.633
 3510SOL    HW211430   1.884   2.491   1.614
 3511SOL     OW11431   1.778   4.610   0.014
 3511SOL    HW111432   1.869   4.650   7.023
 3511SOL    HW211433   1.754   4.615   0.111
 3512SOL     OW11434   0.459   4.287   0.645
 3512SOL    HW111435   0.431   4.288   0.741
 3512SOL    HW211436   0.557   4.302   0.638
 3513SOL     OW11437   5.795   4.500   0.736
 3513SOL    HW111438   5.713   4.479   0.789
 3513SOL    HW211439   5.802   4.600   0.724
 3514SOL     OW11440   0.490   1.136   1.834
 3514SOL    HW111441   0.435   1.217   1.852
 3514SOL    HW211442   0.454   1.089   1.753
 3515SOL     OW11443   3.982   0.010   2.434
 3515SOL    HW111444   4.015   6.940   2.420
 3515SOL    HW211445   3.946   0.018   2.527
 3516SOL     OW11446   4.353   1.081   0.716
 3516SOL    HW111447   4.304   1.011   0.664
 3516SOL    HW211448   4.420   1.038   0.776
 3517SOL     OW11449   0.534   2.202   0.011
 3517SOL    HW111450   0.553   2.296   7.005
 3517SOL    HW211451   0.619   2.151   0.019
 3518SOL     OW11452   5.006   4.132   5.530
 3518SOL    HW111453   4.954   4.050   5.551
 3518SOL    HW211454   5.053   4.163   5.613
 3519SOL     OW11455   1.773   0.265   6.633
 3519SOL    HW111456   1.766   0.364   6.624
 3519SOL    HW211457   1.770   0.223   6.542
 3520SOL     OW11458   3.191   4.832   0.677
 3520SOL    HW111459   3.195   4.800   0.582
 3520SOL    HW211460   3.103   4.805   0.717
 3521SOL     OW11461   5.537   2.998   1.329
 3521SOL    HW111462   5.568   3.088   1.361
 3521SOL    HW211463   5.558   2.989   1.231
 3522SOL     OW11464   3.827   5.494   2.372
 3522SOL    HW111465   3.791   5.405   2.344
 3522SOL    HW211466   3.921   5.483   2.406
 3523SOL     OW11467   3.071   4.372   5.527
 3523SOL    HW111468   2.999   4.431   5.565
 3523SOL    HW211469   3.137   4.350   5.599
 3524SOL     OW11470   2.491   1.034   1.290
 3524SOL    HW111471   2.496   0.964   1.362
 3524SOL    HW211472   2.412   1.093   1.308
 3525SOL     OW11473   0.737   3.484   2.293
 3525SOL    HW111474   0.784   3.567   2.263
 3525SOL    HW211475   0.641   3.487   2.264
 3526SOL     OW11476   1.393   6.644   3.601
 3526SOL    HW111477   1.361   6.721   3.545
 3526SOL    HW211478   1.380   6.665   3.697
 3527SOL     OW11479   5.798   3.160   5.643
 3527SOL    HW111480   5.789   3.254   5.677
 3527SOL    HW211481   5.708   3.128   5.611
 3528SOL     OW11482   1.150   5.543   3.380
 3528SOL    HW111483   1.136   5.445   3.395
 3528SOL    HW211484   1.063   5.591   3.388
 3529SOL     OW11485   3.964   6.609   5.330
 3529SOL    HW111486   3.961   6.705   5.359
 3529SOL    HW211487   3.915   6.552   5.396
 3530SOL     OW11488   2.314   5.059   2.739
 3530SOL    HW111489   2.256   5.102   2.669
 3530SOL    HW211490   2.348   5.129   2.802
 3531SOL     OW11491   4.959   4.727   1.313
 3531SOL    HW111492   4.976   4.687   1.403
 3531SOL    HW211493   5.041   4.775   1.282
 3532SOL     OW11494   3.072   0.107   0.282
 3532SOL    HW111495   3.132   0.166   0.336
 3532SOL    HW211496   2.983   0.150   0.271
 3533SOL     OW11497   1.289   2.321   3.290
 3533SOL    HW111498   1.276   2.246   3.224
 3533SOL    HW211499   1.204   2.372   3.300
 3534SOL     OW11500   6.063   1.181   5.127
 3534SOL    HW111501   6.035   1.276   5.137
 3534SOL    HW211502   5.990   1.120   5.158
 3535SOL     OW11503   6.659   5.705   0.441
 3535SOL    HW111504   6.692   5.641   0.510
 3535SOL    HW211505   6.638   5.793   0.484
 3536SOL     OW11506   2.062   3.123   3.887
 3536SOL    HW111507   1.999   3.188   3.844
 3536SOL    HW211508   2.128   3.092   3.819
 3537SOL     OW11509   2.669   4.691   0.267
 3537SOL    HW111510   2.700   4.610   0.317
 3537SOL    HW211511   2.581   4.671   0.223
 3538SOL     OW11512   2.167   0.690   4.111
 3538SOL    HW111513   2.069   0.706   4.112
 3538SOL    HW211514   2.186   0.595   4.085
 3539SOL     OW11515   5.822   3.791   6.170
 3539SOL    HW111516   5.917   3.823   6.173
 3539SOL    HW211517   5.771   3.831   6.246
 3540SOL     OW11518   2.418   1.722   6.051
 3540SOL    HW111519   2.422   1.820   6.071
 3540SOL    HW211520   2.429   1.708   5.952
 3541SOL     OW11521   2.780   2.941   6.738
 3541SOL    HW111522   2.823   2.952   6.827
 3541SOL    HW211523   2.784   2.845   6.711
 3542SOL     OW11524   6.501   3.020   0.538
 3542SOL    HW111525   6.485   3.110   0.578
 3542SOL    HW211526   6.459   2.950   0.595
 3543SOL     OW11527   1.681   3.247   4.041
 3543SOL    HW111528   1.664   3.181   3.968
 3543SOL    HW211529   1.703   3.337   4.001
 3544SOL     OW11530   2.002   4.795   6.394
 3544SOL    HW111531   1.966   4.768   6.483
 3544SOL    HW211532   2.088   4.844   6.407
 3545SOL     OW11533   3.948   4.652   0.270
 3545SOL    HW111534   3.904   4.714   0.204
 3545SOL    HW211535   3.994   4.706   0.341
 3546SOL     OW11536   6.902   5.173   2.995
 3546SOL    HW111537   6.925   5.270   2.984
 3546SOL    HW211538   6.873   5.136   2.907
 3547SOL     OW11539   6.737   4.031   5.020
 3547SOL    HW111540   6.698   4.117   5.052
 3547SOL    HW211541   6.674   3.956   5.040
 3548SOL     OW11542   5.926   0.599   4.876
 3548SOL    HW111543   6.018   0.594   4.915
 3548SOL    HW211544   5.864   0.641   4.942
 3549SOL     OW11545   2.102   4.648   5.753
 3549SOL    HW111546   2.195   4.677   5.730
 3549SOL    HW211547   2.087   4.554   5.721
 3550SOL     OW11548   5.570   2.384   4.207
 3550SOL    HW111549   5.529   2.412   4.121
 3550SOL    HW211550   5.655   2.335   4.190
 3551SOL     OW11551   3.488   1.554   4.739
 3551SOL    HW111552   3.391   1.532   4.729
 3551SOL    HW211553   3.538   1.516   4.661
 3552SOL     OW11554   5.946   5.895   2.197
 3552SOL    HW111555   5.991   5.973   2.241
 3552SOL    HW211556   5.909   5.923   2.109
 3553SOL     OW11557   3.620   5.532   6.370
 3553SOL    HW111558   3.520   5.528   6.363
 3553SOL    HW211559   3.651   5.468   6.440
 3554SOL     OW11560   4.990   2.645   0.894
 3554SOL    HW111561   4.995   2.744   0.882
 3554SOL    HW211562   5.031   2.600   0.815
 3555SOL     OW11563   1.416   2.186   3.953
 3555SOL    HW111564   1.340   2.124   3.970
 3555SOL    HW211565   1.382   2.269   3.908
 3556SOL     OW11566   3.783   1.163   3.608
 3556SOL    HW111567   3.702   1.166   3.549
 3556SOL    HW211568   3.759   1.118   3.694
 3557SOL     OW11569   1.093   6.399   3.740
 3557SOL    HW111570   1.032   6.476   3.753
 3557SOL    HW211571   1.044   6.324   3.695
 3558SOL     OW11572   2.752   4.642   1.352
 3558SOL    HW111573   2.733   4.566   1.290
 3558SOL    HW211574   2.759   4.607   1.446
 3559SOL     OW11575   1.600   5.744   4.520
 3559SOL    HW111576   1.515   5.699   4.494
 3559SOL    HW211577   1.580   5.822   4.579
 3560SOL     OW11578   1.869   4.808   3.266
 3560SOL    HW111579   1.901   4.900   3.244
 3560SOL    HW211580   1.879   4.749   3.185
 3561SOL     OW11581   5.023   3.871   5.885
 3561SOL    HW111582   4.994   3.791   5.937
 3561SOL    HW211583   5.027   3.951   5.946
 3562SOL     OW11584   3.275   1.866   4.038
 3562SOL    HW111585   3.322   1.868   3.949
 3562SOL    HW211586   3.177   1.855   4.023
 3563SOL     OW11587   5.908   1.797   6.138
 3563SOL    HW111588   5.920   1.894   6.117
 3563SOL    HW211589   5.884   1.787   6.235
 3564SOL     OW11590   0.543   4.930   3.451
 3564SOL    HW111591   0.497   4.841   3.455
 3564SOL    HW211592   0.575   4.947   3.358
 3565SOL     OW11593   3.952   5.429   3.051
 3565SOL    HW111594   3.965   5.348   2.994
 3565SOL    HW211595   3.860   5.466   3.035
 3566SOL     OW11596   6.484   1.010   5.741
 3566SOL    HW111597   6.463   0.966   5.829
 3566SOL    HW211598   6.405   1.002   5.680
 3567SOL     OW11599   0.491   2.410   5.895
 3567SOL    HW111600   0.586   2.434   5.874
 3567SOL    HW211601   0.477   2.409   5.994
 3568SOL     OW11602   5.977   3.851   4.890
 3568SOL    HW111603   5.988   3.759   4.852
 3568SOL    HW211604   5.897   3.895   4.848
 3569SOL     OW11605   3.188   1.976   5.836
 3569SOL    HW111606   3.153   1.904   5.777
 3569SOL    HW211607   3.143   2.062   5.813
 3570SOL     OW11608   4.702   0.682   6.273
 3570SOL    HW111609   4.683   0.594   6.228
 3570SOL    HW211610   4.800   0.694   6.284
 3571SOL     OW11611   0.416   5.132   0.247
 3571SOL    HW111612   0.431   5.063   0.176
 3571SOL    HW211613   0.329   5.114   0.293
 3572SOL     OW11614   5.459   4.016   3.549
 3572SOL    HW111615   5.380   3.981   3.498
 3572SOL    HW211616   5.431   4.038   3.643
 3573SOL     OW11617   0.614   4.969   4.053
 3573SOL    HW111618   0.652   4.877   4.049
 3573SOL    HW211619   0.665   5.029   3.991
 3574SOL     OW11620   0.256   4.805   0.399
 3574SOL    HW111621   0.334   4.840   0.451
 3574SOL    HW211622   0.288   4.738   0.331
 3575SOL     OW11623   5.534   4.566   3.017
 3575SOL    HW111624   5.477   4.570   3.099
 3575SOL    HW211625   5.532   4.473   2.979
 3576SOL     OW11626   2.093   1.723   5.439
 3576SOL    HW111627   2.124   1.703   5.532
 3576SOL    HW211628   2.171   1.744   5.381
 3577SOL     OW11629   1.107   3.618   6.157
 3577SOL    HW111630   1.007   3.621   6.155
 3577SOL    HW211631   1.141   3.594   6.066
 3578SOL     OW11632   3.301   2.424   0.529
 3578SOL    HW111633   3.259   2.403   0.441
 3578SOL    HW211634   3.244   2.386   0.603
 3579SOL     OW11635   6.199   4.074   4.767
 3579SOL    HW111636   6.157   4.059   4.856
 3579SOL    HW211637   6.195   3.989   4.714
 3580SOL     OW11638   5.903   2.340   1.099
 3580SOL    HW111639   5.813   2.295   1.093
 3580SOL    HW211640   5.897   2.417   1.162
 3581SOL     OW11641   6.866   6.564   4.235
 3581SOL    HW111642   6.916   6.526   4.313
 3581SOL    HW211643   6.807   6.638   4.267
 3582SOL     OW11644   0.788   1.944   5.883
 3582SOL    HW111645   0.770   2.041   5.864
 3582SOL    HW211646   0.886   1.932   5.902
 3583SOL     OW11647   1.544   3.945   6.570
 3583SOL    HW111648   1.530   3.883   6.493
 3583SOL    HW211649   1.499   3.908   6.651
 3584SOL     OW11650   5.721   5.446   0.443
 3584SOL    HW111651   5.759   5.538   0.442
 3584SOL    HW211652   5.792   5.380   0.416
 3585SOL     OW11653   4.161   5.745   5.191
 3585SOL    HW111654   4.195   5.723   5.283
 3585SOL    HW211655   4.195   5.835   5.164
 3586SOL     OW11656   0.241   2.130   5.252
 3586SOL    HW111657   0.235   2.229   5.268
 3586SOL    HW211658   0.161   2.101   5.198
 3587SOL     OW11659   3.018   4.925   6.231
 3587SOL    HW111660   3.014   4.952   6.134
 3587SOL    HW211661   3.008   4.826   6.238
 3588SOL     OW11662   1.217   2.767   4.773
 3588SOL    HW111663   1.242   2.854   4.816
 3588SOL    HW211664   1.293   2.733   4.718
 3589SOL     OW11665   3.995   1.926   4.206
 3589SOL    HW111666   3.973   2.023   4.219
 3589SOL    HW211667   4.034   1.913   4.115
 3590SOL     OW11668   0.645   3.545   5.961
 3590SOL    HW111669   0.589   3.539   6.044
 3590SOL    HW211670   0.586   3.566   5.883
 3591SOL     OW11671   5.188   3.389   6.116
 3591SOL    HW111672   5.283   3.401   6.146
 3591SOL    HW211673   5.138   3.474   6.129
 3592SOL     OW11674   6.546   4.370   2.612
 3592SOL    HW111675   6.526   4.440   2.680
 3592SOL    HW211676   6.474   4.370   2.542
 3593SOL     OW11677   1.828   5.894   3.785
 3593SOL    HW111678   1.753   5.838   3.820
 3593SOL    HW211679   1.869   5.946   3.860
 3594SOL     OW11680   4.312   0.497   3.305
 3594SOL    HW111681   4.383   0.565   3.289
 3594SOL    HW211682   4.271   0.510   3.395
 3595SOL     OW11683   2.715   5.345   6.571
 3595SOL    HW111684   2.731   5.385   6.661
 3595SOL    HW211685   2.719   5.245   6.577
 3596SOL     OW11686   6.484   2.255   2.997
 3596SOL    HW111687   6.560   2.191   2.985
 3596SOL    HW211688   6.433   2.231   3.080
 3597SOL     OW11689   1.639   0.426   5.315
 3597SOL    HW111690   1.707   0.354   5.305
 3597SOL    HW211691   1.628   0.449   5.412
 3598SOL     OW11692   1.249   6.155   6.491
 3598SOL    HW111693   1.164   6.161   6.543
 3598SOL    HW211694   1.255   6.065   6.448
 3599SOL     OW11695   0.539   1.879   5.579
 3599SOL    HW111696   0.551   1.976   5.603
 3599SOL    HW211697   0.441   1.858   5.576
 3600SOL     OW11698   1.142   3.627   0.287
 3600SOL    HW111699   1.101   3.698   0.230
 3600SOL    HW211700   1.071   3.587   0.346
 3601SOL     OW11701   5.959   4.629   0.420
 3601SOL    HW111702   5.864   4.616   0.391
 3601SOL    HW211703   5.984   4.726   0.410
 3602SOL     OW11704   1.469   2.029   0.535
 3602SOL    HW111705   1.441   2.112   0.582
 3602SOL    HW211706   1.536   1.980   0.590
 3603SOL     OW11707   3.246   6.378   3.949
 3603SOL    HW111708   3.189   6.415   3.876
 3603SOL    HW211709   3.341   6.407   3.935
 3604SOL     OW11710   0.140   4.846   3.848
 3604SOL    HW111711   0.212   4.888   3.905
 3604SOL    HW211712   0.155   4.747   3.844
 3605SOL     OW11713   5.219   4.171   5.366
 3605SOL    HW111714   5.152   4.144   5.435
 3605SOL    HW211715   5.209   4.269   5.346
 3606SOL     OW11716   6.994   6.240   5.355
 3606SOL    HW111717   6.909   6.215   5.400
 3606SOL    HW211718   0.019   6.156   5.325
 3607SOL     OW11719   4.999   6.416   1.212
 3607SOL    HW111720   5.019   6.475   1.134
 3607SOL    HW211721   5.033   6.324   1.194
 3608SOL     OW11722   6.753   1.980   2.684
 3608SOL    HW111723   6.677   1.922   2.655
 3608SOL    HW211724   6.726   2.076   2.678
 3609SOL     OW11725   0.688   0.331   4.124
 3609SOL    HW111726   0.777   0.348   4.167
 3609SOL    HW211727   0.615   0.362   4.186
 3610SOL     OW11728   1.270   6.844   5.383
 3610SOL    HW111729   1.253   6.804   5.473
 3610SOL    HW211730   1.290   6.942   5.393
 3611SOL     OW11731   4.484   6.384   6.022
 3611SOL    HW111732   4.564   6.434   5.987
 3611SOL    HW211733   4.515   6.308   6.079
 3612SOL     OW11734   6.048   0.381   6.033
 3612SOL    HW111735   5.992   0.409   5.956
 3612SOL    HW211736   6.132   0.436   6.036
 3613SOL     OW11737   4.299   5.132   1.815
 3613SOL    HW111738   4.355   5.053   1.838
 3613SOL    HW211739   4.282   5.133   1.716
 3614SOL     OW11740   3.586   3.623   2.706
 3614SOL    HW111741   3.668   3.671   2.677
 3614SOL    HW211742   3.506   3.661   2.660
 3615SOL     OW11743   5.729   6.134   0.370
 3615SOL    HW111744   5.652   6.071   0.371
 3615SOL    HW211745   5.814   6.084   0.388
 3616SOL     OW11746   6.854   2.789   5.627
 3616SOL    HW111747   6.945   2.757   5.655
 3616SOL    HW211748   6.859   2.828   5.535
 3617SOL     OW11749   4.248   0.916   6.598
 3617SOL    HW111750   4.238   1.006   6.554
 3617SOL    HW211751   4.211   0.845   6.537
 3618SOL     OW11752   2.167   2.145   4.966
 3618SOL    HW111753   2.076   2.184   4.953
 3618SOL    HW211754   2.234   2.218   4.980
 3619SOL     OW11755   6.056   3.177   3.942
 3619SOL    HW111756   6.129   3.219   3.996
 3619SOL    HW211757   5.974   3.232   3.949
 3620SOL     OW11758   6.366   6.162   5.873
 3620SOL    HW111759   6.361   6.148   5.972
 3620SOL    HW211760   6.439   6.228   5.853
 3621SOL     OW11761   3.430   2.570   5.839
 3621SOL    HW111762   3.477   2.633   5.778
 3621SOL    HW211763   3.482   2.484   5.845
 3622SOL     OW11764   1.646   2.282   4.586
 3622SOL    HW111765   1.606   2.253   4.674
 3622SOL    HW211766   1.662   2.202   4.529
 3623SOL     OW11767   6.089   5.373   4.334
 3623SOL    HW111768   6.039   5.295   4.296
 3623SOL    HW211769   6.185   5.349   4.347
 3624SOL     OW11770   2.319   6.568   2.375
 3624SOL    HW111771   2.220   6.563   2.388
 3624SOL    HW211772   2.344   6.527   2.287
 3625SOL     OW11773   5.462   3.678   6.995
 3625SOL    HW111774   5.481   3.759   6.938
 3625SOL    HW211775   5.367   3.681   0.003
 3626SOL     OW11776   1.559   3.481   6.126
 3626SOL    HW111777   1.604   3.526   6.203
 3626SOL    HW211778   1.605   3.394   6.107
 3627SOL     OW11779   3.484   2.958   3.553
 3627SOL    HW111780   3.555   2.924   3.491
 3627SOL    HW211781   3.523   2.972   3.644
 3628SOL     OW11782   1.516   0.640   1.612
 3628SOL    HW111783   1.544   0.730   1.579
 3628SOL    HW211784   1.522   0.638   1.712
 3629SOL     OW11785   0.003   2.323   4.685
 3629SOL    HW111786   6.996   2.418   4.675
 3629SOL    HW211787   6.949   2.261   4.670
 3630SOL     OW11788   5.073   2.983   3.499
 3630SOL    HW111789   5.114   3.007   3.587
 3630SOL    HW211790   5.065   2.884   3.492
 3631SOL     OW11791   2.028   0.002   3.571
 3631SOL    HW111792   1.998   0.080   3.626
 3631SOL    HW211793   2.023   0.027   3.474
 3632SOL     OW11794   4.823   6.690   1.227
 3632SOL    HW111795   4.803   6.735   1.140
 3632SOL    HW211796   4.896   6.739   1.273
 3633SOL     OW11797   3.351   1.630   5.640
 3633SOL    HW111798   3.416   1.617   5.565
 3633SOL    HW211799   3.262   1.656   5.603
 3634SOL     OW11800   0.542   5.145   4.514
 3634SOL    HW111801   0.618   5.203   4.543
 3634SOL    HW211802   0.577   5.067   4.462
 3635SOL     OW11803   2.627   6.478   6.126
 3635SOL    HW111804   2.636   6.485   6.225
 3635SOL    HW211805   2.531   6.457   6.103
 3636SOL     OW11806   0.506   5.520   0.108
 3636SOL    HW111807   0.461   5.481   0.028
 3636SOL    HW211808   0.563   5.450   0.151
 3637SOL     OW11809   6.202   1.352   1.409
 3637SOL    HW111810   6.152   1.297   1.476
 3637SOL    HW211811   6.294   1.315   1.398
 3638SOL     OW11812   0.528   4.489   4.764
 3638SOL    HW111813   0.452   4.444   4.812
 3638SOL    HW211814   0.527   4.587   4.784
 3639SOL     OW11815   3.362   4.222   1.774
 3639SOL    HW111816   3.366   4.164   1.692
 3639SOL    HW211817   3.369   4.165   1.856
 3640SOL     OW11818   3.616   0.625   0.450
 3640SOL    HW111819   3.594   0.702   0.510
 3640SOL    HW211820   3.671   0.657   0.373
 3641SOL     OW11821   5.237   2.885   3.980
 3641SOL    HW111822   5.137   2.887   3.978
 3641SOL    HW211823   5.268   2.817   4.046
 3642SOL     OW11824   4.774   0.687   0.542
 3642SOL    HW111825   4.703   0.755   0.524
 3642SOL    HW211826   4.832   0.717   0.618
 3643SOL     OW11827   2.920   5.798   5.204
 3643SOL    HW111828   2.835   5.748   5.190
 3643SOL    HW211829   2.961   5.820   5.116
 3644SOL     OW11830   6.779   1.760   1.821
 3644SOL    HW111831   6.763   1.810   1.735
 3644SOL    HW211832   6.696   1.712   1.847
 3645SOL     OW11833   0.193   3.292   3.718
 3645SOL    HW111834   0.244   3.211   3.747
 3645SOL    HW211835   0.206   3.366   3.784
 3646SOL     OW11836   6.566   4.492   6.974
 3646SOL    HW111837   6.635   4.525   0.015
 3646SOL    HW211838   6.476   4.495   7.016
 3647SOL     OW11839   2.454   3.032   6.844
 3647SOL    HW111840   2.450   3.097   6.769
 3647SOL    HW211841   2.484   3.079   6.928
 3648SOL     OW11842   3.271   4.929   2.675
 3648SOL    HW111843   3.355   4.897   2.719
 3648SOL    HW211844   3.293   4.995   2.603
 3649SOL     OW11845   5.010   2.967   1.910
 3649SOL    HW111846   4.923   2.998   1.948
 3649SOL    HW211847   5.057   2.909   1.977
 3650SOL     OW11848   0.437   5.303   0.836
 3650SOL    HW111849   0.459   5.360   0.916
 3650SOL    HW211850   0.354   5.251   0.855
 3651SOL     OW11851   0.036   6.807   3.925
 3651SOL    HW111852   0.066   6.753   3.846
 3651SOL    HW211853   0.073   6.899   3.918
 3652SOL     OW11854   5.539   6.526   3.197
 3652SOL    HW111855   5.535   6.544   3.296
 3652SOL    HW211856   5.447   6.505   3.164
 3653SOL     OW11857   0.679   1.739   4.577
 3653SOL    HW111858   0.740   1.661   4.591
 3653SOL    HW211859   0.586   1.714   4.605
 3654SOL     OW11860   2.503   5.005   0.714
 3654SOL    HW111861   2.486   4.940   0.789
 3654SOL    HW211862   2.434   5.077   0.716
 3655SOL     OW11863   1.856   6.820   3.200
 3655SOL    HW111864   1.767   6.829   3.245
 3655SOL    HW211865   1.842   6.800   3.103
 3656SOL     OW11866   0.889   3.792   2.473
 3656SOL    HW111867   0.790   3.787   2.477
 3656SOL    HW211868   0.928   3.746   2.553
 3657SOL     OW11869   5.227   5.005   6.429
 3657SOL    HW111870   5.255   4.913   6.399
 3657SOL    HW211871   5.270   5.025   6.517
 3658SOL     OW11872   1.814   5.871   5.148
 3658SOL    HW111873   1.789   5.775   5.159
 3658SOL    HW211874   1.912   5.879   5.131
 3659SOL     OW11875   1.783   3.520   5.088
 3659SOL    HW111876   1.751   3.484   5.001
 3659SOL    HW211877   1.881   3.505   5.097
 3660SOL     OW11878   5.091   0.250   3.612
 3660SOL    HW111879   5.120   0.162   3.573
 3660SOL    HW211880   4.997   0.270   3.583
 3661SOL     OW11881   5.395   1.411   5.931
 3661SOL    HW111882   5.466   1.480   5.923
 3661SOL    HW211883   5.356   1.413   6.024
 3662SOL     OW11884   4.400   0.450   3.945
 3662SOL    HW111885   4.389   0.550   3.943
 3662SOL    HW211886   4.451   0.425   4.028
 3663SOL     OW11887   1.609   2.649   0.752
 3663SOL    HW111888   1.657   2.577   0.701
 3663SOL    HW211889   1.595   2.728   0.692
 3664SOL     OW11890   5.629   2.157   2.141
 3664SOL    HW111891   5.686   2.100   2.199
 3664SOL    HW211892   5.630   2.251   2.174
 3665SOL     OW11893   2.340   6.292   5.555
 3665SOL    HW111894   2.338   6.224   5.629
 3665SOL    HW211895   2.252   6.339   5.550
 3666SOL     OW11896   1.102   3.928   3.439
 3666SOL    HW111897   1.035   4.002   3.444
 3666SOL    HW211898   1.195   3.966   3.443
 3667SOL     OW11899   0.294   1.304   1.874
 3667SOL    HW111900   0.274   1.311   1.776
 3667SOL    HW211901   0.222   1.251   1.919
 3668SOL     OW11902   1.589   1.111   2.223
 3668SOL    HW111903   1.609   1.125   2.126
 3668SOL    HW211904   1.642   1.033   2.257
 3669SOL     OW11905   5.377   1.401   3.279
 3669SOL    HW111906   5.318   1.327   3.246
 3669SOL    HW211907   5.363   1.412   3.378
 3670SOL     OW11908   2.866   4.851   0.476
 3670SOL    HW111909   2.827   4.914   0.544
 3670SOL    HW211910   2.793   4.815   0.419
 3671SOL     OW11911   6.020   0.728   3.826
 3671SOL    HW111912   6.110   0.715   3.785
 3671SOL    HW211913   5.950   0.708   3.758
 3672SOL     OW11914   5.573   1.928   1.397
 3672SOL    HW111915   5.584   1.840   1.350
 3672SOL    HW211916   5.629   1.997   1.353
 3673SOL     OW11917   4.014   6.318   6.562
 3673SOL    HW111918   4.102   6.282   6.591
 3673SOL    HW211919   3.958   6.336   6.643
 3674SOL     OW11920   0.988   6.808   5.373
 3674SOL    HW111921   1.068   6.823   5.315
 3674SOL    HW211922   1.018   6.788   5.466
 3675SOL     OW11923   2.135   3.291   4.760
 3675SOL    HW111924   2.128   3.308   4.661
 3675SOL    HW211925   2.139   3.378   4.808
 3676SOL     OW11926   5.501   4.328   4.072
 3676SOL    HW111927   5.460   4.420   4.075
 3676SOL    HW211928   5.548   4.310   4.158
 3677SOL     OW11929   1.665   6.042   3.312
 3677SOL    HW111930   1.619   6.120   3.269
 3677SOL    HW211931   1.743   6.076   3.365
 3678SOL     OW11932   0.302   2.387   5.232
 3678SOL    HW111933   0.393   2.427   5.242
 3678SOL    HW211934   0.279   2.382   5.134
 3679SOL     OW11935   1.583   0.448   2.974
 3679SOL    HW111936   1.602   0.448   3.073
 3679SOL    HW211937   1.486   0.468   2.959
 3680SOL     OW11938   5.596   2.436   3.446
 3680SOL    HW111939   5.600   2.351   3.498
 3680SOL    HW211940   5.559   2.509   3.504
 3681SOL     OW11941   0.495   0.007   5.801
 3681SOL    HW111942   0.414   6.974   5.819
 3681SOL    HW211943   0.525   0.051   5.886
 3682SOL     OW11944   6.091   2.022   6.904
 3682SOL    HW111945   6.066   2.102   6.849
 3682SOL    HW211946   6.017   2.001   6.968
 3683SOL     OW11947   0.371   0.186   2.720
 3683SOL    HW111948   0.391   0.136   2.804
 3683SOL    HW211949   0.381   0.126   2.641
 3684SOL     OW11950   2.046   4.692   0.012
 3684SOL    HW111951   2.099   4.740   0.082
 3684SOL    HW211952   2.096   4.692   6.949
 3685SOL     OW11953   6.637   6.331   6.381
 3685SOL    HW111954   6.598   6.420   6.358
 3685SOL    HW211955   6.709   6.343   6.448
 3686SOL     OW11956   5.789   6.263   3.780
 3686SOL    HW111957   5.743   6.349   3.801
 3686SOL    HW211958   5.738   6.187   3.821
 3687SOL     OW11959   3.901   5.645   5.121
 3687SOL    HW111960   3.952   5.601   5.048
 3687SOL    HW211961   3.954   5.720   5.159
 3688SOL     OW11962   6.615   3.716   6.504
 3688SOL    HW111963   6.542   3.757   6.559
 3688SOL    HW211964   6.703   3.746   6.539
 3689SOL     OW11965   2.307   0.391   6.260
 3689SOL    HW111966   2.252   0.444   6.324
 3689SOL    HW211967   2.402   0.390   6.291
 3690SOL     OW11968   4.849   6.075   0.359
 3690SOL    HW111969   4.805   6.113   0.440
 3690SOL    HW211970   4.934   6.124   0.341
 3691SOL     OW11971   2.838   3.149   6.458
 3691SOL    HW111972   2.827   3.129   6.361
 3691SOL    HW211973   2.822   3.067   6.512
 3692SOL     OW11974   0.097   5.994   5.051
 3692SOL    HW111975   0.041   5.985   5.134
 3692SOL    HW211976   0.185   6.034   5.074
 3693SOL     OW11977   2.118   2.997   2.832
 3693SOL    HW111978   2.110   2.917   2.891
 3693SOL    HW211979   2.118   3.080   2.888
 3694SOL     OW11980   1.232   5.691   2.976
 3694SOL    HW111981   1.307   5.748   2.941
 3694SOL    HW211982   1.151   5.704   2.919
 3695SOL     OW11983   6.645   3.006   1.602
 3695SOL    HW111984   6.642   3.064   1.684
 3695SOL    HW211985   6.555   3.006   1.558
 3696SOL     OW11986   3.685   5.453   5.144
 3696SOL    HW111987   3.652   5.463   5.237
 3696SOL    HW211988   3.757   5.520   5.126
 3697SOL     OW11989   0.262   6.761   3.058
 3697SOL    HW111990   0.170   6.745   3.024
 3697SOL    HW211991   0.298   6.846   3.019
 3698SOL     OW11992   2.290   0.866   4.886
 3698SOL    HW111993   2.379   0.875   4.929
 3698SOL    HW211994   2.262   0.770   4.886
 3699SOL     OW11995   0.813   2.347   3.713
 3699SOL    HW111996   0.826   2.326   3.810
 3699SOL    HW211997   0.893   2.395   3.677
 3700SOL     OW11998   0.283   6.931   4.985
 3700SOL    HW111999   0.184   6.925   4.969
 3700SOL    HW212000   0.319   7.011   4.937
 3701SOL     OW12001   1.321   0.329   3.937
 3701SOL    HW112002   1.371   0.387   4.002
 3701SOL    HW212003   1.386   0.272   3.886
 3702SOL     OW12004   5.241   6.561   2.531
 3702SOL    HW112005   5.182   6.536   2.454
 3702SOL    HW212006   5.194   6.628   2.589
 3703SOL     OW12007   5.100   1.197   5.872
 3703SOL    HW112008   5.104   1.245   5.784
 3703SOL    HW212009   5.165   1.121   5.871
 3704SOL     OW12010   3.225   1.673   1.290
 3704SOL    HW112011   3.148   1.647   1.232
 3704SOL    HW212012   3.200   1.755   1.343
 3705SOL     OW12013   4.736   5.412   3.713
 3705SOL    HW112014   4.756   5.434   3.809
 3705SOL    HW212015   4.797   5.464   3.653
 3706SOL     OW12016   1.011   3.281   6.630
 3706SOL    HW112017   0.990   3.317   6.539
 3706SOL    HW212018   1.109   3.264   6.637
 3707SOL     OW12019   5.177   4.054   5.118
 3707SOL    HW112020   5.181   4.084   5.213
 3707SOL    HW212021   5.089   4.082   5.078
 3708SOL     OW12022   6.980   0.821   6.076
 3708SOL    HW112023   0.012   0.815   5.993
 3708SOL    HW212024   0.010   0.787   6.154
 3709SOL     OW12025   3.324   0.637   0.838
 3709SOL    HW112026   3.290   0.551   0.877
 3709SOL    HW212027   3.306   0.711   0.902
 3710SOL     OW12028   6.375   5.404   6.323
 3710SOL    HW112029   6.398   5.500   6.309
 3710SOL    HW212030   6.433   5.347   6.265
 3711SOL     OW12031   0.521   0.261   3.703
 3711SOL    HW112032   0.448   0.278   3.636
 3711SOL    HW212033   0.512   0.326   3.778
 3712SOL     OW12034   0.194   5.971   0.175
 3712SOL    HW112035   0.165   5.876   0.171
 3712SOL    HW212036   0.129   6.029   0.126
 3713SOL     OW12037   1.356   6.166   5.096
 3713SOL    HW112038   1.351   6.108   5.015
 3713SOL    HW212039   1.333   6.260   5.072
 3714SOL     OW12040   5.286   5.620   5.804
 3714SOL    HW112041   5.227   5.657   5.876
 3714SOL    HW212042   5.375   5.595   5.843
 3715SOL     OW12043   6.354   3.858   2.782
 3715SOL    HW112044   6.366   3.922   2.707
 3715SOL    HW212045   6.317   3.906   2.861
 3716SOL     OW12046   6.355   0.289   5.037
 3716SOL    HW112047   6.336   0.213   4.975
 3716SOL    HW212048   6.305   0.370   5.008
 3717SOL     OW12049   6.101   6.112   6.506
 3717SOL    HW112050   6.136   6.205   6.517
 3717SOL    HW212051   6.175   6.052   6.476
 3718SOL     OW12052   1.597   0.592   0.270
 3718SOL    HW112053   1.538   0.523   0.228
 3718SOL    HW212054   1.692   0.567   0.256
 3719SOL     OW12055   5.340   5.009   1.400
 3719SOL    HW112056   5.286   4.937   1.443
 3719SOL    HW212057   5.401   4.968   1.332
 3720SOL     OW12058   5.968   2.757   6.687
 3720SOL    HW112059   5.962   2.716   6.596
 3720SOL    HW212060   6.059   2.796   6.701
 3721SOL     OW12061   5.762   4.601   2.028
 3721SOL    HW112062   5.737   4.693   2.059
 3721SOL    HW212063   5.681   4.542   2.030
 3722SOL     OW12064   6.547   5.884   0.821
 3722SOL    HW112065   6.620   5.883   0.752
 3722SOL    HW212066   6.535   5.977   0.856
 3723SOL     OW12067   6.442   5.952   1.790
 3723SOL    HW112068   6.384   6.022   1.832
 3723SOL    HW212069   6.505   5.995   1.726
 3724SOL     OW12070   1.936   4.375   5.084
 3724SOL    HW112071   2.019   4.329   5.053
 3724SOL    HW212072   1.858   4.314   5.074
 3725SOL     OW12073   6.291   5.087   1.028
 3725SOL    HW112074   6.295   5.166   1.089
 3725SOL    HW212075   6.362   5.022   1.053
 3726SOL     OW12076   5.765   4.273   0.570
 3726SOL    HW112077   5.775   4.345   0.638
 3726SOL    HW212078   5.833   4.202   0.586
 3727SOL     OW12079   6.721   2.137   5.165
 3727SOL    HW112080   6.766   2.078   5.232
 3727SOL    HW212081   6.742   2.233   5.187
 3728SOL     OW12082   1.216   4.153   6.819
 3728SOL    HW112083   1.311   4.152   6.788
 3728SOL    HW212084   1.157   4.116   6.747
 3729SOL     OW12085   1.217   2.631   3.514
 3729SOL    HW112086   1.301   2.580   3.531
 3729SOL    HW212087   1.232   2.697   3.440
 3730SOL     OW12088   2.568   5.017   5.951
 3730SOL    HW112089   2.526   5.107   5.963
 3730SOL    HW212090   2.667   5.029   5.938
 3731SOL     OW12091   6.135   0.239   0.908
 3731SOL    HW112092   6.038   0.224   0.927
 3731SOL    HW212093   6.185   0.153   0.919
 3732SOL     OW12094   2.894   1.906   6.553
 3732SOL    HW112095   2.860   1.947   6.469
 3732SOL    HW212096   2.957   1.832   6.532
 3733SOL     OW12097   1.342   3.978   2.206
 3733SOL    HW112098   1.379   3.921   2.132
 3733SOL    HW212099   1.303   4.061   2.166
 3734SOL     OW12100   4.936   1.343   1.757
 3734SOL    HW112101   4.924   1.439   1.732
 3734SOL    HW212102   4.928   1.286   1.675
 3735SOL     OW12103   1.906   0.824   3.801
 3735SOL    HW112104   1.852   0.851   3.881
 3735SOL    HW212105   2.003   0.839   3.820
 3736SOL     OW12106   6.824   2.447   0.273
 3736SOL    HW112107   6.857   2.529   0.226
 3736SOL    HW212108   6.873   2.367   0.239
 3737SOL     OW12109   4.839   0.522   3.329
 3737SOL    HW112110   4.920   0.525   3.271
 3737SOL    HW212111   4.757   0.536   3.273
 3738SOL     OW12112   0.136   6.205   2.229
 3738SOL    HW112113   0.117   6.112   2.196
 3738SOL    HW212114   0.089   6.271   2.169
 3739SOL     OW12115   2.786   4.530   1.605
 3739SOL    HW112116   2.859   4.498   1.664
 3739SOL    HW212117   2.698   4.520   1.651
 3740SOL     OW12118   5.951   0.882   0.480
 3740SOL    HW112119   5.878   0.846   0.538
 3740SOL    HW212120   5.945   0.982   0.477
 3741SOL     OW12121   5.574   3.340   0.892
 3741SOL    HW112122   5.512   3.276   0.847
 3741SOL    HW212123   5.541   3.360   0.984
 3742SOL     OW12124   2.092   1.755   6.616
 3742SOL    HW112125   2.044   1.793   6.537
 3742SOL    HW212126   2.094   1.823   6.690
 3743SOL     OW12127   5.215   3.172   1.200
 3743SOL    HW112128   5.146   3.107   1.169
 3743SOL    HW212129   5.288   3.178   1.132
 3744SOL     OW12130   0.914   5.855   3.032
 3744SOL    HW112131   0.907   5.789   3.107
 3744SOL    HW212132   0.970   5.817   2.959
 3745SOL     OW12133   3.682   4.925   1.727
 3745SOL    HW112134   3.647   4.886   1.642
 3745SOL    HW212135   3.661   4.864   1.803
 3746SOL     OW12136   5.658   0.836   3.045
 3746SOL    HW112137   5.607   0.831   2.959
 3746SOL    HW212138   5.651   0.929   3.083
 3747SOL     OW12139   2.785   6.852   5.462
 3747SOL    HW112140   2.790   6.760   5.502
 3747SOL    HW212141   2.720   6.908   5.513
 3748SOL     OW12142   5.995   0.807   1.220
 3748SOL    HW112143   5.914   0.761   1.257
 3748SOL    HW212144   5.974   0.903   1.205
 3749SOL     OW12145   1.467   5.793   4.103
 3749SOL    HW112146   1.452   5.701   4.138
 3749SOL    HW212147   1.388   5.850   4.125
 3750SOL     OW12148   1.178   3.840   0.677
 3750SOL    HW112149   1.110   3.912   0.671
 3750SOL    HW212150   1.133   3.753   0.698
 3751SOL     OW12151   0.117   3.638   1.764
 3751SOL    HW112152   0.065   3.557   1.740
 3751SOL    HW212153   0.159   3.677   1.682
 3752SOL     OW12154   5.230   0.718   6.799
 3752SOL    HW112155   5.310   0.742   6.745
 3752SOL    HW212156   5.215   0.787   6.870
 3753SOL     OW12157   6.680   0.323   5.440
 3753SOL    HW112158   6.703   0.408   5.394
 3753SOL    HW212159   6.758   0.292   5.495
 3754SOL     OW12160   2.359   0.746   1.096
 3754SOL    HW112161   2.439   0.695   1.129
 3754SOL    HW212162   2.387   0.837   1.066
 3755SOL     OW12163   4.846   4.823   5.164
 3755SOL    HW112164   4.802   4.734   5.164
 3755SOL    HW212165   4.945   4.812   5.153
 3756SOL     OW12166   3.062   5.025   5.992
 3756SOL    HW112167   3.078   5.119   5.963
 3756SOL    HW212168   2.983   4.987   5.943
 3757SOL     OW12169   6.213   4.840   1.383
 3757SOL    HW112170   6.282   4.911   1.398
 3757SOL    HW212171   6.185   4.802   1.471
 3758SOL     OW12172   2.442   1.393   4.678
 3758SOL    HW112173   2.347   1.422   4.675
 3758SOL    HW212174   2.474   1.374   4.585
 3759SOL     OW12175   4.316   0.345   5.854
 3759SOL    HW112176   4.395   0.381   5.804
 3759SOL    HW212177   4.288   0.411   5.924
 3760SOL     OW12178   1.310   1.256   3.996
 3760SOL    HW112179   1.250   1.217   3.927
 3760SOL    HW212180   1.268   1.248   4.086
 3761SOL     OW12181   0.470   0.850   5.060
 3761SOL    HW112182   0.376   0.871   5.034
 3761SOL    HW212183   0.486   0.879   5.154
 3762SOL     OW12184   1.905   4.576   0.685
 3762SOL    HW112185   1.899   4.500   0.751
 3762SOL    HW212186   1.900   4.663   0.734
 3763SOL     OW12187   0.466   3.477   6.977
 3763SOL    HW112188   0.493   3.453   6.883
 3763SOL    HW212189   0.385   3.536   6.974
 3764SOL     OW12190   1.418   6.750   2.297
 3764SOL    HW112191   1.462   6.835   2.327
 3764SOL    HW212192   1.320   6.766   2.286
 3765SOL     OW12193   5.436   1.491   1.033
 3765SOL    HW112194   5.345   1.488   0.991
 3765SOL    HW212195   5.462   1.400   1.065
 3766SOL     OW12196   1.660   2.050   4.432
 3766SOL    HW112197   1.730   1.985   4.405
 3766SOL    HW212198   1.579   2.038   4.375
 3767SOL     OW12199   2.923   4.111   6.683
 3767SOL    HW112200   2.885   4.019   6.691
 3767SOL    HW212201   2.992   4.124   6.754
 3768SOL     OW12202   0.534   6.853   4.551
 3768SOL    HW112203   0.548   6.787   4.477
 3768SOL    HW212204   0.486   6.933   4.516
 3769SOL     OW12205   6.099   5.066   4.891
 3769SOL    HW112206   6.110   5.052   4.989
 3769SOL    HW212207   6.160   5.004   4.841
 3770SOL     OW12208   1.199   0.554   6.557
 3770SOL    HW112209   1.193   0.515   6.465
 3770SOL    HW212210   1.124   0.519   6.614
 3771SOL     OW12211   5.218   3.833   0.528
 3771SOL    HW112212   5.190   3.737   0.530
 3771SOL    HW212213   5.199   3.870   0.437
 3772SOL     OW12214   0.400   0.504   0.364
 3772SOL    HW112215   0.491   0.545   0.367
 3772SOL    HW212216   0.397   0.434   0.293
 3773SOL     OW12217   5.744   3.408   5.742
 3773SOL    HW112218   5.738   3.455   5.829
 3773SOL    HW212219   5.657   3.418   5.693
 3774SOL     OW12220   6.041   5.654   1.673
 3774SOL    HW112221   6.024   5.686   1.580
 3774SOL    HW212222   6.076   5.730   1.728
 3775SOL     OW12223   4.596   5.539   2.527
 3775SOL    HW112224   4.696   5.550   2.529
 3775SOL    HW212225   4.556   5.589   2.605
 3776SOL     OW12226   4.185   1.972   6.298
 3776SOL    HW112227   4.163   1.928   6.211
 3776SOL    HW212228   4.121   2.048   6.314
 3777SOL     OW12229   3.413   4.882   3.176
 3777SOL    HW112230   3.496   4.871   3.230
 3777SOL    HW212231   3.340   4.826   3.216
 3778SOL     OW12232   2.598   5.046   2.613
 3778SOL    HW112233   2.676   5.032   2.552
 3778SOL    HW212234   2.535   5.112   2.573
 3779SOL     OW12235   0.901   5.164   1.032
 3779SOL    HW112236   0.921   5.256   0.999
 3779SOL    HW212237   0.809   5.138   1.003
 3780SOL     OW12238   6.218   4.618   4.808
 3780SOL    HW112239   6.120   4.634   4.817
 3780SOL    HW212240   6.237   4.581   4.717
 3781SOL     OW12241   0.157   6.710   3.707
 3781SOL    HW112242   0.114   6.622   3.685
 3781SOL    HW212243   0.249   6.713   3.668
 3782SOL     OW12244   2.462   0.506   3.163
 3782SOL    HW112245   2.513   0.476   3.244
 3782SOL    HW212246   2.443   0.603   3.170
 3783SOL     OW12247   5.714   5.288   4.092
 3783SOL    HW112248   5.666   5.201   4.080
 3783SOL    HW212249   5.749   5.320   4.004
 3784SOL     OW12250   5.438   2.972   2.527
 3784SOL    HW112251   5.495   2.982   2.446
 3784SOL    HW212252   5.442   2.878   2.559
 3785SOL     OW12253   1.542   3.569   5.766
 3785SOL    HW112254   1.552   3.635   5.841
 3785SOL    HW212255   1.580   3.609   5.682
 3786SOL     OW12256   2.272   4.216   3.421
 3786SOL    HW112257   2.321   4.239   3.505
 3786SOL    HW212258   2.252   4.300   3.370
 3787SOL     OW12259   6.284   1.196   2.161
 3787SOL    HW112260   6.216   1.253   2.116
 3787SOL    HW212261   6.255   1.176   2.255
 3788SOL     OW12262   0.313   4.411   4.883
 3788SOL    HW112263   0.282   4.317   4.895
 3788SOL    HW212264   0.361   4.442   4.965
 3789SOL     OW12265   0.567   4.007   4.935
 3789SOL    HW112266   0.648   4.061   4.959
 3789SOL    HW212267   0.594   3.913   4.917
 3790SOL     OW12268   1.088   4.678   5.794
 3790SOL    HW112269   1.073   4.764   5.844
 3790SOL    HW212270   1.171   4.686   5.740
 3791SOL     OW12271   5.140   1.561   6.311
 3791SOL    HW112272   5.169   1.657   6.315
 3791SOL    HW212273   5.128   1.526   6.404
 3792SOL     OW12274   1.363   1.947   3.042
 3792SOL    HW112275   1.320   1.922   2.955
 3792SOL    HW212276   1.405   2.037   3.033
 3793SOL     OW12277   4.403   0.070   2.628
 3793SOL    HW112278   4.398   0.099   2.532
 3793SOL    HW212279   4.328   0.008   2.648
 3794SOL     OW12280   2.458   2.694   1.537
 3794SOL    HW112281   2.430   2.784   1.573
 3794SOL    HW212282   2.415   2.622   1.592
 3795SOL     OW12283   4.537   5.975   1.370
 3795SOL    HW112284   4.475   5.920   1.426
 3795SOL    HW212285   4.617   6.000   1.424
 3796SOL     OW12286   4.020   1.798   2.685
 3796SOL    HW112287   4.065   1.863   2.624
 3796SOL    HW212288   4.085   1.768   2.756
 3797SOL     OW12289   0.595   3.326   2.751
 3797SOL    HW112290   0.639   3.290   2.669
 3797SOL    HW212291   0.540   3.254   2.794
 3798SOL     OW12292   2.416   5.520   2.916
 3798SOL    HW112293   2.439   5.538   3.012
 3798SOL    HW212294   2.500   5.513   2.863
 3799SOL     OW12295   6.195   2.829   3.572
 3799SOL    HW112296   6.176   2.774   3.491
 3799SOL    HW212297   6.235   2.771   3.643
 3800SOL     OW12298   5.310   1.810   3.628
 3800SOL    HW112299   5.316   1.714   3.654
 3800SOL    HW212300   5.291   1.866   3.709
 3801SOL     OW12301   6.144   6.677   1.494
 3801SOL    HW112302   6.114   6.770   1.517
 3801SOL    HW212303   6.076   6.634   1.434
 3802SOL     OW12304   1.695   1.945   1.735
 3802SOL    HW112305   1.680   2.008   1.659
 3802SOL    HW212306   1.628   1.871   1.731
 3803SOL     OW12307   4.068   3.455   2.459
 3803SOL    HW112308   4.023   3.372   2.426
 3803SOL    HW212309   4.159   3.461   2.420
 3804SOL     OW12310   4.354   1.159   3.027
 3804SOL    HW112311   4.297   1.241   3.038
 3804SOL    HW212312   4.348   1.127   2.932
 3805SOL     OW12313   1.979   2.768   1.676
 3805SOL    HW112314   2.009   2.675   1.699
 3805SOL    HW212315   2.027   2.834   1.734
 3806SOL     OW12316   3.921   3.688   6.131
 3806SOL    HW112317   3.964   3.675   6.042
 3806SOL    HW212318   3.953   3.774   6.171
 3807SOL     OW12319   1.877   5.414   2.579
 3807SOL    HW112320   1.831   5.347   2.637
 3807SOL    HW212321   1.830   5.502   2.585
 3808SOL     OW12322   4.158   0.695   0.398
 3808SOL    HW112323   4.087   0.638   0.440
 3808SOL    HW212324   4.135   0.712   0.303
 3809SOL     OW12325   5.422   2.363   1.978
 3809SOL    HW112326   5.378   2.273   1.966
 3809SOL    HW212327   5.445   2.401   1.889
 3810SOL     OW12328   5.637   2.761   3.286
 3810SOL    HW112329   5.567   2.741   3.354
 3810SOL    HW212330   5.602   2.828   3.220
 3811SOL     OW12331   6.828   5.974   4.862
 3811SOL    HW112332   6.874   5.885   4.862
 3811SOL    HW212333   6.897   6.047   4.869
 3812SOL     OW12334   4.654   5.043   5.687
 3812SOL    HW112335   4.688   5.046   5.781
 3812SOL    HW212336   4.578   4.979   5.681
 3813SOL     OW12337   4.808   3.337   0.283
 3813SOL    HW112338   4.870   3.297   0.351
 3813SOL    HW212339   4.846   3.322   0.191
 3814SOL     OW12340   6.202   6.986   5.671
 3814SOL    HW112341   6.292   0.006   5.680
 3814SOL    HW212342   6.132   0.026   5.703
 3815SOL     OW12343   3.728   1.807   0.891
 3815SOL    HW112344   3.757   1.857   0.972
 3815SOL    HW212345   3.632   1.828   0.872
 3816SOL     OW12346   1.082   5.502   6.424
 3816SOL    HW112347   1.092   5.406   6.401
 3816SOL    HW212348   1.079   5.513   6.523
 3817SOL     OW12349   5.202   3.775   2.120
 3817SOL    HW112350   5.189   3.856   2.062
 3817SOL    HW212351   5.122   3.716   2.111
 3818SOL     OW12352   6.735   0.881   0.255
 3818SOL    HW112353   6.651   0.935   0.251
 3818SOL    HW212354   6.766   0.874   0.350
 3819SOL     OW12355   5.881   5.675   2.427
 3819SOL    HW112356   5.910   5.736   2.354
 3819SOL    HW212357   5.946   5.680   2.503
 3820SOL     OW12358   5.394   0.303   4.226
 3820SOL    HW112359   5.351   0.213   4.234
 3820SOL    HW212360   5.481   0.294   4.178
 3821SOL     OW12361   2.079   0.716   1.299
 3821SOL    HW112362   2.105   0.811   1.283
 3821SOL    HW212363   2.149   0.655   1.262
 3822SOL     OW12364   2.341   6.741   0.613
 3822SOL    HW112365   2.382   6.831   0.597
 3822SOL    HW212366   2.247   6.753   0.646
 3823SOL     OW12367   2.800   3.780   6.089
 3823SOL    HW112368   2.871   3.725   6.046
 3823SOL    HW212369   2.840   3.863   6.128
 3824SOL     OW12370   0.391   3.414   0.437
 3824SOL    HW112371   0.343   3.475   0.501
 3824SOL    HW212372   0.329   3.342   0.407
 3825SOL     OW12373   0.343   5.597   0.543
 3825SOL    HW112374   0.435   5.557   0.549
 3825SOL    HW212375   0.281   5.531   0.502
 3826SOL     OW12376   0.998   4.016   0.533
 3826SOL    HW112377   0.917   3.996   0.589
 3826SOL    HW212378   0.980   3.990   0.438
 3827SOL     OW12379   1.629   1.190   1.958
 3827SOL    HW112380   1.703   1.125   1.939
 3827SOL    HW212381   1.667   1.282   1.963
 3828SOL     OW12382   3.747   3.253   3.556
 3828SOL    HW112383   3.798   3.175   3.520
 3828SOL    HW212384   3.777   3.336   3.509
 3829SOL     OW12385   1.167   5.039   2.021
 3829SOL    HW112386   1.149   5.009   2.115
 3829SOL    HW212387   1.085   5.026   1.965
 3830SOL     OW12388   0.806   0.173   5.260
 3830SOL    HW112389   0.847   0.253   5.215
 3830SOL    HW212390   0.796   0.099   5.194
 3831SOL     OW12391   4.673   2.192   2.743
 3831SOL    HW112392   4.759   2.142   2.736
 3831SOL    HW212393   4.651   2.207   2.839
 3832SOL     OW12394   0.210   0.721   3.229
 3832SOL    HW112395   0.227   0.820   3.225
 3832SOL    HW212396   0.164   0.692   3.145
 3833SOL     OW12397   7.010   5.879   6.614
 3833SOL    HW112398   0.075   5.916   6.643
 3833SOL    HW212399   7.014   5.857   6.516
 3834SOL     OW12400   4.183   4.202   1.086
 3834SOL    HW112401   4.103   4.253   1.118
 3834SOL    HW212402   4.216   4.142   1.160
 3835SOL     OW12403   3.666   6.001   4.562
 3835SOL    HW112404   3.631   6.094   4.548
 3835SOL    HW212405   3.702   5.992   4.654
 3836SOL     OW12406   0.357   4.693   5.823
 3836SOL    HW112407   0.424   4.748   5.773
 3836SOL    HW212408   0.364   4.598   5.795
 3837SOL     OW12409   4.426   4.139   6.445
 3837SOL    HW112410   4.502   4.075   6.455
 3837SOL    HW212411   4.459   4.233   6.456
 3838SOL     OW12412   0.563   3.280   4.401
 3838SOL    HW112413   0.510   3.214   4.454
 3838SOL    HW212414   0.628   3.232   4.343
 3839SOL     OW12415   5.924   1.707   3.006
 3839SOL    HW112416   5.845   1.715   2.946
 3839SOL    HW212417   5.898   1.658   3.089
 3840SOL     OW12418   2.689   1.559   6.828
 3840SOL    HW112419   2.661   1.611   6.747
 3840SOL    HW212420   2.742   1.480   6.800
 3841SOL     OW12421   6.974   3.598   5.051
 3841SOL    HW112422   6.893   3.657   5.050
 3841SOL    HW212423   7.018   3.600   4.962
 3842SOL     OW12424   2.241   2.677   1.914
 3842SOL    HW112425   2.159   2.729   1.888
 3842SOL    HW212426   2.280   2.716   1.997
 3843SOL     OW12427   5.556   4.799   2.817
 3843SOL    HW112428   5.515   4.721   2.864
 3843SOL    HW212429   5.635   4.832   2.868
 3844SOL     OW12430   1.227   2.448   5.329
 3844SOL    HW112431   1.255   2.538   5.295
 3844SOL    HW212432   1.272   2.429   5.416
 3845SOL     OW12433   3.400   3.927   5.238
 3845SOL    HW112434   3.393   3.949   5.141
 3845SOL    HW212435   3.375   4.007   5.292
 3846SOL     OW12436   6.950   5.344   3.272
 3846SOL    HW112437   6.940   5.366   3.175
 3846SOL    HW212438   6.995   5.255   3.281
 3847SOL     OW12439   5.429   2.401   3.978
 3847SOL    HW112440   5.428   2.344   3.896
 3847SOL    HW212441   5.361   2.474   3.969
 3848SOL     OW12442   4.607   5.355   2.275
 3848SOL    HW112443   4.528   5.307   2.310
 3848SOL    HW212444   4.597   5.453   2.293
 3849SOL     OW12445   0.924   1.150   6.169
 3849SOL    HW112446   0.984   1.202   6.230
 3849SOL    HW212447   0.844   1.206   6.146
 3850SOL     OW12448   2.740   3.405   1.749
 3850SOL    HW112449   2.783   3.460   1.820
 3850SOL    HW212450   2.663   3.456   1.710
 3851SOL     OW12451   0.855   4.606   2.378
 3851SOL    HW112452   0.859   4.590   2.279
 3851SOL    HW212453   0.945   4.590   2.417
 3852SOL     OW12454   4.168   6.491   3.960
 3852SOL    HW112455   4.086   6.485   3.904
 3852SOL    HW212456   4.152   6.447   4.048
 3853SOL     OW12457   0.966   4.418   3.579
 3853SOL    HW112458   1.025   4.448   3.504
 3853SOL    HW212459   0.887   4.479   3.586
 3854SOL     OW12460   1.843   2.730   2.939
 3854SOL    HW112461   1.839   2.635   2.972
 3854SOL    HW212462   1.936   2.765   2.947
 3855SOL     OW12463   5.707   6.433   6.818
 3855SOL    HW112464   5.779   6.373   6.851
 3855SOL    HW212465   5.693   6.419   6.720
 3856SOL     OW12466   6.800   0.589   6.292
 3856SOL    HW112467   6.867   0.635   6.351
 3856SOL    HW212468   6.847   0.529   6.228
 3857SOL     OW12469   0.021   6.528   0.015
 3857SOL    HW112470   0.034   6.615   0.062
 3857SOL    HW212471   7.002   6.462   0.077
 3858SOL     OW12472   2.488   0.740   5.721
 3858SOL    HW112473   2.427   0.684   5.665
 3858SOL    HW212474   2.508   0.692   5.806
 3859SOL     OW12475   5.924   1.001   2.443
 3859SOL    HW112476   5.903   0.982   2.539
 3859SOL    HW212477   5.840   1.000   2.389
 3860SOL     OW12478   2.874   0.785   5.233
 3860SOL    HW112479   2.792   0.792   5.290
 3860SOL    HW212480   2.955   0.794   5.291
 3861SOL     OW12481   4.386   4.834   3.431
 3861SOL    HW112482   4.336   4.911   3.391
 3861SOL    HW212483   4.421   4.861   3.521
 3862SOL     OW12484   0.494   0.289   4.930
 3862SOL    HW112485   0.486   0.377   4.884
 3862SOL    HW212486   0.452   0.293   5.020
 3863SOL     OW12487   5.633   2.640   0.059
 3863SOL    HW112488   5.714   2.650   0.001
 3863SOL    HW212489   5.658   2.591   0.142
 3864SOL     OW12490   2.563   0.443   5.569
 3864SOL    HW112491   2.605   0.438   5.479
 3864SOL    HW212492   2.480   0.499   5.564
 3865SOL     OW12493   2.794   0.315   0.210
 3865SOL    HW112494   2.768   0.219   0.221
 3865SOL    HW212495   2.785   0.363   0.297
 3866SOL     OW12496   3.173   0.136   1.112
 3866SOL    HW112497   3.211   0.141   1.019
 3866SOL    HW212498   3.094   0.197   1.119
 3867SOL     OW12499   1.206   4.941   3.895
 3867SOL    HW112500   1.237   4.898   3.980
 3867SOL    HW212501   1.286   4.974   3.844
 3868SOL     OW12502   2.790   0.026   0.240
 3868SOL    HW112503   2.858   7.006   0.181
 3868SOL    HW212504   2.699   7.013   0.219
 3869SOL     OW12505   5.437   3.958   5.155
 3869SOL    HW112506   5.488   3.941   5.071
 3869SOL    HW212507   5.341   3.974   5.134
 3870SOL     OW12508   5.900   6.041   6.969
 3870SOL    HW112509   5.950   5.990   0.016
 3870SOL    HW212510   5.965   6.086   6.908
 3871SOL     OW12511   3.254   0.318   3.359
 3871SOL    HW112512   3.209   0.271   3.282
 3871SOL    HW212513   3.191   0.385   3.398
 3872SOL     OW12514   3.829   2.997   4.009
 3872SOL    HW112515   3.749   2.955   4.052
 3872SOL    HW212516   3.871   3.060   4.074
 3873SOL     OW12517   6.440   2.759   0.653
 3873SOL    HW112518   6.478   2.750   0.745
 3873SOL    HW212519   6.412   2.670   0.619
 3874SOL     OW12520   4.212   5.800   0.059
 3874SOL    HW112521   4.151   5.804   7.003
 3874SOL    HW212522   4.164   5.755   0.135
 3875SOL     OW12523   2.038   2.893   2.078
 3875SOL    HW112524   2.002   2.800   2.087
 3875SOL    HW212525   2.024   2.943   2.164
 3876SOL     OW12526   4.191   5.325   0.882
 3876SOL    HW112527   4.264   5.385   0.849
 3876SOL    HW212528   4.185   5.330   0.981
 3877SOL     OW12529   6.050   3.286   0.673
 3877SOL    HW112530   5.974   3.345   0.701
 3877SOL    HW212531   6.110   3.271   0.752
 3878SOL     OW12532   3.633   6.826   4.397
 3878SOL    HW112533   3.577   6.843   4.478
 3878SOL    HW212534   3.708   6.764   4.420
 3879SOL     OW12535   5.295   5.380   1.591
 3879SOL    HW112536   5.269   5.357   1.685
 3879SOL    HW212537   5.213   5.381   1.534
 3880SOL     OW12538   5.879   4.891   3.929
 3880SOL    HW112539   5.958   4.830   3.929
 3880SOL    HW212540   5.845   4.902   4.022
 3881SOL     OW12541   1.145   3.725   1.607
 3881SOL    HW112542   1.205   3.764   1.537
 3881SOL    HW212543   1.192   3.647   1.651
 3882SOL     OW12544   1.368   1.417   5.396
 3882SOL    HW112545   1.313   1.334   5.391
 3882SOL    HW212546   1.413   1.434   5.308
 3883SOL     OW12547   3.759   0.813   3.318
 3883SOL    HW112548   3.815   0.732   3.302
 3883SOL    HW212549   3.818   0.890   3.340
 3884SOL     OW12550   0.183   5.076   3.469
 3884SOL    HW112551   0.130   5.065   3.554
 3884SOL    HW212552   0.249   5.150   3.480
 3885SOL     OW12553   6.726   0.337   2.638
 3885SOL    HW112554   6.679   0.422   2.660
 3885SOL    HW212555   6.772   0.346   2.550
 3886SOL     OW12556   5.965   6.335   5.047
 3886SOL    HW112557   6.031   6.293   4.986
 3886SOL    HW212558   5.878   6.285   5.043
 3887SOL     OW12559   0.359   0.529   6.229
 3887SOL    HW112560   0.421   0.473   6.284
 3887SOL    HW212561   0.283   0.472   6.197
 3888SOL     OW12562   6.428   0.469   5.367
 3888SOL    HW112563   6.336   0.479   5.329
 3888SOL    HW212564   6.478   0.399   5.317
 3889SOL     OW12565   6.687   3.437   5.885
 3889SOL    HW112566   6.725   3.358   5.837
 3889SOL    HW212567   6.617   3.480   5.827
 3890SOL     OW12568   5.476   5.640   2.770
 3890SOL    HW112569   5.522   5.566   2.818
 3890SOL    HW212570   5.504   5.728   2.809
 3891SOL     OW12571   5.642   4.429   4.988
 3891SOL    HW112572   5.687   4.413   5.076
 3891SOL    HW212573   5.669   4.358   4.923
 3892SOL     OW12574   0.389   1.787   1.179
 3892SOL    HW112575   0.462   1.812   1.115
 3892SOL    HW212576   0.373   1.863   1.243
 3893SOL     OW12577   4.635   4.525   1.107
 3893SOL    HW112578   4.565   4.461   1.074
 3893SOL    HW212579   4.615   4.550   1.202
 3894SOL     OW12580   3.304   2.303   0.888
 3894SOL    HW112581   3.379   2.243   0.916
 3894SOL    HW212582   3.232   2.248   0.845
 3895SOL     OW12583   1.494   0.728   5.973
 3895SOL    HW112584   1.524   0.817   6.006
 3895SOL    HW212585   1.445   0.680   6.046
 3896SOL     OW12586   0.126   0.729   5.878
 3896SOL    HW112587   0.178   0.644   5.861
 3896SOL    HW212588   0.072   0.751   5.797
 3897SOL     OW12589   3.823   5.718   2.168
 3897SOL    HW112590   3.730   5.719   2.133
 3897SOL    HW212591   3.838   5.636   2.222
 3898SOL     OW12592   3.401   3.412   4.254
 3898SOL    HW112593   3.492   3.452   4.259
 3898SOL    HW212594   3.367   3.395   4.347
 3899SOL     OW12595   5.575   0.686   4.229
 3899SOL    HW112596   5.527   0.681   4.142
 3899SOL    HW212597   5.548   0.768   4.279
 3900SOL     OW12598   5.752   2.954   3.704
 3900SOL    HW112599   5.710   2.864   3.688
 3900SOL    HW212600   5.851   2.944   3.705
 3901SOL     OW12601   3.141   7.019   5.408
 3901SOL    HW112602   3.199   0.028   5.483
 3901SOL    HW212603   3.163   0.047   5.325
 3902SOL     OW12604   5.932   3.735   2.328
 3902SOL    HW112605   5.963   3.707   2.237
 3902SOL    HW212606   5.972   3.824   2.351
 3903SOL     OW12607   4.679   5.435   0.448
 3903SOL    HW112608   4.692   5.534   0.453
 3903SOL    HW212609   4.766   5.388   0.464
 3904SOL     OW12610   1.836   6.742   4.930
 3904SOL    HW112611   1.748   6.701   4.957
 3904SOL    HW212612   1.911   6.686   4.964
 3905SOL     OW12613   6.416   0.149   5.670
 3905SOL    HW112614   6.493   0.132   5.608
 3905SOL    HW212615   6.394   0.247   5.669
 3906SOL     OW12616   3.878   5.263   5.126
 3906SOL    HW112617   3.790   5.310   5.126
 3906SOL    HW212618   3.870   5.177   5.177
 3907SOL     OW12619   6.619   6.695   5.460
 3907SOL    HW112620   6.702   6.690   5.404
 3907SOL    HW212621   6.602   6.790   5.487
 3908SOL     OW12622   0.911   0.454   0.381
 3908SOL    HW112623   0.942   0.547   0.362
 3908SOL    HW212624   0.907   0.440   0.480
 3909SOL     OW12625   0.612   5.579   5.348
 3909SOL    HW112626   0.684   5.607   5.412
 3909SOL    HW212627   0.544   5.651   5.340
 3910SOL     OW12628   3.840   3.882   2.052
 3910SOL    HW112629   3.829   3.785   2.073
 3910SOL    HW212630   3.849   3.894   1.953
 3911SOL     OW12631   4.067   0.925   6.966
 3911SOL    HW112632   4.007   0.974   6.902
 3911SOL    HW212633   4.119   0.991   7.020
 3912SOL     OW12634   3.075   0.760   6.576
 3912SOL    HW112635   3.147   0.811   6.529
 3912SOL    HW212636   3.011   0.723   6.508
 3913SOL     OW12637   1.949   5.947   6.579
 3913SOL    HW112638   1.983   5.961   6.486
 3913SOL    HW212639   1.857   5.985   6.587
 3914SOL     OW12640   3.892   0.781   0.559
 3914SOL    HW112641   3.911   0.874   0.589
 3914SOL    HW212642   3.848   0.783   0.470
 3915SOL     OW12643   4.304   6.424   1.771
 3915SOL    HW112644   4.211   6.402   1.802
 3915SOL    HW212645   4.301   6.500   1.705
 3916SOL     OW12646   1.552   6.227   2.849
 3916SOL    HW112647   1.602   6.306   2.886
 3916SOL    HW212648   1.527   6.245   2.754
 3917SOL     OW12649   1.097   4.940   6.901
 3917SOL    HW112650   1.019   4.998   6.875
 3917SOL    HW212651   1.087   4.912   6.996
 3918SOL     OW12652   4.903   6.749   2.154
 3918SOL    HW112653   4.929   6.758   2.058
 3918SOL    HW212654   4.842   6.670   2.165
 3919SOL     OW12655   3.243   6.387   6.302
 3919SOL    HW112656   3.233   6.296   6.343
 3919SOL    HW212657   3.155   6.417   6.264
 3920SOL     OW12658   2.809   2.239   6.596
 3920SOL    HW112659   2.904   2.211   6.581
 3920SOL    HW212660   2.798   2.275   6.689
 3921SOL     OW12661   0.106   3.085   0.677
 3921SOL    HW112662   0.084   3.080   0.775
 3921SOL    HW212663   0.076   3.000   0.632
 3922SOL     OW12664   5.892   4.819   1.343
 3922SOL    HW112665   5.931   4.854   1.258
 3922SOL    HW212666   5.957   4.833   1.418
 3923SOL     OW12667   6.315   1.621   6.994
 3923SOL    HW112668   6.371   1.594   0.050
 3923SOL    HW212669   6.338   1.715   6.968
 3924SOL     OW12670   0.723   5.365   3.020
 3924SOL    HW112671   0.633   5.403   3.044
 3924SOL    HW212672   0.718   5.323   2.929
 3925SOL     OW12673   3.982   4.308   0.864
 3925SOL    HW112674   3.977   4.208   0.862
 3925SOL    HW212675   4.015   4.337   0.954
 3926SOL     OW12676   6.730   6.370   2.974
 3926SOL    HW112677   6.761   6.464   2.991
 3926SOL    HW212678   6.802   6.306   3.000
 3927SOL     OW12679   6.768   3.831   4.080
 3927SOL    HW112680   6.739   3.882   3.999
 3927SOL    HW212681   6.767   3.891   4.160
 3928SOL     OW12682   3.174   5.226   4.581
 3928SOL    HW112683   3.215   5.317   4.592
 3928SOL    HW212684   3.139   5.217   4.488
 3929SOL     OW12685   0.346   2.355   6.413
 3929SOL    HW112686   0.317   2.450   6.425
 3929SOL    HW212687   0.280   2.295   6.456
 3930SOL     OW12688   1.506   1.919   4.051
 3930SOL    HW112689   1.407   1.924   4.039
 3930SOL    HW212690   1.550   1.909   3.962
 3931SOL     OW12691   2.666   1.290   2.934
 3931SOL    HW112692   2.595   1.328   2.993
 3931SOL    HW212693   2.645   1.194   2.915
 3932SOL     OW12694   1.771   4.366   3.442
 3932SOL    HW112695   1.717   4.282   3.441
 3932SOL    HW212696   1.738   4.426   3.515
 3933SOL     OW12697   2.294   6.716   6.569
 3933SOL    HW112698   2.364   6.657   6.610
 3933SOL    HW212699   2.310   6.810   6.596
 3934SOL     OW12700   0.516   1.304   1.242
 3934SOL    HW112701   0.481   1.211   1.257
 3934SOL    HW212702   0.439   1.367   1.231
 3935SOL     OW12703   1.826   0.207   5.284
 3935SOL    HW112704   1.899   0.230   5.348
 3935SOL    HW212705   1.865   0.179   5.197
 3936SOL     OW12706   0.050   5.779   5.493
 3936SOL    HW112707   0.048   5.681   5.511
 3936SOL    HW212708   0.042   5.829   5.579
 3937SOL     OW12709   0.592   0.002   2.241
 3937SOL    HW112710   0.498   0.024   2.266
 3937SOL    HW212711   0.654   0.037   2.311
 3938SOL     OW12712   6.707   2.721   3.878
 3938SOL    HW112713   6.796   2.758   3.851
 3938SOL    HW212714   6.648   2.712   3.797
 3939SOL     OW12715   3.077   1.308   3.169
 3939SOL    HW112716   3.118   1.385   3.121
 3939SOL    HW212717   3.130   1.225   3.150
 3940SOL     OW12718   4.266   4.924   2.096
 3940SOL    HW112719   4.204   4.999   2.118
 3940SOL    HW212720   4.236   4.842   2.145
 3941SOL     OW12721   5.690   1.232   5.559
 3941SOL    HW112722   5.628   1.224   5.637
 3941SOL    HW212723   5.703   1.329   5.537
 3942SOL     OW12724   0.813   6.590   5.409
 3942SOL    HW112725   0.715   6.594   5.388
 3942SOL    HW212726   0.858   6.673   5.377
 3943SOL     OW12727   0.902   3.461   2.892
 3943SOL    HW112728   0.889   3.396   2.967
 3943SOL    HW212729   0.982   3.518   2.911
 3944SOL     OW12730   5.493   4.107   5.416
 3944SOL    HW112731   5.396   4.133   5.417
 3944SOL    HW212732   5.506   4.030   5.353
 3945SOL     OW12733   0.988   2.560   2.140
 3945SOL    HW112734   1.056   2.602   2.199
 3945SOL    HW212735   0.943   2.485   2.188
 3946SOL     OW12736   6.424   4.651   5.882
 3946SOL    HW112737   6.482   4.580   5.921
 3946SOL    HW212738   6.423   4.643   5.782
 3947SOL     OW12739   6.014   5.440   1.979
 3947SOL    HW112740   6.051   5.527   2.010
 3947SOL    HW212741   5.981   5.388   2.058
 3948SOL     OW12742   0.761   4.815   0.679
 3948SOL    HW112743   0.800   4.905   0.660
 3948SOL    HW212744   0.830   4.758   0.724
 3949SOL     OW12745   5.548   0.403   3.037
 3949SOL    HW112746   5.617   0.387   3.107
 3949SOL    HW212747   5.586   0.382   2.946
 3950SOL     OW12748   3.270   4.066   1.583
 3950SOL    HW112749   3.208   4.044   1.658
 3950SOL    HW212750   3.223   4.051   1.496
 3951SOL     OW12751   6.747   0.060   6.703
 3951SOL    HW112752   6.795   0.079   6.788
 3951SOL    HW212753   6.721   6.987   6.700
 3952SOL     OW12754   6.298   4.066   4.306
 3952SOL    HW112755   6.308   4.068   4.206
 3952SOL    HW212756   6.260   3.977   4.333
 3953SOL     OW12757   3.218   4.001   0.634
 3953SOL    HW112758   3.121   3.978   0.636
 3953SOL    HW212759   3.248   4.029   0.725
 3954SOL     OW12760   5.774   5.543   5.579
 3954SOL    HW112761   5.692   5.488   5.592
 3954SOL    HW212762   5.810   5.571   5.668
 3955SOL     OW12763   4.494   6.648   6.817
 3955SOL    HW112764   4.536   6.590   6.748
 3955SOL    HW212765   4.562   6.673   6.886
 3956SOL     OW12766   0.737   2.060   3.390
 3956SOL    HW112767   0.681   2.000   3.447
 3956SOL    HW212768   0.723   2.155   3.416
 3957SOL     OW12769   4.309   6.957   3.533
 3957SOL    HW112770   4.235   6.986   3.473
 3957SOL    HW212771   4.280   6.877   3.586
 3958SOL     OW12772   5.626   0.531   6.209
 3958SOL    HW112773   5.681   0.492   6.283
 3958SOL    HW212774   5.658   0.495   6.121
 3959SOL     OW12775   3.804   6.459   0.824
 3959SOL    HW112776   3.726   6.516   0.799
 3959SOL    HW212777   3.838   6.412   0.743
 3960SOL     OW12778   5.292   2.201   6.035
 3960SOL    HW112779   5.377   2.150   6.033
 3960SOL    HW212780   5.241   2.185   5.950
 3961SOL     OW12781   5.662   2.885   1.926
 3961SOL    HW112782   5.697   2.823   1.996
 3961SOL    HW212783   5.562   2.887   1.930
 3962SOL     OW12784   1.623   5.294   6.870
 3962SOL    HW112785   1.697   5.234   6.899
 3962SOL    HW212786   1.614   5.371   6.934
 3963SOL     OW12787   4.452   4.504   3.678
 3963SOL    HW112788   4.532   4.543   3.631
 3963SOL    HW212789   4.453   4.404   3.667
 3964SOL     OW12790   4.427   4.985   4.408
 3964SOL    HW112791   4.339   5.023   4.436
 3964SOL    HW212792   4.501   5.027   4.462
 3965SOL     OW12793   4.033   3.428   6.309
 3965SOL    HW112794   4.039   3.348   6.249
 3965SOL    HW212795   4.014   3.509   6.254
 3966SOL     OW12796   6.526   5.535   0.254
 3966SOL    HW112797   6.573   5.613   0.296
 3966SOL    HW212798   6.545   5.534   0.156
 3967SOL     OW12799   1.507   4.151   2.730
 3967SOL    HW112800   1.413   4.117   2.738
 3967SOL    HW212801   1.569   4.088   2.777
 3968SOL     OW12802   7.012   0.188   0.897
 3968SOL    HW112803   7.019   0.285   0.917
 3968SOL    HW212804   0.033   0.169   0.809
 3969SOL     OW12805   1.049   3.647   2.674
 3969SOL    HW112806   1.081   3.641   2.769
 3969SOL    HW212807   1.045   3.556   2.634
 3970SOL     OW12808   4.924   5.256   3.918
 3970SOL    HW112809   4.901   5.352   3.934
 3970SOL    HW212810   4.847   5.210   3.874
 3971SOL     OW12811   2.249   4.591   2.355
 3971SOL    HW112812   2.221   4.529   2.429
 3971SOL    HW212813   2.225   4.685   2.379
 3972SOL     OW12814   1.612   5.152   0.965
 3972SOL    HW112815   1.641   5.219   1.033
 3972SOL    HW212816   1.538   5.096   1.003
 3973SOL     OW12817   2.119   4.425   5.619
 3973SOL    HW112818   2.038   4.409   5.562
 3973SOL    HW212819   2.201   4.398   5.569
 3974SOL     OW12820   1.569   0.073   5.245
 3974SOL    HW112821   1.544   7.013   5.195
 3974SOL    HW212822   1.668   0.081   5.250
 3975SOL     OW12823   5.128   0.648   6.324
 3975SOL    HW112824   5.221   0.622   6.296
 3975SOL    HW212825   5.132   0.691   6.415
 3976SOL     OW12826   1.595   5.364   1.503
 3976SOL    HW112827   1.609   5.289   1.567
 3976SOL    HW212828   1.684   5.398   1.471
 3977SOL     OW12829   3.056   4.299   5.278
 3977SOL    HW112830   2.977   4.353   5.250
 3977SOL    HW212831   3.075   4.316   5.375
 3978SOL     OW12832   5.373   0.074   4.868
 3978SOL    HW112833   5.433   0.141   4.826
 3978SOL    HW212834   5.281   0.081   4.828
 3979SOL     OW12835   2.449   5.861   1.674
 3979SOL    HW112836   2.452   5.961   1.674
 3979SOL    HW212837   2.377   5.830   1.612
 3980SOL     OW12838   0.231   4.631   6.914
 3980SOL    HW112839   0.293   4.645   6.837
 3980SOL    HW212840   0.275   4.574   6.983
 3981SOL     OW12841   1.744   1.546   5.971
 3981SOL    HW112842   1.831   1.546   5.921
 3981SOL    HW212843   1.759   1.576   6.065
 3982SOL     OW12844   1.775   1.056   4.498
 3982SOL    HW112845   1.703   1.123   4.518
 3982SOL    HW212846   1.856   1.102   4.463
 3983SOL     OW12847   4.089   5.519   4.063
 3983SOL    HW112848   4.044   5.505   4.151
 3983SOL    HW212849   4.025   5.562   4.000
 3984SOL     OW12850   1.617   0.895   2.794
 3984SOL    HW112851   1.665   0.982   2.806
 3984SOL    HW212852   1.529   0.911   2.749
 3985SOL     OW12853   3.062   4.697   6.567
 3985SOL    HW112854   3.141   4.662   6.518
 3985SOL    HW212855   3.026   4.627   6.628
 3986SOL     OW12856   6.963   2.219   2.528
 3986SOL    HW112857   0.008   2.252   2.463
 3986SOL    HW212858   6.878   2.271   2.516
 3987SOL     OW12859   2.420   5.700   4.256
 3987SOL    HW112860   2.421   5.740   4.348
 3987SOL    HW212861   2.514   5.693   4.222
 3988SOL     OW12862   3.167   3.044   6.778
 3988SOL    HW112863   3.265   3.053   6.792
 3988SOL    HW212864   3.146   2.956   6.736
 3989SOL     OW12865   6.338   1.410   0.292
 3989SOL    HW112866   6.329   1.330   0.351
 3989SOL    HW212867   6.433   1.421   0.264
 3990SOL     OW12868   5.906   2.281   3.556
 3990SOL    HW112869   5.946   2.340   3.626
 3990SOL    HW212870   5.843   2.216   3.600
 3991SOL     OW12871   6.100   1.708   2.088
 3991SOL    HW112872   6.195   1.729   2.065
 3991SOL    HW212873   6.097   1.659   2.175
 3992SOL     OW12874   3.729   2.564   6.609
 3992SOL    HW112875   3.793   2.638   6.588
 3992SOL    HW212876   3.719   2.505   6.528
 3993SOL     OW12877   0.414   2.398   3.174
 3993SOL    HW112878   0.490   2.335   3.158
 3993SOL    HW212879   0.328   2.346   3.179
 3994SOL     OW12880   0.757   2.503   5.820
 3994SOL    HW112881   0.853   2.484   5.799
 3994SOL    HW212882   0.743   2.602   5.824
 3995SOL     OW12883   2.120   3.800   3.902
 3995SOL    HW112884   2.148   3.847   3.819
 3995SOL    HW212885   2.180   3.721   3.918
 3996SOL     OW12886   0.476   1.144   4.406
 3996SOL    HW112887   0.488   1.173   4.311
 3996SOL    HW212888   0.448   1.048   4.408
 3997SOL     OW12889   4.797   2.754   2.865
 3997SOL    HW112890   4.787   2.788   2.958
 3997SOL    HW212891   4.795   2.830   2.801
 3998SOL     OW12892   4.602   1.001   2.583
 3998SOL    HW112893   4.598   0.927   2.650
 3998SOL    HW212894   4.622   0.963   2.493
 3999SOL     OW12895   5.360   3.258   3.792
 3999SOL    HW112896   5.403   3.183   3.842
 3999SOL    HW212897   5.403   3.344   3.818
 4000SOL     OW12898   3.284   5.072   3.007
 4000SOL    HW112899   3.351   5.021   3.061
 4000SOL    HW212900   3.207   5.012   2.984
 4001SOL     OW12901   1.627   1.890   3.790
 4001SOL    HW112902   1.645   1.814   3.727
 4001SOL    HW212903   1.713   1.923   3.828
 4002SOL     OW12904   2.692   3.022   0.159
 4002SOL    HW112905   2.767   2.975   0.113
 4002SOL    HW212906   2.660   3.099   0.103
 4003SOL     OW12907   2.759   6.539   5.391
 4003SOL    HW112908   2.776   6.470   5.321
 4003SOL    HW212909   2.662   6.540   5.414
 4004SOL     OW12910   6.457   1.983   3.477
 4004SOL    HW112911   6.411   1.964   3.564
 4004SOL    HW212912   6.438   1.909   3.412
 4005SOL     OW12913   5.418   5.226   1.210
 4005SOL    HW112914   5.419   5.128   1.189
 4005SOL    HW212915   5.508   5.253   1.243
 4006SOL     OW12916   4.063   5.024   2.268
 4006SOL    HW112917   4.063   5.056   2.362
 4006SOL    HW212918   3.977   4.978   2.248
 4007SOL     OW12919   0.678   3.172   1.345
 4007SOL    HW112920   0.627   3.095   1.384
 4007SOL    HW212921   0.710   3.231   1.418
 4008SOL     OW12922   3.354   2.129   4.160
 4008SOL    HW112923   3.432   2.160   4.106
 4008SOL    HW212924   3.322   2.041   4.126
 4009SOL     OW12925   5.364   2.638   0.366
 4009SOL    HW112926   5.426   2.565   0.336
 4009SOL    HW212927   5.316   2.610   0.449
 4010SOL     OW12928   1.842   3.615   1.115
 4010SOL    HW112929   1.802   3.525   1.095
 4010SOL    HW212930   1.924   3.604   1.170
 4011SOL     OW12931   1.173   0.889   1.406
 4011SOL    HW112932   1.124   0.853   1.326
 4011SOL    HW212933   1.269   0.903   1.382
 4012SOL     OW12934   4.291   4.850   1.828
 4012SOL    HW112935   4.287   4.756   1.794
 4012SOL    HW212936   4.288   4.849   1.928
 4013SOL     OW12937   2.613   0.646   1.275
 4013SOL    HW112938   2.618   0.570   1.339
 4013SOL    HW212939   2.691   0.643   1.212
 4014SOL     OW12940   4.481   6.373   2.854
 4014SOL    HW112941   4.453   6.321   2.934
 4014SOL    HW212942   4.466   6.470   2.870
 4015SOL     OW12943   4.647   5.719   6.436
 4015SOL    HW112944   4.627   5.737   6.340
 4015SOL    HW212945   4.739   5.754   6.457
 4016SOL     OW12946   1.449   5.941   6.655
 4016SOL    HW112947   1.385   5.939   6.578
 4016SOL    HW212948   1.503   5.857   6.656
 4017SOL     OW12949   6.893   6.586   6.759
 4017SOL    HW112950   6.991   6.593   6.777
 4017SOL    HW212951   6.861   6.671   6.716
 4018SOL     OW12952   5.685   6.711   2.074
 4018SOL    HW112953   5.595   6.704   2.031
 4018SOL    HW212954   5.674   6.743   2.168
 4019SOL     OW12955   5.702   3.484   2.837
 4019SOL    HW112956   5.712   3.507   2.740
 4019SOL    HW212957   5.791   3.460   2.875
 4020SOL     OW12958   5.894   2.493   5.550
 4020SOL    HW112959   5.975   2.507   5.606
 4020SOL    HW212960   5.898   2.552   5.470
 4021SOL     OW12961   3.136   3.218   5.514
 4021SOL    HW112962   3.101   3.170   5.595
 4021SOL    HW212963   3.066   3.221   5.443
 4022SOL     OW12964   4.204   0.525   6.935
 4022SOL    HW112965   4.113   0.502   6.971
 4022SOL    HW212966   4.208   0.623   6.914
 4023SOL     OW12967   6.615   1.597   4.685
 4023SOL    HW112968   6.602   1.658   4.608
 4023SOL    HW212969   6.547   1.523   4.682
 4024SOL     OW12970   2.798   5.240   4.332
 4024SOL    HW112971   2.798   5.182   4.251
 4024SOL    HW212972   2.789   5.183   4.414
 4025SOL     OW12973   0.920   6.324   4.577
 4025SOL    HW112974   0.893   6.233   4.608
 4025SOL    HW212975   0.999   6.317   4.517
 4026SOL     OW12976   6.278   6.216   4.021
 4026SOL    HW112977   6.297   6.253   4.111
 4026SOL    HW212978   6.179   6.220   4.003
 4027SOL     OW12979   3.028   3.987   2.048
 4027SOL    HW112980   3.078   4.022   2.127
 4027SOL    HW212981   2.975   3.906   2.075
 4028SOL     OW12982   2.083   2.347   3.430
 4028SOL    HW112983   2.128   2.370   3.516
 4028SOL    HW212984   2.045   2.430   3.390
 4029SOL     OW12985   2.604   4.331   6.292
 4029SOL    HW112986   2.561   4.394   6.226
 4029SOL    HW212987   2.629   4.382   6.374
 4030SOL     OW12988   1.473   1.768   6.653
 4030SOL    HW112989   1.439   1.702   6.720
 4030SOL    HW212990   1.452   1.861   6.685
 4031SOL     OW12991   4.695   5.926   3.238
 4031SOL    HW112992   4.607   5.882   3.257
 4031SOL    HW212993   4.757   5.913   3.315
 4032SOL     OW12994   6.152   0.269   3.030
 4032SOL    HW112995   6.195   0.252   2.941
 4032SOL    HW212996   6.148   0.368   3.047
 4033SOL     OW12997   2.947   3.284   2.753
 4033SOL    HW112998   2.901   3.199   2.729
 4033SOL    HW212999   2.934   3.302   2.851
 4034SOL     OW13000   6.329   1.732   4.968
 4034SOL    HW113001   6.347   1.827   4.942
 4034SOL    HW213002   6.295   1.730   5.062
 4035SOL     OW13003   0.521   2.676   0.772
 4035SOL    HW113004   0.586   2.675   0.848
 4035SOL    HW213005   0.429   2.694   0.806
 4036SOL     OW13006   5.065   6.725   2.657
 4036SOL    HW113007   4.987   6.665   2.675
 4036SOL    HW213008   5.078   6.788   2.733
 4037SOL     OW13009   1.840   2.421   0.360
 4037SOL    HW113010   1.878   2.511   0.338
 4037SOL    HW213011   1.802   2.380   0.278
 4038SOL     OW13012   4.560   4.840   2.042
 4038SOL    HW113013   4.510   4.775   2.099
 4038SOL    HW213014   4.552   4.813   1.946
 4039SOL     OW13015   4.615   4.643   1.640
 4039SOL    HW113016   4.644   4.569   1.700
 4039SOL    HW213017   4.668   4.725   1.660
 4040SOL     OW13018   3.371   7.012   6.005
 4040SOL    HW113019   3.339   0.009   6.097
 4040SOL    HW213020   3.364   0.072   5.949
 4041SOL     OW13021   2.463   5.610   1.210
 4041SOL    HW113022   2.507   5.645   1.293
 4041SOL    HW213023   2.496   5.662   1.131
 4042SOL     OW13024   6.449   5.124   3.074
 4042SOL    HW113025   6.440   5.177   2.990
 4042SOL    HW213026   6.541   5.085   3.079
 4043SOL     OW13027   5.196   2.418   4.194
 4043SOL    HW113028   5.144   2.378   4.269
 4043SOL    HW213029   5.221   2.346   4.129
 4044SOL     OW13030   4.927   0.516   4.286
 4044SOL    HW113031   4.982   0.581   4.340
 4044SOL    HW213032   4.866   0.567   4.225
 4045SOL     OW13033   2.945   4.667   6.150
 4045SOL    HW113034   2.883   4.594   6.121
 4045SOL    HW213035   3.030   4.662   6.096
 4046SOL     OW13036   0.808   1.161   3.705
 4046SOL    HW113037   0.761   1.087   3.658
 4046SOL    HW213038   0.787   1.248   3.659
 4047SOL     OW13039   2.628   2.805   0.880
 4047SOL    HW113040   2.571   2.727   0.857
 4047SOL    HW213041   2.626   2.820   0.979
 4048SOL     OW13042   5.249   1.530   2.036
 4048SOL    HW113043   5.345   1.548   2.017
 4048SOL    HW213044   5.233   1.528   2.135
 4049SOL     OW13045   6.243   6.144   0.110
 4049SOL    HW113046   6.298   6.143   0.026
 4049SOL    HW213047   6.228   6.238   0.139
 4050SOL     OW13048   2.437   6.473   0.743
 4050SOL    HW113049   2.412   6.563   0.780
 4050SOL    HW213050   2.521   6.442   0.787
 4051SOL     OW13051   3.569   3.062   0.214
 4051SOL    HW113052   3.545   3.156   0.189
 4051SOL    HW213053   3.505   2.999   0.169
 4052SOL     OW13054   0.473   0.620   1.723
 4052SOL    HW113055   0.441   0.545   1.666
 4052SOL    HW213056   0.464   0.595   1.819
 4053SOL     OW13057   3.306   5.401   3.886
 4053SOL    HW113058   3.343   5.339   3.955
 4053SOL    HW213059   3.228   5.451   3.923
 4054SOL     OW13060   1.181   2.938   1.493
 4054SOL    HW113061   1.274   2.906   1.474
 4054SOL    HW213062   1.152   3.001   1.421
 4055SOL     OW13063   3.727   3.552   5.780
 4055SOL    HW113064   3.632   3.581   5.765
 4055SOL    HW213065   3.785   3.591   5.709
 4056SOL     OW13066   4.520   2.821   0.265
 4056SOL    HW113067   4.423   2.836   0.281
 4056SOL    HW213068   4.537   2.725   0.244
 4057SOL     OW13069   5.567   2.442   0.403
 4057SOL    HW113070   5.611   2.379   0.339
 4057SOL    HW213071   5.636   2.504   0.441
 4058SOL     OW13072   1.515   1.273   4.321
 4058SOL    HW113073   1.441   1.336   4.298
 4058SOL    HW213074   1.478   1.180   4.328
 4059SOL     OW13075   1.714   2.452   3.500
 4059SOL    HW113076   1.790   2.496   3.451
 4059SOL    HW213077   1.667   2.389   3.438
 4060SOL     OW13078   4.598   5.565   5.699
 4060SOL    HW113079   4.644   5.532   5.617
 4060SOL    HW213080   4.572   5.487   5.757
 4061SOL     OW13081   3.400   4.882   1.773
 4061SOL    HW113082   3.472   4.949   1.793
 4061SOL    HW213083   3.424   4.794   1.812
 4062SOL     OW13084   3.238   1.095   3.063
 4062SOL    HW113085   3.266   1.092   2.967
 4062SOL    HW213086   3.318   1.102   3.122
 4063SOL     OW13087   5.075   0.181   5.194
 4063SOL    HW113088   4.996   0.161   5.252
 4063SOL    HW213089   5.139   0.238   5.245
 4064SOL     OW13090   1.637   6.579   3.473
 4064SOL    HW113091   1.707   6.651   3.476
 4064SOL    HW213092   1.546   6.620   3.485
 4065SOL     OW13093   0.904   6.722   0.058
 4065SOL    HW113094   0.901   6.688   6.988
 4065SOL    HW213095   0.988   6.692   0.102
 4066SOL     OW13096   5.132   5.238   2.885
 4066SOL    HW113097   5.204   5.281   2.939
 4066SOL    HW213098   5.083   5.308   2.833
 4067SOL     OW13099   6.408   3.370   2.298
 4067SOL    HW113100   6.332   3.432   2.316
 4067SOL    HW213101   6.494   3.413   2.322
 4068SOL     OW13102   3.809   0.450   4.412
 4068SOL    HW113103   3.905   0.432   4.392
 4068SOL    HW213104   3.780   0.394   4.490
 4069SOL     OW13105   3.824   3.890   6.399
 4069SOL    HW113106   3.871   3.900   6.487
 4069SOL    HW213107   3.891   3.871   6.328
 4070SOL     OW13108   1.364   3.178   2.993
 4070SOL    HW113109   1.286   3.207   3.048
 4070SOL    HW213110   1.337   3.101   2.936
 4071SOL     OW13111   1.297   0.641   5.093
 4071SOL    HW113112   1.361   0.681   5.027
 4071SOL    HW213113   1.245   0.568   5.048
 4072SOL     OW13114   0.570   6.293   4.269
 4072SOL    HW113115   0.593   6.324   4.177
 4072SOL    HW213116   0.637   6.225   4.299
 4073SOL     OW13117   2.208   5.493   5.650
 4073SOL    HW113118   2.166   5.482   5.560
 4073SOL    HW213119   2.250   5.407   5.677
 4074SOL     OW13120   1.070   2.124   2.257
 4074SOL    HW113121   1.156   2.089   2.296
 4074SOL    HW213122   1.038   2.062   2.186
 4075SOL     OW13123   4.515   2.449   2.671
 4075SOL    HW113124   4.544   2.542   2.650
 4075SOL    HW213125   4.585   2.384   2.640
 4076SOL     OW13126   2.084   3.526   5.932
 4076SOL    HW113127   2.179   3.514   5.961
 4076SOL    HW213128   2.064   3.623   5.924
 4077SOL     OW13129   3.087   6.563   6.855
 4077SOL    HW113130   3.109   6.482   6.801
 4077SOL    HW213131   3.007   6.544   6.911
 4078SOL     OW13132   6.653   5.526   1.743
 4078SOL    HW113133   6.579   5.593   1.736
 4078SOL    HW213134   6.692   5.528   1.835
 4079SOL     OW13135   0.795   1.403   3.544
 4079SOL    HW113136   0.879   1.449   3.572
 4079SOL    HW213137   0.804   1.369   3.451
 4080SOL     OW13138   2.897   3.506   0.776
 4080SOL    HW113139   2.943   3.417   0.767
 4080SOL    HW213140   2.805   3.500   0.738
 4081SOL     OW13141   1.495   1.418   3.832
 4081SOL    HW113142   1.563   1.444   3.900
 4081SOL    HW213143   1.419   1.370   3.877
 4082SOL     OW13144   1.605   1.850   0.738
 4082SOL    HW113145   1.564   1.832   0.827
 4082SOL    HW213146   1.704   1.864   0.749
 4083SOL     OW13147   5.959   4.221   3.482
 4083SOL    HW113148   5.939   4.317   3.497
 4083SOL    HW213149   6.004   4.209   3.394
 4084SOL     OW13150   4.905   2.899   3.159
 4084SOL    HW113151   4.888   2.996   3.175
 4084SOL    HW213152   4.999   2.877   3.188
 4085SOL     OW13153   2.800   5.267   0.554
 4085SOL    HW113154   2.717   5.299   0.509
 4085SOL    HW213155   2.864   5.232   0.485
 4086SOL     OW13156   6.917   5.022   1.000
 4086SOL    HW113157   6.875   5.023   0.909
 4086SOL    HW213158   6.988   4.951   1.003
 4087SOL     OW13159   2.483   1.016   3.080
 4087SOL    HW113160   2.548   1.036   3.007
 4087SOL    HW213161   2.521   1.047   3.167
 4088SOL     OW13162   6.638   1.438   6.072
 4088SOL    HW113163   6.598   1.509   6.015
 4088SOL    HW213164   6.591   1.351   6.056
 4089SOL     OW13165   6.349   5.395   4.874
 4089SOL    HW113166   6.440   5.433   4.888
 4089SOL    HW213167   6.352   5.296   4.881
 4090SOL     OW13168   2.089   5.592   5.417
 4090SOL    HW113169   1.992   5.614   5.422
 4090SOL    HW213170   2.140   5.672   5.385
 4091SOL     OW13171   0.538   5.762   6.994
 4091SOL    HW113172   0.481   5.717   0.041
 4091SOL    HW213173   0.555   5.857   7.021
 4092SOL     OW13174   5.995   2.201   3.912
 4092SOL    HW113175   6.022   2.248   3.996
 4092SOL    HW213176   5.913   2.244   3.874
 4093SOL     OW13177   5.335   6.413   1.090
 4093SOL    HW113178   5.323   6.505   1.052
 4093SOL    HW213179   5.412   6.413   1.153
 4094SOL     OW13180   0.863   5.103   6.458
 4094SOL    HW113181   0.885   5.042   6.533
 4094SOL    HW213182   0.801   5.175   6.491
 4095SOL     OW13183   0.721   3.690   0.419
 4095SOL    HW113184   0.692   3.731   0.333
 4095SOL    HW213185   0.665   3.726   0.494
 4096SOL     OW13186   3.262   0.814   6.378
 4096SOL    HW113187   3.208   0.848   6.302
 4096SOL    HW213188   3.259   0.714   6.380
 4097SOL     OW13189   5.584   4.973   5.853
 4097SOL    HW113190   5.636   4.891   5.829
 4097SOL    HW213191   5.495   4.971   5.807
 4098SOL     OW13192   0.907   3.364   1.116
 4098SOL    HW113193   0.872   3.351   1.023
 4098SOL    HW213194   0.837   3.407   1.173
 4099SOL     OW13195   3.285   4.883   0.933
 4099SOL    HW113196   3.263   4.863   0.838
 4099SOL    HW213197   3.295   4.982   0.945
 4100SOL     OW13198   1.064   0.228   4.415
 4100SOL    HW113199   1.120   0.304   4.383
 4100SOL    HW213200   1.027   0.179   4.336
 4101SOL     OW13201   0.802   1.533   6.996
 4101SOL    HW113202   0.813   1.494   0.064
 4101SOL    HW213203   0.754   1.621   7.002
 4102SOL     OW13204   1.724   0.534   0.671
 4102SOL    HW113205   1.800   0.584   0.629
 4102SOL    HW213206   1.637   0.576   0.645
 4103SOL     OW13207   0.119   6.863   1.938
 4103SOL    HW113208   0.190   6.933   1.951
 4103SOL    HW213209   0.039   6.905   1.894
 4104SOL     OW13210   0.269   5.432   3.746
 4104SOL    HW113211   0.292   5.478   3.661
 4104SOL    HW213212   0.351   5.424   3.803
 4105SOL     OW13213   5.880   0.557   2.364
 4105SOL    HW113214   5.952   0.502   2.322
 4105SOL    HW213215   5.829   0.500   2.429
 4106SOL     OW13216   0.733   2.604   3.268
 4106SOL    HW113217   0.692   2.524   3.312
 4106SOL    HW213218   0.794   2.574   3.195
 4107SOL     OW13219   0.981   6.045   0.584
 4107SOL    HW113220   1.076   6.022   0.564
 4107SOL    HW213221   0.964   6.037   0.682
 4108SOL     OW13222   6.542   4.793   4.803
 4108SOL    HW113223   6.604   4.871   4.796
 4108SOL    HW213224   6.573   4.720   4.743
 4109SOL     OW13225   5.756   0.020   4.704
 4109SOL    HW113226   5.793   0.001   4.613
 4109SOL    HW213227   5.722   0.113   4.707
 4110SOL     OW13228   3.893   3.058   6.300
 4110SOL    HW113229   3.847   3.133   6.253
 4110SOL    HW213230   3.991   3.062   6.282
 4111SOL     OW13231   6.157   4.865   6.218
 4111SOL    HW113232   6.099   4.813   6.155
 4111SOL    HW213233   6.253   4.854   6.192
 4112SOL     OW13234   4.548   6.432   4.413
 4112SOL    HW113235   4.569   6.352   4.469
 4112SOL    HW213236   4.493   6.497   4.466
 4113SOL     OW13237   4.855   5.987   5.126
 4113SOL    HW113238   4.785   6.009   5.194
 4113SOL    HW213239   4.937   5.954   5.172
 4114SOL     OW13240   6.626   1.543   3.066
 4114SOL    HW113241   6.615   1.543   2.967
 4114SOL    HW213242   6.713   1.587   3.089
 4115SOL     OW13243   2.943   5.152   3.072
 4115SOL    HW113244   2.896   5.065   3.086
 4115SOL    HW213245   3.020   5.159   3.136
 4116SOL     OW13246   4.428   2.101   3.411
 4116SOL    HW113247   4.365   2.117   3.335
 4116SOL    HW213248   4.520   2.130   3.383
 4117SOL     OW13249   1.074   2.996   3.022
 4117SOL    HW113250   0.979   3.011   2.995
 4117SOL    HW213251   1.119   3.084   3.037
 4118SOL     OW13252   5.408   6.680   0.093
 4118SOL    HW113253   5.358   6.611   0.041
 4118SOL    HW213254   5.485   6.713   0.038
 4119SOL     OW13255   3.030   1.532   3.704
 4119SOL    HW113256   3.073   1.526   3.614
 4119SOL    HW213257   2.937   1.493   3.699
 4120SOL     OW13258   3.231   1.306   5.879
 4120SOL    HW113259   3.203   1.242   5.951
 4120SOL    HW213260   3.238   1.258   5.792
 4121SOL     OW13261   6.395   0.365   3.457
 4121SOL    HW113262   6.344   0.447   3.432
 4121SOL    HW213263   6.332   0.289   3.472
 4122SOL     OW13264   1.761   6.399   4.681
 4122SOL    HW113265   1.709   6.327   4.725
 4122SOL    HW213266   1.829   6.359   4.620
 4123SOL     OW13267   4.218   4.843   5.108
 4123SOL    HW113268   4.241   4.840   5.010
 4123SOL    HW213269   4.131   4.890   5.120
 4124SOL     OW13270   6.579   6.962   0.992
 4124SOL    HW113271   6.619   6.884   0.945
 4124SOL    HW213272   6.648   7.005   1.051
 4125SOL     OW13273   4.136   2.282   2.983
 4125SOL    HW113274   4.166   2.335   2.904
 4125SOL    HW213275   4.094   2.197   2.952
 4126SOL     OW13276   1.839   3.353   3.244
 4126SOL    HW113277   1.807   3.412   3.319
 4126SOL    HW213278   1.763   3.333   3.182
 4127SOL     OW13279   5.249   3.151   5.638
 4127SOL    HW113280   5.323   3.116   5.694
 4127SOL    HW213281   5.196   3.217   5.691
 4128SOL     OW13282   0.726   3.579   1.674
 4128SOL    HW113283   0.676   3.650   1.723
 4128SOL    HW213284   0.798   3.622   1.619
 4129SOL     OW13285   3.121   1.061   0.093
 4129SOL    HW113286   3.187   1.080   0.020
 4129SOL    HW213287   3.029   1.079   0.059
 4130SOL     OW13288   6.265   2.184   0.309
 4130SOL    HW113289   6.305   2.196   0.400
 4130SOL    HW213290   6.182   2.240   0.301
 4131SOL     OW13291   0.359   1.540   2.932
 4131SOL    HW113292   0.302   1.621   2.946
 4131SOL    HW213293   0.382   1.500   3.021
 4132SOL     OW13294   5.207   3.659   4.351
 4132SOL    HW113295   5.256   3.578   4.317
 4132SOL    HW213296   5.155   3.634   4.433
 4133SOL     OW13297   3.707   5.910   1.484
 4133SOL    HW113298   3.625   5.909   1.427
 4133SOL    HW213299   3.739   5.816   1.496
 4134SOL     OW13300   2.016   3.909   0.864
 4134SOL    HW113301   2.039   3.920   0.961
 4134SOL    HW213302   1.933   3.854   0.856
 4135SOL     OW13303   0.388   2.729   1.640
 4135SOL    HW113304   0.386   2.740   1.739
 4135SOL    HW213305   0.476   2.691   1.612
 4136SOL     OW13306   1.326   3.991   3.066
 4136SOL    HW113307   1.404   4.013   3.124
 4136SOL    HW213308   1.346   4.017   2.972
 4137SOL     OW13309   1.925   3.453   0.799
 4137SOL    HW113310   2.005   3.513   0.801
 4137SOL    HW213311   1.951   3.365   0.758
 4138SOL     OW13312   3.587   5.191   2.735
 4138SOL    HW113313   3.561   5.158   2.826
 4138SOL    HW213314   3.632   5.117   2.685
 4139SOL     OW13315   1.610   1.249   4.590
 4139SOL    HW113316   1.553   1.258   4.509
 4139SOL    HW213317   1.575   1.308   4.663
 4140SOL     OW13318   3.613   1.180   4.549
 4140SOL    HW113319   3.547   1.178   4.473
 4140SOL    HW213320   3.563   1.184   4.635
 4141SOL     OW13321   5.422   6.928   1.243
 4141SOL    HW113322   5.469   6.840   1.248
 4141SOL    HW213323   5.448   6.976   1.159
 4142SOL     OW13324   6.529   3.984   1.202
 4142SOL    HW113325   6.457   3.927   1.241
 4142SOL    HW213326   6.496   4.078   1.192
 4143SOL     OW13327   6.188   2.756   0.335
 4143SOL    HW113328   6.169   2.842   0.287
 4143SOL    HW213329   6.168   2.767   0.433
 4144SOL     OW13330   4.880   1.690   6.997
 4144SOL    HW113331   4.848   1.682   0.068
 4144SOL    HW213332   4.973   1.728   6.997
 4145SOL     OW13333   0.980   6.083   1.279
 4145SOL    HW113334   1.029   6.135   1.349
 4145SOL    HW213335   0.889   6.121   1.267
 4146SOL     OW13336   6.640   0.579   3.408
 4146SOL    HW113337   6.597   0.625   3.485
 4146SOL    HW213338   6.570   0.552   3.342
 4147SOL     OW13339   4.136   4.663   5.992
 4147SOL    HW113340   4.126   4.617   6.081
 4147SOL    HW213341   4.227   4.644   5.955
 4148SOL     OW13342   2.402   0.012   5.363
 4148SOL    HW113343   2.412   6.950   5.415
 4148SOL    HW213344   2.454   0.005   5.278
 4149SOL     OW13345   0.434   4.509   1.095
 4149SOL    HW113346   0.446   4.582   1.028
 4149SOL    HW213347   0.386   4.545   1.175
 4150SOL     OW13348   0.503   0.567   5.278
 4150SOL    HW113349   0.598   0.563   5.247
 4150SOL    HW213350   0.445   0.521   5.211
 4151SOL     OW13351   2.917   5.783   6.161
 4151SOL    HW113352   2.906   5.852   6.232
 4151SOL    HW213353   2.845   5.715   6.169
 4152SOL     OW13354   4.164   5.708   0.787
 4152SOL    HW113355   4.154   5.637   0.717
 4152SOL    HW213356   4.205   5.668   0.869
 4153SOL     OW13357   5.833   5.406   1.610
 4153SOL    HW113358   5.753   5.399   1.669
 4153SOL    HW213359   5.831   5.332   1.542
 4154SOL     OW13360   6.730   5.725   4.153
 4154SOL    HW113361   6.765   5.660   4.085
 4154SOL    HW213362   6.665   5.678   4.213
 4155SOL     OW13363   0.184   0.822   1.134
 4155SOL    HW113364   0.173   0.905   1.189
 4155SOL    HW213365   0.095   0.790   1.102
 4156SOL     OW13366   6.048   5.197   5.441
 4156SOL    HW113367   6.062   5.253   5.523
 4156SOL    HW213368   6.012   5.254   5.367
 4157SOL     OW13369   5.318   5.988   3.583
 4157SOL    HW113370   5.348   5.943   3.499
 4157SOL    HW213371   5.398   6.011   3.639
 4158SOL     OW13372   0.384   2.993   2.354
 4158SOL    HW113373   0.395   3.079   2.403
 4158SOL    HW213374   0.331   2.929   2.410
 4159SOL     OW13375   1.685   3.013   3.130
 4159SOL    HW113376   1.669   2.914   3.135
 4159SOL    HW213377   1.737   3.041   3.211
 4160SOL     OW13378   5.446   0.013   0.029
 4160SOL    HW113379   5.414   6.970   0.096
 4160SOL    HW213380   5.505   0.080   0.074
 4161SOL     OW13381   1.551   2.077   1.053
 4161SOL    HW113382   1.502   2.155   1.013
 4161SOL    HW213383   1.544   2.081   1.152
 4162SOL     OW13384   6.011   5.836   0.931
 4162SOL    HW113385   6.094   5.892   0.940
 4162SOL    HW213386   5.971   5.851   0.840
 4163SOL     OW13387   5.543   0.820   3.412
 4163SOL    HW113388   5.641   0.806   3.421
 4163SOL    HW213389   5.500   0.737   3.378
 4164SOL     OW13390   1.416   6.926   4.629
 4164SOL    HW113391   1.323   6.930   4.592
 4164SOL    HW213392   1.421   6.853   4.696
 4165SOL     OW13393   4.393   0.919   5.301
 4165SOL    HW113394   4.488   0.936   5.274
 4165SOL    HW213395   4.364   0.830   5.267
 4166SOL     OW13396   5.203   0.997   0.819
 4166SOL    HW113397   5.140   1.009   0.895
 4166SOL    HW213398   5.264   0.920   0.837
 4167SOL     OW13399   2.930   4.329   6.532
 4167SOL    HW113400   2.912   4.259   6.602
 4167SOL    HW213401   3.029   4.344   6.525
 4168SOL     OW13402   0.352   4.292   0.956
 4168SOL    HW113403   0.303   4.253   1.033
 4168SOL    HW213404   0.375   4.388   0.976
 4169SOL     OW13405   6.126   5.051   4.561
 4169SOL    HW113406   6.032   5.044   4.594
 4169SOL    HW213407   6.188   5.009   4.628
 4170SOL     OW13408   4.807   3.224   5.749
 4170SOL    HW113409   4.836   3.256   5.659
 4170SOL    HW213410   4.884   3.180   5.796
 4171SOL     OW13411   6.417   5.515   0.634
 4171SOL    HW113412   6.507   5.474   0.650
 4171SOL    HW213413   6.403   5.524   0.535
 4172SOL     OW13414   1.832   1.923   6.753
 4172SOL    HW113415   1.809   1.875   6.668
 4172SOL    HW213416   1.789   1.876   6.831
 4173SOL     OW13417   5.210   3.812   4.698
 4173SOL    HW113418   5.139   3.872   4.659
 4173SOL    HW213419   5.179   3.778   4.787
 4174SOL     OW13420   4.709   1.594   2.505
 4174SOL    HW113421   4.773   1.519   2.487
 4174SOL    HW213422   4.624   1.578   2.455
 4175SOL     OW13423   1.930   4.964   4.079
 4175SOL    HW113424   1.951   5.048   4.029
 4175SOL    HW213425   1.850   4.978   4.137
 4176SOL     OW13426   4.018   6.586   1.412
 4176SOL    HW113427   3.989   6.640   1.332
 4176SOL    HW213428   3.959   6.608   1.490
 4177SOL     OW13429   5.759   4.699   5.467
 4177SOL    HW113430   5.700   4.742   5.399
 4177SOL    HW213431   5.847   4.745   5.471
 4178SOL     OW13432   4.404   0.125   4.018
 4178SOL    HW113433   4.502   0.113   4.005
 4178SOL    HW213434   4.356   0.099   3.934
 4179SOL     OW13435   5.227   3.806   3.262
 4179SOL    HW113436   5.254   3.709   3.257
 4179SOL    HW213437   5.299   3.862   3.220
 4180SOL     OW13438   4.510   3.026   0.693
 4180SOL    HW113439   4.454   2.963   0.639
 4180SOL    HW213440   4.607   3.012   0.669
 4181SOL     OW13441   3.910   1.082   6.768
 4181SOL    HW113442   3.881   1.177   6.755
 4181SOL    HW213443   3.889   1.029   6.686
 4182SOL     OW13444   0.109   5.986   3.499
 4182SOL    HW113445   0.143   5.905   3.547
 4182SOL    HW213446   0.010   5.979   3.490
 4183SOL     OW13447   2.258   1.746   6.951
 4183SOL    HW113448   2.286   1.668   6.895
 4183SOL    HW213449   2.189   1.799   6.901
 4184SOL     OW13450   3.172   6.548   2.667
 4184SOL    HW113451   3.093   6.499   2.705
 4184SOL    HW213452   3.252   6.532   2.724
 4185SOL     OW13453   0.937   4.388   2.825
 4185SOL    HW113454   0.993   4.468   2.807
 4185SOL    HW213455   0.963   4.349   2.914
 4186SOL     OW13456   2.541   5.114   6.544
 4186SOL    HW113457   2.464   5.061   6.579
 4186SOL    HW213458   2.626   5.063   6.560
 4187SOL     OW13459   3.349   3.342   5.614
 4187SOL    HW113460   3.274   3.286   5.577
 4187SOL    HW213461   3.402   3.381   5.538
 4188SOL     OW13462   5.047   0.824   5.042
 4188SOL    HW113463   5.037   0.729   5.014
 4188SOL    HW213464   4.971   0.878   5.006
 4189SOL     OW13465   2.798   5.063   4.538
 4189SOL    HW113466   2.796   5.087   4.636
 4189SOL    HW213467   2.869   4.995   4.522
 4190SOL     OW13468   0.780   0.891   0.938
 4190SOL    HW113469   0.790   0.793   0.918
 4190SOL    HW213470   0.861   0.939   0.905
 4191SOL     OW13471   4.690   4.610   3.571
 4191SOL    HW113472   4.769   4.555   3.595
 4191SOL    HW213473   4.705   4.705   3.600
 4192SOL     OW13474   0.561   1.857   3.527
 4192SOL    HW113475   0.576   1.789   3.455
 4192SOL    HW213476   0.474   1.904   3.511
 4193SOL     OW13477   6.799   0.500   0.858
 4193SOL    HW113478   6.771   0.426   0.796
 4193SOL    HW213479   6.895   0.487   0.884
 4194SOL     OW13480   4.687   0.440   4.739
 4194SOL    HW113481   4.763   0.488   4.783
 4194SOL    HW213482   4.722   0.358   4.694
 4195SOL     OW13483   3.977   6.130   1.015
 4195SOL    HW113484   4.045   6.120   0.944
 4195SOL    HW213485   3.971   6.226   1.042
 4196SOL     OW13486   6.062   2.785   2.716
 4196SOL    HW113487   5.999   2.798   2.793
 4196SOL    HW213488   6.109   2.697   2.726
 4197SOL     OW13489   5.189   5.799   5.999
 4197SOL    HW113490   5.092   5.822   5.988
 4197SOL    HW213491   5.224   5.842   6.082
 4198SOL     OW13492   6.418   1.744   0.609
 4198SOL    HW113493   6.351   1.743   0.535
 4198SOL    HW213494   6.372   1.755   0.696
 4199SOL     OW13495   1.767   2.156   6.083
 4199SOL    HW113496   1.806   2.124   5.997
 4199SOL    HW213497   1.831   2.217   6.128
 4200SOL     OW13498   3.026   0.317   6.360
 4200SOL    HW113499   2.984   0.408   6.358
 4200SOL    HW213500   3.001   0.267   6.277
 4201SOL     OW13501   6.243   6.711   3.520
 4201SOL    HW113502   6.231   6.625   3.570
 4201SOL    HW213503   6.340   6.736   3.521
 4202SOL     OW13504   3.759   5.622   5.859
 4202SOL    HW113505   3.699   5.668   5.794
 4202SOL    HW213506   3.845   5.672   5.868
 4203SOL     OW13507   3.935   4.133   0.046
 4203SOL    HW113508   3.928   4.228   0.076
 4203SOL    HW213509   3.846   4.101   0.015
 4204SOL     OW13510   4.079   3.613   3.664
 4204SOL    HW113511   4.118   3.534   3.615
 4204SOL    HW213512   3.992   3.638   3.623
 4205SOL     OW13513   4.335   6.270   3.650
 4205SOL    HW113514   4.404   6.341   3.636
 4205SOL    HW213515   4.349   6.227   3.739
 4206SOL     OW13516   6.404   0.750   5.466
 4206SOL    HW113517   6.410   0.658   5.427
 4206SOL    HW213518   6.430   0.747   5.563
 4207SOL     OW13519   1.931   1.789   1.792
 4207SOL    HW113520   2.017   1.828   1.827
 4207SOL    HW213521   1.855   1.851   1.815
 4208SOL     OW13522   6.980   3.764   5.283
 4208SOL    HW113523   6.993   3.831   5.210
 4208SOL    HW213524   0.005   3.795   5.365
 4209SOL     OW13525   6.832   0.403   3.718
 4209SOL    HW113526   6.887   0.328   3.683
 4209SOL    HW213527   6.737   0.373   3.729
 4210SOL     OW13528   3.993   3.434   2.051
 4210SOL    HW113529   4.064   3.493   2.014
 4210SOL    HW213530   3.939   3.395   1.976
 4211SOL     OW13531   4.087   0.052   6.376
 4211SOL    HW113532   4.119   6.984   6.400
 4211SOL    HW213533   4.024   0.046   6.299
 4212SOL     OW13534   6.519   1.849   2.572
 4212SOL    HW113535   6.492   1.846   2.476
 4212SOL    HW213536   6.441   1.823   2.630
 4213SOL     OW13537   2.311   0.427   1.805
 4213SOL    HW113538   2.299   0.361   1.730
 4213SOL    HW213539   2.224   0.436   1.854
 4214SOL     OW13540   0.946   5.418   5.130
 4214SOL    HW113541   0.888   5.337   5.137
 4214SOL    HW213542   0.948   5.449   5.035
 4215SOL     OW13543   4.729   0.205   5.949
 4215SOL    HW113544   4.725   0.300   5.980
 4215SOL    HW213545   4.761   0.146   6.023
 4216SOL     OW13546   1.529   1.269   2.892
 4216SOL    HW113547   1.487   1.227   2.812
 4216SOL    HW213548   1.576   1.199   2.946
 4217SOL     OW13549   1.465   0.681   2.467
 4217SOL    HW113550   1.420   0.645   2.386
 4217SOL    HW213551   1.564   0.687   2.451
 4218SOL     OW13552   4.201   1.029   1.889
 4218SOL    HW113553   4.231   1.085   1.813
 4218SOL    HW213554   4.271   0.960   1.909
 4219SOL     OW13555   4.055   5.965   3.722
 4219SOL    HW113556   3.984   5.965   3.793
 4219SOL    HW213557   4.123   5.895   3.744
 4220SOL     OW13558   6.567   3.551   3.407
 4220SOL    HW113559   6.634   3.553   3.481
 4220SOL    HW213560   6.582   3.469   3.351
 4221SOL     OW13561   6.051   5.280   6.133
 4221SOL    HW113562   6.137   5.321   6.102
 4221SOL    HW213563   6.046   5.185   6.101
 4222SOL     OW13564   0.255   1.696   2.139
 4222SOL    HW113565   0.277   1.682   2.043
 4222SOL    HW213566   0.319   1.643   2.195
 4223SOL     OW13567   3.457   3.060   6.910
 4223SOL    HW113568   3.488   3.148   6.945
 4223SOL    HW213569   3.516   3.030   6.835
 4224SOL     OW13570   4.809   4.454   3.946
 4224SOL    HW113571   4.730   4.432   3.889
 4224SOL    HW213572   4.872   4.511   3.894
 4225SOL     OW13573   3.018   2.194   5.781
 4225SOL    HW113574   3.006   2.221   5.685
 4225SOL    HW213575   3.094   2.246   5.820
 4226SOL     OW13576   1.366   0.448   2.622
 4226SOL    HW113577   1.403   0.533   2.582
 4226SOL    HW213578   1.368   0.455   2.722
 4227SOL     OW13579   3.873   5.031   1.381
 4227SOL    HW113580   3.794   5.027   1.441
 4227SOL    HW213581   3.944   4.969   1.415
 4228SOL     OW13582   0.982   4.941   4.928
 4228SOL    HW113583   1.071   4.978   4.901
 4228SOL    HW213584   0.995   4.871   4.998
 4229SOL     OW13585   5.145   6.301   5.757
 4229SOL    HW113586   5.151   6.247   5.673
 4229SOL    HW213587   5.053   6.292   5.796
 4230SOL     OW13588   0.897   6.084   2.524
 4230SOL    HW113589   0.983   6.033   2.525
 4230SOL    HW213590   0.822   6.023   2.497
 4231SOL     OW13591   5.955   0.106   5.649
 4231SOL    HW113592   5.907   0.066   5.727
 4231SOL    HW213593   6.001   0.190   5.677
 4232SOL     OW13594   0.151   4.795   3.338
 4232SOL    HW113595   0.067   4.843   3.364
 4232SOL    HW213596   0.179   4.825   3.247
 4233SOL     OW13597   6.887   0.231   5.590
 4233SOL    HW113598   6.987   0.228   5.587
 4233SOL    HW213599   6.854   0.175   5.666
 4234SOL     OW13600   2.432   6.516   4.742
 4234SOL    HW113601   2.338   6.494   4.766
 4234SOL    HW213602   2.456   6.469   4.657
 4235SOL     OW13603   5.322   3.995   5.670
 4235SOL    HW113604   5.340   3.933   5.594
 4235SOL    HW213605   5.382   3.972   5.747
 4236SOL     OW13606   6.547   3.613   2.403
 4236SOL    HW113607   6.628   3.671   2.411
 4236SOL    HW213608   6.510   3.595   2.494
 4237SOL     OW13609   5.525   6.080   3.147
 4237SOL    HW113610   5.477   6.062   3.061
 4237SOL    HW213611   5.502   6.009   3.213
 4238SOL     OW13612   2.743   6.098   2.743
 4238SOL    HW113613   2.653   6.073   2.706
 4238SOL    HW213614   2.796   6.145   2.672
 4239SOL     OW13615   6.225   1.952   2.375
 4239SOL    HW113616   6.133   1.991   2.382
 4239SOL    HW213617   6.289   2.007   2.428
 4240SOL     OW13618   2.443   5.577   0.476
 4240SOL    HW113619   2.460   5.585   0.574
 4240SOL    HW213620   2.345   5.592   0.458
 4241SOL     OW13621   6.134   1.182   0.259
 4241SOL    HW113622   6.144   1.277   0.232
 4241SOL    HW213623   6.089   1.177   0.348
 4242SOL     OW13624   3.195   1.585   4.196
 4242SOL    HW113625   3.202   1.535   4.109
 4242SOL    HW213626   3.273   1.563   4.254
 4243SOL     OW13627   6.343   2.863   3.182
 4243SOL    HW113628   6.411   2.829   3.248
 4243SOL    HW213629   6.366   2.956   3.155
 4244SOL     OW13630   4.476   4.384   1.403
 4244SOL    HW113631   4.380   4.403   1.386
 4244SOL    HW213632   4.485   4.326   1.483
 4245SOL     OW13633   6.817   1.438   6.882
 4245SOL    HW113634   6.805   1.449   6.783
 4245SOL    HW213635   6.888   1.501   6.914
 4246SOL     OW13636   0.072   4.329   3.653
 4246SOL    HW113637   0.061   4.419   3.696
 4246SOL    HW213638   0.053   4.258   3.721
 4247SOL     OW13639   2.989   5.620   3.514
 4247SOL    HW113640   2.909   5.639   3.457
 4247SOL    HW213641   3.022   5.527   3.495
 4248SOL     OW13642   3.249   1.531   2.772
 4248SOL    HW113643   3.263   1.626   2.745
 4248SOL    HW213644   3.200   1.482   2.700
 4249SOL     OW13645   5.805   2.288   3.113
 4249SOL    HW113646   5.861   2.332   3.183
 4249SOL    HW213647   5.859   2.217   3.067
 4250SOL     OW13648   6.250   4.545   3.052
 4250SOL    HW113649   6.334   4.502   3.084
 4250SOL    HW213650   6.272   4.630   3.004
 4251SOL     OW13651   5.198   4.625   1.926
 4251SOL    HW113652   5.131   4.638   1.854
 4251SOL    HW213653   5.273   4.567   1.892
 4252SOL     OW13654   5.267   6.497   6.448
 4252SOL    HW113655   5.233   6.552   6.372
 4252SOL    HW213656   5.362   6.524   6.468
 4253SOL     OW13657   3.525   6.771   1.038
 4253SOL    HW113658   3.519   6.856   0.987
 4253SOL    HW213659   3.571   6.788   1.125
 4254SOL     OW13660   0.897   3.467   1.921
 4254SOL    HW113661   0.797   3.473   1.920
 4254SOL    HW213662   0.927   3.401   1.853
 4255SOL     OW13663   0.333   4.502   3.931
 4255SOL    HW113664   0.333   4.428   3.998
 4255SOL    HW213665   0.241   4.510   3.892
 4256SOL     OW13666   2.394   6.547   0.339
 4256SOL    HW113667   2.321   6.547   0.271
 4256SOL    HW213668   2.383   6.627   0.399
 4257SOL     OW13669   2.736   0.591   4.529
 4257SOL    HW113670   2.721   0.615   4.625
 4257SOL    HW213671   2.831   0.561   4.517
 4258SOL     OW13672   4.473   6.221   1.207
 4258SOL    HW113673   4.491   6.163   1.287
 4258SOL    HW213674   4.554   6.275   1.187
 4259SOL     OW13675   2.802   0.681   1.049
 4259SOL    HW113676   2.859   0.662   0.969
 4259SOL    HW213677   2.749   0.765   1.033
 4260SOL     OW13678   5.433   0.290   1.292
 4260SOL    HW113679   5.336   0.267   1.292
 4260SOL    HW213680   5.486   0.212   1.326
 4261SOL     OW13681   1.736   0.120   2.611
 4261SOL    HW113682   1.753   0.196   2.675
 4261SOL    HW213683   1.809   0.117   2.543
 4262SOL     OW13684   0.895   5.066   6.186
 4262SOL    HW113685   0.806   5.089   6.148
 4262SOL    HW213686   0.892   5.078   6.286
 4263SOL     OW13687   3.148   6.523   3.125
 4263SOL    HW113688   3.229   6.477   3.162
 4263SOL    HW213689   3.115   6.591   3.190
 4264SOL     OW13690   0.136   2.246   2.868
 4264SOL    HW113691   0.224   2.235   2.822
 4264SOL    HW213692   0.082   2.163   2.857
 4265SOL     OW13693   5.184   1.526   0.938
 4265SOL    HW113694   5.118   1.516   1.012
 4265SOL    HW213695   5.185   1.443   0.882
 4266SOL     OW13696   1.778   5.940   0.511
 4266SOL    HW113697   1.874   5.965   0.514
 4266SOL    HW213698   1.758   5.892   0.425
 4267SOL     OW13699   1.875   2.849   4.296
 4267SOL    HW113700   1.849   2.944   4.277
 4267SOL    HW213701   1.811   2.809   4.361
 4268SOL     OW13702   1.506   6.064   0.089
 4268SOL    HW113703   1.513   6.143   0.028
 4268SOL    HW213704   1.422   6.071   0.143
 4269SOL     OW13705   3.003   0.431   1.990
 4269SOL    HW113706   2.968   0.518   2.026
 4269SOL    HW213707   2.927   0.369   1.972
 4270SOL     OW13708   4.119   3.692   3.389
 4270SOL    HW113709   4.173   3.664   3.468
 4270SOL    HW213710   4.023   3.701   3.415
 4271SOL     OW13711   6.244   1.305   6.816
 4271SOL    HW113712   6.274   1.210   6.816
 4271SOL    HW213713   6.322   1.364   6.837
 4272SOL     OW13714   6.484   2.929   4.605
 4272SOL    HW113715   6.541   3.007   4.581
 4272SOL    HW213716   6.500   2.854   4.541
 4273SOL     OW13717   4.751   6.627   4.580
 4273SOL    HW113718   4.776   6.536   4.547
 4273SOL    HW213719   4.813   6.653   4.654
 4274SOL     OW13720   0.823   6.105   1.619
 4274SOL    HW113721   0.775   6.185   1.656
 4274SOL    HW213722   0.907   6.135   1.573
 4275SOL     OW13723   0.037   1.551   4.065
 4275SOL    HW113724   0.015   1.478   4.131
 4275SOL    HW213725   0.075   1.629   4.114
 4276SOL     OW13726   1.768   4.918   3.494
 4276SOL    HW113727   1.793   4.871   3.409
 4276SOL    HW213728   1.769   4.854   3.570
 4277SOL     OW13729   6.471   4.607   3.870
 4277SOL    HW113730   6.448   4.563   3.783
 4277SOL    HW213731   6.533   4.683   3.854
 4278SOL     OW13732   6.959   0.099   4.364
 4278SOL    HW113733   7.006   0.035   4.423
 4278SOL    HW213734   0.002   0.146   4.306
 4279SOL     OW13735   3.000   0.440   4.196
 4279SOL    HW113736   2.990   0.424   4.098
 4279SOL    HW213737   2.944   0.375   4.247
 4280SOL     OW13738   4.518   0.468   5.725
 4280SOL    HW113739   4.552   0.560   5.744
 4280SOL    HW213740   4.580   0.421   5.662
 4281SOL     OW13741   0.486   4.788   3.761
 4281SOL    HW113742   0.406   4.790   3.701
 4281SOL    HW213743   0.475   4.856   3.833
 4282SOL     OW13744   2.784   4.359   5.823
 4282SOL    HW113745   2.801   4.272   5.776
 4282SOL    HW213746   2.803   4.435   5.760
 4283SOL     OW13747   1.068   0.924   3.096
 4283SOL    HW113748   1.140   0.957   3.035
 4283SOL    HW213749   1.014   1.001   3.129
 4284SOL     OW13750   3.940   4.787   1.552
 4284SOL    HW113751   3.853   4.747   1.579
 4284SOL    HW213752   3.986   4.729   1.486
 4285SOL     OW13753   0.955   0.559   5.853
 4285SOL    HW113754   0.903   0.590   5.933
 4285SOL    HW213755   0.891   0.540   5.778
 4286SOL     OW13756   4.853   6.658   6.321
 4286SOL    HW113757   4.933   6.608   6.356
 4286SOL    HW213758   4.876   6.754   6.311
 4287SOL     OW13759   5.749   2.474   6.310
 4287SOL    HW113760   5.700   2.441   6.230
 4287SOL    HW213761   5.781   2.397   6.365
 4288SOL     OW13762   0.017   5.849   3.959
 4288SOL    HW113763   7.008   5.766   4.005
 4288SOL    HW213764   6.968   5.883   3.898
 4289SOL     OW13765   6.507   2.956   6.898
 4289SOL    HW113766   6.438   2.989   6.834
 4289SOL    HW213767   6.597   2.954   6.854
 4290SOL     OW13768   1.048   6.615   2.751
 4290SOL    HW113769   0.967   6.557   2.749
 4290SOL    HW213770   1.119   6.571   2.806
 4291SOL     OW13771   4.363   3.111   1.244
 4291SOL    HW113772   4.328   3.124   1.151
 4291SOL    HW213773   4.389   3.015   1.256
 4292SOL     OW13774   5.781   3.356   0.109
 4292SOL    HW113775   5.810   3.272   0.154
 4292SOL    HW213776   5.719   3.407   0.169
 4293SOL     OW13777   2.520   3.399   0.277
 4293SOL    HW113778   2.457   3.322   0.281
 4293SOL    HW213779   2.491   3.461   0.203
 4294SOL     OW13780   2.178   2.748   6.753
 4294SOL    HW113781   2.121   2.830   6.745
 4294SOL    HW213782   2.218   2.744   6.845
 4295SOL     OW13783   4.364   5.943   4.763
 4295SOL    HW113784   4.451   5.899   4.741
 4295SOL    HW213785   4.302   5.935   4.685
 4296SOL     OW13786   3.436   0.064   0.279
 4296SOL    HW113787   3.399   0.108   0.361
 4296SOL    HW213788   3.370   0.074   0.204
 4297SOL     OW13789   4.830   0.780   6.719
 4297SOL    HW113790   4.757   0.728   6.763
 4297SOL    HW213791   4.792   0.866   6.684
 4298SOL     OW13792   4.105   5.115   0.336
 4298SOL    HW113793   4.117   5.133   0.433
 4298SOL    HW213794   4.008   5.123   0.312
 4299SOL     OW13795   0.766   3.242   6.313
 4299SOL    HW113796   0.809   3.203   6.232
 4299SOL    HW213797   0.736   3.168   6.373
 4300SOL     OW13798   3.736   6.982   7.015
 4300SOL    HW113799   3.798   6.912   0.025
 4300SOL    HW213800   3.667   6.941   6.955
 4301SOL     OW13801   4.277   1.353   1.411
 4301SOL    HW113802   4.342   1.340   1.336
 4301SOL    HW213803   4.184   1.354   1.374
 4302SOL     OW13804   1.241   6.785   6.416
 4302SOL    HW113805   1.288   6.710   6.461
 4302SOL    HW213806   1.174   6.825   6.479
 4303SOL     OW13807   0.275   4.726   4.331
 4303SOL    HW113808   0.203   4.729   4.401
 4303SOL    HW213809   0.308   4.819   4.313
 4304SOL     OW13810   2.991   3.737   2.999
 4304SOL    HW113811   3.019   3.832   2.988
 4304SOL    HW213812   2.904   3.722   2.951
 4305SOL     OW13813   6.633   0.359   5.102
 4305SOL    HW113814   6.539   0.324   5.098
 4305SOL    HW213815   6.689   0.314   5.033
 4306SOL     OW13816   5.629   4.215   6.038
 4306SOL    HW113817   5.602   4.119   6.024
 4306SOL    HW213818   5.659   4.254   5.951
 4307SOL     OW13819   4.370   4.117   5.724
 4307SOL    HW113820   4.321   4.034   5.698
 4307SOL    HW213821   4.455   4.092   5.771
 4308SOL     OW13822   6.154   5.227   0.244
 4308SOL    HW113823   6.170   5.321   0.275
 4308SOL    HW213824   6.239   5.190   0.205
 4309SOL     OW13825   1.242   1.052   0.328
 4309SOL    HW113826   1.298   1.050   0.245
 4309SOL    HW213827   1.218   0.958   0.354
 4310SOL     OW13828   1.530   2.517   2.164
 4310SOL    HW113829   1.539   2.493   2.068
 4310SOL    HW213830   1.590   2.593   2.186
 4311SOL     OW13831   1.875   5.733   2.984
 4311SOL    HW113832   1.903   5.638   3.001
 4311SOL    HW213833   1.777   5.742   3.005
 4312SOL     OW13834   1.979   5.067   1.113
 4312SOL    HW113835   1.951   5.163   1.114
 4312SOL    HW213836   1.898   5.009   1.118
 4313SOL     OW13837   4.892   1.603   1.657
 4313SOL    HW113838   4.954   1.673   1.692
 4313SOL    HW213839   4.801   1.616   1.697
 4314SOL     OW13840   6.278   1.447   4.119
 4314SOL    HW113841   6.188   1.442   4.162
 4314SOL    HW213842   6.303   1.542   4.102
 4315SOL     OW13843   2.554   6.664   2.467
 4315SOL    HW113844   2.566   6.666   2.566
 4315SOL    HW213845   2.456   6.655   2.446
 4316SOL     OW13846   5.087   0.509   2.090
 4316SOL    HW113847   5.127   0.486   2.179
 4316SOL    HW213848   4.991   0.533   2.103
 4317SOL     OW13849   4.759   2.388   4.637
 4317SOL    HW113850   4.677   2.446   4.632
 4317SOL    HW213851   4.739   2.307   4.693
 4318SOL     OW13852   1.016   3.544   4.960
 4318SOL    HW113853   0.929   3.524   5.006
 4318SOL    HW213854   1.020   3.641   4.935
 4319SOL     OW13855   1.745   2.357   1.064
 4319SOL    HW113856   1.778   2.270   1.100
 4319SOL    HW213857   1.821   2.409   1.025
 4320SOL     OW13858   6.119   5.425   0.914
 4320SOL    HW113859   6.190   5.468   0.970
 4320SOL    HW213860   6.161   5.361   0.850
 4321SOL     OW13861   6.877   6.792   5.001
 4321SOL    HW113862   6.850   6.827   4.911
 4321SOL    HW213863   6.852   6.695   5.008
 4322SOL     OW13864   6.423   2.603   6.246
 4322SOL    HW113865   6.481   2.576   6.170
 4322SOL    HW213866   6.354   2.668   6.214
 4323SOL     OW13867   4.293   4.090   1.296
 4323SOL    HW113868   4.379   4.108   1.248
 4323SOL    HW213869   4.307   4.104   1.394
 4324SOL     OW13870   5.360   4.585   0.108
 4324SOL    HW113871   5.271   4.606   0.068
 4324SOL    HW213872   5.425   4.560   0.035
 4325SOL     OW13873   2.309   1.190   1.402
 4325SOL    HW113874   2.318   1.202   1.501
 4325SOL    HW213875   2.266   1.270   1.362
 4326SOL     OW13876   4.805   4.690   4.369
 4326SOL    HW113877   4.782   4.692   4.272
 4326SOL    HW213878   4.722   4.675   4.423
 4327SOL     OW13879   5.747   6.439   1.654
 4327SOL    HW113880   5.684   6.410   1.727
 4327SOL    HW213881   5.706   6.515   1.604
 4328SOL     OW13882   4.561   3.841   5.444
 4328SOL    HW113883   4.486   3.781   5.417
 4328SOL    HW213884   4.648   3.796   5.424
 4329SOL     OW13885   4.416   1.509   6.023
 4329SOL    HW113886   4.412   1.413   6.050
 4329SOL    HW213887   4.426   1.566   6.105
 4330SOL     OW13888   2.688   6.464   4.324
 4330SOL    HW113889   2.618   6.486   4.256
 4330SOL    HW213890   2.774   6.509   4.299
 4331SOL     OW13891   5.665   1.711   1.569
 4331SOL    HW113892   5.734   1.646   1.537
 4331SOL    HW213893   5.664   1.791   1.509
 4332SOL     OW13894   5.455   3.741   2.283
 4332SOL    HW113895   5.531   3.681   2.258
 4332SOL    HW213896   5.387   3.740   2.210
 4333SOL     OW13897   3.582   0.559   4.742
 4333SOL    HW113898   3.515   0.631   4.759
 4333SOL    HW213899   3.536   0.471   4.731
 4334SOL     OW13900   1.913   2.408   2.350
 4334SOL    HW113901   2.008   2.403   2.379
 4334SOL    HW213902   1.888   2.322   2.304
 4335SOL     OW13903   3.371   3.656   2.545
 4335SOL    HW113904   3.336   3.565   2.525
 4335SOL    HW213905   3.429   3.687   2.470
 4336SOL     OW13906   2.774   6.296   6.673
 4336SOL    HW113907   2.826   6.245   6.742
 4336SOL    HW213908   2.804   6.391   6.672
 4337SOL     OW13909   0.416   4.731   0.937
 4337SOL    HW113910   0.473   4.800   0.981
 4337SOL    HW213911   0.340   4.775   0.889
 4338SOL     OW13912   5.319   6.111   5.146
 4338SOL    HW113913   5.259   6.183   5.181
 4338SOL    HW213914   5.408   6.117   5.191
 4339SOL     OW13915   5.429   3.551   5.389
 4339SOL    HW113916   5.506   3.543   5.325
 4339SOL    HW213917   5.346   3.516   5.345
 4340SOL     OW13918   6.551   2.974   1.116
 4340SOL    HW113919   6.564   3.047   1.183
 4340SOL    HW213920   6.463   2.930   1.131
 4341SOL     OW13921   0.161   5.924   2.420
 4341SOL    HW113922   0.072   5.969   2.411
 4341SOL    HW213923   0.224   5.983   2.470
 4342SOL     OW13924   6.026   4.029   3.905
 4342SOL    HW113925   6.043   4.067   3.814
 4342SOL    HW213926   6.083   3.948   3.918
 4343SOL     OW13927   2.531   5.811   5.378
 4343SOL    HW113928   2.588   5.748   5.431
 4343SOL    HW213929   2.532   5.783   5.282
 4344SOL     OW13930   0.892   4.611   2.117
 4344SOL    HW113931   0.981   4.624   2.073
 4344SOL    HW213932   0.835   4.551   2.061
 4345SOL     OW13933   3.225   3.505   4.835
 4345SOL    HW113934   3.261   3.413   4.847
 4345SOL    HW213935   3.274   3.551   4.761
 4346SOL     OW13936   1.540   3.031   2.255
 4346SOL    HW113937   1.472   3.075   2.313
 4346SOL    HW213938   1.615   3.095   2.237
 4347SOL     OW13939   6.900   6.653   3.475
 4347SOL    HW113940   6.933   6.611   3.560
 4347SOL    HW213941   6.949   6.739   3.460
 4348SOL     OW13942   0.157   4.504   3.250
 4348SOL    HW113943   0.178   4.593   3.292
 4348SOL    HW213944   0.101   4.450   3.313
 4349SOL     OW13945   6.953   1.896   2.488
 4349SOL    HW113946   7.019   1.971   2.476
 4349SOL    HW213947   6.897   1.913   2.568
 4350SOL     OW13948   3.798   1.745   4.207
 4350SOL    HW113949   3.717   1.804   4.201
 4350SOL    HW213950   3.879   1.801   4.222
 4351SOL     OW13951   1.678   5.023   0.511
 4351SOL    HW113952   1.742   5.039   0.586
 4351SOL    HW213953   1.723   4.970   0.439
 4352SOL     OW13954   6.952   3.620   2.029
 4352SOL    HW113955   6.889   3.544   2.045
 4352SOL    HW213956   6.950   3.645   1.932
 4353SOL     OW13957   3.909   3.026   6.607
 4353SOL    HW113958   3.930   2.987   6.518
 4353SOL    HW213959   3.874   3.119   6.595
 4354SOL     OW13960   2.289   6.818   5.562
 4354SOL    HW113961   2.366   6.867   5.604
 4354SOL    HW213962   2.309   6.720   5.561
 4355SOL     OW13963   2.017   0.425   2.584
 4355SOL    HW113964   2.049   0.481   2.661
 4355SOL    HW213965   2.073   0.343   2.577
 4356SOL     OW13966   4.921   3.969   1.167
 4356SOL    HW113967   4.890   3.881   1.203
 4356SOL    HW213968   4.951   4.027   1.243
 4357SOL     OW13969   6.959   1.206   1.210
 4357SOL    HW113970   0.015   1.159   1.248
 4357SOL    HW213971   6.908   1.143   1.151
 4358SOL     OW13972   0.156   6.742   0.126
 4358SOL    HW113973   0.228   6.809   0.113
 4358SOL    HW213974   0.183   6.677   0.198
 4359SOL     OW13975   2.012   1.531   6.363
 4359SOL    HW113976   2.106   1.530   6.328
 4359SOL    HW213977   2.007   1.475   6.446
 4360SOL     OW13978   1.489   2.445   3.115
 4360SOL    HW113979   1.441   2.438   3.203
 4360SOL    HW213980   1.425   2.476   3.045
 4361SOL     OW13981   2.235   3.323   1.462
 4361SOL    HW113982   2.160   3.296   1.403
 4361SOL    HW213983   2.199   3.370   1.543
 4362SOL     OW13984   5.825   5.759   3.225
 4362SOL    HW113985   5.795   5.708   3.306
 4362SOL    HW213986   5.924   5.751   3.216
 4363SOL     OW13987   5.331   2.575   1.249
 4363SOL    HW113988   5.428   2.583   1.229
 4363SOL    HW213989   5.318   2.511   1.326
 4364SOL     OW13990   3.005   3.427   4.656
 4364SOL    HW113991   2.951   3.413   4.738
 4364SOL    HW213992   2.992   3.521   4.623
 4365SOL     OW13993   2.143   1.217   1.877
 4365SOL    HW113994   2.101   1.254   1.959
 4365SOL    HW213995   2.155   1.118   1.888
 4366SOL     OW13996   6.119   0.211   0.201
 4366SOL    HW113997   6.028   0.254   0.203
 4366SOL    HW213998   6.111   0.116   0.230
 4367SOL     OW13999   1.731   4.115   4.364
 4367SOL    HW114000   1.722   4.063   4.449
 4367SOL    HW214001   1.824   4.151   4.356
 4368SOL     OW14002   3.967   4.043   0.859
 4368SOL    HW114003   4.061   4.012   0.873
 4368SOL    HW214004   3.941   4.027   0.764
 4369SOL     OW14005   4.474   5.185   2.790
 4369SOL    HW114006   4.551   5.240   2.758
 4369SOL    HW214007   4.427   5.233   2.864
 4370SOL     OW14008   4.490   5.109   2.135
 4370SOL    HW114009   4.436   5.030   2.107
 4370SOL    HW214010   4.442   5.193   2.110
 4371SOL     OW14011   1.017   1.874   1.888
 4371SOL    HW114012   1.101   1.862   1.940
 4371SOL    HW214013   1.040   1.902   1.794
 4372SOL     OW14014   3.436   1.229   2.526
 4372SOL    HW114015   3.344   1.266   2.514
 4372SOL    HW214016   3.452   1.208   2.622
 4373SOL     OW14017   6.073   2.277   6.794
 4373SOL    HW114018   6.041   2.364   6.830
 4373SOL    HW214019   6.166   2.288   6.757
 4374SOL     OW14020   1.192   2.226   1.094
 4374SOL    HW114021   1.098   2.258   1.103
 4374SOL    HW214022   1.254   2.303   1.107
 4375SOL     OW14023   4.485   0.241   3.491
 4375SOL    HW114024   4.390   0.238   3.524
 4375SOL    HW214025   4.519   0.335   3.497
 4376SOL     OW14026   0.487   6.759   1.259
 4376SOL    HW114027   0.465   6.708   1.175
 4376SOL    HW214028   0.582   6.744   1.283
 4377SOL     OW14029   5.474   4.686   0.683
 4377SOL    HW114030   5.394   4.729   0.640
 4377SOL    HW214031   5.555   4.741   0.665
 4378SOL     OW14032   2.087   2.527   2.911
 4378SOL    HW114033   2.015   2.495   2.849
 4378SOL    HW214034   2.110   2.455   2.976
 4379SOL     OW14035   1.936   1.501   2.958
 4379SOL    HW114036   2.003   1.572   2.980
 4379SOL    HW214037   1.984   1.419   2.927
 4380SOL     OW14038   0.904   6.811   2.641
 4380SOL    HW114039   0.973   6.756   2.687
 4380SOL    HW214040   0.825   6.823   2.701
 4381SOL     OW14041   1.563   5.204   5.620
 4381SOL    HW114042   1.539   5.108   5.606
 4381SOL    HW214043   1.538   5.232   5.713
 4382SOL     OW14044   6.592   3.440   5.351
 4382SOL    HW114045   6.584   3.363   5.414
 4382SOL    HW214046   6.687   3.449   5.320
 4383SOL     OW14047   0.500   3.077   6.073
 4383SOL    HW114048   0.450   3.153   6.031
 4383SOL    HW214049   0.559   3.113   6.146
 4384SOL     OW14050   5.709   1.496   4.616
 4384SOL    HW114051   5.758   1.502   4.529
 4384SOL    HW214052   5.649   1.575   4.626
 4385SOL     OW14053   5.582   2.513   4.767
 4385SOL    HW114054   5.541   2.470   4.686
 4385SOL    HW214055   5.681   2.522   4.753
 4386SOL     OW14056   2.031   3.264   5.972
 4386SOL    HW114057   2.118   3.225   6.001
 4386SOL    HW214058   2.046   3.357   5.939
 4387SOL     OW14059   6.782   1.523   0.949
 4387SOL    HW114060   6.786   1.610   0.900
 4387SOL    HW214061   6.696   1.517   1.001
 4388SOL     OW14062   4.748   2.520   6.396
 4388SOL    HW114063   4.815   2.485   6.462
 4388SOL    HW214064   4.668   2.553   6.446
 4389SOL     OW14065   6.751   3.088   0.447
 4389SOL    HW114066   6.655   3.061   0.456
 4389SOL    HW214067   6.801   3.059   0.529
 4390SOL     OW14068   3.757   0.437   1.582
 4390SOL    HW114069   3.818   0.467   1.656
 4390SOL    HW214070   3.701   0.361   1.614
 4391SOL     OW14071   2.731   5.463   6.814
 4391SOL    HW114072   2.800   5.486   6.883
 4391SOL    HW214073   2.661   5.534   6.812
 4392SOL     OW14074   6.159   3.524   4.546
 4392SOL    HW114075   6.084   3.538   4.482
 4392SOL    HW214076   6.123   3.515   4.639
 4393SOL     OW14077   5.684   0.749   2.600
 4393SOL    HW114078   5.767   0.732   2.653
 4393SOL    HW214079   5.706   0.747   2.502
 4394SOL     OW14080   6.560   5.547   2.460
 4394SOL    HW114081   6.578   5.462   2.412
 4394SOL    HW214082   6.471   5.584   2.431
 4395SOL     OW14083   1.741   6.561   2.413
 4395SOL    HW114084   1.764   6.627   2.485
 4395SOL    HW214085   1.674   6.495   2.448
 4396SOL     OW14086   2.422   2.058   3.797
 4396SOL    HW114087   2.398   2.057   3.700
 4396SOL    HW214088   2.348   2.100   3.849
 4397SOL     OW14089   0.662   2.155   4.550
 4397SOL    HW114090   0.749   2.179   4.509
 4397SOL    HW214091   0.677   2.098   4.631
 4398SOL     OW14092   0.867   3.666   5.912
 4398SOL    HW114093   0.876   3.764   5.931
 4398SOL    HW214094   0.775   3.635   5.935
 4399SOL     OW14095   2.290   0.206   2.322
 4399SOL    HW114096   2.279   0.122   2.268
 4399SOL    HW214097   2.273   0.186   2.418
 4400SOL     OW14098   3.182   6.422   5.343
 4400SOL    HW114099   3.208   6.430   5.439
 4400SOL    HW214100   3.090   6.385   5.337
 4401SOL     OW14101   3.080   6.697   6.264
 4401SOL    HW114102   2.987   6.715   6.297
 4401SOL    HW214103   3.076   6.672   6.167
 4402SOL     OW14104   2.117   0.393   2.199
 4402SOL    HW114105   2.154   0.305   2.229
 4402SOL    HW214106   2.150   0.465   2.261
 4403SOL     OW14107   1.326   0.463   1.328
 4403SOL    HW114108   1.410   0.479   1.381
 4403SOL    HW214109   1.247   0.470   1.389
 4404SOL     OW14110   1.307   5.348   5.672
 4404SOL    HW114111   1.342   5.343   5.765
 4404SOL    HW214112   1.244   5.425   5.665
 4405SOL     OW14113   1.678   4.019   1.396
 4405SOL    HW114114   1.637   4.110   1.389
 4405SOL    HW214115   1.694   3.983   1.304
 4406SOL     OW14116   0.245   3.012   1.028
 4406SOL    HW114117   0.313   2.941   1.043
 4406SOL    HW214118   0.281   3.100   1.057
 4407SOL     OW14119   6.115   5.414   0.603
 4407SOL    HW114120   6.110   5.403   0.503
 4407SOL    HW214121   6.210   5.405   0.632
 4408SOL     OW14122   3.049   0.648   1.217
 4408SOL    HW114123   2.959   0.635   1.176
 4408SOL    HW214124   3.040   0.700   1.302
 4409SOL     OW14125   4.861   1.279   2.156
 4409SOL    HW114126   4.766   1.246   2.153
 4409SOL    HW214127   4.862   1.379   2.150
 4410SOL     OW14128   1.433   5.073   0.048
 4410SOL    HW114129   1.484   5.050   6.988
 4410SOL    HW214130   1.425   5.172   0.055
 4411SOL     OW14131   4.008   3.811   4.955
 4411SOL    HW114132   4.052   3.773   4.874
 4411SOL    HW214133   3.921   3.764   4.970
 4412SOL     OW14134   4.960   6.039   4.073
 4412SOL    HW114135   4.982   6.078   3.983
 4412SOL    HW214136   4.992   6.101   4.145
 4413SOL     OW14137   5.782   5.282   4.590
 4413SOL    HW114138   5.716   5.316   4.656
 4413SOL    HW214139   5.857   5.347   4.581
 4414SOL     OW14140   3.439   5.264   1.162
 4414SOL    HW114141   3.348   5.235   1.188
 4414SOL    HW214142   3.481   5.316   1.236
 4415SOL     OW14143   4.552   2.834   0.859
 4415SOL    HW114144   4.479   2.766   0.860
 4415SOL    HW214145   4.530   2.906   0.794
 4416SOL     OW14146   3.854   1.078   4.415
 4416SOL    HW114147   3.854   0.978   4.405
 4416SOL    HW214148   3.779   1.105   4.474
 4417SOL     OW14149   5.538   4.624   3.558
 4417SOL    HW114150   5.527   4.633   3.459
 4417SOL    HW214151   5.600   4.694   3.591
 4418SOL     OW14152   6.272   2.196   1.918
 4418SOL    HW114153   6.286   2.160   2.010
 4418SOL    HW214154   6.349   2.168   1.860
 4419SOL     OW14155   5.640   6.956   6.259
 4419SOL    HW114156   5.625   0.005   6.192
 4419SOL    HW214157   5.629   6.867   6.215
 4420SOL     OW14158   4.487   1.118   1.665
 4420SOL    HW114159   4.547   1.194   1.690
 4420SOL    HW214160   4.393   1.151   1.658
 4421SOL     OW14161   2.164   1.363   5.018
 4421SOL    HW114162   2.121   1.335   4.932
 4421SOL    HW214163   2.253   1.318   5.027
 4422SOL     OW14164   2.033   4.186   7.002
 4422SOL    HW114165   2.067   4.180   0.073
 4422SOL    HW214166   1.934   4.174   7.002
 4423SOL     OW14167   6.922   3.588   5.535
 4423SOL    HW114168   6.931   3.681   5.569
 4423SOL    HW214169   6.959   3.524   5.603
 4424SOL     OW14170   5.489   1.337   3.891
 4424SOL    HW114171   5.415   1.342   3.958
 4424SOL    HW214172   5.494   1.245   3.854
 4425SOL     OW14173   2.886   4.309   0.013
 4425SOL    HW114174   2.976   4.347   0.035
 4425SOL    HW214175   2.841   4.367   6.968
 4426SOL     OW14176   0.483   1.234   4.116
 4426SOL    HW114177   0.543   1.250   4.038
 4426SOL    HW214178   0.436   1.319   4.139
 4427SOL     OW14179   0.175   6.272   2.949
 4427SOL    HW114180   0.103   6.243   2.886
 4427SOL    HW214181   0.212   6.192   2.996
 4428SOL     OW14182   3.035   0.776   3.795
 4428SOL    HW114183   3.079   0.837   3.861
 4428SOL    HW214184   3.064   0.801   3.703
 4429SOL     OW14185   3.137   6.846   2.736
 4429SOL    HW114186   3.041   6.860   2.714
 4429SOL    HW214187   3.171   6.763   2.690
 4430SOL     OW14188   5.016   3.949   4.485
 4430SOL    HW114189   4.964   3.864   4.490
 4430SOL    HW214190   5.085   3.941   4.413
 4431SOL     OW14191   2.931   1.232   2.530
 4431SOL    HW114192   2.923   1.142   2.486
 4431SOL    HW214193   2.952   1.219   2.627
 4432SOL     OW14194   2.728   3.458   5.895
 4432SOL    HW114195   2.681   3.532   5.847
 4432SOL    HW214196   2.685   3.371   5.873
 4433SOL     OW14197   5.052   2.035   4.201
 4433SOL    HW114198   5.064   2.076   4.292
 4433SOL    HW214199   5.140   2.034   4.153
 4434SOL     OW14200   5.634   1.097   3.130
 4434SOL    HW114201   5.553   1.079   3.185
 4434SOL    HW214202   5.619   1.181   3.076
 4435SOL     OW14203   5.218   2.791   1.097
 4435SOL    HW114204   5.257   2.724   1.160
 4435SOL    HW214205   5.121   2.773   1.084
 4436SOL     OW14206   4.298   0.836   1.356
 4436SOL    HW114207   4.310   0.896   1.277
 4436SOL    HW214208   4.205   0.801   1.357
 4437SOL     OW14209   0.206   2.522   2.780
 4437SOL    HW114210   0.139   2.461   2.822
 4437SOL    HW214211   0.295   2.507   2.823
 4438SOL     OW14212   4.961   6.894   6.582
 4438SOL    HW114213   4.941   6.944   6.498
 4438SOL    HW214214   4.984   6.959   6.655
 4439SOL     OW14215   0.148   4.182   1.656
 4439SOL    HW114216   0.183   4.250   1.591
 4439SOL    HW214217   0.101   4.109   1.606
 4440SOL     OW14218   2.982   4.610   0.497
 4440SOL    HW114219   2.953   4.534   0.554
 4440SOL    HW214220   2.930   4.692   0.522
 4441SOL     OW14221   0.303   2.064   2.190
 4441SOL    HW114222   0.365   2.142   2.199
 4441SOL    HW214223   0.274   2.055   2.095
 4442SOL     OW14224   2.085   5.611   4.279
 4442SOL    HW114225   2.148   5.687   4.297
 4442SOL    HW214226   2.129   5.525   4.305
 4443SOL     OW14227   1.309   3.694   6.624
 4443SOL    HW114228   1.252   3.623   6.665
 4443SOL    HW214229   1.319   3.676   6.526
 4444SOL     OW14230   3.558   4.116   4.974
 4444SOL    HW114231   3.603   4.031   4.948
 4444SOL    HW214232   3.528   4.164   4.892
 4445SOL     OW14233   1.504   6.281   6.956
 4445SOL    HW114234   1.482   6.359   7.015
 4445SOL    HW214235   1.595   6.294   6.916
 4446SOL     OW14236   5.237   1.136   1.463
 4446SOL    HW114237   5.138   1.130   1.474
 4446SOL    HW214238   5.278   1.171   1.547
 4447SOL     OW14239   5.164   4.798   6.013
 4447SOL    HW114240   5.186   4.764   5.922
 4447SOL    HW214241   5.211   4.885   6.028
 4448SOL     OW14242   2.521   4.169   1.521
 4448SOL    HW114243   2.521   4.186   1.423
 4448SOL    HW214244   2.485   4.250   1.569
 4449SOL     OW14245   5.147   0.903   5.864
 4449SOL    HW114246   5.055   0.888   5.900
 4449SOL    HW214247   5.153   0.869   5.770
 4450SOL     OW14248   3.759   3.017   5.814
 4450SOL    HW114249   3.825   3.090   5.796
 4450SOL    HW214250   3.678   3.029   5.756
 4451SOL     OW14251   5.740   4.598   3.224
 4451SOL    HW114252   5.667   4.616   3.159
 4451SOL    HW214253   5.822   4.567   3.175
 4452SOL     OW14254   5.219   6.163   4.335
 4452SOL    HW114255   5.240   6.160   4.433
 4452SOL    HW214256   5.120   6.174   4.323
 4453SOL     OW14257   1.287   3.251   1.613
 4453SOL    HW114258   1.257   3.265   1.707
 4453SOL    HW214259   1.278   3.154   1.589
 4454SOL     OW14260   1.416   2.039   6.809
 4454SOL    HW114261   1.318   2.048   6.793
 4454SOL    HW214262   1.435   2.050   6.907
 4455SOL     OW14263   4.842   6.574   6.069
 4455SOL    HW114264   4.856   6.631   6.149
 4455SOL    HW214265   4.908   6.498   6.069
 4456SOL     OW14266   2.914   5.821   1.988
 4456SOL    HW114267   2.844   5.841   1.919
 4456SOL    HW214268   2.885   5.743   2.043
 4457SOL     OW14269   4.199   1.326   2.614
 4457SOL    HW114270   4.269   1.255   2.623
 4457SOL    HW214271   4.108   1.286   2.630
 4458SOL     OW14272   1.537   2.888   0.625
 4458SOL    HW114273   1.616   2.949   0.634
 4458SOL    HW214274   1.529   2.857   0.530
 4459SOL     OW14275   3.617   1.479   4.519
 4459SOL    HW114276   3.635   1.383   4.539
 4459SOL    HW214277   3.653   1.501   4.428
 4460SOL     OW14278   1.985   2.608   6.339
 4460SOL    HW114279   2.049   2.670   6.293
 4460SOL    HW214280   1.952   2.651   6.423
 4461SOL     OW14281   1.768   0.299   0.556
 4461SOL    HW114282   1.755   0.378   0.615
 4461SOL    HW214283   1.854   0.307   0.507
 4462SOL     OW14284   5.941   5.271   2.176
 4462SOL    HW114285   5.847   5.269   2.142
 4462SOL    HW214286   5.981   5.180   2.168
 4463SOL     OW14287   4.768   1.115   0.691
 4463SOL    HW114288   4.801   1.059   0.615
 4463SOL    HW214289   4.699   1.065   0.742
 4464SOL     OW14290   0.229   5.421   0.197
 4464SOL    HW114291   0.320   5.381   0.207
 4464SOL    HW214292   0.214   5.489   0.268
 4465SOL     OW14293   3.585   5.432   1.436
 4465SOL    HW114294   3.594   5.511   1.496
 4465SOL    HW214295   3.580   5.348   1.491
 4466SOL     OW14296   1.011   2.143   3.356
 4466SOL    HW114297   0.931   2.085   3.339
 4466SOL    HW214298   1.041   2.132   3.450
 4467SOL     OW14299   1.973   5.839   2.539
 4467SOL    HW114300   1.874   5.822   2.539
 4467SOL    HW214301   2.011   5.813   2.628
 4468SOL     OW14302   1.848   3.743   0.594
 4468SOL    HW114303   1.937   3.700   0.582
 4468SOL    HW214304   1.779   3.695   0.540
 4469SOL     OW14305   3.281   0.338   2.076
 4469SOL    HW114306   3.350   0.407   2.097
 4469SOL    HW214307   3.200   0.382   2.038
 4470SOL     OW14308   0.358   2.443   1.780
 4470SOL    HW114309   0.456   2.442   1.799
 4470SOL    HW214310   0.307   2.436   1.865
 4471SOL     OW14311   0.576   2.146   6.390
 4471SOL    HW114312   0.529   2.066   6.427
 4471SOL    HW214313   0.509   2.214   6.362
 4472SOL     OW14314   0.952   3.355   2.170
 4472SOL    HW114315   0.874   3.390   2.221
 4472SOL    HW214316   0.952   3.394   2.078
 4473SOL     OW14317   6.081   2.654   4.272
 4473SOL    HW114318   6.032   2.701   4.198
 4473SOL    HW214319   6.179   2.663   4.258
 4474SOL     OW14320   1.876   0.356   2.364
 4474SOL    HW114321   1.920   0.383   2.278
 4474SOL    HW214322   1.939   0.371   2.440
 4475SOL     OW14323   1.279   4.228   2.139
 4475SOL    HW114324   1.253   4.255   2.046
 4475SOL    HW214325   1.240   4.292   2.205
 4476SOL     OW14326   5.279   0.468   3.070
 4476SOL    HW114327   5.224   0.405   3.125
 4476SOL    HW214328   5.369   0.428   3.052
 4477SOL     OW14329   2.085   6.981   5.425
 4477SOL    HW114330   2.167   6.958   5.477
 4477SOL    HW214331   2.065   0.055   5.436
 4478SOL     OW14332   3.488   6.579   3.101
 4478SOL    HW114333   3.517   6.660   3.153
 4478SOL    HW214334   3.459   6.507   3.164
 4479SOL     OW14335   0.530   2.029   0.612
 4479SOL    HW114336   0.454   1.980   0.656
 4479SOL    HW214337   0.537   2.121   0.650
 4480SOL     OW14338   0.636   4.152   5.331
 4480SOL    HW114339   0.719   4.186   5.286
 4480SOL    HW214340   0.587   4.228   5.373
 4481SOL     OW14341   3.941   5.691   4.700
 4481SOL    HW114342   3.859   5.734   4.738
 4481SOL    HW214343   4.021   5.719   4.753
 4482SOL     OW14344   1.670   2.952   5.285
 4482SOL    HW114345   1.756   2.970   5.238
 4482SOL    HW214346   1.685   2.950   5.383
 4483SOL     OW14347   6.239   2.591   2.264
 4483SOL    HW114348   6.194   2.676   2.290
 4483SOL    HW214349   6.184   2.543   2.195
 4484SOL     OW14350   3.238   2.108   6.861
 4484SOL    HW114351   3.231   2.034   6.794
 4484SOL    HW214352   3.199   2.078   6.948
 4485SOL     OW14353   5.279   2.016   4.063
 4485SOL    HW114354   5.342   1.963   4.006
 4485SOL    HW214355   5.329   2.053   4.142
 4486SOL     OW14356   5.903   5.434   5.338
 4486SOL    HW114357   5.846   5.473   5.411
 4486SOL    HW214358   5.975   5.499   5.315
 4487SOL     OW14359   2.751   2.874   6.036
 4487SOL    HW114360   2.659   2.851   6.003
 4487SOL    HW214361   2.819   2.820   5.986
 4488SOL     OW14362   0.568   3.641   5.621
 4488SOL    HW114363   0.582   3.543   5.637
 4488SOL    HW214364   0.471   3.662   5.628
 4489SOL     OW14365   5.025   5.741   5.318
 4489SOL    HW114366   5.073   5.782   5.240
 4489SOL    HW214367   4.968   5.810   5.362
 4490SOL     OW14368   5.630   2.423   2.289
 4490SOL    HW114369   5.661   2.509   2.331
 4490SOL    HW214370   5.532   2.411   2.306
 4491SOL     OW14371   6.752   3.094   3.569
 4491SOL    HW114372   6.700   3.162   3.517
 4491SOL    HW214373   6.850   3.110   3.557
 4492SOL     OW14374   6.284   4.774   2.059
 4492SOL    HW114375   6.326   4.850   2.009
 4492SOL    HW214376   6.191   4.760   2.025
 4493SOL     OW14377   5.001   5.171   4.762
 4493SOL    HW114378   4.955   5.148   4.677
 4493SOL    HW214379   4.978   5.103   4.832
 4494SOL     OW14380   0.382   0.624   6.551
 4494SOL    HW114381   0.381   0.552   6.620
 4494SOL    HW214382   0.290   0.661   6.541
 4495SOL     OW14383   4.316   6.919   4.114
 4495SOL    HW114384   4.345   7.002   4.067
 4495SOL    HW214385   4.383   6.896   4.185
 4496SOL     OW14386   5.572   6.463   1.267
 4496SOL    HW114387   5.662   6.426   1.245
 4496SOL    HW214388   5.573   6.562   1.253
 4497SOL     OW14389   4.966   2.258   6.317
 4497SOL    HW114390   4.927   2.171   6.348
 4497SOL    HW214391   4.950   2.268   6.218
 4498SOL     OW14392   0.245   3.174   0.403
 4498SOL    HW114393   0.164   3.209   0.451
 4498SOL    HW214394   0.276   3.090   0.448
 4499SOL     OW14395   6.072   3.721   3.958
 4499SOL    HW114396   6.147   3.667   3.997
 4499SOL    HW214397   5.987   3.698   4.004
 4500SOL     OW14398   2.982   3.176   4.335
 4500SOL    HW114399   2.977   3.101   4.269
 4500SOL    HW214400   3.055   3.157   4.401
 4501SOL     OW14401   6.739   3.706   2.798
 4501SOL    HW114402   6.697   3.782   2.749
 4501SOL    HW214403   6.814   3.668   2.743
 4502SOL     OW14404   0.626   3.131   6.851
 4502SOL    HW114405   0.603   3.207   6.789
 4502SOL    HW214406   0.680   3.166   6.927
 4503SOL     OW14407   3.878   6.757   2.108
 4503SOL    HW114408   3.849   6.833   2.166
 4503SOL    HW214409   3.806   6.688   2.104
 4504SOL     OW14410   6.755   0.963   4.530
 4504SOL    HW114411   6.738   0.896   4.458
 4504SOL    HW214412   6.672   0.978   4.583
 4505SOL     OW14413   6.419   5.239   1.867
 4505SOL    HW114414   6.448   5.218   1.774
 4505SOL    HW214415   6.491   5.291   1.914
 4506SOL     OW14416   4.882   3.136   3.706
 4506SOL    HW114417   4.852   3.142   3.801
 4506SOL    HW214418   4.982   3.134   3.702
 4507SOL     OW14419   5.985   4.502   3.132
 4507SOL    HW114420   6.000   4.522   3.229
 4507SOL    HW214421   6.070   4.516   3.082
 4508SOL     OW14422   1.680   5.479   0.044
 4508SOL    HW114423   1.730   5.461   0.129
 4508SOL    HW214424   1.745   5.494   6.993
 4509SOL     OW14425   4.638   2.672   2.620
 4509SOL    HW114426   4.719   2.671   2.679
 4509SOL    HW214427   4.650   2.739   2.547
 4510SOL     OW14428   4.132   1.842   3.980
 4510SOL    HW114429   4.083   1.756   3.993
 4510SOL    HW214430   4.101   1.884   3.894
 4511SOL     OW14431   5.684   3.795   6.422
 4511SOL    HW114432   5.638   3.717   6.465
 4511SOL    HW214433   5.765   3.820   6.476
 4512SOL     OW14434   2.596   1.131   5.528
 4512SOL    HW114435   2.649   1.211   5.556
 4512SOL    HW214436   2.507   1.161   5.494
 4513SOL     OW14437   0.490   5.138   6.354
 4513SOL    HW114438   0.424   5.148   6.279
 4513SOL    HW214439   0.568   5.084   6.322
 4514SOL     OW14440   3.871   2.222   5.745
 4514SOL    HW114441   3.933   2.144   5.735
 4514SOL    HW214442   3.835   2.224   5.838
 4515SOL     OW14443   6.488   2.086   5.298
 4515SOL    HW114444   6.546   2.129   5.228
 4515SOL    HW214445   6.484   1.987   5.282
 4516SOL     OW14446   1.956   6.757   0.427
 4516SOL    HW114447   1.949   6.699   0.345
 4516SOL    HW214448   1.864   6.779   0.460
 4517SOL     OW14449   4.459   0.442   6.942
 4517SOL    HW114450   4.367   0.478   6.961
 4517SOL    HW214451   4.496   0.489   6.862
 4518SOL     OW14452   0.004   6.797   2.199
 4518SOL    HW114453   0.020   6.844   2.112
 4518SOL    HW214454   0.090   6.785   2.247
 4519SOL     OW14455   6.741   0.032   1.307
 4519SOL    HW114456   6.776   6.987   1.370
 4519SOL    HW214457   6.778   0.015   1.216
 4520SOL     OW14458   4.896   6.343   5.488
 4520SOL    HW114459   4.822   6.401   5.521
 4520SOL    HW214460   4.976   6.399   5.467
 4521SOL     OW14461   5.872   1.862   4.871
 4521SOL    HW114462   5.888   1.824   4.780
 4521SOL    HW214463   5.950   1.918   4.898
 4522SOL     OW14464   5.594   5.336   3.636
 4522SOL    HW114465   5.504   5.299   3.658
 4522SOL    HW214466   5.650   5.263   3.595
 4523SOL     OW14467   0.854   4.666   0.120
 4523SOL    HW114468   0.863   4.639   0.024
 4523SOL    HW214469   0.944   4.666   0.163
 4524SOL     OW14470   6.353   3.067   1.610
 4524SOL    HW114471   6.294   3.107   1.681
 4524SOL    HW214472   6.306   2.990   1.567
 4525SOL     OW14473   5.211   2.384   5.456
 4525SOL    HW114474   5.286   2.397   5.520
 4525SOL    HW214475   5.227   2.437   5.373
 4526SOL     OW14476   6.709   0.452   6.551
 4526SOL    HW114477   6.632   0.461   6.614
 4526SOL    HW214478   6.691   0.505   6.468
 4527SOL     OW14479   6.321   1.198   3.631
 4527SOL    HW114480   6.408   1.154   3.610
 4527SOL    HW214481   6.311   1.281   3.575
 4528SOL     OW14482   4.293   0.271   6.731
 4528SOL    HW114483   4.219   0.203   6.738
 4528SOL    HW214484   4.283   0.339   6.803
 4529SOL     OW14485   2.192   0.299   4.821
 4529SOL    HW114486   2.184   0.215   4.769
 4529SOL    HW214487   2.238   0.279   4.908
 4530SOL     OW14488   1.607   5.326   4.064
 4530SOL    HW114489   1.579   5.405   4.009
 4530SOL    HW214490   1.534   5.257   4.063
 4531SOL     OW14491   0.306   2.790   4.850
 4531SOL    HW114492   0.261   2.877   4.867
 4531SOL    HW214493   0.354   2.793   4.762
 4532SOL     OW14494   6.583   1.033   2.341
 4532SOL    HW114495   6.608   0.991   2.429
 4532SOL    HW214496   6.521   1.109   2.357
 4533SOL     OW14497   1.505   1.677   1.980
 4533SOL    HW114498   1.513   1.614   2.057
 4533SOL    HW214499   1.558   1.760   2.000
 4534SOL     OW14500   5.034   4.198   4.877
 4534SOL    HW114501   5.039   4.290   4.839
 4534SOL    HW214502   4.967   4.144   4.826
 4535SOL     OW14503   3.648   0.526   2.352
 4535SOL    HW114504   3.685   0.476   2.431
 4535SOL    HW214505   3.715   0.527   2.278
 4536SOL     OW14506   4.356   1.606   4.399
 4536SOL    HW114507   4.263   1.593   4.433
 4536SOL    HW214508   4.352   1.636   4.303
 4537SOL     OW14509   4.119   3.549   0.557
 4537SOL    HW114510   4.182   3.514   0.627
 4537SOL    HW214511   4.098   3.645   0.576
 4538SOL     OW14512   1.791   0.360   2.770
 4538SOL    HW114513   1.809   0.422   2.693
 4538SOL    HW214514   1.724   0.402   2.831
 4539SOL     OW14515   3.425   5.785   4.868
 4539SOL    HW114516   3.433   5.822   4.776
 4539SOL    HW214517   3.349   5.721   4.872
 4540SOL     OW14518   2.364   2.377   6.706
 4540SOL    HW114519   2.402   2.317   6.777
 4540SOL    HW214520   2.323   2.321   6.634
 4541SOL     OW14521   6.005   1.866   6.566
 4541SOL    HW114522   5.922   1.837   6.519
 4541SOL    HW214523   6.084   1.851   6.507
 4542SOL     OW14524   0.206   1.771   1.512
 4542SOL    HW114525   0.265   1.818   1.446
 4542SOL    HW214526   0.155   1.699   1.465
 4543SOL     OW14527   4.420   2.432   1.131
 4543SOL    HW114528   4.439   2.446   1.228
 4543SOL    HW214529   4.321   2.424   1.118
 4544SOL     OW14530   3.711   5.689   6.705
 4544SOL    HW114531   3.744   5.711   6.614
 4544SOL    HW214532   3.614   5.711   6.713
 4545SOL     OW14533   5.451   3.060   3.992
 4545SOL    HW114534   5.543   3.022   3.985
 4545SOL    HW214535   5.384   2.985   3.994
 4546SOL     OW14536   2.012   1.010   4.222
 4546SOL    HW114537   2.018   0.936   4.289
 4546SOL    HW214538   2.103   1.032   4.188
 4547SOL     OW14539   6.342   2.045   0.783
 4547SOL    HW114540   6.309   1.951   0.780
 4547SOL    HW214541   6.348   2.075   0.879
 4548SOL     OW14542   1.377   3.047   4.291
 4548SOL    HW114543   1.470   3.019   4.316
 4548SOL    HW214544   1.373   3.146   4.286
 4549SOL     OW14545   5.993   4.170   2.350
 4549SOL    HW114546   5.996   4.267   2.328
 4549SOL    HW214547   5.918   4.126   2.299
 4550SOL     OW14548   1.292   5.721   3.241
 4550SOL    HW114549   1.239   5.655   3.295
 4550SOL    HW214550   1.265   5.715   3.145
 4551SOL     OW14551   0.212   3.562   4.720
 4551SOL    HW114552   0.258   3.562   4.808
 4551SOL    HW214553   0.113   3.564   4.734
 4552SOL     OW14554   6.346   2.140   1.027
 4552SOL    HW114555   6.334   2.127   1.126
 4552SOL    HW214556   6.348   2.238   1.006
 4553SOL     OW14557   4.446   4.430   6.832
 4553SOL    HW114558   4.507   4.354   6.854
 4553SOL    HW214559   4.359   4.419   6.881
 4554SOL     OW14560   6.377   6.873   1.472
 4554SOL    HW114561   6.341   6.824   1.552
 4554SOL    HW214562   6.471   6.901   1.489
 4555SOL     OW14563   2.402   1.909   5.103
 4555SOL    HW114564   2.476   1.975   5.117
 4555SOL    HW214565   2.330   1.952   5.049
 4556SOL     OW14566   5.390   3.050   4.515
 4556SOL    HW114567   5.390   3.106   4.598
 4556SOL    HW214568   5.386   2.953   4.539
 4557SOL     OW14569   4.840   5.586   5.158
 4557SOL    HW114570   4.877   5.493   5.154
 4557SOL    HW214571   4.894   5.640   5.223
 4558SOL     OW14572   6.887   4.143   4.810
 4558SOL    HW114573   6.912   4.234   4.842
 4558SOL    HW214574   6.846   4.091   4.885
 4559SOL     OW14575   0.632   3.663   2.086
 4559SOL    HW114576   0.629   3.579   2.031
 4559SOL    HW214577   0.558   3.661   2.153
 4560SOL     OW14578   5.389   4.538   1.387
 4560SOL    HW114579   5.469   4.554   1.445
 4560SOL    HW214580   5.368   4.441   1.383
 4561SOL     OW14581   2.804   2.010   3.071
 4561SOL    HW114582   2.728   1.946   3.085
 4561SOL    HW214583   2.770   2.091   3.024
 4562SOL     OW14584   2.300   6.716   6.279
 4562SOL    HW114585   2.288   6.723   6.378
 4562SOL    HW214586   2.311   6.620   6.254
 4563SOL     OW14587   0.684   2.453   0.983
 4563SOL    HW114588   0.673   2.550   1.002
 4563SOL    HW214589   0.683   2.401   1.068
 4564SOL     OW14590   0.075   5.965   2.119
 4564SOL    HW114591   0.154   5.904   2.119
 4564SOL    HW214592   7.020   5.919   2.076
 4565SOL     OW14593   0.498   0.635   4.556
 4565SOL    HW114594   0.574   0.612   4.496
 4565SOL    HW214595   0.532   0.682   4.637
 4566SOL     OW14596   0.080   2.826   0.298
 4566SOL    HW114597   7.023   2.871   0.258
 4566SOL    HW214598   0.163   2.868   0.260
 4567SOL     OW14599   6.546   1.167   6.043
 4567SOL    HW114600   6.622   1.170   6.109
 4567SOL    HW214601   6.529   1.072   6.016
 4568SOL     OW14602   1.788   3.033   6.017
 4568SOL    HW114603   1.740   3.053   5.932
 4568SOL    HW214604   1.887   3.044   6.003
 4569SOL     OW14605   1.927   0.911   2.948
 4569SOL    HW114606   2.021   0.916   2.913
 4569SOL    HW214607   1.868   0.972   2.895
 4570SOL     OW14608   0.031   6.732   2.485
 4570SOL    HW114609   0.060   6.707   2.393
 4570SOL    HW214610   6.981   6.671   2.515
 4571SOL     OW14611   4.618   3.949   6.453
 4571SOL    HW114612   4.622   3.865   6.398
 4571SOL    HW214613   4.623   3.925   6.550
 4572SOL     OW14614   1.880   0.542   6.646
 4572SOL    HW114615   1.864   0.611   6.576
 4572SOL    HW214616   1.976   0.544   6.674
 4573SOL     OW14617   6.265   0.633   7.021
 4573SOL    HW114618   6.337   0.571   0.028
 4573SOL    HW214619   6.304   0.722   6.998
 4574SOL     OW14620   5.753   4.314   0.309
 4574SOL    HW114621   5.745   4.291   0.406
 4574SOL    HW214622   5.669   4.288   0.261
 4575SOL     OW14623   5.509   0.754   5.791
 4575SOL    HW114624   5.470   0.764   5.700
 4575SOL    HW214625   5.478   0.829   5.849
 4576SOL     OW14626   3.508   6.002   5.471
 4576SOL    HW114627   3.437   5.948   5.428
 4576SOL    HW214628   3.476   6.096   5.484
 4577SOL     OW14629   0.869   2.186   4.258
 4577SOL    HW114630   0.785   2.181   4.205
 4577SOL    HW214631   0.894   2.095   4.290
 4578SOL     OW14632   0.869   2.554   5.007
 4578SOL    HW114633   0.962   2.518   4.998
 4578SOL    HW214634   0.804   2.478   5.003
 4579SOL     OW14635   4.146   0.256   3.649
 4579SOL    HW114636   4.170   0.348   3.616
 4579SOL    HW214637   4.047   0.247   3.654
 4580SOL     OW14638   5.354   4.657   0.936
 4580SOL    HW114639   5.389   4.647   0.843
 4580SOL    HW214640   5.430   4.658   1.001
 4581SOL     OW14641   2.045   5.927   2.140
 4581SOL    HW114642   2.144   5.934   2.156
 4581SOL    HW214643   2.010   5.846   2.187
 4582SOL     OW14644   4.383   0.887   4.628
 4582SOL    HW114645   4.472   0.840   4.627
 4582SOL    HW214646   4.364   0.922   4.536
 4583SOL     OW14647   2.666   2.085   6.935
 4583SOL    HW114648   2.640   1.988   6.940
 4583SOL    HW214649   2.754   2.093   6.888
 4584SOL     OW14650   0.659   4.812   5.312
 4584SOL    HW114651   0.752   4.822   5.278
 4584SOL    HW214652   0.638   4.884   5.377
 4585SOL     OW14653   2.051   5.399   3.157
 4585SOL    HW114654   2.025   5.478   3.212
 4585SOL    HW214655   2.148   5.379   3.173
 4586SOL     OW14656   3.980   4.350   1.172
 4586SOL    HW114657   3.985   4.445   1.201
 4586SOL    HW214658   3.887   4.316   1.184
 4587SOL     OW14659   3.287   4.114   3.617
 4587SOL    HW114660   3.376   4.158   3.608
 4587SOL    HW214661   3.266   4.101   3.714
 4588SOL     OW14662   2.487   3.615   5.325
 4588SOL    HW114663   2.486   3.712   5.349
 4588SOL    HW214664   2.576   3.576   5.348
 4589SOL     OW14665   6.340   0.696   2.149
 4589SOL    HW114666   6.422   0.715   2.096
 4589SOL    HW214667   6.336   0.599   2.172
 4590SOL     OW14668   4.700   4.961   1.321
 4590SOL    HW114669   4.682   4.867   1.353
 4590SOL    HW214670   4.729   5.016   1.399
 4591SOL     OW14671   1.841   0.683   4.716
 4591SOL    HW114672   1.863   0.592   4.683
 4591SOL    HW214673   1.767   0.722   4.661
 4592SOL     OW14674   2.797   1.515   3.484
 4592SOL    HW114675   2.820   1.601   3.530
 4592SOL    HW214676   2.760   1.451   3.551
 4593SOL     OW14677   5.388   5.729   1.965
 4593SOL    HW114678   5.409   5.779   2.049
 4593SOL    HW214679   5.293   5.746   1.940
 4594SOL     OW14680   2.400   1.059   3.433
 4594SOL    HW114681   2.468   1.064   3.507
 4594SOL    HW214682   2.397   1.146   3.384
 4595SOL     OW14683   4.528   3.125   5.357
 4595SOL    HW114684   4.571   3.216   5.356
 4595SOL    HW214685   4.590   3.059   5.315
 4596SOL     OW14686   6.527   0.593   2.526
 4596SOL    HW114687   6.470   0.672   2.505
 4596SOL    HW214688   6.592   0.577   2.452
 4597SOL     OW14689   4.233   5.114   0.100
 4597SOL    HW114690   4.215   5.102   0.197
 4597SOL    HW214691   4.152   5.087   0.048
 4598SOL     OW14692   1.508   6.070   0.519
 4598SOL    HW114693   1.607   6.055   0.529
 4598SOL    HW214694   1.470   6.000   0.460
 4599SOL     OW14695   1.742   5.045   0.168
 4599SOL    HW114696   1.755   5.073   0.073
 4599SOL    HW214697   1.645   5.038   0.188
 4600SOL     OW14698   0.807   5.710   5.482
 4600SOL    HW114699   0.805   5.800   5.439
 4600SOL    HW214700   0.836   5.718   5.577
 4601SOL     OW14701   1.674   1.287   5.131
 4601SOL    HW114702   1.768   1.322   5.129
 4601SOL    HW214703   1.610   1.363   5.118
 4602SOL     OW14704   3.213   6.462   0.501
 4602SOL    HW114705   3.202   6.418   0.590
 4602SOL    HW214706   3.145   6.426   0.438
 4603SOL     OW14707   3.860   6.605   1.161
 4603SOL    HW114708   3.896   6.679   1.103
 4603SOL    HW214709   3.772   6.633   1.200
 4604SOL     OW14710   4.157   0.054   6.841
 4604SOL    HW114711   4.213   7.018   6.783
 4604SOL    HW214712   4.189   0.047   6.936
 4605SOL     OW14713   1.518   6.428   2.519
 4605SOL    HW114714   1.471   6.433   2.431
 4605SOL    HW214715   1.460   6.468   2.591
 4606SOL     OW14716   0.598   6.641   1.966
 4606SOL    HW114717   0.686   6.594   1.974
 4606SOL    HW214718   0.558   6.653   2.057
 4607SOL     OW14719   2.198   3.078   2.564
 4607SOL    HW114720   2.200   3.037   2.655
 4607SOL    HW214721   2.289   3.072   2.522
 4608SOL     OW14722   0.517   5.791   3.532
 4608SOL    HW114723   0.571   5.822   3.610
 4608SOL    HW214724   0.431   5.751   3.564
 4609SOL     OW14725   4.907   4.897   0.039
 4609SOL    HW114726   4.902   4.914   6.964
 4609SOL    HW214727   4.819   4.866   0.073
 4610SOL     OW14728   4.866   1.852   0.408
 4610SOL    HW114729   4.798   1.879   0.476
 4610SOL    HW214730   4.957   1.882   0.439
 4611SOL     OW14731   1.228   6.455   6.082
 4611SOL    HW114732   1.208   6.552   6.075
 4611SOL    HW214733   1.230   6.428   6.178
 4612SOL     OW14734   1.853   6.536   0.896
 4612SOL    HW114735   1.763   6.500   0.921
 4612SOL    HW214736   1.876   6.505   0.804
 4613SOL     OW14737   1.664   5.533   1.827
 4613SOL    HW114738   1.712   5.551   1.913
 4613SOL    HW214739   1.569   5.511   1.846
 4614SOL     OW14740   6.052   3.553   3.174
 4614SOL    HW114741   5.992   3.626   3.206
 4614SOL    HW214742   6.126   3.539   3.239
 4615SOL     OW14743   1.783   1.109   6.956
 4615SOL    HW114744   1.856   1.133   7.020
 4615SOL    HW214745   1.753   1.015   6.973
 4616SOL     OW14746   6.446   1.361   4.631
 4616SOL    HW114747   6.480   1.326   4.718
 4616SOL    HW214748   6.407   1.286   4.577
 4617SOL     OW14749   1.120   2.328   2.061
 4617SOL    HW114750   1.077   2.275   2.134
 4617SOL    HW214751   1.105   2.426   2.077
 4618SOL     OW14752   2.342   3.077   5.444
 4618SOL    HW114753   2.259   3.050   5.393
 4618SOL    HW214754   2.422   3.061   5.387
 4619SOL     OW14755   3.162   6.259   3.503
 4619SOL    HW114756   3.203   6.346   3.531
 4619SOL    HW214757   3.062   6.268   3.501
 4620SOL     OW14758   2.373   4.955   0.964
 4620SOL    HW114759   2.285   4.933   1.006
 4620SOL    HW214760   2.439   4.883   0.984
 4621SOL     OW14761   4.969   0.472   2.507
 4621SOL    HW114762   4.939   0.563   2.481
 4621SOL    HW214763   5.063   0.477   2.542
 4622SOL     OW14764   3.389   4.554   0.491
 4622SOL    HW114765   3.472   4.609   0.500
 4622SOL    HW214766   3.352   4.534   0.582
 4623SOL     OW14767   5.186   6.079   1.498
 4623SOL    HW114768   5.103   6.114   1.542
 4623SOL    HW214769   5.266   6.103   1.553
 4624SOL     OW14770   3.545   0.261   2.875
 4624SOL    HW114771   3.588   0.170   2.871
 4624SOL    HW214772   3.589   0.315   2.947
 4625SOL     OW14773   1.719   4.535   1.413
 4625SOL    HW114774   1.648   4.578   1.468
 4625SOL    HW214775   1.792   4.601   1.394
 4626SOL     OW14776   4.967   4.214   2.208
 4626SOL    HW114777   5.057   4.173   2.224
 4626SOL    HW214778   4.975   4.287   2.140
 4627SOL     OW14779   1.702   4.628   5.041
 4627SOL    HW114780   1.625   4.626   5.105
 4627SOL    HW214781   1.720   4.535   5.009
 4628SOL     OW14782   4.660   4.271   4.620
 4628SOL    HW114783   4.691   4.363   4.642
 4628SOL    HW214784   4.580   4.249   4.676
 4629SOL     OW14785   2.876   5.331   5.333
 4629SOL    HW114786   2.825   5.317   5.248
 4629SOL    HW214787   2.917   5.245   5.362
 4630SOL     OW14788   2.551   6.126   1.948
 4630SOL    HW114789   2.563   6.096   2.042
 4630SOL    HW214790   2.455   6.146   1.931
 4631SOL     OW14791   1.187   5.977   3.256
 4631SOL    HW114792   1.249   6.046   3.293
 4631SOL    HW214793   1.233   5.889   3.250
 4632SOL     OW14794   2.596   4.628   2.891
 4632SOL    HW114795   2.622   4.638   2.988
 4632SOL    HW214796   2.578   4.718   2.853
 4633SOL     OW14797   6.012   0.759   4.662
 4633SOL    HW114798   5.961   0.721   4.739
 4633SOL    HW214799   6.067   0.836   4.693
 4634SOL     OW14800   2.592   3.879   5.359
 4634SOL    HW114801   2.687   3.884   5.327
 4634SOL    HW214802   2.533   3.927   5.294
 4635SOL     OW14803   4.930   3.709   2.115
 4635SOL    HW114804   4.894   3.622   2.081
 4635SOL    HW214805   4.906   3.782   2.051
 4636SOL     OW14806   2.402   4.613   0.159
 4636SOL    HW114807   2.403   4.531   0.102
 4636SOL    HW214808   2.365   4.591   0.249
 4637SOL     OW14809   0.761   6.781   0.538
 4637SOL    HW114810   0.750   6.713   0.466
 4637SOL    HW214811   0.810   6.860   0.502
 4638SOL     OW14812   4.151   4.468   0.161
 4638SOL    HW114813   4.157   4.428   0.252
 4638SOL    HW214814   4.113   4.561   0.167
 4639SOL     OW14815   3.373   3.471   6.208
 4639SOL    HW114816   3.402   3.534   6.280
 4639SOL    HW214817   3.301   3.513   6.154
 4640SOL     OW14818   4.941   4.060   4.146
 4640SOL    HW114819   4.900   3.971   4.122
 4640SOL    HW214820   4.945   4.069   4.245
 4641SOL     OW14821   2.647   0.459   4.843
 4641SOL    HW114822   2.690   0.542   4.808
 4641SOL    HW214823   2.585   0.421   4.774
 4642SOL     OW14824   1.064   6.636   3.379
 4642SOL    HW114825   1.104   6.720   3.344
 4642SOL    HW214826   0.990   6.658   3.443
 4643SOL     OW14827   6.865   2.272   0.889
 4643SOL    HW114828   6.893   2.368   0.897
 4643SOL    HW214829   6.787   2.266   0.827
 4644SOL     OW14830   0.445   5.836   5.066
 4644SOL    HW114831   0.452   5.935   5.069
 4644SOL    HW214832   0.471   5.803   4.975
 4645SOL     OW14833   0.486   0.187   3.980
 4645SOL    HW114834   0.560   0.248   4.004
 4645SOL    HW214835   0.488   0.168   3.882
 4646SOL     OW14836   2.268   5.253   3.232
 4646SOL    HW114837   2.237   5.177   3.289
 4646SOL    HW214838   2.350   5.226   3.182
 4647SOL     OW14839   1.915   0.201   2.969
 4647SOL    HW114840   1.879   0.265   2.902
 4647SOL    HW214841   1.970   0.250   3.037
 4648SOL     OW14842   3.288   0.345   2.985
 4648SOL    HW114843   3.385   0.344   2.961
 4648SOL    HW214844   3.263   0.437   3.015
 4649SOL     OW14845   5.158   1.327   6.754
 4649SOL    HW114846   5.162   1.245   6.698
 4649SOL    HW214847   5.246   1.343   6.797
 4650SOL     OW14848   5.015   5.505   2.302
 4650SOL    HW114849   5.115   5.508   2.299
 4650SOL    HW214850   4.980   5.468   2.216
 4651SOL     OW14851   6.402   3.787   6.661
 4651SOL    HW114852   6.302   3.793   6.656
 4651SOL    HW214853   6.428   3.746   6.748
 4652SOL     OW14854   5.290   6.592   4.592
 4652SOL    HW114855   5.382   6.571   4.626
 4652SOL    HW214856   5.297   6.628   4.499
 4653SOL     OW14857   5.140   5.707   0.864
 4653SOL    HW114858   5.098   5.712   0.954
 4653SOL    HW214859   5.193   5.622   0.856
 4654SOL     OW14860   0.847   6.000   6.737
 4654SOL    HW114861   0.784   6.040   6.670
 4654SOL    HW214862   0.927   6.059   6.745
 4655SOL     OW14863   5.942   3.472   1.031
 4655SOL    HW114864   6.007   3.503   0.961
 4655SOL    HW214865   5.893   3.551   1.068
 4656SOL     OW14866   1.351   0.662   2.190
 4656SOL    HW114867   1.346   0.656   2.091
 4656SOL    HW214868   1.316   0.750   2.221
 4657SOL     OW14869   4.429   5.725   1.516
 4657SOL    HW114870   4.386   5.652   1.569
 4657SOL    HW214871   4.359   5.776   1.466
 4658SOL     OW14872   3.455   0.255   4.051
 4658SOL    HW114873   3.449   0.249   4.150
 4658SOL    HW214874   3.425   0.168   4.011
 4659SOL     OW14875   2.972   3.766   5.325
 4659SOL    HW114876   3.054   3.714   5.302
 4659SOL    HW214877   2.984   3.862   5.300
 4660SOL     OW14878   0.676   5.594   5.080
 4660SOL    HW114879   0.734   5.514   5.063
 4660SOL    HW214880   0.633   5.585   5.169
 4661SOL     OW14881   3.202   4.321   6.067
 4661SOL    HW114882   3.268   4.284   6.133
 4661SOL    HW214883   3.109   4.301   6.097
 4662SOL     OW14884   2.929   0.197   5.424
 4662SOL    HW114885   2.969   0.110   5.453
 4662SOL    HW214886   2.940   0.208   5.325
 4663SOL     OW14887   0.318   1.496   1.179
 4663SOL    HW114888   0.259   1.486   1.259
 4663SOL    HW214889   0.324   1.593   1.153
 4664SOL     OW14890   1.555   1.298   0.742
 4664SOL    HW114891   1.540   1.265   0.649
 4664SOL    HW214892   1.602   1.386   0.738
 4665SOL     OW14893   4.211   6.379   6.235
 4665SOL    HW114894   4.247   6.446   6.171
 4665SOL    HW214895   4.118   6.405   6.262
 4666SOL     OW14896   2.566   2.501   6.844
 4666SOL    HW114897   2.496   2.446   6.799
 4666SOL    HW214898   2.617   2.443   6.908
 4667SOL     OW14899   6.610   3.950   1.963
 4667SOL    HW114900   6.553   4.019   1.919
 4667SOL    HW214901   6.694   3.938   1.910
 4668SOL     OW14902   4.793   2.110   3.545
 4668SOL    HW114903   4.871   2.164   3.577
 4668SOL    HW214904   4.747   2.158   3.470
 4669SOL     OW14905   5.394   6.203   0.742
 4669SOL    HW114906   5.331   6.171   0.671
 4669SOL    HW214907   5.347   6.209   0.829
 4670SOL     OW14908   1.588   2.418   6.143
 4670SOL    HW114909   1.674   2.439   6.188
 4670SOL    HW214910   1.587   2.321   6.116
 4671SOL     OW14911   0.573   3.393   6.735
 4671SOL    HW114912   0.662   3.390   6.779
 4671SOL    HW214913   0.581   3.434   6.644
 4672SOL     OW14914   2.434   5.114   5.512
 4672SOL    HW114915   2.459   5.038   5.452
 4672SOL    HW214916   2.465   5.200   5.472
 4673SOL     OW14917   4.651   0.242   1.807
 4673SOL    HW114918   4.563   0.262   1.848
 4673SOL    HW214919   4.699   0.175   1.863
 4674SOL     OW14920   4.737   1.020   6.603
 4674SOL    HW114921   4.673   0.992   6.532
 4674SOL    HW214922   4.687   1.053   6.683
 4675SOL     OW14923   1.973   1.318   6.560
 4675SOL    HW114924   2.027   1.372   6.624
 4675SOL    HW214925   1.929   1.242   6.609
 4676SOL     OW14926   5.997   6.229   3.956
 4676SOL    HW114927   5.940   6.250   3.877
 4676SOL    HW214928   5.940   6.193   4.030
 4677SOL     OW14929   2.518   1.263   6.730
 4677SOL    HW114930   2.511   1.166   6.754
 4677SOL    HW214931   2.586   1.275   6.658
 4678SOL     OW14932   2.170   4.432   2.916
 4678SOL    HW114933   2.176   4.492   2.996
 4678SOL    HW214934   2.241   4.362   2.921
 4679SOL     OW14935   3.328   1.180   6.965
 4679SOL    HW114936   3.291   1.272   6.948
 4679SOL    HW214937   3.426   1.186   6.982
 4680SOL     OW14938   2.215   1.514   0.969
 4680SOL    HW114939   2.286   1.581   0.989
 4680SOL    HW214940   2.132   1.561   0.940
 4681SOL     OW14941   5.584   6.367   5.998
 4681SOL    HW114942   5.665   6.403   5.951
 4681SOL    HW214943   5.541   6.297   5.941
 4682SOL     OW14944   4.010   4.897   5.917
 4682SOL    HW114945   4.056   4.809   5.927
 4682SOL    HW214946   4.075   4.971   5.932
 4683SOL     OW14947   4.586   4.489   2.992
 4683SOL    HW114948   4.613   4.575   3.036
 4683SOL    HW214949   4.627   4.413   3.042
 4684SOL     OW14950   6.839   2.012   5.400
 4684SOL    HW114951   6.924   2.025   5.450
 4684SOL    HW214952   6.794   1.929   5.432
 4685SOL     OW14953   0.512   6.101   5.089
 4685SOL    HW114954   0.596   6.057   5.057
 4685SOL    HW214955   0.528   6.198   5.104
 4686SOL     OW14956   5.066   5.522   0.611
 4686SOL    HW114957   5.072   5.576   0.527
 4686SOL    HW214958   5.156   5.514   0.653
 4687SOL     OW14959   6.735   4.319   5.125
 4687SOL    HW114960   6.750   4.387   5.197
 4687SOL    HW214961   6.702   4.364   5.043
 4688SOL     OW14962   6.293   4.022   5.733
 4688SOL    HW114963   6.387   4.012   5.701
 4688SOL    HW214964   6.276   3.958   5.807
 4689SOL     OW14965   5.948   0.567   0.065
 4689SOL    HW114966   5.995   0.480   0.050
 4689SOL    HW214967   5.992   0.616   0.140
 4690SOL     OW14968   1.261   0.417   0.009
 4690SOL    HW114969   1.222   0.353   6.965
 4690SOL    HW214970   1.252   0.510   6.999
 4691SOL     OW14971   2.820   4.702   2.216
 4691SOL    HW114972   2.848   4.655   2.133
 4691SOL    HW214973   2.728   4.671   2.242
 4692SOL     OW14974   6.257   5.561   2.316
 4692SOL    HW114975   6.196   5.482   2.321
 4692SOL    HW214976   6.249   5.615   2.400
 4693SOL     OW14977   0.693   0.623   3.139
 4693SOL    HW114978   0.760   0.549   3.135
 4693SOL    HW214979   0.701   0.671   3.226
 4694SOL     OW14980   2.528   0.203   0.429
 4694SOL    HW114981   2.459   0.246   0.371
 4694SOL    HW214982   2.507   0.105   0.438
 4695SOL     OW14983   2.499   3.504   1.693
 4695SOL    HW114984   2.440   3.492   1.773
 4695SOL    HW214985   2.457   3.569   1.630
 4696SOL     OW14986   0.150   3.912   6.276
 4696SOL    HW114987   0.230   3.962   6.308
 4696SOL    HW214988   0.100   3.968   6.209
 4697SOL     OW14989   2.259   3.153   0.890
 4697SOL    HW114990   2.242   3.181   0.984
 4697SOL    HW214991   2.354   3.171   0.867
 4698SOL     OW14992   4.586   5.879   2.687
 4698SOL    HW114993   4.509   5.935   2.655
 4698SOL    HW214994   4.555   5.822   2.763
 4699SOL     OW14995   1.589   6.416   1.624
 4699SOL    HW114996   1.500   6.430   1.581
 4699SOL    HW214997   1.586   6.451   1.718
 4700SOL     OW14998   6.545   1.594   2.357
 4700SOL    HW114999   6.558   1.630   2.449
 4700SOL    HW215000   6.633   1.572   2.317
 4701SOL     OW15001   2.460   2.201   0.886
 4701SOL    HW115002   2.404   2.173   0.965
 4701SOL    HW215003   2.461   2.127   0.818
 4702SOL     OW15004   5.856   4.971   6.746
 4702SOL    HW115005   5.802   4.891   6.773
 4702SOL    HW215006   5.795   5.049   6.730
 4703SOL     OW15007   1.057   2.268   1.678
 4703SOL    HW115008   1.037   2.309   1.589
 4703SOL    HW215009   0.986   2.203   1.702
 4704SOL     OW15010   1.141   6.800   6.698
 4704SOL    HW115011   1.042   6.788   6.690
 4704SOL    HW215012   1.175   6.747   6.776
 4705SOL     OW15013   3.388   3.474   2.824
 4705SOL    HW115014   3.461   3.504   2.762
 4705SOL    HW215015   3.304   3.525   2.804
 4706SOL     OW15016   3.946   6.410   6.319
 4706SOL    HW115017   3.954   6.390   6.416
 4706SOL    HW215018   3.852   6.396   6.289
 4707SOL     OW15019   2.630   5.798   1.038
 4707SOL    HW115020   2.702   5.735   1.009
 4707SOL    HW215021   2.586   5.837   0.957
 4708SOL     OW15022   1.191   2.381   6.452
 4708SOL    HW115023   1.111   2.432   6.419
 4708SOL    HW215024   1.204   2.300   6.396
 4709SOL     OW15025   4.615   6.116   6.092
 4709SOL    HW115026   4.631   6.018   6.081
 4709SOL    HW215027   4.551   6.131   6.167
 4710SOL     OW15028   3.991   1.242   5.465
 4710SOL    HW115029   4.050   1.204   5.393
 4710SOL    HW215030   4.043   1.247   5.550
 4711SOL     OW15031   5.916   1.033   2.052
 4711SOL    HW115032   5.921   1.111   2.116
 4711SOL    HW215033   5.993   0.972   2.070
 4712SOL     OW15034   3.316   4.237   7.017
 4712SOL    HW115035   3.252   4.314   7.007
 4712SOL    HW215036   3.332   4.220   0.091
 4713SOL     OW15037   3.533   3.246   1.073
 4713SOL    HW115038   3.436   3.231   1.053
 4713SOL    HW215039   3.543   3.327   1.131
 4714SOL     OW15040   1.515   2.496   0.007
 4714SOL    HW115041   1.442   2.428   7.017
 4714SOL    HW215042   1.550   2.524   6.941
 4715SOL     OW15043   7.002   3.236   1.885
 4715SOL    HW115044   0.070   3.213   1.850
 4715SOL    HW215045   6.970   3.162   1.945
 4716SOL     OW15046   4.817   6.154   6.651
 4716SOL    HW115047   4.910   6.182   6.625
 4716SOL    HW215048   4.760   6.146   6.569
 4717SOL     OW15049   0.253   6.422   3.454
 4717SOL    HW115050   0.216   6.480   3.382
 4717SOL    HW215051   0.272   6.331   3.417
 4718SOL     OW15052   5.868   2.833   0.366
 4718SOL    HW115053   5.769   2.820   0.375
 4718SOL    HW215054   5.905   2.866   0.453
 4719SOL     OW15055   5.558   3.032   2.296
 4719SOL    HW115056   5.647   3.038   2.251
 4719SOL    HW215057   5.485   3.045   2.228
 4720SOL     OW15058   2.087   5.942   5.552
 4720SOL    HW115059   1.995   5.905   5.566
 4720SOL    HW215060   2.126   5.903   5.468
 4721SOL     OW15061   6.328   2.818   1.482
 4721SOL    HW115062   6.255   2.775   1.535
 4721SOL    HW215063   6.415   2.773   1.504
 4722SOL     OW15064   0.511   5.849   6.533
 4722SOL    HW115065   0.595   5.799   6.510
 4722SOL    HW215066   0.503   5.930   6.476
 4723SOL     OW15067   1.767   4.346   6.220
 4723SOL    HW115068   1.752   4.445   6.214
 4723SOL    HW215069   1.863   4.328   6.243
 4724SOL     OW15070   5.149   6.111   2.791
 4724SOL    HW115071   5.119   6.033   2.735
 4724SOL    HW215072   5.100   6.109   2.879
 4725SOL     OW15073   6.097   6.305   2.744
 4725SOL    HW115074   6.188   6.315   2.704
 4725SOL    HW215075   6.069   6.209   2.741
 4726SOL     OW15076   1.249   2.696   6.398
 4726SOL    HW115077   1.319   2.729   6.462
 4726SOL    HW215078   1.261   2.597   6.385
 4727SOL     OW15079   1.061   6.187   0.170
 4727SOL    HW115080   1.001   6.197   0.250
 4727SOL    HW215081   1.118   6.106   0.182
 4728SOL     OW15082   5.150   0.528   1.281
 4728SOL    HW115083   5.080   0.512   1.211
 4728SOL    HW215084   5.237   0.491   1.249
 4729SOL     OW15085   2.355   1.283   1.698
 4729SOL    HW115086   2.288   1.266   1.771
 4729SOL    HW215087   2.362   1.382   1.682
 4730SOL     OW15088   3.419   5.879   4.618
 4730SOL    HW115089   3.508   5.899   4.577
 4730SOL    HW215090   3.354   5.854   4.546
 4731SOL     OW15091   4.371   6.900   6.165
 4731SOL    HW115092   4.347   6.813   6.122
 4731SOL    HW215093   4.291   6.937   6.211
 4732SOL     OW15094   0.575   3.618   5.335
 4732SOL    HW115095   0.604   3.572   5.418
 4732SOL    HW215096   0.611   3.711   5.334
 4733SOL     OW15097   1.715   4.440   3.687
 4733SOL    HW115098   1.640   4.376   3.706
 4733SOL    HW215099   1.762   4.464   3.772
 4734SOL     OW15100   5.011   2.545   6.980
 4734SOL    HW115101   5.097   2.595   6.978
 4734SOL    HW215102   4.952   2.583   0.028
 4735SOL     OW15103   0.246   5.923   4.514
 4735SOL    HW115104   0.224   5.885   4.424
 4735SOL    HW215105   0.169   5.979   4.547
 4736SOL     OW15106   6.953   2.333   6.576
 4736SOL    HW115107   7.023   2.270   6.609
 4736SOL    HW215108   6.894   2.360   6.652
 4737SOL     OW15109   2.034   4.801   1.773
 4737SOL    HW115110   1.963   4.731   1.784
 4737SOL    HW215111   2.058   4.837   1.863
 4738SOL     OW15112   0.030   6.475   3.072
 4738SOL    HW115113   0.076   6.529   3.143
 4738SOL    HW215114   0.088   6.398   3.046
 4739SOL     OW15115   4.284   6.500   3.332
 4739SOL    HW115116   4.194   6.543   3.343
 4739SOL    HW215117   4.291   6.422   3.394
 4740SOL     OW15118   1.152   1.834   0.865
 4740SOL    HW115119   1.101   1.868   0.786
 4740SOL    HW215120   1.139   1.896   0.942
 4741SOL     OW15121   3.464   3.038   1.508
 4741SOL    HW115122   3.414   2.962   1.550
 4741SOL    HW215123   3.401   3.091   1.451
 4742SOL     OW15124   2.952   6.293   5.723
 4742SOL    HW115125   2.919   6.270   5.815
 4742SOL    HW215126   2.904   6.235   5.656
 4743SOL     OW15127   1.853   3.914   3.038
 4743SOL    HW115128   1.881   3.827   2.999
 4743SOL    HW215129   1.784   3.899   3.109
 4744SOL     OW15130   2.349   4.580   0.660
 4744SOL    HW115131   2.363   4.494   0.709
 4744SOL    HW215132   2.289   4.640   0.713
 4745SOL     OW15133   2.937   3.315   6.084
 4745SOL    HW115134   2.871   3.364   6.026
 4745SOL    HW215135   3.011   3.279   6.027
 4746SOL     OW15136   5.044   6.059   3.033
 4746SOL    HW115137   5.065   5.963   3.054
 4746SOL    HW215138   5.083   6.117   3.104
 4747SOL     OW15139   1.692   4.348   6.886
 4747SOL    HW115140   1.592   4.350   6.891
 4747SOL    HW215141   1.729   4.407   6.957
 4748SOL     OW15142   2.595   5.342   1.353
 4748SOL    HW115143   2.560   5.329   1.446
 4748SOL    HW215144   2.561   5.428   1.316
 4749SOL     OW15145   2.362   6.464   6.091
 4749SOL    HW115146   2.326   6.434   6.002
 4749SOL    HW215147   2.325   6.406   6.163
 4750SOL     OW15148   6.598   4.052   4.656
 4750SOL    HW115149   6.623   4.009   4.743
 4750SOL    HW215150   6.533   4.127   4.674
 4751SOL     OW15151   4.166   1.752   2.916
 4751SOL    HW115152   4.245   1.734   2.974
 4751SOL    HW215153   4.090   1.784   2.971
 4752SOL     OW15154   4.340   1.292   6.879
 4752SOL    HW115155   4.283   1.312   6.959
 4752SOL    HW215156   4.326   1.197   6.851
 4753SOL     OW15157   0.106   0.303   4.664
 4753SOL    HW115158   0.173   0.231   4.647
 4753SOL    HW215159   0.130   0.384   4.609
 4754SOL     OW15160   5.485   3.973   4.864
 4754SOL    HW115161   5.420   3.918   4.812
 4754SOL    HW215162   5.449   4.065   4.875
 4755SOL     OW15163   2.557   1.154   0.418
 4755SOL    HW115164   2.648   1.174   0.382
 4755SOL    HW215165   2.497   1.126   0.343
 4756SOL     OW15166   5.431   3.313   5.897
 4756SOL    HW115167   5.436   3.405   5.858
 4756SOL    HW215168   5.358   3.310   5.966
 4757SOL     OW15169   2.371   2.072   1.600
 4757SOL    HW115170   2.365   2.166   1.568
 4757SOL    HW215171   2.380   2.070   1.699
 4758SOL     OW15172   1.605   6.858   3.310
 4758SOL    HW115173   1.603   6.934   3.374
 4758SOL    HW215174   1.564   6.886   3.223
 4759SOL     OW15175   0.259   5.119   6.204
 4759SOL    HW115176   0.216   5.042   6.251
 4759SOL    HW215177   0.246   5.109   6.105
 4760SOL     OW15178   1.936   2.300   0.805
 4760SOL    HW115179   1.984   2.315   0.891
 4760SOL    HW215180   1.971   2.216   0.762
 4761SOL     OW15181   0.866   6.222   0.388
 4761SOL    HW115182   0.918   6.307   0.386
 4761SOL    HW215183   0.892   6.168   0.468
 4762SOL     OW15184   1.137   5.220   1.749
 4762SOL    HW115185   1.196   5.283   1.698
 4762SOL    HW215186   1.134   5.247   1.845
 4763SOL     OW15187   5.718   0.393   2.521
 4763SOL    HW115188   5.649   0.428   2.457
 4763SOL    HW215189   5.736   0.297   2.499
 4764SOL     OW15190   4.548   4.061   5.283
 4764SOL    HW115191   4.555   3.979   5.339
 4764SOL    HW215192   4.466   4.112   5.309
 4765SOL     OW15193   3.711   0.465   5.699
 4765SOL    HW115194   3.715   0.541   5.634
 4765SOL    HW215195   3.632   0.407   5.677
 4766SOL     OW15196   5.905   5.131   3.839
 4766SOL    HW115197   5.998   5.140   3.801
 4766SOL    HW215198   5.898   5.044   3.888
 4767SOL     OW15199   3.071   5.334   4.947
 4767SOL    HW115200   3.110   5.359   5.036
 4767SOL    HW215201   3.145   5.317   4.882
 4768SOL     OW15202   4.451   2.016   6.389
 4768SOL    HW115203   4.367   2.008   6.334
 4768SOL    HW215204   4.430   2.059   6.476
 4769SOL     OW15205   5.109   6.308   0.426
 4769SOL    HW115206   5.055   6.376   0.376
 4769SOL    HW215207   5.205   6.319   0.403
 4770SOL     OW15208   6.987   1.918   4.813
 4770SOL    HW115209   6.895   1.889   4.840
 4770SOL    HW215210   0.028   1.842   4.824
 4771SOL     OW15211   3.215   6.087   6.069
 4771SOL    HW115212   3.268   6.098   6.153
 4771SOL    HW215213   3.223   6.171   6.014
 4772SOL     OW15214   3.632   4.701   0.250
 4772SOL    HW115215   3.667   4.610   0.273
 4772SOL    HW215216   3.535   4.694   0.227
 4773SOL     OW15217   6.880   5.208   5.521
 4773SOL    HW115218   6.975   5.205   5.490
 4773SOL    HW215219   6.832   5.284   5.477
 4774SOL     OW15220   1.727   3.878   1.188
 4774SOL    HW115221   1.791   3.951   1.162
 4774SOL    HW215222   1.768   3.789   1.166
 4775SOL     OW15223   5.130   6.197   3.237
 4775SOL    HW115224   5.088   6.265   3.177
 4775SOL    HW215225   5.202   6.240   3.292
 4776SOL     OW15226   0.863   0.011   5.055
 4776SOL    HW115227   0.806   6.953   5.041
 4776SOL    HW215228   0.820   0.089   5.009
 4777SOL     OW15229   1.416   4.892   0.990
 4777SOL    HW115230   1.496   4.876   0.933
 4777SOL    HW215231   1.333   4.865   0.940
 4778SOL     OW15232   6.612   3.181   4.334
 4778SOL    HW115233   6.707   3.170   4.365
 4778SOL    HW215234   6.601   3.141   4.243
 4779SOL     OW15235   5.202   0.571   2.835
 4779SOL    HW115236   5.232   0.534   2.922
 4779SOL    HW215237   5.222   0.506   2.762
 4780SOL     OW15238   6.250   2.764   6.762
 4780SOL    HW115239   6.277   2.670   6.783
 4780SOL    HW215240   6.223   2.810   6.847
 4781SOL     OW15241   2.433   4.945   2.290
 4781SOL    HW115242   2.421   4.893   2.374
 4781SOL    HW215243   2.427   4.884   2.211
 4782SOL     OW15244   6.148   5.146   6.900
 4782SOL    HW115245   6.132   5.168   6.804
 4782SOL    HW215246   6.069   5.172   6.954
 4783SOL     OW15247   5.173   3.293   0.026
 4783SOL    HW115248   5.157   3.195   0.027
 4783SOL    HW215249   5.086   3.342   0.025
 4784SOL     OW15250   6.221   2.237   6.420
 4784SOL    HW115251   6.233   2.336   6.410
 4784SOL    HW215252   6.275   2.205   6.498
 4785SOL     OW15253   0.648   5.792   2.893
 4785SOL    HW115254   0.744   5.770   2.908
 4785SOL    HW215255   0.615   5.853   2.965
 4786SOL     OW15256   2.288   0.010   0.247
 4786SOL    HW115257   2.229   0.081   0.210
 4786SOL    HW215258   2.241   6.986   0.322
 4787SOL     OW15259   3.899   1.299   2.943
 4787SOL    HW115260   3.835   1.321   3.017
 4787SOL    HW215261   3.876   1.353   2.862
 4788SOL     OW15262   6.790   6.700   0.041
 4788SOL    HW115263   6.784   6.731   0.136
 4788SOL    HW215264   6.875   6.734   0.000
 4789SOL     OW15265   5.642   1.662   1.845
 4789SOL    HW115266   5.723   1.605   1.863
 4789SOL    HW215267   5.626   1.667   1.747
 4790SOL     OW15268   5.623   1.557   5.798
 4790SOL    HW115269   5.680   1.513   5.729
 4790SOL    HW215270   5.671   1.637   5.835
 4791SOL     OW15271   0.307   2.894   1.436
 4791SOL    HW115272   0.323   2.833   1.513
 4791SOL    HW215273   0.221   2.943   1.449
 4792SOL     OW15274   2.546   4.586   4.048
 4792SOL    HW115275   2.509   4.671   4.011
 4792SOL    HW215276   2.474   4.517   4.053
 4793SOL     OW15277   1.585   2.253   5.538
 4793SOL    HW115278   1.485   2.250   5.536
 4793SOL    HW215279   1.615   2.315   5.611
 4794SOL     OW15280   4.845   0.049   4.806
 4794SOL    HW115281   4.896   0.104   4.872
 4794SOL    HW215282   4.842   0.096   4.718
 4795SOL     OW15283   6.349   2.112   4.146
 4795SOL    HW115284   6.350   2.131   4.244
 4795SOL    HW215285   6.311   2.191   4.097
 4796SOL     OW15286   4.190   1.127   5.285
 4796SOL    HW115287   4.266   1.063   5.298
 4796SOL    HW215288   4.114   1.080   5.240
 4797SOL     OW15289   0.439   6.755   4.791
 4797SOL    HW115290   0.388   6.830   4.832
 4797SOL    HW215291   0.467   6.781   4.698
 4798SOL     OW15292   0.403   4.434   5.802
 4798SOL    HW115293   0.399   4.334   5.794
 4798SOL    HW215294   0.486   4.466   5.756
 4799SOL     OW15295   4.337   1.739   0.667
 4799SOL    HW115296   4.296   1.686   0.592
 4799SOL    HW215297   4.323   1.690   0.753
 4800SOL     OW15298   2.270   3.075   6.601
 4800SOL    HW115299   2.177   3.077   6.638
 4800SOL    HW215300   2.282   3.152   6.537
 4801SOL     OW15301   2.945   2.277   6.904
 4801SOL    HW115302   2.985   2.258   6.994
 4801SOL    HW215303   2.961   2.199   6.844
 4802SOL     OW15304   0.610   6.266   1.691
 4802SOL    HW115305   0.514   6.237   1.698
 4802SOL    HW215306   0.621   6.355   1.736
 4803SOL     OW15307   0.471   4.300   0.355
 4803SOL    HW115308   0.515   4.389   0.358
 4803SOL    HW215309   0.459   4.265   0.448
 4804SOL     OW15310   6.705   6.381   1.148
 4804SOL    HW115311   6.626   6.319   1.146
 4804SOL    HW215312   6.788   6.330   1.125
 4805SOL     OW15313   6.257   0.822   2.733
 4805SOL    HW115314   6.242   0.884   2.656
 4805SOL    HW215315   6.286   0.733   2.699
 4806SOL     OW15316   1.293   4.319   2.580
 4806SOL    HW115317   1.301   4.223   2.553
 4806SOL    HW215318   1.335   4.332   2.670
 4807SOL     OW15319   0.599   4.813   6.882
 4807SOL    HW115320   0.666   4.744   6.856
 4807SOL    HW215321   0.612   4.895   6.826
 4808SOL     OW15322   4.453   5.505   0.251
 4808SOL    HW115323   4.513   5.432   0.218
 4808SOL    HW215324   4.502   5.562   0.317
 4809SOL     OW15325   3.291   4.517   0.727
 4809SOL    HW115326   3.214   4.580   0.734
 4809SOL    HW215327   3.257   4.427   0.699
 4810SOL     OW15328   1.494   3.681   3.198
 4810SOL    HW115329   1.500   3.682   3.098
 4810SOL    HW215330   1.576   3.723   3.237
 4811SOL     OW15331   3.803   3.785   2.637
 4811SOL    HW115332   3.739   3.852   2.600
 4811SOL    HW215333   3.866   3.830   2.700
 4812SOL     OW15334   0.944   6.870   2.092
 4812SOL    HW115335   0.882   6.856   2.169
 4812SOL    HW215336   0.928   6.959   2.051
 4813SOL     OW15337   5.834   1.313   6.355
 4813SOL    HW115338   5.900   1.249   6.393
 4813SOL    HW215339   5.874   1.359   6.276
 4814SOL     OW15340   6.803   2.867   1.070
 4814SOL    HW115341   6.717   2.907   1.102
 4814SOL    HW215342   6.868   2.865   1.145
 4815SOL     OW15343   5.361   4.302   3.046
 4815SOL    HW115344   5.309   4.219   3.023
 4815SOL    HW215345   5.327   4.378   2.990
 4816SOL     OW15346   2.674   5.125   0.974
 4816SOL    HW115347   2.638   5.181   0.899
 4816SOL    HW215348   2.748   5.067   0.940
 4817SOL     OW15349   2.533   1.337   0.628
 4817SOL    HW115350   2.574   1.291   0.707
 4817SOL    HW215351   2.528   1.273   0.552
 4818SOL     OW15352   0.507   0.528   4.242
 4818SOL    HW115353   0.415   0.492   4.260
 4818SOL    HW215354   0.499   0.614   4.191
 4819SOL     OW15355   2.288   2.333   1.575
 4819SOL    HW115356   2.323   2.400   1.640
 4819SOL    HW215357   2.312   2.361   1.482
 4820SOL     OW15358   6.559   1.753   0.995
 4820SOL    HW115359   6.568   1.686   1.069
 4820SOL    HW215360   6.525   1.840   1.033
 4821SOL     OW15361   0.324   0.049   1.935
 4821SOL    HW115362   0.366   6.982   1.918
 4821SOL    HW215363   0.357   0.114   1.866
 4822SOL     OW15364   1.641   3.021   3.900
 4822SOL    HW115365   1.569   2.952   3.907
 4822SOL    HW215366   1.730   2.977   3.905
 4823SOL     OW15367   1.009   0.811   3.947
 4823SOL    HW115368   1.010   0.818   3.847
 4823SOL    HW215369   1.061   0.730   3.975
 4824SOL     OW15370   5.523   1.846   4.005
 4824SOL    HW115371   5.592   1.918   4.001
 4824SOL    HW215372   5.568   1.757   4.012
 4825SOL     OW15373   1.927   2.271   4.978
 4825SOL    HW115374   1.841   2.226   4.955
 4825SOL    HW215375   1.935   2.279   5.078
 4826SOL     OW15376   0.186   0.718   6.272
 4826SOL    HW115377   0.255   0.646   6.277
 4826SOL    HW215378   0.229   0.804   6.244
 4827SOL     OW15379   5.683   2.524   1.698
 4827SOL    HW115380   5.733   2.469   1.631
 4827SOL    HW215381   5.592   2.485   1.711
 4828SOL     OW15382   5.760   2.613   0.985
 4828SOL    HW115383   5.705   2.640   1.064
 4828SOL    HW215384   5.748   2.680   0.912
 4829SOL     OW15385   3.735   6.554   6.708
 4829SOL    HW115386   3.668   6.591   6.773
 4829SOL    HW215387   3.693   6.479   6.656
 4830SOL     OW15388   4.494   6.478   3.572
 4830SOL    HW115389   4.580   6.438   3.540
 4830SOL    HW215390   4.455   6.536   3.500
 4831SOL     OW15391   0.315   4.919   6.528
 4831SOL    HW115392   0.252   4.893   6.454
 4831SOL    HW215393   0.263   4.959   6.603
 4832SOL     OW15394   2.710   2.502   5.829
 4832SOL    HW115395   2.729   2.459   5.740
 4832SOL    HW215396   2.714   2.433   5.901
 4833SOL     OW15397   4.901   2.069   3.220
 4833SOL    HW115398   4.972   2.117   3.272
 4833SOL    HW215399   4.814   2.075   3.268
 4834SOL     OW15400   3.865   6.936   1.059
 4834SOL    HW115401   3.835   0.005   1.034
 4834SOL    HW215402   3.856   6.875   0.981
 4835SOL     OW15403   0.381   1.974   6.457
 4835SOL    HW115404   0.431   1.970   6.544
 4835SOL    HW215405   0.288   1.941   6.470
 4836SOL     OW15406   4.884   3.162   3.981
 4836SOL    HW115407   4.867   3.122   4.071
 4836SOL    HW215408   4.945   3.241   3.990
 4837SOL     OW15409   5.257   4.112   2.187
 4837SOL    HW115410   5.336   4.069   2.141
 4837SOL    HW215411   5.286   4.200   2.225
 4838SOL     OW15412   1.016   4.719   1.395
 4838SOL    HW115413   0.938   4.655   1.393
 4838SOL    HW215414   1.089   4.680   1.450
 4839SOL     OW15415   1.231   2.940   6.287
 4839SOL    HW115416   1.269   2.858   6.329
 4839SOL    HW215417   1.273   3.021   6.327
 4840SOL     OW15418   0.553   5.487   5.658
 4840SOL    HW115419   0.509   5.430   5.727
 4840SOL    HW215420   0.644   5.451   5.639
 4841SOL     OW15421   3.191   6.198   1.795
 4841SOL    HW115422   3.194   6.298   1.789
 4841SOL    HW215423   3.236   6.169   1.880
 4842SOL     OW15424   3.256   4.975   2.086
 4842SOL    HW115425   3.216   4.989   2.176
 4842SOL    HW215426   3.196   4.915   2.032
 4843SOL     OW15427   6.202   3.286   0.111
 4843SOL    HW115428   6.263   3.335   0.173
 4843SOL    HW215429   6.217   3.317   0.018
 4844SOL     OW15430   6.551   3.966   5.605
 4844SOL    HW115431   6.512   3.881   5.568
 4844SOL    HW215432   6.651   3.960   5.601
 4845SOL     OW15433   5.418   5.573   5.241
 4845SOL    HW115434   5.446   5.625   5.322
 4845SOL    HW215435   5.335   5.522   5.262
 4846SOL     OW15436   6.569   2.734   3.296
 4846SOL    HW115437   6.529   2.701   3.381
 4846SOL    HW215438   6.611   2.657   3.247
 4847SOL     OW15439   2.781   1.075   6.085
 4847SOL    HW115440   2.771   1.059   5.987
 4847SOL    HW215441   2.877   1.084   6.109
 4848SOL     OW15442   1.509   0.830   3.983
 4848SOL    HW115443   1.527   0.863   3.891
 4848SOL    HW215444   1.514   0.906   4.047
 4849SOL     OW15445   1.506   6.657   6.731
 4849SOL    HW115446   1.544   6.566   6.746
 4849SOL    HW215447   1.580   6.724   6.727
 4850SOL     OW15448   4.055   1.567   2.558
 4850SOL    HW115449   4.060   1.650   2.614
 4850SOL    HW215450   4.119   1.499   2.594
 4851SOL     OW15451   4.324   6.048   5.888
 4851SOL    HW115452   4.248   6.066   5.825
 4851SOL    HW215453   4.323   5.951   5.914
 4852SOL     OW15454   1.186   7.017   5.064
 4852SOL    HW115455   1.223   0.084   5.042
 4852SOL    HW215456   1.088   0.001   5.080
 4853SOL     OW15457   2.937   0.851   3.517
 4853SOL    HW115458   2.863   0.864   3.451
 4853SOL    HW215459   2.974   0.941   3.542
 4854SOL     OW15460   4.685   0.027   2.008
 4854SOL    HW115461   4.643   7.009   2.089
 4854SOL    HW215462   4.771   0.071   2.034
 4855SOL     OW15463   6.560   3.145   2.098
 4855SOL    HW115464   6.463   3.128   2.083
 4855SOL    HW215465   6.582   3.131   2.194
 4856SOL     OW15466   1.727   3.778   2.506
 4856SOL    HW115467   1.640   3.821   2.483
 4856SOL    HW215468   1.761   3.726   2.428
 4857SOL     OW15469   1.664   2.132   4.999
 4857SOL    HW115470   1.651   2.033   5.000
 4857SOL    HW215471   1.598   2.173   4.936
 4858SOL     OW15472   1.094   0.965   4.349
 4858SOL    HW115473   1.146   0.931   4.270
 4858SOL    HW215474   1.076   0.889   4.412
 4859SOL     OW15475   1.074   0.375   4.645
 4859SOL    HW115476   1.151   0.344   4.701
 4859SOL    HW215477   1.069   0.319   4.563
 4860SOL     OW15478   3.717   4.304   1.494
 4860SOL    HW115479   3.714   4.390   1.444
 4860SOL    HW215480   3.669   4.315   1.581
 4861SOL     OW15481   5.170   4.683   6.937
 4861SOL    HW115482   5.149   4.733   6.853
 4861SOL    HW215483   5.118   4.722   7.013
 4862SOL     OW15484   2.568   4.878   4.526
 4862SOL    HW115485   2.600   4.803   4.469
 4862SOL    HW215486   2.631   4.955   4.518
 4863SOL     OW15487   5.903   3.781   1.754
 4863SOL    HW115488   5.932   3.713   1.820
 4863SOL    HW215489   5.803   3.793   1.758
 4864SOL     OW15490   3.617   1.106   3.239
 4864SOL    HW115491   3.707   1.085   3.278
 4864SOL    HW215492   3.627   1.179   3.171
 4865SOL     OW15493   2.303   0.326   5.121
 4865SOL    HW115494   2.294   0.295   5.216
 4865SOL    HW215495   2.324   0.248   5.062
 4866SOL     OW15496   6.259   2.082   1.277
 4866SOL    HW115497   6.342   2.091   1.332
 4866SOL    HW215498   6.179   2.108   1.332
 4867SOL     OW15499   3.467   5.413   2.168
 4867SOL    HW115500   3.495   5.509   2.172
 4867SOL    HW215501   3.532   5.357   2.219
 4868SOL     OW15502   6.690   5.445   2.713
 4868SOL    HW115503   6.787   5.453   2.692
 4868SOL    HW215504   6.636   5.476   2.635
 4869SOL     OW15505   1.679   1.601   1.536
 4869SOL    HW115506   1.616   1.646   1.599
 4869SOL    HW215507   1.645   1.611   1.443
 4870SOL     OW15508   0.022   6.351   2.043
 4870SOL    HW115509   0.065   6.391   1.962
 4870SOL    HW215510   6.972   6.289   2.014
 4871SOL     OW15511   1.312   0.594   3.702
 4871SOL    HW115512   1.388   0.606   3.765
 4871SOL    HW215513   1.300   0.496   3.682
 4872SOL     OW15514   6.281   0.139   3.885
 4872SOL    HW115515   6.218   0.213   3.862
 4872SOL    HW215516   6.282   0.126   3.984
 4873SOL     OW15517   6.359   5.430   3.324
 4873SOL    HW115518   6.303   5.351   3.301
 4873SOL    HW215519   6.391   5.474   3.240
 4874SOL     OW15520   6.801   3.329   2.470
 4874SOL    HW115521   6.823   3.231   2.472
 4874SOL    HW215522   6.750   3.353   2.553
 4875SOL     OW15523   6.047   2.464   0.896
 4875SOL    HW115524   6.003   2.424   0.977
 4875SOL    HW215525   5.997   2.545   0.867
 4876SOL     OW15526   6.025   2.155   3.308
 4876SOL    HW115527   5.983   2.161   3.399
 4876SOL    HW215528   5.978   2.084   3.255
 4877SOL     OW15529   1.093   2.113   6.295
 4877SOL    HW115530   1.123   2.159   6.211
 4877SOL    HW215531   1.174   2.086   6.348
 4878SOL     OW15532   6.290   1.530   2.256
 4878SOL    HW115533   6.273   1.471   2.178
 4878SOL    HW215534   6.388   1.534   2.274
 4879SOL     OW15535   4.160   1.006   2.525
 4879SOL    HW115536   4.132   1.000   2.429
 4879SOL    HW215537   4.131   1.094   2.563
 4880SOL     OW15538   5.566   3.525   0.165
 4880SOL    HW115539   5.557   3.578   0.249
 4880SOL    HW215540   5.551   3.584   0.086
 4881SOL     OW15541   1.478   0.311   0.187
 4881SOL    HW115542   1.405   0.325   0.121
 4881SOL    HW215543   1.446   0.339   0.278
 4882SOL     OW15544   4.834   0.657   4.588
 4882SOL    HW115545   4.894   0.581   4.612
 4882SOL    HW215546   4.885   0.723   4.532
 4883SOL     OW15547   4.963   4.919   1.889
 4883SOL    HW115548   4.915   4.868   1.961
 4883SOL    HW215549   5.042   4.966   1.929
 4884SOL     OW15550   2.561   6.746   1.095
 4884SOL    HW115551   2.478   6.724   1.043
 4884SOL    HW215552   2.626   6.792   1.035
 4885SOL     OW15553   2.535   5.501   1.773
 4885SOL    HW115554   2.512   5.493   1.870
 4885SOL    HW215555   2.633   5.518   1.764
 4886SOL     OW15556   1.016   5.775   1.445
 4886SOL    HW115557   0.973   5.859   1.414
 4886SOL    HW215558   1.112   5.773   1.416
 4887SOL     OW15559   0.547   0.551   2.113
 4887SOL    HW115560   0.559   0.612   2.191
 4887SOL    HW215561   0.475   0.587   2.054
 4888SOL     OW15562   2.714   0.244   3.993
 4888SOL    HW115563   2.809   0.255   3.964
 4888SOL    HW215564   2.663   0.196   3.922
 4889SOL     OW15565   7.004   1.589   5.415
 4889SOL    HW115566   6.981   1.532   5.336
 4889SOL    HW215567   0.061   1.645   5.394
 4890SOL     OW15568   0.155   1.265   6.665
 4890SOL    HW115569   0.253   1.247   6.655
 4890SOL    HW215570   0.130   1.343   6.608
 4891SOL     OW15571   2.160   4.658   6.799
 4891SOL    HW115572   2.190   4.689   6.708
 4891SOL    HW215573   2.187   4.563   6.812
 4892SOL     OW15574   3.609   5.864   1.966
 4892SOL    HW115575   3.600   5.924   1.887
 4892SOL    HW215576   3.612   5.920   2.050
 4893SOL     OW15577   6.582   3.191   1.274
 4893SOL    HW115578   6.633   3.278   1.278
 4893SOL    HW215579   6.529   3.180   1.357
 4894SOL     OW15580   2.151   0.920   3.790
 4894SOL    HW115581   2.150   0.948   3.694
 4894SOL    HW215582   2.239   0.877   3.812
 4895SOL     OW15583   0.721   4.731   4.116
 4895SOL    HW115584   0.632   4.686   4.106
 4895SOL    HW215585   0.786   4.667   4.157
 4896SOL     OW15586   1.657   4.914   1.980
 4896SOL    HW115587   1.619   4.849   1.915
 4896SOL    HW215588   1.719   4.977   1.932
 4897SOL     OW15589   1.976   3.691   5.584
 4897SOL    HW115590   1.879   3.711   5.570
 4897SOL    HW215591   2.003   3.723   5.676
 4898SOL     OW15592   4.171   0.610   4.211
 4898SOL    HW115593   4.104   0.664   4.160
 4898SOL    HW215594   4.244   0.581   4.149
 4899SOL     OW15595   5.234   5.550   3.437
 4899SOL    HW115596   5.264   5.615   3.507
 4899SOL    HW215597   5.297   5.472   3.435
 4900SOL     OW15598   3.390   6.080   4.887
 4900SOL    HW115599   3.384   5.987   4.923
 4900SOL    HW215600   3.323   6.091   4.813
 4901SOL     OW15601   2.995   0.637   4.955
 4901SOL    HW115602   2.912   0.683   4.985
 4901SOL    HW215603   3.075   0.694   4.975
 4902SOL     OW15604   2.157   1.689   4.747
 4902SOL    HW115605   2.220   1.739   4.807
 4902SOL    HW215606   2.128   1.748   4.672
 4903SOL     OW15607   3.889   5.459   6.962
 4903SOL    HW115608   3.919   5.554   6.952
 4903SOL    HW215609   3.889   5.414   6.872
 4904SOL     OW15610   2.617   0.152   4.712
 4904SOL    HW115611   2.573   0.235   4.677
 4904SOL    HW215612   2.619   0.082   4.641
 4905SOL     OW15613   3.684   6.942   2.965
 4905SOL    HW115614   3.669   6.983   3.055
 4905SOL    HW215615   3.620   6.867   2.952
 4906SOL     OW15616   5.171   2.386   6.173
 4906SOL    HW115617   5.219   2.319   6.116
 4906SOL    HW215618   5.099   2.340   6.225
 4907SOL     OW15619   4.104   6.121   1.956
 4907SOL    HW115620   4.082   6.218   1.964
 4907SOL    HW215621   4.196   6.110   1.919
 4908SOL     OW15622   5.554   5.477   0.665
 4908SOL    HW115623   5.589   5.496   0.757
 4908SOL    HW215624   5.632   5.459   0.604
 4909SOL     OW15625   0.537   6.663   4.001
 4909SOL    HW115626   0.586   6.748   4.021
 4909SOL    HW215627   0.476   6.641   4.077
 4910SOL     OW15628   5.823   1.156   4.703
 4910SOL    HW115629   5.856   1.246   4.734
 4910SOL    HW215630   5.735   1.137   4.746
 4911SOL     OW15631   1.419   4.212   3.995
 4911SOL    HW115632   1.321   4.228   4.005
 4911SOL    HW215633   1.438   4.114   3.997
 4912SOL     OW15634   5.788   1.798   6.391
 4912SOL    HW115635   5.780   1.700   6.412
 4912SOL    HW215636   5.698   1.840   6.396
 4913SOL     OW15637   4.041   2.960   5.292
 4913SOL    HW115638   4.026   2.939   5.196
 4913SOL    HW215639   3.991   3.042   5.318
 4914SOL     OW15640   3.115   6.981   4.494
 4914SOL    HW115641   3.153   6.920   4.424
 4914SOL    HW215642   3.105   0.050   4.456
 4915SOL     OW15643   3.717   6.509   5.961
 4915SOL    HW115644   3.680   6.600   5.976
 4915SOL    HW215645   3.715   6.457   6.046
 4916SOL     OW15646   1.049   0.298   3.979
 4916SOL    HW115647   1.058   0.255   4.070
 4916SOL    HW215648   1.140   0.314   3.942
 4917SOL     OW15649   2.569   5.689   1.458
 4917SOL    HW115650   2.668   5.701   1.454
 4917SOL    HW215651   2.529   5.755   1.521
 4918SOL     OW15652   5.033   5.339   3.406
 4918SOL    HW115653   4.988   5.313   3.321
 4918SOL    HW215654   5.071   5.431   3.397
 4919SOL     OW15655   3.103   2.770   0.627
 4919SOL    HW115656   3.029   2.720   0.671
 4919SOL    HW215657   3.085   2.778   0.529
 4920SOL     OW15658   5.901   0.975   4.142
 4920SOL    HW115659   5.943   0.888   4.116
 4920SOL    HW215660   5.892   0.980   4.241
 4921SOL     OW15661   1.208   5.107   0.778
 4921SOL    HW115662   1.121   5.148   0.749
 4921SOL    HW215663   1.198   5.069   0.869
 4922SOL     OW15664   2.552   2.540   5.075
 4922SOL    HW115665   2.522   2.606   5.006
 4922SOL    HW215666   2.476   2.521   5.137
 4923SOL     OW15667   3.772   1.845   2.830
 4923SOL    HW115668   3.820   1.815   2.748
 4923SOL    HW215669   3.758   1.943   2.826
 4924SOL     OW15670   3.537   0.806   5.078
 4924SOL    HW115671   3.552   0.900   5.049
 4924SOL    HW215672   3.575   0.793   5.169
 4925SOL     OW15673   6.466   6.809   2.468
 4925SOL    HW115674   6.505   6.893   2.429
 4925SOL    HW215675   6.418   6.832   2.552
 4926SOL     OW15676   4.833   1.065   0.431
 4926SOL    HW115677   4.919   1.109   0.457
 4926SOL    HW215678   4.837   1.039   0.334
 4927SOL     OW15679   3.545   3.666   4.395
 4927SOL    HW115680   3.456   3.704   4.370
 4927SOL    HW215681   3.585   3.620   4.316
 4928SOL     OW15682   2.192   6.523   0.117
 4928SOL    HW115683   2.144   6.437   0.100
 4928SOL    HW215684   2.261   6.537   0.046
 4929SOL     OW15685   6.798   6.229   4.005
 4929SOL    HW115686   6.829   6.324   3.998
 4929SOL    HW215687   6.732   6.221   4.080
 4930SOL     OW15688   5.343   0.958   3.082
 4930SOL    HW115689   5.286   0.880   3.107
 4930SOL    HW215690   5.367   0.953   2.985
 4931SOL     OW15691   6.988   6.701   0.785
 4931SOL    HW115692   6.966   6.788   0.740
 4931SOL    HW215693   0.045   6.660   0.740
 4932SOL     OW15694   3.145   3.068   2.348
 4932SOL    HW115695   3.217   3.010   2.310
 4932SOL    HW215696   3.168   3.164   2.332
 4933SOL     OW15697   2.560   0.174   3.110
 4933SOL    HW115698   2.621   0.253   3.112
 4933SOL    HW215699   2.614   0.090   3.101
 4934SOL     OW15700   3.000   5.985   2.780
 4934SOL    HW115701   3.043   5.934   2.706
 4934SOL    HW215702   2.903   6.000   2.759
 4935SOL     OW15703   1.829   1.653   6.203
 4935SOL    HW115704   1.771   1.697   6.272
 4935SOL    HW215705   1.901   1.600   6.249
 4936SOL     OW15706   2.476   4.301   1.293
 4936SOL    HW115707   2.559   4.348   1.262
 4936SOL    HW215708   2.411   4.368   1.328
 4937SOL     OW15709   6.395   3.288   5.872
 4937SOL    HW115710   6.444   3.359   5.922
 4937SOL    HW215711   6.299   3.312   5.865
 4938SOL     OW15712   2.328   5.264   5.722
 4938SOL    HW115713   2.366   5.252   5.814
 4938SOL    HW215714   2.362   5.192   5.662
 4939SOL     OW15715   6.061   2.347   4.753
 4939SOL    HW115716   5.985   2.367   4.691
 4939SOL    HW215717   6.028   2.344   4.847
 4940SOL     OW15718   0.210   1.356   4.829
 4940SOL    HW115719   0.307   1.356   4.804
 4940SOL    HW215720   0.199   1.405   4.916
 4941SOL     OW15721   5.470   2.277   5.334
 4941SOL    HW115722   5.543   2.311   5.275
 4941SOL    HW215723   5.475   2.321   5.424
 4942SOL     OW15724   5.111   2.224   5.782
 4942SOL    HW115725   5.159   2.150   5.735
 4942SOL    HW215726   5.070   2.285   5.714
 4943SOL     OW15727   4.714   3.249   6.682
 4943SOL    HW115728   4.707   3.310   6.761
 4943SOL    HW215729   4.624   3.210   6.664
 4944SOL     OW15730   1.632   4.290   1.521
 4944SOL    HW115731   1.670   4.380   1.500
 4944SOL    HW215732   1.546   4.301   1.571
 4945SOL     OW15733   1.202   0.440   4.314
 4945SOL    HW115734   1.203   0.505   4.239
 4945SOL    HW215735   1.281   0.455   4.373
 4946SOL     OW15736   1.482   4.422   0.113
 4946SOL    HW115737   1.461   4.520   0.114
 4946SOL    HW215738   1.455   4.382   0.201
 4947SOL     OW15739   2.235   1.035   1.004
 4947SOL    HW115740   2.286   0.998   0.926
 4947SOL    HW215741   2.259   1.131   1.018
 4948SOL     OW15742   1.300   2.012   2.340
 4948SOL    HW115743   1.379   2.072   2.329
 4948SOL    HW215744   1.329   1.917   2.333
 4949SOL     OW15745   4.885   6.964   6.331
 4949SOL    HW115746   4.788   6.976   6.351
 4949SOL    HW215747   4.920   0.021   6.283
 4950SOL     OW15748   2.212   5.743   4.042
 4950SOL    HW115749   2.149   5.666   4.052
 4950SOL    HW215750   2.284   5.737   4.111
 4951SOL     OW15751   5.195   1.582   4.190
 4951SOL    HW115752   5.140   1.590   4.273
 4951SOL    HW215753   5.257   1.661   4.184
 4952SOL     OW15754   0.474   0.781   5.779
 4952SOL    HW115755   0.470   0.865   5.834
 4952SOL    HW215756   0.469   0.701   5.839
 4953SOL     OW15757   2.440   6.374   2.572
 4953SOL    HW115758   2.400   6.444   2.513
 4953SOL    HW215759   2.377   6.353   2.647
 4954SOL     OW15760   4.124   3.405   0.327
 4954SOL    HW115761   4.220   3.385   0.308
 4954SOL    HW215762   4.116   3.450   0.417
 4955SOL     OW15763   2.928   6.203   6.896
 4955SOL    HW115764   2.973   6.276   6.947
 4955SOL    HW215765   2.991   6.126   6.885
 4956SOL     OW15766   2.367   6.821   4.806
 4956SOL    HW115767   2.463   6.801   4.826
 4956SOL    HW215768   2.309   6.750   4.844
 4957SOL     OW15769   6.846   1.958   2.115
 4957SOL    HW115770   6.767   1.900   2.139
 4957SOL    HW215771   6.930   1.917   2.151
 4958SOL     OW15772   6.731   5.427   5.431
 4958SOL    HW115773   6.635   5.453   5.424
 4958SOL    HW215774   6.780   5.494   5.487
 4959SOL     OW15775   6.481   1.318   6.600
 4959SOL    HW115776   6.508   1.324   6.696
 4959SOL    HW215777   6.429   1.233   6.585
 4960SOL     OW15778   3.543   5.190   3.228
 4960SOL    HW115779   3.485   5.234   3.297
 4960SOL    HW215780   3.518   5.223   3.138
 4961SOL     OW15781   4.888   1.509   5.558
 4961SOL    HW115782   4.892   1.570   5.637
 4961SOL    HW215783   4.961   1.531   5.494
 4962SOL     OW15784   6.724   1.990   0.065
 4962SOL    HW115785   6.764   2.002   6.998
 4962SOL    HW215786   6.706   2.079   0.107
 4963SOL     OW15787   6.187   5.477   6.754
 4963SOL    HW115788   6.116   5.455   6.821
 4963SOL    HW215789   6.263   5.523   6.800
 4964SOL     OW15790   3.183   6.656   3.884
 4964SOL    HW115791   3.278   6.688   3.876
 4964SOL    HW215792   3.148   6.680   3.975
 4965SOL     OW15793   0.278   0.390   3.177
 4965SOL    HW115794   0.320   0.460   3.119
 4965SOL    HW215795   0.286   0.417   3.273
 4966SOL     OW15796   2.450   0.160   4.933
 4966SOL    HW115797   2.505   0.143   4.852
 4966SOL    HW215798   2.478   0.097   5.006
 4967SOL     OW15799   3.841   4.203   6.475
 4967SOL    HW115800   3.906   4.213   6.400
 4967SOL    HW215801   3.753   4.241   6.449
 4968SOL     OW15802   6.339   2.434   3.449
 4968SOL    HW115803   6.246   2.427   3.413
 4968SOL    HW215804   6.341   2.497   3.526
 4969SOL     OW15805   2.605   0.289   2.254
 4969SOL    HW115806   2.610   0.368   2.192
 4969SOL    HW215807   2.510   0.268   2.273
 4970SOL     OW15808   1.879   1.990   3.451
 4970SOL    HW115809   1.898   2.064   3.387
 4970SOL    HW215810   1.937   1.999   3.531
 4971SOL     OW15811   6.688   6.787   4.282
 4971SOL    HW115812   6.621   6.753   4.216
 4971SOL    HW215813   6.718   6.878   4.255
 4972SOL     OW15814   2.452   2.726   6.928
 4972SOL    HW115815   2.495   2.636   6.915
 4972SOL    HW215816   2.424   2.763   6.840
 4973SOL     OW15817   1.153   0.324   2.469
 4973SOL    HW115818   1.212   0.346   2.547
 4973SOL    HW215819   1.179   0.235   2.433
 4974SOL     OW15820   6.020   4.953   1.642
 4974SOL    HW115821   6.045   4.857   1.628
 4974SOL    HW215822   5.936   4.958   1.696
 4975SOL     OW15823   5.350   4.948   5.669
 4975SOL    HW115824   5.251   4.947   5.651
 4975SOL    HW215825   5.384   4.854   5.674
 4976SOL     OW15826   2.698   6.877   3.810
 4976SOL    HW115827   2.708   6.860   3.712
 4976SOL    HW215828   2.664   6.970   3.825
 4977SOL     OW15829   4.161   4.066   0.557
 4977SOL    HW115830   4.123   4.037   0.469
 4977SOL    HW215831   4.116   4.149   0.588
 4978SOL     OW15832   0.131   4.209   5.773
 4978SOL    HW115833   0.129   4.113   5.800
 4978SOL    HW215834   0.049   4.231   5.721
 4979SOL     OW15835   0.620   6.986   5.576
 4979SOL    HW115836   0.563   7.009   5.656
 4979SOL    HW215837   0.617   6.887   5.561
 4980SOL     OW15838   4.662   6.092   3.507
 4980SOL    HW115839   4.740   6.040   3.472
 4980SOL    HW215840   4.648   6.070   3.604
 4981SOL     OW15841   5.253   6.270   6.212
 4981SOL    HW115842   5.308   6.326   6.150
 4981SOL    HW215843   5.282   6.286   6.306
 4982SOL     OW15844   2.347   1.694   6.472
 4982SOL    HW115845   2.267   1.721   6.524
 4982SOL    HW215846   2.379   1.604   6.503
 4983SOL     OW15847   5.328   2.123   4.575
 4983SOL    HW115848   5.395   2.172   4.630
 4983SOL    HW215849   5.236   2.154   4.598
 4984SOL     OW15850   5.961   4.588   4.232
 4984SOL    HW115851   5.897   4.550   4.299
 4984SOL    HW215852   6.002   4.671   4.268
 4985SOL     OW15853   6.216   6.257   3.494
 4985SOL    HW115854   6.269   6.178   3.461
 4985SOL    HW215855   6.179   6.307   3.416
 4986SOL     OW15856   5.850   4.193   2.635
 4986SOL    HW115857   5.792   4.183   2.554
 4986SOL    HW215858   5.936   4.237   2.610
 4987SOL     OW15859   1.054   1.270   0.996
 4987SOL    HW115860   0.993   1.212   0.941
 4987SOL    HW215861   1.059   1.361   0.955
 4988SOL     OW15862   5.884   1.072   3.251
 4988SOL    HW115863   5.792   1.086   3.214
 4988SOL    HW215864   5.947   1.138   3.209
 4989SOL     OW15865   5.399   0.467   1.078
 4989SOL    HW115866   5.480   0.518   1.051
 4989SOL    HW215867   5.414   0.425   1.167
 4990SOL     OW15868   2.037   1.408   5.449
 4990SOL    HW115869   2.116   1.468   5.433
 4990SOL    HW215870   2.064   1.332   5.509
 4991SOL     OW15871   6.726   4.016   4.280
 4991SOL    HW115872   6.818   4.019   4.318
 4991SOL    HW215873   6.668   3.959   4.338
 4992SOL     OW15874   4.740   0.964   4.693
 4992SOL    HW115875   4.701   1.051   4.662
 4992SOL    HW215876   4.678   0.889   4.668
 4993SOL     OW15877   3.441   5.120   3.895
 4993SOL    HW115878   3.528   5.072   3.902
 4993SOL    HW215879   3.412   5.151   3.986
 4994SOL     OW15880   2.008   6.936   2.583
 4994SOL    HW115881   2.029   6.925   2.680
 4994SOL    HW215882   1.924   6.887   2.561
 4995SOL     OW15883   6.537   3.206   5.439
 4995SOL    HW115884   6.480   3.202   5.521
 4995SOL    HW215885   6.544   3.114   5.398
 4996SOL     OW15886   1.332   1.325   2.502
 4996SOL    HW115887   1.294   1.343   2.411
 4996SOL    HW215888   1.429   1.302   2.495
 4997SOL     OW15889   5.818   1.939   3.376
 4997SOL    HW115890   5.774   1.851   3.396
 4997SOL    HW215891   5.903   1.946   3.429
 4998SOL     OW15892   2.063   3.908   5.087
 4998SOL    HW115893   2.152   3.950   5.075
 4998SOL    HW215894   2.061   3.858   5.174
 4999SOL     OW15895   5.925   4.457   1.551
 4999SOL    HW115896   5.840   4.477   1.501
 4999SOL    HW215897   5.941   4.358   1.551
 5000SOL     OW15898   2.531   6.059   4.117
 5000SOL    HW115899   2.484   6.052   4.205
 5000SOL    HW215900   2.592   5.980   4.106
 5001SOL     OW15901   1.493   4.273   0.965
 5001SOL    HW115902   1.547   4.199   0.926
 5001SOL    HW215903   1.494   4.352   0.903
 5002SOL     OW15904   1.466   3.158   3.284
 5002SOL    HW115905   1.506   3.223   3.219
 5002SOL    HW215906   1.441   3.074   3.235
 5003SOL     OW15907   2.658   6.384   2.849
 5003SOL    HW115908   2.744   6.373   2.799
 5003SOL    HW215909   2.644   6.304   2.909
 5004SOL     OW15910   3.178   4.765   5.639
 5004SOL    HW115911   3.240   4.732   5.568
 5004SOL    HW215912   3.230   4.790   5.720
 5005SOL     OW15913   3.557   2.148   0.934
 5005SOL    HW115914   3.591   2.131   0.841
 5005SOL    HW215915   3.601   2.229   0.971
 5006SOL     OW15916   4.690   6.939   6.876
 5006SOL    HW115917   4.627   6.946   6.953
 5006SOL    HW215918   4.781   6.917   6.909
 5007SOL     OW15919   1.607   0.219   6.862
 5007SOL    HW115920   1.648   0.216   6.771
 5007SOL    HW215921   1.599   0.126   6.898
 5008SOL     OW15922   6.422   0.538   3.234
 5008SOL    HW115923   6.350   0.589   3.281
 5008SOL    HW215924   6.382   0.480   3.164
 5009SOL     OW15925   1.721   6.166   1.338
 5009SOL    HW115926   1.768   6.105   1.275
 5009SOL    HW215927   1.652   6.113   1.390
 5010SOL     OW15928   3.751   2.985   3.044
 5010SOL    HW115929   3.793   2.895   3.033
 5010SOL    HW215930   3.654   2.980   3.022
 5011SOL     OW15931   1.784   3.586   2.710
 5011SOL    HW115932   1.876   3.550   2.728
 5011SOL    HW215933   1.789   3.656   2.639
 5012SOL     OW15934   4.806   3.571   6.652
 5012SOL    HW115935   4.707   3.580   6.656
 5012SOL    HW215936   4.836   3.578   6.556
 5013SOL     OW15937   5.387   1.583   6.986
 5013SOL    HW115938   5.432   1.664   0.001
 5013SOL    HW215939   5.396   1.506   0.027
 5014SOL     OW15940   5.400   4.429   0.723
 5014SOL    HW115941   5.439   4.514   0.687
 5014SOL    HW215942   5.343   4.387   0.652
 5015SOL     OW15943   4.532   2.155   3.841
 5015SOL    HW115944   4.443   2.110   3.845
 5015SOL    HW215945   4.519   2.254   3.831
 5016SOL     OW15946   2.810   1.923   0.846
 5016SOL    HW115947   2.846   2.016   0.835
 5016SOL    HW215948   2.796   1.904   0.943
 5017SOL     OW15949   1.565   2.647   6.780
 5017SOL    HW115950   1.509   2.623   6.701
 5017SOL    HW215951   1.649   2.592   6.780
 5018SOL     OW15952   0.772   4.059   1.469
 5018SOL    HW115953   0.727   3.970   1.481
 5018SOL    HW215954   0.706   4.126   1.436
 5019SOL     OW15955   1.895   5.194   6.950
 5019SOL    HW115956   1.972   5.228   7.004
 5019SOL    HW215957   1.926   5.124   6.887
 5020SOL     OW15958   5.088   6.861   6.145
 5020SOL    HW115959   5.039   6.876   6.231
 5020SOL    HW215960   5.025   6.875   6.069
 5021SOL     OW15961   1.333   1.944   5.877
 5021SOL    HW115962   1.430   1.930   5.856
 5021SOL    HW215963   1.314   1.907   5.968
 5022SOL     OW15964   1.627   0.077   0.176
 5022SOL    HW115965   1.558   0.149   0.181
 5022SOL    HW215966   1.584   7.014   0.148
 5023SOL     OW15967   6.416   2.598   1.078
 5023SOL    HW115968   6.393   2.693   1.097
 5023SOL    HW215969   6.437   2.551   1.164
 5024SOL     OW15970   6.824   5.745   2.870
 5024SOL    HW115971   6.912   5.775   2.906
 5024SOL    HW215972   6.838   5.667   2.808
 5025SOL     OW15973   3.816   2.049   2.111
 5025SOL    HW115974   3.749   2.100   2.059
 5025SOL    HW215975   3.884   2.010   2.049
 5026SOL     OW15976   5.976   6.370   6.882
 5026SOL    HW115977   5.960   6.430   6.803
 5026SOL    HW215978   6.045   6.302   6.859
 5027SOL     OW15979   0.555   6.950   2.570
 5027SOL    HW115980   0.472   6.960   2.516
 5027SOL    HW215981   0.582   6.854   2.572
 5028SOL     OW15982   0.286   6.156   3.362
 5028SOL    HW115983   0.215   6.100   3.404
 5028SOL    HW215984   0.277   6.153   3.263
 5029SOL     OW15985   0.101   3.753   3.390
 5029SOL    HW115986   0.035   3.694   3.436
 5029SOL    HW215987   0.193   3.716   3.402
 5030SOL     OW15988   6.716   0.805   6.110
 5030SOL    HW115989   6.807   0.836   6.080
 5030SOL    HW215990   6.727   0.722   6.166
 5031SOL     OW15991   5.763   0.370   4.990
 5031SOL    HW115992   5.719   0.442   4.938
 5031SOL    HW215993   5.735   0.376   5.086
 5032SOL     OW15994   1.465   3.858   1.047
 5032SOL    HW115995   1.557   3.894   1.031
 5032SOL    HW215996   1.462   3.761   1.021
 5033SOL     OW15997   1.936   5.513   6.567
 5033SOL    HW115998   1.840   5.485   6.564
 5033SOL    HW215999   1.970   5.525   6.474
 5034SOL     OW16000   6.396   1.747   2.823
 5034SOL    HW116001   6.494   1.731   2.824
 5034SOL    HW216002   6.370   1.799   2.905
 5035SOL     OW16003   6.353   4.618   0.709
 5035SOL    HW116004   6.370   4.593   0.613
 5035SOL    HW216005   6.255   4.629   0.723
 5036SOL     OW16006   0.117   4.871   6.842
 5036SOL    HW116007   0.151   4.786   6.882
 5036SOL    HW216008   0.085   4.932   6.914
 5037SOL     OW16009   5.434   2.445   2.544
 5037SOL    HW116010   5.347   2.431   2.497
 5037SOL    HW216011   5.455   2.364   2.599
 5038SOL     OW16012   1.909   4.264   5.975
 5038SOL    HW116013   1.845   4.323   6.024
 5038SOL    HW216014   2.003   4.284   6.003
 5039SOL     OW16015   2.390   3.308   5.758
 5039SOL    HW116016   2.294   3.286   5.744
 5039SOL    HW216017   2.442   3.288   5.674
 5040SOL     OW16018   1.989   5.034   6.739
 5040SOL    HW116019   2.067   5.072   6.690
 5040SOL    HW216020   1.911   5.026   6.677
 5041SOL     OW16021   1.698   2.432   1.516
 5041SOL    HW116022   1.636   2.363   1.555
 5041SOL    HW216023   1.701   2.422   1.417
 5042SOL     OW16024   6.534   3.291   0.193
 5042SOL    HW116025   6.606   3.259   0.131
 5042SOL    HW216026   6.488   3.213   0.234
 5043SOL     OW16027   2.607   1.498   6.005
 5043SOL    HW116028   2.533   1.560   6.031
 5043SOL    HW216029   2.595   1.410   6.051
 5044SOL     OW16030   5.903   6.455   2.346
 5044SOL    HW116031   5.925   6.447   2.444
 5044SOL    HW216032   5.911   6.551   2.319
 5045SOL     OW16033   5.968   2.876   0.044
 5045SOL    HW116034   5.971   2.847   0.139
 5045SOL    HW216035   6.059   2.905   0.015
 5046SOL     OW16036   3.557   4.152   4.682
 5046SOL    HW116037   3.570   4.060   4.646
 5046SOL    HW216038   3.646   4.195   4.698
 5047SOL     OW16039   0.368   2.701   1.894
 5047SOL    HW116040   0.350   2.672   1.987
 5047SOL    HW216041   0.341   2.629   1.830
 5048SOL     OW16042   0.235   1.348   1.612
 5048SOL    HW116043   0.239   1.355   1.513
 5048SOL    HW216044   0.141   1.331   1.640
 5049SOL     OW16045   6.312   1.729   4.072
 5049SOL    HW116046   6.407   1.718   4.043
 5049SOL    HW216047   6.274   1.811   4.029
 5050SOL     OW16048   1.147   0.925   1.788
 5050SOL    HW116049   1.159   0.849   1.724
 5050SOL    HW216050   1.064   0.911   1.842
 5051SOL     OW16051   4.530   3.132   0.294
 5051SOL    HW116052   4.615   3.084   0.274
 5051SOL    HW216053   4.457   3.095   0.236
 5052SOL     OW16054   2.810   5.291   5.753
 5052SOL    HW116055   2.742   5.281   5.826
 5052SOL    HW216056   2.824   5.388   5.734
 5053SOL     OW16057   1.592   4.158   3.493
 5053SOL    HW116058   1.668   4.093   3.491
 5053SOL    HW216059   1.563   4.173   3.587
 5054SOL     OW16060   3.648   5.474   5.396
 5054SOL    HW116061   3.708   5.492   5.474
 5054SOL    HW216062   3.568   5.533   5.402
 5055SOL     OW16063   1.079   0.413   5.558
 5055SOL    HW116064   1.137   0.416   5.476
 5055SOL    HW216065   1.038   0.502   5.573
 5056SOL     OW16066   6.208   3.492   0.821
 5056SOL    HW116067   6.221   3.396   0.843
 5056SOL    HW216068   6.283   3.524   0.763
 5057SOL     OW16069   0.721   5.382   4.552
 5057SOL    HW116070   0.819   5.400   4.551
 5057SOL    HW216071   0.671   5.469   4.549
 5058SOL     OW16072   2.286   3.582   5.543
 5058SOL    HW116073   2.345   3.525   5.486
 5058SOL    HW216074   2.340   3.655   5.585
 5059SOL     OW16075   5.740   3.081   3.950
 5059SOL    HW116076   5.786   3.168   3.936
 5059SOL    HW216077   5.722   3.037   3.862
 5060SOL     OW16078   0.635   2.908   5.386
 5060SOL    HW116079   0.677   2.873   5.470
 5060SOL    HW216080   0.707   2.935   5.322
 5061SOL     OW16081   3.296   3.150   3.557
 5061SOL    HW116082   3.350   3.073   3.522
 5061SOL    HW216083   3.355   3.229   3.570
 5062SOL     OW16084   5.584   1.538   2.702
 5062SOL    HW116085   5.536   1.610   2.752
 5062SOL    HW216086   5.613   1.574   2.613
 5063SOL     OW16087   1.519   6.417   1.914
 5063SOL    HW116088   1.600   6.378   1.959
 5063SOL    HW216089   1.499   6.507   1.953
 5064SOL     OW16090   4.675   4.410   1.820
 5064SOL    HW116091   4.584   4.370   1.834
 5064SOL    HW216092   4.719   4.426   1.908
 5065SOL     OW16093   1.205   1.801   3.248
 5065SOL    HW116094   1.218   1.868   3.175
 5065SOL    HW216095   1.277   1.731   3.243
 5066SOL     OW16096   3.545   3.878   1.230
 5066SOL    HW116097   3.472   3.943   1.210
 5066SOL    HW216098   3.565   3.823   1.149
 5067SOL     OW16099   3.113   0.918   2.643
 5067SOL    HW116100   3.139   0.974   2.565
 5067SOL    HW216101   3.069   0.834   2.611
 5068SOL     OW16102   3.391   4.980   0.213
 5068SOL    HW116103   3.326   4.916   0.254
 5068SOL    HW216104   3.451   5.016   0.285
 5069SOL     OW16105   1.550   2.338   5.876
 5069SOL    HW116106   1.617   2.306   5.809
 5069SOL    HW216107   1.594   2.404   5.937
 5070SOL     OW16108   5.288   4.897   4.943
 5070SOL    HW116109   5.385   4.917   4.957
 5070SOL    HW216110   5.277   4.835   4.866
 5071SOL     OW16111   3.717   1.669   3.747
 5071SOL    HW116112   3.815   1.659   3.762
 5071SOL    HW216113   3.689   1.613   3.669
 5072SOL     OW16114   1.807   1.187   0.827
 5072SOL    HW116115   1.725   1.155   0.874
 5072SOL    HW216116   1.804   1.287   0.819
 5073SOL     OW16117   1.598   4.783   0.807
 5073SOL    HW116118   1.576   4.828   0.721
 5073SOL    HW216119   1.696   4.794   0.826
 5074SOL     OW16120   3.322   2.083   2.154
 5074SOL    HW116121   3.294   2.176   2.181
 5074SOL    HW216122   3.374   2.088   2.069
 5075SOL     OW16123   1.040   2.610   6.711
 5075SOL    HW116124   1.118   2.664   6.679
 5075SOL    HW216125   1.053   2.587   6.807
 5076SOL     OW16126   5.419   0.068   0.980
 5076SOL    HW116127   5.500   0.122   0.961
 5076SOL    HW216128   5.396   0.012   0.900
 5077SOL     OW16129   1.308   4.284   5.779
 5077SOL    HW116130   1.325   4.253   5.685
 5077SOL    HW216131   1.248   4.219   5.825
 5078SOL     OW16132   0.653   0.890   3.674
 5078SOL    HW116133   0.578   0.956   3.684
 5078SOL    HW216134   0.629   0.806   3.722
 5079SOL     OW16135   2.438   2.782   5.320
 5079SOL    HW116136   2.455   2.873   5.282
 5079SOL    HW216137   2.382   2.730   5.257
 5080SOL     OW16138   6.246   6.060   5.374
 5080SOL    HW116139   6.148   6.076   5.364
 5080SOL    HW216140   6.286   6.040   5.284
 5081SOL     OW16141   2.420   3.829   5.624
 5081SOL    HW116142   2.423   3.898   5.696
 5081SOL    HW216143   2.417   3.874   5.535
 5082SOL     OW16144   4.991   7.022   0.902
 5082SOL    HW116145   5.051   0.002   0.981
 5082SOL    HW216146   4.932   0.080   0.901
 5083SOL     OW16147   2.800   0.234   2.801
 5083SOL    HW116148   2.868   0.224   2.728
 5083SOL    HW216149   2.759   0.145   2.820
 5084SOL     OW16150   0.707   5.166   3.875
 5084SOL    HW116151   0.699   5.125   3.784
 5084SOL    HW216152   0.637   5.237   3.885
 5085SOL     OW16153   6.472   2.552   5.533
 5085SOL    HW116154   6.548   2.573   5.472
 5085SOL    HW216155   6.473   2.455   5.556
 5086SOL     OW16156   1.441   4.631   2.760
 5086SOL    HW116157   1.485   4.543   2.741
 5086SOL    HW216158   1.476   4.667   2.847
 5087SOL     OW16159   0.856   5.285   2.037
 5087SOL    HW116160   0.879   5.316   2.129
 5087SOL    HW216161   0.921   5.325   1.972
 5088SOL     OW16162   5.781   6.899   3.971
 5088SOL    HW116163   5.872   6.885   3.931
 5088SOL    HW216164   5.717   6.927   3.899
 5089SOL     OW16165   6.202   4.723   3.919
 5089SOL    HW116166   6.287   4.672   3.926
 5089SOL    HW216167   6.191   4.758   3.826
 5090SOL     OW16168   1.697   2.334   2.618
 5090SOL    HW116169   1.794   2.327   2.641
 5090SOL    HW216170   1.665   2.428   2.631
 5091SOL     OW16171   6.600   1.123   1.814
 5091SOL    HW116172   6.576   1.100   1.908
 5091SOL    HW216173   6.650   1.046   1.774
 5092SOL     OW16174   3.497   3.340   3.491
 5092SOL    HW116175   3.535   3.431   3.479
 5092SOL    HW216176   3.559   3.285   3.547
 5093SOL     OW16177   3.316   1.314   0.597
 5093SOL    HW116178   3.268   1.376   0.535
 5093SOL    HW216179   3.364   1.245   0.544
 5094SOL     OW16180   2.191   5.595   6.019
 5094SOL    HW116181   2.130   5.579   5.941
 5094SOL    HW216182   2.251   5.672   6.000
 5095SOL     OW16183   0.081   2.670   2.572
 5095SOL    HW116184   0.130   2.625   2.647
 5095SOL    HW216185   7.009   2.683   2.598
 5096SOL     OW16186   4.875   4.743   6.746
 5096SOL    HW116187   4.822   4.727   6.663
 5096SOL    HW216188   4.861   4.837   6.777
 5097SOL     OW16189   0.817   0.037   6.233
 5097SOL    HW116190   0.849   0.058   6.326
 5097SOL    HW216191   0.890   7.016   6.182
 5098SOL     OW16192   2.581   0.604   1.769
 5098SOL    HW116193   2.516   0.555   1.711
 5098SOL    HW216194   2.669   0.609   1.723
 5099SOL     OW16195   0.790   6.744   1.530
 5099SOL    HW116196   0.771   6.757   1.433
 5099SOL    HW216197   0.855   6.669   1.542
 5100SOL     OW16198   3.281   5.499   4.643
 5100SOL    HW116199   3.378   5.507   4.621
 5100SOL    HW216200   3.263   5.536   4.734
 5101SOL     OW16201   4.040   0.182   5.838
 5101SOL    HW116202   3.988   0.179   5.924
 5101SOL    HW216203   4.133   0.214   5.857
 5102SOL     OW16204   4.649   6.225   4.594
 5102SOL    HW116205   4.733   6.272   4.568
 5102SOL    HW216206   4.648   6.133   4.553
 5103SOL     OW16207   6.816   1.573   4.486
 5103SOL    HW116208   6.812   1.495   4.424
 5103SOL    HW216209   6.783   1.545   4.576
 5104SOL     OW16210   1.636   6.161   1.677
 5104SOL    HW116211   1.594   6.108   1.603
 5104SOL    HW216212   1.621   6.259   1.661
 5105SOL     OW16213   3.131   2.540   0.061
 5105SOL    HW116214   3.210   2.492   0.023
 5105SOL    HW216215   3.142   2.638   0.045
 5106SOL     OW16216   4.358   1.559   1.133
 5106SOL    HW116217   4.393   1.652   1.143
 5106SOL    HW216218   4.433   1.494   1.147
 5107SOL     OW16219   4.252   2.562   1.532
 5107SOL    HW116220   4.233   2.656   1.503
 5107SOL    HW216221   4.341   2.533   1.497
 5108SOL     OW16222   4.178   4.097   5.352
 5108SOL    HW116223   4.118   4.063   5.280
 5108SOL    HW216224   4.123   4.137   5.425
 5109SOL     OW16225   0.745   2.050   6.967
 5109SOL    HW116226   0.841   2.034   6.994
 5109SOL    HW216227   0.743   2.098   6.879
 5110SOL     OW16228   0.553   0.169   6.078
 5110SOL    HW116229   0.488   0.157   6.152
 5110SOL    HW216230   0.643   0.134   6.106
 5111SOL     OW16231   1.361   1.058   4.433
 5111SOL    HW116232   1.311   0.972   4.427
 5111SOL    HW216233   1.326   1.112   4.510
 5112SOL     OW16234   1.228   0.024   2.725
 5112SOL    HW116235   1.297   0.096   2.713
 5112SOL    HW216236   1.182   0.006   2.638
 5113SOL     OW16237   2.259   6.073   1.108
 5113SOL    HW116238   2.205   6.156   1.119
 5113SOL    HW216239   2.340   6.077   1.167
 5114SOL     OW16240   4.042   0.296   6.465
 5114SOL    HW116241   4.071   0.215   6.413
 5114SOL    HW216242   4.118   0.330   6.519
 5115SOL     OW16243   1.338   5.304   3.486
 5115SOL    HW116244   1.401   5.381   3.481
 5115SOL    HW216245   1.390   5.220   3.500
 5116SOL     OW16246   0.746   6.629   0.297
 5116SOL    HW116247   0.710   6.684   0.222
 5116SOL    HW216248   0.718   6.534   0.285
 5117SOL     OW16249   1.855   3.721   3.954
 5117SOL    HW116250   1.821   3.790   4.018
 5117SOL    HW216251   1.955   3.722   3.953
 5118SOL     OW16252   5.310   0.956   6.971
 5118SOL    HW116253   5.277   0.932   0.039
 5118SOL    HW216254   5.303   1.054   6.957
 5119SOL     OW16255   4.975   0.914   2.615
 5119SOL    HW116256   4.951   1.007   2.646
 5119SOL    HW216257   5.060   0.886   2.659
 5120SOL     OW16258   4.378   6.860   4.596
 5120SOL    HW116259   4.374   6.948   4.643
 5120SOL    HW216260   4.420   6.792   4.656
 5121SOL     OW16261   3.153   2.801   6.999
 5121SOL    HW116262   3.229   2.850   0.017
 5121SOL    HW216263   3.151   2.819   6.900
 5122SOL     OW16264   3.161   6.074   3.230
 5122SOL    HW116265   3.121   6.126   3.305
 5122SOL    HW216266   3.261   6.084   3.232
 5123SOL     OW16267   4.315   2.360   4.464
 5123SOL    HW116268   4.257   2.342   4.543
 5123SOL    HW216269   4.263   2.343   4.380
 5124SOL     OW16270   2.151   5.859   5.064
 5124SOL    HW116271   2.130   5.774   5.017
 5124SOL    HW216272   2.216   5.912   5.010
 5125SOL     OW16273   6.685   3.964   3.819
 5125SOL    HW116274   6.684   4.018   3.735
 5125SOL    HW216275   6.672   3.868   3.797
 5126SOL     OW16276   6.142   5.277   6.385
 5126SOL    HW116277   6.085   5.289   6.304
 5126SOL    HW216278   6.225   5.331   6.376
 5127SOL     OW16279   0.355   3.836   0.021
 5127SOL    HW116280   0.323   3.751   7.004
 5127SOL    HW216281   0.377   3.901   6.972
 5128SOL     OW16282   0.172   0.337   6.164
 5128SOL    HW116283   0.132   0.345   6.072
 5128SOL    HW216284   0.105   0.297   6.226
 5129SOL     OW16285   6.454   0.244   2.571
 5129SOL    HW116286   6.547   0.277   2.582
 5129SOL    HW216287   6.454   0.163   2.512
 5130SOL     OW16288   0.420   5.345   3.404
 5130SOL    HW116289   0.449   5.340   3.309
 5130SOL    HW216290   0.499   5.334   3.464
 5131SOL     OW16291   2.130   4.695   4.149
 5131SOL    HW116292   2.058   4.702   4.080
 5131SOL    HW216293   2.127   4.776   4.208
 5132SOL     OW16294   3.704   2.938   6.781
 5132SOL    HW116295   3.762   2.921   6.860
 5132SOL    HW216296   3.761   2.960   6.701
 5133SOL     OW16297   2.638   5.467   0.147
 5133SOL    HW116298   2.712   5.464   0.079
 5133SOL    HW216299   2.618   5.374   0.179
 5134SOL     OW16300   0.537   3.592   2.658
 5134SOL    HW116301   0.563   3.508   2.705
 5134SOL    HW216302   0.450   3.625   2.693
 5135SOL     OW16303   6.059   3.038   4.306
 5135SOL    HW116304   6.013   3.127   4.302
 5135SOL    HW216305   6.100   3.026   4.396
 5136SOL     OW16306   3.555   0.740   6.129
 5136SOL    HW116307   3.532   0.781   6.041
 5136SOL    HW216308   3.621   0.666   6.116
 5137SOL     OW16309   5.161   3.135   6.139
 5137SOL    HW116310   5.079   3.097   6.097
 5137SOL    HW216311   5.158   3.235   6.133
 5138SOL     OW16312   3.282   2.781   5.619
 5138SOL    HW116313   3.263   2.683   5.614
 5138SOL    HW216314   3.362   2.797   5.676
 5139SOL     OW16315   1.275   0.537   2.961
 5139SOL    HW116316   1.260   0.587   3.046
 5139SOL    HW216317   1.225   0.451   2.964
 5140SOL     OW16318   3.992   2.374   0.316
 5140SOL    HW116319   4.087   2.389   0.290
 5140SOL    HW216320   3.961   2.447   0.376
 5141SOL     OW16321   6.781   3.634   0.066
 5141SOL    HW116322   6.789   3.622   6.990
 5141SOL    HW216323   6.724   3.713   0.086
 5142SOL     OW16324   5.785   0.517   3.972
 5142SOL    HW116325   5.731   0.542   3.891
 5142SOL    HW216326   5.824   0.599   4.013
 5143SOL     OW16327   6.349   4.411   4.036
 5143SOL    HW116328   6.409   4.481   3.996
 5143SOL    HW216329   6.322   4.346   3.965
 5144SOL     OW16330   0.574   5.028   6.698
 5144SOL    HW116331   0.503   5.021   6.628
 5144SOL    HW216332   0.655   5.073   6.660
 5145SOL     OW16333   2.647   4.895   5.640
 5145SOL    HW116334   2.582   4.921   5.712
 5145SOL    HW216335   2.602   4.903   5.551
 5146SOL     OW16336   3.870   4.206   5.077
 5146SOL    HW116337   3.839   4.255   5.158
 5146SOL    HW216338   3.792   4.186   5.018
 5147SOL     OW16339   7.021   5.191   2.698
 5147SOL    HW116340   0.032   5.270   2.648
 5147SOL    HW216341   0.069   5.159   2.761
 5148SOL     OW16342   6.750   6.331   1.702
 5148SOL    HW116343   6.838   6.366   1.671
 5148SOL    HW216344   6.676   6.378   1.655
 5149SOL     OW16345   6.543   5.940   3.126
 5149SOL    HW116346   6.635   5.969   3.099
 5149SOL    HW216347   6.484   5.936   3.046
 5150SOL     OW16348   2.461   5.239   2.472
 5150SOL    HW116349   2.485   5.336   2.471
 5150SOL    HW216350   2.392   5.221   2.402
 5151SOL     OW16351   5.759   2.305   0.612
 5151SOL    HW116352   5.683   2.240   0.609
 5151SOL    HW216353   5.841   2.262   0.576
 5152SOL     OW16354   2.526   5.055   0.321
 5152SOL    HW116355   2.518   4.963   0.357
 5152SOL    HW216356   2.527   5.121   0.396
 5153SOL     OW16357   2.043   0.289   6.788
 5153SOL    HW116358   2.099   0.289   6.705
 5153SOL    HW216359   1.962   0.232   6.774
 5154SOL     OW16360   1.111   3.888   6.537
 5154SOL    HW116361   1.203   3.852   6.555
 5154SOL    HW216362   1.048   3.812   6.522
 5155SOL     OW16363   4.300   6.359   2.284
 5155SOL    HW116364   4.345   6.407   2.360
 5155SOL    HW216365   4.368   6.334   2.216
 5156SOL     OW16366   5.908   3.718   5.761
 5156SOL    HW116367   5.987   3.696   5.703
 5156SOL    HW216368   5.908   3.658   5.841
 5157SOL     OW16369   3.804   2.081   3.660
 5157SOL    HW116370   3.847   2.020   3.593
 5157SOL    HW216371   3.860   2.162   3.672
 5158SOL     OW16372   3.849   1.477   1.750
 5158SOL    HW116373   3.777   1.492   1.683
 5158SOL    HW216374   3.828   1.527   1.834
 5159SOL     OW16375   6.927   3.486   3.859
 5159SOL    HW116376   6.901   3.499   3.955
 5159SOL    HW216377   7.012   3.435   3.854
 5160SOL     OW16378   0.287   4.794   3.561
 5160SOL    HW116379   0.282   4.697   3.584
 5160SOL    HW216380   0.217   4.816   3.492
 5161SOL     OW16381   1.671   3.723   5.569
 5161SOL    HW116382   1.638   3.817   5.561
 5161SOL    HW216383   1.665   3.678   5.480
 5162SOL     OW16384   1.204   5.198   3.087
 5162SOL    HW116385   1.151   5.160   3.012
 5162SOL    HW216386   1.174   5.158   3.174
 5163SOL     OW16387   3.504   6.473   0.427
 5163SOL    HW116388   3.414   6.513   0.444
 5163SOL    HW216389   3.525   6.407   0.499
 5164SOL     OW16390   4.720   2.294   0.254
 5164SOL    HW116391   4.676   2.217   0.208
 5164SOL    HW216392   4.794   2.329   0.196
 5165SOL     OW16393   6.051   4.421   6.244
 5165SOL    HW116394   6.096   4.409   6.333
 5165SOL    HW216395   5.970   4.478   6.255
 5166SOL     OW16396   0.765   5.183   3.230
 5166SOL    HW116397   0.773   5.244   3.151
 5166SOL    HW216398   0.698   5.111   3.210
 5167SOL     OW16399   6.170   6.208   5.671
 5167SOL    HW116400   6.240   6.182   5.737
 5167SOL    HW216401   6.214   6.244   5.588
 5168SOL     OW16402   5.105   3.977   2.718
 5168SOL    HW116403   5.092   4.064   2.671
 5168SOL    HW216404   5.020   3.924   2.717
 5169SOL     OW16405   3.936   1.743   4.777
 5169SOL    HW116406   3.925   1.663   4.719
 5169SOL    HW216407   4.017   1.794   4.748
 5170SOL     OW16408   0.654   4.508   5.747
 5170SOL    HW116409   0.723   4.438   5.763
 5170SOL    HW216410   0.692   4.598   5.769
 5171SOL     OW16411   0.969   5.661   4.663
 5171SOL    HW116412   0.978   5.749   4.618
 5171SOL    HW216413   1.011   5.590   4.606
 5172SOL     OW16414   0.610   2.071   2.053
 5172SOL    HW116415   0.586   1.992   2.110
 5172SOL    HW216416   0.580   2.155   2.098
 5173SOL     OW16417   5.359   4.545   6.392
 5173SOL    HW116418   5.371   4.587   6.482
 5173SOL    HW216419   5.438   4.566   6.334
 5174SOL     OW16420   2.185   4.446   3.274
 5174SOL    HW116421   2.217   4.540   3.272
 5174SOL    HW216422   2.085   4.445   3.283
 5175SOL     OW16423   2.223   3.884   6.634
 5175SOL    HW116424   2.256   3.789   6.641
 5175SOL    HW216425   2.282   3.944   6.688
 5176SOL     OW16426   4.707   2.853   6.694
 5176SOL    HW116427   4.698   2.791   6.771
 5176SOL    HW216428   4.657   2.817   6.615
 5177SOL     OW16429   4.767   0.208   6.937
 5177SOL    HW116430   4.713   0.221   6.853
 5177SOL    HW216431   4.710   0.225   7.017
 5178SOL     OW16432   1.206   4.335   1.854
 5178SOL    HW116433   1.242   4.268   1.788
 5178SOL    HW216434   1.111   4.356   1.831
 5179SOL     OW16435   3.880   5.957   3.938
 5179SOL    HW116436   3.916   5.875   3.982
 5179SOL    HW216437   3.853   6.024   4.008
 5180SOL     OW16438   3.258   3.109   0.550
 5180SOL    HW116439   3.343   3.133   0.595
 5180SOL    HW216440   3.275   3.036   0.483
 5181SOL     OW16441   5.802   2.110   1.903
 5181SOL    HW116442   5.856   2.059   1.970
 5181SOL    HW216443   5.740   2.173   1.950
 5182SOL     OW16444   3.891   4.471   1.699
 5182SOL    HW116445   3.953   4.531   1.749
 5182SOL    HW216446   3.814   4.525   1.664
 5183SOL     OW16447   4.398   1.504   2.689
 5183SOL    HW116448   4.423   1.501   2.593
 5183SOL    HW216449   4.317   1.448   2.705
 5184SOL     OW16450   6.974   2.817   4.435
 5184SOL    HW116451   6.935   2.851   4.520
 5184SOL    HW216452   6.917   2.743   4.399
 5185SOL     OW16453   5.435   1.186   2.718
 5185SOL    HW116454   5.461   1.154   2.627
 5185SOL    HW216455   5.351   1.140   2.747
 5186SOL     OW16456   6.138   3.114   0.293
 5186SOL    HW116457   6.143   3.168   0.209
 5186SOL    HW216458   6.180   3.165   0.368
 5187SOL     OW16459   0.609   6.959   4.029
 5187SOL    HW116460   0.656   6.969   4.116
 5187SOL    HW216461   0.547   0.013   4.016
 5188SOL     OW16462   0.547   5.893   0.441
 5188SOL    HW116463   0.607   5.953   0.388
 5188SOL    HW216464   0.565   5.798   0.417
 5189SOL     OW16465   4.892   4.867   0.587
 5189SOL    HW116466   4.876   4.784   0.535
 5189SOL    HW216467   4.918   4.844   0.681
 5190SOL     OW16468   6.870   3.136   4.430
 5190SOL    HW116469   6.918   3.094   4.507
 5190SOL    HW216470   6.884   3.081   4.348
 5191SOL     OW16471   3.932   0.423   1.865
 5191SOL    HW116472   3.961   0.474   1.784
 5191SOL    HW216473   3.977   0.462   1.946
 5192SOL     OW16474   2.843   5.022   2.478
 5192SOL    HW116475   2.895   5.024   2.393
 5192SOL    HW216476   2.899   4.983   2.551
 5193SOL     OW16477   4.957   4.518   4.527
 5193SOL    HW116478   5.028   4.465   4.481
 5193SOL    HW216479   4.923   4.589   4.466
 5194SOL     OW16480   3.733   1.461   0.326
 5194SOL    HW116481   3.656   1.480   0.265
 5194SOL    HW216482   3.715   1.500   0.416
 5195SOL     OW16483   5.767   5.892   4.705
 5195SOL    HW116484   5.709   5.965   4.668
 5195SOL    HW216485   5.834   5.931   4.769
 5196SOL     OW16486   2.966   4.084   0.834
 5196SOL    HW116487   2.961   4.007   0.772
 5196SOL    HW216488   2.990   4.052   0.926
 5197SOL     OW16489   2.215   5.826   5.331
 5197SOL    HW116490   2.192   5.825   5.233
 5197SOL    HW216491   2.305   5.867   5.344
 5198SOL     OW16492   4.034   6.705   2.977
 5198SOL    HW116493   3.990   6.747   2.898
 5198SOL    HW216494   4.026   6.606   2.971
 5199SOL     OW16495   1.452   6.332   0.298
 5199SOL    HW116496   1.517   6.257   0.312
 5199SOL    HW216497   1.385   6.331   0.371
 5200SOL     OW16498   1.383   1.692   5.450
 5200SOL    HW116499   1.376   1.593   5.436
 5200SOL    HW216500   1.347   1.739   5.369
 5201SOL     OW16501   6.356   6.376   4.230
 5201SOL    HW116502   6.341   6.463   4.183
 5201SOL    HW216503   6.376   6.393   4.326
 5202SOL     OW16504   5.676   4.273   5.560
 5202SOL    HW116505   5.596   4.234   5.513
 5202SOL    HW216506   5.745   4.203   5.573
 5203SOL     OW16507   2.083   0.936   6.780
 5203SOL    HW116508   2.035   0.889   6.706
 5203SOL    HW216509   2.045   1.028   6.792
 5204SOL     OW16510   4.299   6.865   6.713
 5204SOL    HW116511   4.233   6.853   6.639
 5204SOL    HW216512   4.338   6.777   6.738
 5205SOL     OW16513   6.683   5.948   0.165
 5205SOL    HW116514   6.694   5.853   0.136
 5205SOL    HW216515   6.605   5.955   0.227
 5206SOL     OW16516   0.159   4.858   0.138
 5206SOL    HW116517   0.163   4.874   0.237
 5206SOL    HW216518   0.157   4.946   0.090
 5207SOL     OW16519   1.370   6.739   3.859
 5207SOL    HW116520   1.311   6.818   3.874
 5207SOL    HW216521   1.364   6.677   3.936
 5208SOL     OW16522   4.976   2.311   0.129
 5208SOL    HW116523   5.030   2.357   0.058
 5208SOL    HW216524   5.029   2.307   0.213
 5209SOL     OW16525   5.556   0.514   1.440
 5209SOL    HW116526   5.541   0.455   1.362
 5209SOL    HW216527   5.596   0.461   1.515
 5210SOL     OW16528   5.022   3.259   0.420
 5210SOL    HW116529   5.042   3.212   0.506
 5210SOL    HW216530   5.108   3.290   0.379
 5211SOL     OW16531   4.135   2.002   5.308
 5211SOL    HW116532   4.062   1.981   5.373
 5211SOL    HW216533   4.099   2.062   5.237
 5212SOL     OW16534   0.913   3.377   0.814
 5212SOL    HW116535   0.928   3.333   0.726
 5212SOL    HW216536   0.818   3.406   0.822
 5213SOL     OW16537   4.209   3.201   1.024
 5213SOL    HW116538   4.159   3.272   1.074
 5213SOL    HW216539   4.271   3.243   0.958
 5214SOL     OW16540   5.188   2.650   6.155
 5214SOL    HW116541   5.187   2.551   6.169
 5214SOL    HW216542   5.243   2.693   6.227
 5215SOL     OW16543   1.103   4.654   4.112
 5215SOL    HW116544   1.038   4.658   4.036
 5215SOL    HW216545   1.189   4.695   4.083
 5216SOL     OW16546   4.028   4.251   1.588
 5216SOL    HW116547   3.980   4.320   1.642
 5216SOL    HW216548   3.962   4.199   1.535
 5217SOL     OW16549   3.638   5.450   4.425
 5217SOL    HW116550   3.628   5.358   4.463
 5217SOL    HW216551   3.595   5.516   4.487
 5218SOL     OW16552   0.434   1.035   1.279
 5218SOL    HW116553   0.425   1.005   1.374
 5218SOL    HW216554   0.504   0.980   1.234
 5219SOL     OW16555   3.329   1.346   4.980
 5219SOL    HW116556   3.231   1.356   4.997
 5219SOL    HW216557   3.376   1.430   5.008
 5220SOL     OW16558   1.256   5.932   2.675
 5220SOL    HW116559   1.301   5.881   2.601
 5220SOL    HW216560   1.253   6.029   2.651
 5221SOL     OW16561   6.020   1.509   2.768
 5221SOL    HW116562   6.002   1.585   2.831
 5221SOL    HW216563   6.096   1.454   2.802
 5222SOL     OW16564   3.492   6.849   2.364
 5222SOL    HW116565   3.489   6.772   2.300
 5222SOL    HW216566   3.578   6.898   2.353
 5223SOL     OW16567   6.605   2.919   0.114
 5223SOL    HW116568   6.576   2.972   0.193
 5223SOL    HW216569   6.543   2.938   0.037
 5224SOL     OW16570   6.303   3.271   4.417
 5224SOL    HW116571   6.402   3.267   4.427
 5224SOL    HW216572   6.271   3.363   4.440
 5225SOL     OW16573   6.994   1.170   3.854
 5225SOL    HW116574   6.941   1.099   3.808
 5225SOL    HW216575   6.971   1.259   3.815
 5226SOL     OW16576   6.648   6.888   4.566
 5226SOL    HW116577   6.568   6.940   4.536
 5226SOL    HW216578   6.690   6.843   4.487
 5227SOL     OW16579   0.308   3.823   5.259
 5227SOL    HW116580   0.224   3.785   5.298
 5227SOL    HW216581   0.379   3.753   5.258
 5228SOL     OW16582   0.395   2.599   0.094
 5228SOL    HW116583   0.352   2.563   0.011
 5228SOL    HW216584   0.425   2.522   0.152
 5229SOL     OW16585   2.870   6.549   0.211
 5229SOL    HW116586   2.963   6.515   0.227
 5229SOL    HW216587   2.832   6.583   0.297
 5230SOL     OW16588   6.618   6.152   2.117
 5230SOL    HW116589   6.640   6.068   2.166
 5230SOL    HW216590   6.684   6.165   2.042
 5231SOL     OW16591   4.259   2.317   3.961
 5231SOL    HW116592   4.329   2.385   3.942
 5231SOL    HW216593   4.300   2.239   4.009
 5232SOL     OW16594   1.315   3.668   6.358
 5232SOL    HW116595   1.388   3.721   6.313
 5232SOL    HW216596   1.231   3.675   6.305
 5233SOL     OW16597   4.422   1.179   2.628
 5233SOL    HW116598   4.433   1.249   2.556
 5233SOL    HW216599   4.484   1.103   2.609
 5234SOL     OW16600   2.847   2.364   6.027
 5234SOL    HW116601   2.850   2.302   6.105
 5234SOL    HW216602   2.884   2.317   5.946
 5235SOL     OW16603   1.679   2.749   1.024
 5235SOL    HW116604   1.598   2.767   1.080
 5235SOL    HW216605   1.651   2.720   0.933
 5236SOL     OW16606   4.075   5.598   2.134
 5236SOL    HW116607   4.062   5.552   2.046
 5236SOL    HW216608   4.025   5.684   2.134
 5237SOL     OW16609   0.976   0.822   4.746
 5237SOL    HW116610   1.050   0.860   4.801
 5237SOL    HW216611   0.909   0.894   4.725
 5238SOL     OW16612   1.015   4.812   0.421
 5238SOL    HW116613   1.095   4.761   0.452
 5238SOL    HW216614   1.032   4.910   0.434
 5239SOL     OW16615   3.603   2.479   6.110
 5239SOL    HW116616   3.669   2.411   6.077
 5239SOL    HW216617   3.606   2.560   6.052
 5240SOL     OW16618   3.346   2.307   5.395
 5240SOL    HW116619   3.302   2.242   5.457
 5240SOL    HW216620   3.277   2.348   5.335
 5241SOL     OW16621   6.938   5.521   4.337
 5241SOL    HW116622   6.845   5.539   4.368
 5241SOL    HW216623   6.978   5.447   4.392
 5242SOL     OW16624   6.657   0.088   0.627
 5242SOL    HW116625   6.633   0.166   0.569
 5242SOL    HW216626   6.652   0.115   0.723
 5243SOL     OW16627   1.893   5.667   1.431
 5243SOL    HW116628   1.929   5.758   1.449
 5243SOL    HW216629   1.948   5.599   1.479
 5244SOL     OW16630   3.206   4.384   5.776
 5244SOL    HW116631   3.211   4.306   5.838
 5244SOL    HW216632   3.157   4.459   5.820
 5245SOL     OW16633   4.068   4.043   0.275
 5245SOL    HW116634   4.060   4.044   0.175
 5245SOL    HW216635   3.993   4.095   0.315
 5246SOL     OW16636   6.157   2.508   1.171
 5246SOL    HW116637   6.247   2.513   1.129
 5246SOL    HW216638   6.107   2.592   1.153
 5247SOL     OW16639   2.617   0.379   6.332
 5247SOL    HW116640   2.664   0.398   6.418
 5247SOL    HW216641   2.683   0.382   6.257
 5248SOL     OW16642   6.294   1.463   2.859
 5248SOL    HW116643   6.324   1.554   2.829
 5248SOL    HW216644   6.290   1.460   2.958
 5249SOL     OW16645   0.405   5.511   6.478
 5249SOL    HW116646   0.498   5.548   6.482
 5249SOL    HW216647   0.379   5.498   6.382
 5250SOL     OW16648   2.194   5.963   6.830
 5250SOL    HW116649   2.129   5.961   6.906
 5250SOL    HW216650   2.182   6.049   6.780
 5251SOL     OW16651   0.965   3.723   0.097
 5251SOL    HW116652   0.899   3.663   0.142
 5251SOL    HW216653   0.947   3.725   7.022
 5252SOL     OW16654   2.462   6.350   0.515
 5252SOL    HW116655   2.447   6.435   0.465
 5252SOL    HW216656   2.452   6.367   0.613
 5253SOL     OW16657   6.570   3.865   4.445
 5253SOL    HW116658   6.484   3.815   4.439
 5253SOL    HW216659   6.570   3.925   4.525
 5254SOL     OW16660   5.086   1.456   2.989
 5254SOL    HW116661   5.156   1.396   3.028
 5254SOL    HW216662   5.095   1.456   2.889
 5255SOL     OW16663   5.463   2.199   4.790
 5255SOL    HW116664   5.466   2.125   4.857
 5255SOL    HW216665   5.451   2.286   4.838
 5256SOL     OW16666   4.863   1.702   3.871
 5256SOL    HW116667   4.804   1.781   3.887
 5256SOL    HW216668   4.916   1.716   3.788
 5257SOL     OW16669   5.450   6.993   2.147
 5257SOL    HW116670   5.360   6.964   2.115
 5257SOL    HW216671   5.515   6.986   2.072
 5258SOL     OW16672   5.940   3.171   1.367
 5258SOL    HW116673   5.964   3.267   1.353
 5258SOL    HW216674   5.882   3.162   1.448
 5259SOL     OW16675   4.741   6.550   2.258
 5259SOL    HW116676   4.672   6.494   2.213
 5259SOL    HW216677   4.804   6.491   2.309
 5260SOL     OW16678   4.942   3.352   0.797
 5260SOL    HW116679   4.892   3.336   0.882
 5260SOL    HW216680   4.877   3.352   0.720
 5261SOL     OW16681   0.935   3.925   6.029
 5261SOL    HW116682   0.916   4.018   6.061
 5261SOL    HW216683   0.976   3.929   5.938
 5262SOL     OW16684   2.227   1.434   4.049
 5262SOL    HW116685   2.173   1.464   3.970
 5262SOL    HW216686   2.320   1.470   4.041
 5263SOL     OW16687   1.769   1.248   3.523
 5263SOL    HW116688   1.864   1.218   3.536
 5263SOL    HW216689   1.735   1.212   3.436
 5264SOL     OW16690   0.068   2.284   1.878
 5264SOL    HW116691   0.094   2.187   1.878
 5264SOL    HW216692   0.042   2.311   1.786
 5265SOL     OW16693   6.389   3.878   3.776
 5265SOL    HW116694   6.331   3.883   3.695
 5265SOL    HW216695   6.467   3.819   3.758
 5266SOL     OW16696   3.133   5.021   6.979
 5266SOL    HW116697   3.111   4.965   6.899
 5266SOL    HW216698   3.217   5.073   6.962
 5267SOL     OW16699   5.139   2.906   5.009
 5267SOL    HW116700   5.168   3.001   4.996
 5267SOL    HW216701   5.212   2.844   4.980
 5268SOL     OW16702   5.464   1.705   0.532
 5268SOL    HW116703   5.372   1.702   0.570
 5268SOL    HW216704   5.531   1.693   0.606
 5269SOL     OW16705   1.025   5.782   2.769
 5269SOL    HW116706   0.960   5.754   2.699
 5269SOL    HW216707   1.103   5.827   2.726
 5270SOL     OW16708   6.010   1.054   1.452
 5270SOL    HW116709   6.013   1.062   1.353
 5270SOL    HW216710   6.036   0.962   1.480
 5271SOL     OW16711   6.594   5.577   5.907
 5271SOL    HW116712   6.516   5.615   5.958
 5271SOL    HW216713   6.648   5.651   5.868
 5272SOL     OW16714   3.171   5.822   2.140
 5272SOL    HW116715   3.240   5.894   2.144
 5272SOL    HW216716   3.120   5.831   2.054
 5273SOL     OW16717   6.952   2.548   3.679
 5273SOL    HW116718   0.023   2.531   3.651
 5273SOL    HW216719   6.948   2.633   3.732
 5274SOL     OW16720   5.850   6.964   2.575
 5274SOL    HW116721   5.764   6.926   2.541
 5274SOL    HW216722   5.911   6.890   2.601
 5275SOL     OW16723   3.975   1.729   0.870
 5275SOL    HW116724   3.878   1.747   0.851
 5275SOL    HW216725   4.020   1.814   0.896
 5276SOL     OW16726   1.865   6.797   0.915
 5276SOL    HW116727   1.860   6.698   0.904
 5276SOL    HW216728   1.797   6.841   0.856
 5277SOL     OW16729   2.162   1.119   2.217
 5277SOL    HW116730   2.212   1.149   2.298
 5277SOL    HW216731   2.145   1.021   2.223
 5278SOL     OW16732   6.054   6.884   3.863
 5278SOL    HW116733   6.094   6.804   3.817
 5278SOL    HW216734   6.101   6.901   3.949
 5279SOL     OW16735   2.547   5.348   6.346
 5279SOL    HW116736   2.601   5.329   6.429
 5279SOL    HW216737   2.607   5.387   6.276
 5280SOL     OW16738   2.584   5.689   4.684
 5280SOL    HW116739   2.677   5.696   4.720
 5280SOL    HW216740   2.561   5.593   4.670
 5281SOL     OW16741   0.545   2.277   2.382
 5281SOL    HW116742   0.544   2.337   2.462
 5281SOL    HW216743   0.583   2.188   2.406
 5282SOL     OW16744   2.856   1.646   3.952
 5282SOL    HW116745   2.943   1.656   3.903
 5282SOL    HW216746   2.833   1.732   3.997
 5283SOL     OW16747   4.498   6.800   1.482
 5283SOL    HW116748   4.460   6.886   1.515
 5283SOL    HW216749   4.504   6.803   1.382
 5284SOL     OW16750   4.896   4.217   3.377
 5284SOL    HW116751   4.832   4.225   3.301
 5284SOL    HW216752   4.974   4.278   3.362
 5285SOL     OW16753   2.432   4.808   3.965
 5285SOL    HW116754   2.476   4.877   3.907
 5285SOL    HW216755   2.413   4.846   4.055
 5286SOL     OW16756   1.788   4.846   0.348
 5286SOL    HW116757   1.801   4.919   0.281
 5286SOL    HW216758   1.846   4.768   0.322
 5287SOL     OW16759   2.777   6.939   0.505
 5287SOL    HW116760   2.795   6.991   0.422
 5287SOL    HW216761   2.829   6.853   0.503
 5288SOL     OW16762   3.142   0.067   2.123
 5288SOL    HW116763   3.185   0.019   2.200
 5288SOL    HW216764   3.177   0.161   2.119
 5289SOL     OW16765   2.224   5.176   6.648
 5289SOL    HW116766   2.289   5.133   6.710
 5289SOL    HW216767   2.252   5.271   6.631
 5290SOL     OW16768   2.446   6.053   4.767
 5290SOL    HW116769   2.420   5.963   4.801
 5290SOL    HW216770   2.488   6.106   4.841
 5291SOL     OW16771   2.654   5.488   5.997
 5291SOL    HW116772   2.672   5.538   6.082
 5291SOL    HW216773   2.697   5.537   5.921
 5292SOL     OW16774   6.676   3.055   6.524
 5292SOL    HW116775   6.737   3.122   6.568
 5292SOL    HW216776   6.672   3.074   6.426
 5293SOL     OW16777   0.193   0.857   4.788
 5293SOL    HW116778   0.190   0.936   4.727
 5293SOL    HW216779   0.200   0.888   4.882
 5294SOL     OW16780   4.398   3.552   5.735
 5294SOL    HW116781   4.354   3.638   5.761
 5294SOL    HW216782   4.456   3.520   5.810
 5295SOL     OW16783   6.328   0.577   2.701
 5295SOL    HW116784   6.419   0.563   2.662
 5295SOL    HW216785   6.284   0.488   2.717
 5296SOL     OW16786   2.124   5.263   0.059
 5296SOL    HW116787   2.213   5.225   0.086
 5296SOL    HW216788   2.138   5.338   7.018
 5297SOL     OW16789   2.144   1.978   1.911
 5297SOL    HW116790   2.141   2.067   1.866
 5297SOL    HW216791   2.235   1.937   1.899
 5298SOL     OW16792   0.159   5.846   1.248
 5298SOL    HW116793   0.087   5.830   1.181
 5298SOL    HW216794   0.160   5.772   1.315
 5299SOL     OW16795   3.024   1.813   0.665
 5299SOL    HW116796   3.116   1.839   0.695
 5299SOL    HW216797   2.958   1.845   0.733
 5300SOL     OW16798   0.255   5.895   2.819
 5300SOL    HW116799   0.315   5.879   2.741
 5300SOL    HW216800   0.162   5.909   2.787
 5301SOL     OW16801   4.592   1.190   0.382
 5301SOL    HW116802   4.682   1.153   0.406
 5301SOL    HW216803   4.562   1.151   0.295
 5302SOL     OW16804   5.410   5.067   3.457
 5302SOL    HW116805   5.328   5.034   3.409
 5302SOL    HW216806   5.420   5.165   3.442
 5303SOL     OW16807   0.148   6.057   4.077
 5303SOL    HW116808   0.127   6.154   4.066
 5303SOL    HW216809   0.065   6.002   4.065
 5304SOL     OW16810   6.303   2.251   5.893
 5304SOL    HW116811   6.289   2.349   5.909
 5304SOL    HW216812   6.318   2.205   5.981
 5305SOL     OW16813   1.389   6.581   4.476
 5305SOL    HW116814   1.449   6.620   4.546
 5305SOL    HW216815   1.440   6.516   4.420
 5306SOL     OW16816   1.383   5.733   4.759
 5306SOL    HW116817   1.375   5.688   4.670
 5306SOL    HW216818   1.453   5.688   4.813
 5307SOL     OW16819   3.980   6.380   6.899
 5307SOL    HW116820   4.063   6.344   6.943
 5307SOL    HW216821   3.995   6.474   6.870
 5308SOL     OW16822   0.722   6.905   4.731
 5308SOL    HW116823   0.652   6.867   4.671
 5308SOL    HW216824   0.746   6.996   4.699
 5309SOL     OW16825   3.420   4.081   2.653
 5309SOL    HW116826   3.507   4.057   2.696
 5309SOL    HW216827   3.438   4.124   2.565
 5310SOL     OW16828   5.351   3.106   2.127
 5310SOL    HW116829   5.366   3.195   2.083
 5310SOL    HW216830   5.284   3.115   2.200
 5311SOL     OW16831   0.300   5.959   0.823
 5311SOL    HW116832   0.313   5.860   0.826
 5311SOL    HW216833   0.307   5.990   0.728
 5312SOL     OW16834   0.075   4.515   2.166
 5312SOL    HW116835   7.005   4.479   2.169
 5312SOL    HW216836   0.135   4.448   2.122
 5313SOL     OW16837   1.113   5.260   0.072
 5313SOL    HW116838   1.183   5.281   0.140
 5313SOL    HW216839   1.034   5.320   0.086
 5314SOL     OW16840   4.553   5.201   0.787
 5314SOL    HW116841   4.561   5.138   0.864
 5314SOL    HW216842   4.624   5.182   0.720
 5315SOL     OW16843   4.356   4.568   1.660
 5315SOL    HW116844   4.451   4.589   1.640
 5315SOL    HW216845   4.321   4.502   1.593
 5316SOL     OW16846   6.272   4.893   4.748
 5316SOL    HW116847   6.364   4.916   4.779
 5316SOL    HW216848   6.236   4.818   4.803
 5317SOL     OW16849   6.245   1.544   4.557
 5317SOL    HW116850   6.155   1.540   4.599
 5317SOL    HW216851   6.298   1.464   4.583
 5318SOL     OW16852   0.208   1.699   5.867
 5318SOL    HW116853   0.116   1.663   5.847
 5318SOL    HW216854   0.275   1.626   5.857
 5319SOL     OW16855   4.594   6.743   0.079
 5319SOL    HW116856   4.540   6.826   0.068
 5319SOL    HW216857   4.684   6.765   0.117
 5320SOL     OW16858   5.743   5.466   6.524
 5320SOL    HW116859   5.704   5.386   6.478
 5320SOL    HW216860   5.669   5.527   6.554
 5321SOL     OW16861   1.074   5.398   2.668
 5321SOL    HW116862   1.032   5.417   2.757
 5321SOL    HW216863   1.167   5.364   2.681
 5322SOL     OW16864   4.046   6.797   6.012
 5322SOL    HW116865   4.135   6.754   6.002
 5322SOL    HW216866   3.993   6.750   6.082
 5323SOL     OW16867   3.863   2.895   0.890
 5323SOL    HW116868   3.821   2.860   0.973
 5323SOL    HW216869   3.952   2.935   0.911
 5324SOL     OW16870   3.690   2.560   1.642
 5324SOL    HW116871   3.685   2.509   1.557
 5324SOL    HW216872   3.695   2.496   1.719
 5325SOL     OW16873   6.015   6.734   3.363
 5325SOL    HW116874   6.097   6.733   3.421
 5325SOL    HW216875   5.961   6.816   3.382
 5326SOL     OW16876   6.479   5.346   2.862
 5326SOL    HW116877   6.556   5.387   2.813
 5326SOL    HW216878   6.401   5.337   2.800
 5327SOL     OW16879   0.523   5.923   5.670
 5327SOL    HW116880   0.610   5.934   5.623
 5327SOL    HW216881   0.485   5.833   5.649
 5328SOL     OW16882   3.912   1.974   5.471
 5328SOL    HW116883   3.950   1.968   5.564
 5328SOL    HW216884   3.832   1.915   5.463
 5329SOL     OW16885   0.616   4.074   6.805
 5329SOL    HW116886   0.571   4.158   6.773
 5329SOL    HW216887   0.570   3.995   6.764
 5330SOL     OW16888   3.336   4.149   6.611
 5330SOL    HW116889   3.361   4.066   6.560
 5330SOL    HW216890   3.406   4.167   6.681
 5331SOL     OW16891   5.315   1.330   1.286
 5331SOL    HW116892   5.268   1.259   1.339
 5331SOL    HW216893   5.376   1.382   1.346
 5332SOL     OW16894   6.385   4.210   0.186
 5332SOL    HW116895   6.342   4.299   0.170
 5332SOL    HW216896   6.403   4.198   0.284
 5333SOL     OW16897   1.111   0.780   3.696
 5333SOL    HW116898   1.058   0.745   3.618
 5333SOL    HW216899   1.184   0.716   3.718
 5334SOL     OW16900   4.489   5.128   5.158
 5334SOL    HW116901   4.458   5.120   5.253
 5334SOL    HW216902   4.416   5.168   5.102
 5335SOL     OW16903   0.184   4.732   2.024
 5335SOL    HW116904   0.161   4.647   2.073
 5335SOL    HW216905   0.189   4.713   1.926
 5336SOL     OW16906   2.386   1.742   3.445
 5336SOL    HW116907   2.440   1.749   3.529
 5336SOL    HW216908   2.297   1.700   3.466
 5337SOL     OW16909   5.793   5.213   2.503
 5337SOL    HW116910   5.798   5.278   2.427
 5337SOL    HW216911   5.866   5.232   2.569
 5338SOL     OW16912   5.552   1.854   0.039
 5338SOL    HW116913   5.547   1.953   0.049
 5338SOL    HW216914   5.554   1.811   0.129
 5339SOL     OW16915   5.513   1.565   2.074
 5339SOL    HW116916   5.531   1.466   2.072
 5339SOL    HW216917   5.557   1.608   1.995
 5340SOL     OW16918   5.474   3.432   1.163
 5340SOL    HW116919   5.534   3.507   1.190
 5340SOL    HW216920   5.380   3.451   1.193
 5341SOL     OW16921   3.826   4.963   4.879
 5341SOL    HW116922   3.728   4.979   4.886
 5341SOL    HW216923   3.859   4.920   4.963
 5342SOL     OW16924   4.441   6.443   4.936
 5342SOL    HW116925   4.425   6.363   4.879
 5342SOL    HW216926   4.387   6.436   5.020
 5343SOL     OW16927   3.771   3.730   5.085
 5343SOL    HW116928   3.733   3.786   5.159
 5343SOL    HW216929   3.703   3.662   5.056
 5344SOL     OW16930   0.681   1.304   6.818
 5344SOL    HW116931   0.726   1.359   6.889
 5344SOL    HW216932   0.644   1.364   6.748
 5345SOL     OW16933   5.028   0.988   6.804
 5345SOL    HW116934   4.996   1.053   6.874
 5345SOL    HW216935   4.949   0.949   6.757
 5346SOL     OW16936   2.400   4.851   4.223
 5346SOL    HW116937   2.380   4.918   4.294
 5346SOL    HW216938   2.315   4.810   4.190
 5347SOL     OW16939   0.280   3.514   3.508
 5347SOL    HW116940   0.345   3.576   3.552
 5347SOL    HW216941   0.276   3.428   3.559
 5348SOL     OW16942   0.530   1.075   5.852
 5348SOL    HW116943   0.445   1.091   5.903
 5348SOL    HW216944   0.517   1.102   5.756
 5349SOL     OW16945   2.613   3.160   1.339
 5349SOL    HW116946   2.667   3.177   1.422
 5349SOL    HW216947   2.558   3.241   1.318
 5350SOL     OW16948   2.484   6.477   5.426
 5350SOL    HW116949   2.426   6.542   5.377
 5350SOL    HW216950   2.429   6.401   5.460
 5351SOL     OW16951   0.096   4.997   1.994
 5351SOL    HW116952   0.129   5.006   1.900
 5351SOL    HW216953   0.112   4.903   2.025
 5352SOL     OW16954   2.372   4.224   2.882
 5352SOL    HW116955   2.391   4.243   2.786
 5352SOL    HW216956   2.413   4.295   2.939
 5353SOL     OW16957   3.995   4.975   3.324
 5353SOL    HW116958   4.011   4.894   3.266
 5353SOL    HW216959   4.080   5.025   3.336
 5354SOL     OW16960   2.738   4.359   6.785
 5354SOL    HW116961   2.681   4.316   6.715
 5354SOL    HW216962   2.686   4.432   6.830
 5355SOL     OW16963   5.443   4.546   5.118
 5355SOL    HW116964   5.355   4.541   5.070
 5355SOL    HW216965   5.513   4.499   5.063
 5356SOL     OW16966   6.792   3.842   1.662
 5356SOL    HW116967   6.775   3.778   1.737
 5356SOL    HW216968   6.707   3.859   1.613
 5357SOL     OW16969   4.093   4.657   1.380
 5357SOL    HW116970   4.172   4.709   1.345
 5357SOL    HW216971   4.124   4.566   1.409
 5358SOL     OW16972   4.611   1.820   0.947
 5358SOL    HW116973   4.537   1.812   0.879
 5358SOL    HW216974   4.571   1.817   1.039
 5359SOL     OW16975   1.937   1.920   6.428
 5359SOL    HW116976   1.858   1.865   6.402
 5359SOL    HW216977   1.907   2.008   6.464
 5360SOL     OW16978   5.628   5.607   3.663
 5360SOL    HW116979   5.624   5.510   3.637
 5360SOL    HW216980   5.538   5.648   3.655
 5361SOL     OW16981   1.962   6.313   3.876
 5361SOL    HW116982   1.911   6.367   3.809
 5361SOL    HW216983   2.059   6.337   3.872
 5362SOL     OW16984   6.286   6.816   2.672
 5362SOL    HW116985   6.350   6.770   2.734
 5362SOL    HW216986   6.194   6.811   2.711
 5363SOL     OW16987   5.111   6.585   5.028
 5363SOL    HW116988   5.101   6.612   5.124
 5363SOL    HW216989   5.164   6.653   4.979
 5364SOL     OW16990   5.777   0.154   2.414
 5364SOL    HW116991   5.783   0.076   2.476
 5364SOL    HW216992   5.849   0.148   2.345
 5365SOL     OW16993   3.494   3.220   2.515
 5365SOL    HW116994   3.510   3.308   2.472
 5365SOL    HW216995   3.452   3.234   2.605
 5366SOL     OW16996   6.944   0.439   2.344
 5366SOL    HW116997   6.981   0.413   2.254
 5366SOL    HW216998   7.007   0.411   2.415
 5367SOL     OW16999   6.660   0.226   0.856
 5367SOL    HW117000   6.710   0.166   0.918
 5367SOL    HW217001   6.585   0.270   0.905
 5368SOL     OW17002   6.223   6.200   2.258
 5368SOL    HW117003   6.299   6.244   2.307
 5368SOL    HW217004   6.149   6.181   2.323
 5369SOL     OW17005   2.844   5.729   1.480
 5369SOL    HW117006   2.860   5.638   1.519
 5369SOL    HW217007   2.912   5.746   1.408
 5370SOL     OW17008   4.577   3.688   1.297
 5370SOL    HW117009   4.548   3.617   1.362
 5370SOL    HW217010   4.521   3.681   1.214
 5371SOL     OW17011   0.188   5.156   5.326
 5371SOL    HW117012   0.164   5.063   5.301
 5371SOL    HW217013   0.115   5.219   5.297
 5372SOL     OW17014   1.402   6.531   2.749
 5372SOL    HW117015   1.487   6.527   2.801
 5372SOL    HW217016   1.333   6.474   2.794
 5373SOL     OW17017   3.675   6.850   5.713
 5373SOL    HW117018   3.616   6.848   5.632
 5373SOL    HW217019   3.720   6.939   5.719
 5374SOL     OW17020   2.672   4.136   0.959
 5374SOL    HW117021   2.682   4.083   0.874
 5374SOL    HW217022   2.720   4.089   1.033
 5375SOL     OW17023   0.533   5.283   5.408
 5375SOL    HW117024   0.551   5.380   5.424
 5375SOL    HW217025   0.504   5.270   5.313
 5376SOL     OW17026   1.367   2.084   1.998
 5376SOL    HW117027   1.399   2.143   2.072
 5376SOL    HW217028   1.321   2.139   1.929
 5377SOL     OW17029   1.227   0.731   2.733
 5377SOL    HW117030   1.138   0.769   2.759
 5377SOL    HW217031   1.259   0.670   2.806
 5378SOL     OW17032   6.816   0.541   1.635
 5378SOL    HW117033   6.823   0.573   1.730
 5378SOL    HW217034   6.852   0.447   1.629
 5379SOL     OW17035   1.492   3.240   5.219
 5379SOL    HW117036   1.392   3.252   5.217
 5379SOL    HW217037   1.517   3.158   5.169
 5380SOL     OW17038   3.253   6.966   1.312
 5380SOL    HW117039   3.329   6.906   1.288
 5380SOL    HW217040   3.216   7.008   1.229
 5381SOL     OW17041   5.967   5.987   2.753
 5381SOL    HW117042   5.874   5.998   2.717
 5381SOL    HW217043   5.963   5.959   2.849
 5382SOL     OW17044   3.061   2.109   2.881
 5382SOL    HW117045   2.969   2.144   2.898
 5382SOL    HW217046   3.056   2.028   2.823
 5383SOL     OW17047   1.867   3.058   4.617
 5383SOL    HW117048   1.883   2.959   4.626
 5383SOL    HW217049   1.860   3.082   4.520
 5384SOL     OW17050   4.805   5.374   4.799
 5384SOL    HW117051   4.892   5.325   4.798
 5384SOL    HW217052   4.751   5.346   4.878
 5385SOL     OW17053   5.961   3.320   4.741
 5385SOL    HW117054   5.930   3.353   4.652
 5385SOL    HW217055   5.927   3.381   4.813
 5386SOL     OW17056   5.903   1.588   3.779
 5386SOL    HW117057   5.984   1.534   3.757
 5386SOL    HW217058   5.844   1.536   3.841
 5387SOL     OW17059   2.678   6.390   3.492
 5387SOL    HW117060   2.592   6.342   3.480
 5387SOL    HW217061   2.754   6.325   3.484
 5388SOL     OW17062   1.673   6.486   2.891
 5388SOL    HW117063   1.677   6.509   2.988
 5388SOL    HW217064   1.765   6.468   2.857
 5389SOL     OW17065   3.907   2.121   4.694
 5389SOL    HW117066   3.837   2.053   4.674
 5389SOL    HW217067   3.894   2.201   4.635
 5390SOL     OW17068   5.233   3.974   4.007
 5390SOL    HW117069   5.241   4.062   3.960
 5390SOL    HW217070   5.196   3.906   3.943
 5391SOL     OW17071   2.840   1.951   0.173
 5391SOL    HW117072   2.750   1.993   0.165
 5391SOL    HW217073   2.847   1.904   0.261
 5392SOL     OW17074   4.898   3.539   2.363
 5392SOL    HW117075   4.892   3.624   2.310
 5392SOL    HW217076   4.924   3.464   2.303
 5393SOL     OW17077   4.366   1.248   5.584
 5393SOL    HW117078   4.271   1.249   5.616
 5393SOL    HW217079   4.403   1.341   5.587
 5394SOL     OW17080   0.490   6.216   1.008
 5394SOL    HW117081   0.443   6.137   1.048
 5394SOL    HW217082   0.589   6.202   1.014
 5395SOL     OW17083   4.628   1.291   1.000
 5395SOL    HW117084   4.724   1.314   1.013
 5395SOL    HW217085   4.605   1.296   0.903
 5396SOL     OW17086   4.999   5.788   1.682
 5396SOL    HW117087   5.032   5.802   1.589
 5396SOL    HW217088   4.988   5.690   1.699
 5397SOL     OW17089   6.995   1.870   1.619
 5397SOL    HW117090   0.061   1.838   1.586
 5397SOL    HW217091   6.947   1.916   1.544
 5398SOL     OW17092   3.546   2.101   3.505
 5398SOL    HW117093   3.477   2.136   3.568
 5398SOL    HW217094   3.637   2.114   3.544
 5399SOL     OW17095   2.732   6.495   5.876
 5399SOL    HW117096   2.703   6.479   5.970
 5399SOL    HW217097   2.790   6.577   5.873
 5400SOL     OW17098   3.203   3.491   1.088
 5400SOL    HW117099   3.235   3.577   1.047
 5400SOL    HW217100   3.198   3.420   1.018
 5401SOL     OW17101   5.541   4.400   2.810
 5401SOL    HW117102   5.505   4.337   2.741
 5401SOL    HW217103   5.546   4.492   2.771
 5402SOL     OW17104   3.225   6.263   0.945
 5402SOL    HW117105   3.157   6.321   0.992
 5402SOL    HW217106   3.271   6.205   1.012
 5403SOL     OW17107   5.174   3.044   6.717
 5403SOL    HW117108   5.077   3.052   6.696
 5403SOL    HW217109   5.223   3.123   6.681
 5404SOL     OW17110   1.215   0.610   0.716
 5404SOL    HW117111   1.255   0.582   0.803
 5404SOL    HW217112   1.278   0.588   0.642
 5405SOL     OW17113   5.940   5.215   0.052
 5405SOL    HW117114   6.029   5.224   0.097
 5405SOL    HW217115   5.868   5.238   0.117
 5406SOL     OW17116   2.006   1.059   5.299
 5406SOL    HW117117   1.908   1.070   5.314
 5406SOL    HW217118   2.021   1.003   5.217
 5407SOL     OW17119   2.955   1.540   0.681
 5407SOL    HW117120   3.000   1.487   0.609
 5407SOL    HW217121   3.015   1.614   0.711
 5408SOL     OW17122   3.181   1.647   4.812
 5408SOL    HW117123   3.223   1.736   4.826
 5408SOL    HW217124   3.182   1.624   4.715
 5409SOL     OW17125   6.640   1.739   2.107
 5409SOL    HW117126   6.633   1.690   2.020
 5409SOL    HW217127   6.567   1.710   2.169
 5410SOL     OW17128   0.576   3.380   0.187
 5410SOL    HW117129   0.524   3.402   0.105
 5410SOL    HW217130   0.526   3.414   0.267
 5411SOL     OW17131   5.281   4.278   0.099
 5411SOL    HW117132   5.273   4.375   0.074
 5411SOL    HW217133   5.192   4.234   0.090
 5412SOL     OW17134   2.563   1.265   6.106
 5412SOL    HW117135   2.638   1.200   6.091
 5412SOL    HW217136   2.510   1.237   6.186
 5413SOL     OW17137   6.715   6.932   6.231
 5413SOL    HW117138   6.794   6.892   6.277
 5413SOL    HW217139   6.631   6.895   6.271
 5414SOL     OW17140   6.728   4.665   5.481
 5414SOL    HW117141   6.706   4.761   5.497
 5414SOL    HW217142   6.757   4.652   5.387
 5415SOL     OW17143   3.239   5.574   0.301
 5415SOL    HW117144   3.223   5.627   0.218
 5415SOL    HW217145   3.160   5.516   0.320
 5416SOL     OW17146   2.716   5.327   5.115
 5416SOL    HW117147   2.755   5.378   5.038
 5416SOL    HW217148   2.616   5.332   5.110
 5417SOL     OW17149   3.843   6.830   4.168
 5417SOL    HW117150   3.787   6.855   4.247
 5417SOL    HW217151   3.921   6.774   4.198
 5418SOL     OW17152   5.515   5.448   5.013
 5418SOL    HW117153   5.615   5.452   5.011
 5418SOL    HW217154   5.482   5.502   5.091
 5419SOL     OW17155   4.208   6.306   0.046
 5419SOL    HW117156   4.203   6.371   0.122
 5419SOL    HW217157   4.250   6.221   0.078
 5420SOL     OW17158   2.053   2.243   1.053
 5420SOL    HW117159   1.988   2.248   1.128
 5420SOL    HW217160   2.131   2.303   1.072
 5421SOL     OW17161   3.272   5.385   1.742
 5421SOL    HW117162   3.236   5.450   1.810
 5421SOL    HW217163   3.224   5.398   1.656
 5422SOL     OW17164   1.810   5.609   4.175
 5422SOL    HW117165   1.785   5.706   4.179
 5422SOL    HW217166   1.899   5.595   4.217
 5423SOL     OW17167   6.382   5.283   1.234
 5423SOL    HW117168   6.414   5.365   1.282
 5423SOL    HW217169   6.286   5.294   1.208
 5424SOL     OW17170   4.872   3.779   4.095
 5424SOL    HW117171   4.965   3.774   4.058
 5424SOL    HW217172   4.869   3.734   4.184
 5425SOL     OW17173   6.196   3.062   4.564
 5425SOL    HW117174   6.286   3.018   4.563
 5425SOL    HW217175   6.195   3.136   4.496
 5426SOL     OW17176   4.450   5.644   2.329
 5426SOL    HW117177   4.363   5.597   2.338
 5426SOL    HW217178   4.509   5.622   2.407
 5427SOL     OW17179   4.850   2.698   0.135
 5427SOL    HW117180   4.874   2.667   0.227
 5427SOL    HW217181   4.886   2.790   0.120
 5428SOL     OW17182   5.086   6.478   2.314
 5428SOL    HW117183   5.010   6.445   2.370
 5428SOL    HW217184   5.114   6.407   2.249
 5429SOL     OW17185   2.207   0.010   4.728
 5429SOL    HW117186   2.256   6.952   4.760
 5429SOL    HW217187   2.150   7.009   4.649
 5430SOL     OW17188   2.018   2.776   5.820
 5430SOL    HW117189   2.108   2.733   5.817
 5430SOL    HW217190   2.010   2.841   5.744
 5431SOL     OW17191   3.341   4.572   6.122
 5431SOL    HW117192   3.327   4.634   6.044
 5431SOL    HW217193   3.299   4.484   6.102
 5432SOL     OW17194   5.233   5.444   0.300
 5432SOL    HW117195   5.234   5.375   0.372
 5432SOL    HW217196   5.311   5.505   0.311
 5433SOL     OW17197   1.676   0.236   0.865
 5433SOL    HW117198   1.616   0.264   0.940
 5433SOL    HW217199   1.643   0.274   0.779
 5434SOL     OW17200   4.814   0.964   4.963
 5434SOL    HW117201   4.852   1.056   4.977
 5434SOL    HW217202   4.782   0.955   4.869
 5435SOL     OW17203   6.235   3.695   1.004
 5435SOL    HW117204   6.276   3.777   0.965
 5435SOL    HW217205   6.211   3.632   0.930
 5436SOL     OW17206   7.014   5.129   4.135
 5436SOL    HW117207   6.941   5.130   4.065
 5436SOL    HW217208   6.995   5.200   4.203
 5437SOL     OW17209   3.451   4.494   5.590
 5437SOL    HW117210   3.370   4.467   5.643
 5437SOL    HW217211   3.423   4.519   5.497
 5438SOL     OW17212   5.208   4.936   2.246
 5438SOL    HW117213   5.220   5.035   2.254
 5438SOL    HW217214   5.244   4.891   2.327
 5439SOL     OW17215   1.381   3.789   0.033
 5439SOL    HW117216   1.319   3.828   0.100
 5439SOL    HW217217   1.358   3.693   0.018
 5440SOL     OW17218   5.646   6.987   3.377
 5440SOL    HW117219   5.672   6.968   3.282
 5440SOL    HW217220   5.612   6.904   3.420
 5441SOL     OW17221   5.356   3.556   3.201
 5441SOL    HW117222   5.455   3.558   3.195
 5441SOL    HW217223   5.319   3.492   3.134
 5442SOL     OW17224   3.634   7.009   3.260
 5442SOL    HW117225   3.671   0.053   3.324
 5442SOL    HW217226   3.574   0.032   3.194
 5443SOL     OW17227   4.437   6.520   3.914
 5443SOL    HW117228   4.485   6.494   3.998
 5443SOL    HW217229   4.338   6.516   3.929
 5444SOL     OW17230   6.873   1.735   3.963
 5444SOL    HW117231   6.869   1.822   4.014
 5444SOL    HW217232   6.935   1.673   4.010
 5445SOL     OW17233   5.132   4.345   4.058
 5445SOL    HW117234   5.195   4.399   4.113
 5445SOL    HW217235   5.182   4.296   3.987
 5446SOL     OW17236   6.256   4.509   4.554
 5446SOL    HW117237   6.302   4.429   4.514
 5446SOL    HW217238   6.287   4.592   4.508
 5447SOL     OW17239   2.079   1.908   0.959
 5447SOL    HW117240   2.080   2.007   0.978
 5447SOL    HW217241   2.053   1.859   1.041
 5448SOL     OW17242   4.792   5.497   3.991
 5448SOL    HW117243   4.717   5.457   4.044
 5448SOL    HW217244   4.802   5.593   4.014
 5449SOL     OW17245   2.490   1.042   1.682
 5449SOL    HW117246   2.440   1.129   1.680
 5449SOL    HW217247   2.560   1.042   1.611
 5450SOL     OW17248   3.974   6.407   1.022
 5450SOL    HW117249   3.957   6.464   1.102
 5450SOL    HW217250   3.914   6.436   0.947
 5451SOL     OW17251   1.417   6.147   3.561
 5451SOL    HW117252   1.501   6.110   3.601
 5451SOL    HW217253   1.394   6.233   3.606
 5452SOL     OW17254   2.466   4.394   0.863
 5452SOL    HW117255   2.557   4.355   0.872
 5452SOL    HW217256   2.459   4.477   0.918
 5453SOL     OW17257   5.039   4.283   1.847
 5453SOL    HW117258   4.956   4.239   1.812
 5453SOL    HW217259   5.014   4.361   1.904
 5454SOL     OW17260   5.487   6.324   1.863
 5454SOL    HW117261   5.584   6.303   1.879
 5454SOL    HW217262   5.448   6.257   1.801
 5455SOL     OW17263   0.377   1.766   3.214
 5455SOL    HW117264   0.474   1.758   3.237
 5455SOL    HW217265   0.335   1.675   3.217
 5456SOL     OW17266   4.082   1.371   6.567
 5456SOL    HW117267   4.059   1.417   6.481
 5456SOL    HW217268   4.044   1.423   6.644
 5457SOL     OW17269   6.316   1.219   0.497
 5457SOL    HW117270   6.336   1.211   0.594
 5457SOL    HW217271   6.316   1.128   0.455
 5458SOL     OW17272   6.613   4.952   1.369
 5458SOL    HW117273   6.598   4.882   1.439
 5458SOL    HW217274   6.657   4.910   1.290
 5459SOL     OW17275   2.190   4.812   4.848
 5459SOL    HW117276   2.232   4.754   4.778
 5459SOL    HW217277   2.141   4.755   4.914
 5460SOL     OW17278   2.581   0.477   2.030
 5460SOL    HW117279   2.538   0.395   1.995
 5460SOL    HW217280   2.595   0.542   1.956
 5461SOL     OW17281   1.061   1.565   5.323
 5461SOL    HW117282   0.987   1.630   5.305
 5461SOL    HW217283   1.022   1.474   5.336
 5462SOL     OW17284   5.476   6.377   0.007
 5462SOL    HW117285   5.540   6.372   6.953
 5462SOL    HW217286   5.517   6.334   0.087
 5463SOL     OW17287   6.651   2.044   6.726
 5463SOL    HW117288   6.614   2.110   6.791
 5463SOL    HW217289   6.637   2.077   6.633
 5464SOL     OW17290   6.432   5.482   5.350
 5464SOL    HW117291   6.347   5.454   5.305
 5464SOL    HW217292   6.454   5.577   5.325
 5465SOL     OW17293   0.074   0.251   3.067
 5465SOL    HW117294   0.161   0.288   3.100
 5465SOL    HW217295   0.013   0.327   3.042
 5466SOL     OW17296   6.420   2.810   5.666
 5466SOL    HW117297   6.368   2.789   5.750
 5466SOL    HW217298   6.466   2.728   5.634
 5467SOL     OW17299   5.620   3.783   3.575
 5467SOL    HW117300   5.556   3.713   3.544
 5467SOL    HW217301   5.582   3.874   3.556
 5468SOL     OW17302   6.857   2.634   4.254
 5468SOL    HW117303   6.921   2.685   4.197
 5468SOL    HW217304   6.807   2.569   4.197
 5469SOL     OW17305   3.682   6.055   6.226
 5469SOL    HW117306   3.686   5.970   6.279
 5469SOL    HW217307   3.635   6.037   6.139
 5470SOL     OW17308   4.058   5.256   3.440
 5470SOL    HW117309   4.030   5.249   3.536
 5470SOL    HW217310   3.990   5.210   3.382
 5471SOL     OW17311   5.426   0.092   2.559
 5471SOL    HW117312   5.495   0.085   2.631
 5471SOL    HW217313   5.430   0.183   2.518
 5472SOL     OW17314   3.112   3.459   6.487
 5472SOL    HW117315   3.152   3.435   6.398
 5472SOL    HW217316   3.108   3.377   6.544
 5473SOL     OW17317   2.127   4.144   0.243
 5473SOL    HW117318   2.207   4.180   0.292
 5473SOL    HW217319   2.048   4.143   0.305
 5474SOL     OW17320   0.410   5.937   4.115
 5474SOL    HW117321   0.393   5.845   4.152
 5474SOL    HW217322   0.324   5.988   4.111
 5475SOL     OW17323   1.772   1.988   0.926
 5475SOL    HW117324   1.786   2.077   0.881
 5475SOL    HW217325   1.682   1.988   0.971
 5476SOL     OW17326   2.489   4.555   5.053
 5476SOL    HW117327   2.540   4.641   5.052
 5476SOL    HW217328   2.553   4.478   5.051
 5477SOL     OW17329   1.671   3.269   3.048
 5477SOL    HW117330   1.680   3.176   3.084
 5477SOL    HW217331   1.626   3.265   2.959
 5478SOL     OW17332   5.137   6.480   5.459
 5478SOL    HW117333   5.107   6.551   5.395
 5478SOL    HW217334   5.231   6.453   5.436
 5479SOL     OW17335   4.303   1.621   4.974
 5479SOL    HW117336   4.340   1.709   5.005
 5479SOL    HW217337   4.364   1.548   5.005
 5480SOL     OW17338   6.038   4.521   5.197
 5480SOL    HW117339   6.098   4.548   5.272
 5480SOL    HW217340   5.943   4.527   5.227
 5481SOL     OW17341   5.014   1.051   4.673
 5481SOL    HW117342   4.920   1.037   4.706
 5481SOL    HW217343   5.029   0.997   4.590
 5482SOL     OW17344   3.111   3.985   2.916
 5482SOL    HW117345   3.104   4.079   2.882
 5482SOL    HW217346   3.077   3.922   2.846
 5483SOL     OW17347   6.221   2.172   5.196
 5483SOL    HW117348   6.308   2.122   5.189
 5483SOL    HW217349   6.163   2.129   5.264
 5484SOL     OW17350   6.464   0.718   3.591
 5484SOL    HW117351   6.472   0.803   3.539
 5484SOL    HW217352   6.427   0.738   3.681
 5485SOL     OW17353   3.240   6.221   4.689
 5485SOL    HW117354   3.159   6.259   4.732
 5485SOL    HW217355   3.215   6.179   4.601
 5486SOL     OW17356   1.564   6.444   4.308
 5486SOL    HW117357   1.600   6.352   4.317
 5486SOL    HW217358   1.607   6.490   4.231
 5487SOL     OW17359   5.388   3.175   6.372
 5487SOL    HW117360   5.361   3.080   6.355
 5487SOL    HW217361   5.333   3.212   6.447
 5488SOL     OW17362   5.305   1.890   1.440
 5488SOL    HW117363   5.404   1.905   1.444
 5488SOL    HW217364   5.277   1.874   1.346
 5489SOL     OW17365   1.016   4.175   1.463
 5489SOL    HW117366   1.022   4.251   1.398
 5489SOL    HW217367   0.921   4.147   1.473
 5490SOL     OW17368   3.507   6.991   0.879
 5490SOL    HW117369   3.514   6.953   0.787
 5490SOL    HW217370   3.507   0.068   0.875
 5491SOL     OW17371   1.523   3.839   6.300
 5491SOL    HW117372   1.562   3.910   6.241
 5491SOL    HW217373   1.590   3.765   6.311
 5492SOL     OW17374   0.887   2.254   6.733
 5492SOL    HW117375   0.876   2.348   6.700
 5492SOL    HW217376   0.850   2.191   6.664
 5493SOL     OW17377   4.110   3.647   4.212
 5493SOL    HW117378   4.098   3.659   4.114
 5493SOL    HW217379   4.163   3.564   4.230
 5494SOL     OW17380   5.824   2.689   6.911
 5494SOL    HW117381   5.866   2.775   6.942
 5494SOL    HW217382   5.832   2.682   6.812
 5495SOL     OW17383   3.167   2.404   1.402
 5495SOL    HW117384   3.192   2.486   1.351
 5495SOL    HW217385   3.139   2.429   1.495
 5496SOL     OW17386   2.558   6.543   3.751
 5496SOL    HW117387   2.472   6.541   3.700
 5496SOL    HW217388   2.554   6.614   3.821
 5497SOL     OW17389   0.116   1.890   3.502
 5497SOL    HW117390   0.069   1.978   3.509
 5497SOL    HW217391   0.141   1.858   3.593
 5498SOL     OW17392   5.165   0.233   1.318
 5498SOL    HW117393   5.096   0.265   1.253
 5498SOL    HW217394   5.142   0.266   1.410
 5499SOL     OW17395   0.983   0.609   3.493
 5499SOL    HW117396   0.893   0.566   3.487
 5499SOL    HW217397   1.050   0.553   3.444
 5500SOL     OW17398   1.958   6.158   0.003
 5500SOL    HW117399   1.962   6.068   6.982
 5500SOL    HW217400   2.049   6.181   0.037
 5501SOL     OW17401   3.755   0.216   1.010
 5501SOL    HW117402   3.807   0.192   0.928
 5501SOL    HW217403   3.667   0.256   0.983
 5502SOL     OW17404   5.585   4.104   6.968
 5502SOL    HW117405   5.497   4.065   6.940
 5502SOL    HW217406   5.580   4.132   0.040
 5503SOL     OW17407   0.286   5.188   2.834
 5503SOL    HW117408   0.248   5.166   2.924
 5503SOL    HW217409   0.300   5.287   2.827
 5504SOL     OW17410   3.979   1.120   5.946
 5504SOL    HW117411   3.918   1.054   5.991
 5504SOL    HW217412   3.959   1.212   5.979
 5505SOL     OW17413   2.409   5.184   4.196
 5505SOL    HW117414   2.411   5.278   4.230
 5505SOL    HW217415   2.380   5.123   4.270
 5506SOL     OW17416   0.280   0.955   6.150
 5506SOL    HW117417   0.367   0.996   6.179
 5506SOL    HW217418   0.276   0.955   6.050
 5507SOL     OW17419   2.313   6.979   2.867
 5507SOL    HW117420   2.385   6.953   2.931
 5507SOL    HW217421   2.350   0.021   2.800
 5508SOL     OW17422   1.995   1.196   0.117
 5508SOL    HW117423   1.993   1.214   0.216
 5508SOL    HW217424   1.991   1.282   0.067
 5509SOL     OW17425   0.971   6.476   0.387
 5509SOL    HW117426   0.905   6.550   0.370
 5509SOL    HW217427   1.060   6.516   0.409
 5510SOL     OW17428   5.531   6.420   0.648
 5510SOL    HW117429   5.489   6.332   0.672
 5510SOL    HW217430   5.473   6.495   0.680
 5511SOL     OW17431   2.763   0.090   4.463
 5511SOL    HW117432   2.854   0.124   4.483
 5511SOL    HW217433   2.720   0.146   4.392
 5512SOL     OW17434   5.841   2.511   1.330
 5512SOL    HW117435   5.882   2.598   1.355
 5512SOL    HW217436   5.846   2.449   1.409
 5513SOL     OW17437   3.621   3.901   5.822
 5513SOL    HW117438   3.604   3.827   5.887
 5513SOL    HW217439   3.560   3.978   5.843
 5514SOL     OW17440   4.503   5.729   2.039
 5514SOL    HW117441   4.444   5.782   1.978
 5514SOL    HW217442   4.446   5.677   2.103
 5515SOL     OW17443   0.257   4.966   1.160
 5515SOL    HW117444   0.192   4.962   1.236
 5515SOL    HW217445   0.327   5.034   1.180
 5516SOL     OW17446   1.412   3.862   6.800
 5516SOL    HW117447   1.375   3.788   6.744
 5516SOL    HW217448   1.398   3.841   6.897
 5517SOL     OW17449   2.187   2.796   2.335
 5517SOL    HW117450   2.114   2.767   2.273
 5517SOL    HW217451   2.175   2.893   2.357
 5518SOL     OW17452   6.349   6.987   6.272
 5518SOL    HW117453   6.258   7.001   6.312
 5518SOL    HW217454   6.419   7.019   6.336
 5519SOL     OW17455   5.147   3.382   2.706
 5519SOL    HW117456   5.066   3.342   2.663
 5519SOL    HW217457   5.205   3.424   2.636
 5520SOL     OW17458   6.756   5.717   2.562
 5520SOL    HW117459   6.703   5.802   2.569
 5520SOL    HW217460   6.696   5.644   2.528
 5521SOL     OW17461   4.233   6.959   2.177
 5521SOL    HW117462   4.180   6.928   2.255
 5521SOL    HW217463   4.174   6.968   2.097
 5522SOL     OW17464   0.559   5.447   0.628
 5522SOL    HW117465   0.507   5.391   0.692
 5522SOL    HW217466   0.642   5.480   0.672
 5523SOL     OW17467   2.854   6.846   3.041
 5523SOL    HW117468   2.947   6.883   3.048
 5523SOL    HW217469   2.857   6.761   2.988
 5524SOL     OW17470   5.399   5.355   4.746
 5524SOL    HW117471   5.416   5.432   4.808
 5524SOL    HW217472   5.467   5.283   4.762
 5525SOL     OW17473   6.741   3.204   0.023
 5525SOL    HW117474   6.727   3.126   6.986
 5525SOL    HW217475   6.834   3.240   0.009
 5526SOL     OW17476   5.534   4.495   4.571
 5526SOL    HW117477   5.570   4.538   4.654
 5526SOL    HW217478   5.439   4.469   4.585
 5527SOL     OW17479   0.163   3.541   4.167
 5527SOL    HW117480   0.230   3.545   4.241
 5527SOL    HW217481   0.103   3.620   4.171
 5528SOL     OW17482   1.148   2.119   6.718
 5528SOL    HW117483   1.095   2.203   6.721
 5528SOL    HW217484   1.164   2.093   6.623
 5529SOL     OW17485   2.059   0.557   4.415
 5529SOL    HW117486   2.043   0.542   4.513
 5529SOL    HW217487   2.006   0.491   4.362
 5530SOL     OW17488   0.467   2.306   2.139
 5530SOL    HW117489   0.397   2.377   2.141
 5530SOL    HW217490   0.502   2.291   2.231
 5531SOL     OW17491   3.546   3.714   2.330
 5531SOL    HW117492   3.645   3.728   2.333
 5531SOL    HW217493   3.514   3.720   2.236
 5532SOL     OW17494   1.651   1.537   0.241
 5532SOL    HW117495   1.574   1.597   0.219
 5532SOL    HW217496   1.626   1.479   0.319
 5533SOL     OW17497   3.111   0.572   3.507
 5533SOL    HW117498   3.023   0.566   3.554
 5533SOL    HW217499   3.097   0.608   3.415
 5534SOL     OW17500   0.687   2.431   5.424
 5534SOL    HW117501   0.750   2.357   5.452
 5534SOL    HW217502   0.681   2.434   5.325
 5535SOL     OW17503   0.410   3.024   4.331
 5535SOL    HW117504   0.510   3.021   4.319
 5535SOL    HW217505   0.374   3.106   4.287
 5536SOL     OW17506   2.922   0.907   4.250
 5536SOL    HW117507   3.011   0.869   4.222
 5536SOL    HW217508   2.921   1.005   4.232
 5537SOL     OW17509   3.207   0.608   4.255
 5537SOL    HW117510   3.291   0.574   4.213
 5537SOL    HW217511   3.132   0.545   4.235
 5538SOL     OW17512   3.338   6.819   5.009
 5538SOL    HW117513   3.309   6.752   5.077
 5538SOL    HW217514   3.273   6.895   5.008
 5539SOL     OW17515   1.564   2.989   0.158
 5539SOL    HW117516   1.524   3.040   0.234
 5539SOL    HW217517   1.493   2.961   0.094
 5540SOL     OW17518   6.289   3.627   2.993
 5540SOL    HW117519   6.232   3.668   2.922
 5540SOL    HW217520   6.230   3.581   3.060
 5541SOL     OW17521   5.824   1.186   6.661
 5541SOL    HW117522   5.898   1.253   6.665
 5541SOL    HW217523   5.804   1.164   6.565
 5542SOL     OW17524   6.145   6.533   6.263
 5542SOL    HW117525   6.193   6.465   6.208
 5542SOL    HW217526   6.212   6.591   6.310
 5543SOL     OW17527   3.007   5.495   6.016
 5543SOL    HW117528   3.093   5.544   6.030
 5543SOL    HW217529   2.997   5.424   6.085
 5544SOL     OW17530   5.662   6.500   6.251
 5544SOL    HW117531   5.681   6.592   6.217
 5544SOL    HW217532   5.608   6.450   6.183
 5545SOL     OW17533   4.555   1.634   3.501
 5545SOL    HW117534   4.544   1.725   3.540
 5545SOL    HW217535   4.469   1.604   3.461
 5546SOL     OW17536   1.411   6.264   4.584
 5546SOL    HW117537   1.495   6.316   4.566
 5546SOL    HW217538   1.363   6.248   4.497
 5547SOL     OW17539   3.748   0.746   4.613
 5547SOL    HW117540   3.840   0.728   4.579
 5547SOL    HW217541   3.699   0.659   4.621
 5548SOL     OW17542   5.578   3.370   4.847
 5548SOL    HW117543   5.586   3.463   4.884
 5548SOL    HW217544   5.600   3.371   4.749
 5549SOL     OW17545   4.176   4.329   0.663
 5549SOL    HW117546   4.257   4.303   0.715
 5549SOL    HW217547   4.096   4.329   0.723
 5550SOL     OW17548   2.164   4.178   2.258
 5550SOL    HW117549   2.081   4.219   2.295
 5550SOL    HW217550   2.181   4.214   2.167
 5551SOL     OW17551   1.593   6.024   3.716
 5551SOL    HW117552   1.541   5.939   3.718
 5551SOL    HW217553   1.688   6.006   3.741
 5552SOL     OW17554   6.613   0.266   6.931
 5552SOL    HW117555   6.675   0.192   6.958
 5552SOL    HW217556   6.531   0.263   6.989
 5553SOL     OW17557   4.793   6.763   0.636
 5553SOL    HW117558   4.862   6.834   0.623
 5553SOL    HW217559   4.835   6.673   0.622
 5554SOL     OW17560   4.458   1.742   6.156
 5554SOL    HW117561   4.525   1.811   6.125
 5554SOL    HW217562   4.380   1.743   6.094
 5555SOL     OW17563   1.028   3.805   3.670
 5555SOL    HW117564   1.065   3.824   3.579
 5555SOL    HW217565   0.929   3.795   3.663
 5556SOL     OW17566   6.859   1.703   3.104
 5556SOL    HW117567   6.891   1.669   3.192
 5556SOL    HW217568   6.909   1.658   3.030
 5557SOL     OW17569   3.330   6.919   2.907
 5557SOL    HW117570   3.270   6.906   2.828
 5557SOL    HW217571   3.402   6.849   2.905
 5558SOL     OW17572   3.951   3.433   5.522
 5558SOL    HW117573   4.027   3.498   5.518
 5558SOL    HW217574   3.865   3.483   5.519
 5559SOL     OW17575   1.540   0.432   1.462
 5559SOL    HW117576   1.564   0.356   1.523
 5559SOL    HW217577   1.534   0.517   1.515
 5560SOL     OW17578   0.688   5.930   2.427
 5560SOL    HW117579   0.630   5.994   2.376
 5560SOL    HW217580   0.640   5.899   2.508
 5561SOL     OW17581   1.454   1.643   4.069
 5561SOL    HW117582   1.363   1.629   4.029
 5561SOL    HW217583   1.480   1.739   4.057
 5562SOL     OW17584   4.153   2.265   6.298
 5562SOL    HW117585   4.229   2.235   6.356
 5562SOL    HW217586   4.175   2.245   6.202
 5563SOL     OW17587   4.078   5.176   1.976
 5563SOL    HW117588   4.093   5.161   2.073
 5563SOL    HW217589   4.162   5.157   1.925
 5564SOL     OW17590   4.785   0.555   1.366
 5564SOL    HW117591   4.809   0.522   1.275
 5564SOL    HW217592   4.695   0.598   1.364
 5565SOL     OW17593   4.678   1.687   5.883
 5565SOL    HW117594   4.641   1.595   5.901
 5565SOL    HW217595   4.774   1.680   5.858
 5566SOL     OW17596   1.580   4.991   6.860
 5566SOL    HW117597   1.604   5.069   6.803
 5566SOL    HW217598   1.616   4.907   6.819
 5567SOL     OW17599   0.096   2.373   0.666
 5567SOL    HW117600   0.108   2.368   0.765
 5567SOL    HW217601   0.009   2.417   0.646
 5568SOL     OW17602   4.054   1.817   3.720
 5568SOL    HW117603   4.046   1.717   3.717
 5568SOL    HW217604   4.010   1.856   3.640
 5569SOL     OW17605   1.184   2.024   2.588
 5569SOL    HW117606   1.087   2.044   2.574
 5569SOL    HW217607   1.236   2.049   2.507
 5570SOL     OW17608   5.950   4.561   4.821
 5570SOL    HW117609   5.942   4.461   4.832
 5570SOL    HW217610   5.954   4.583   4.724
 5571SOL     OW17611   6.970   5.840   0.622
 5571SOL    HW117612   0.047   5.839   0.625
 5571SOL    HW217613   6.939   5.808   0.533
 5572SOL     OW17614   1.080   2.337   5.091
 5572SOL    HW117615   1.126   2.304   5.009
 5572SOL    HW217616   1.142   2.393   5.145
 5573SOL     OW17617   2.339   4.670   4.643
 5573SOL    HW117618   2.393   4.604   4.591
 5573SOL    HW217619   2.372   4.762   4.624
 5574SOL     OW17620   0.178   2.019   2.433
 5574SOL    HW117621   0.146   2.096   2.488
 5574SOL    HW217622   0.166   2.039   2.336
 5575SOL     OW17623   0.097   1.079   0.853
 5575SOL    HW117624   0.195   1.067   0.872
 5575SOL    HW217625   0.044   1.064   0.936
 5576SOL     OW17626   0.586   5.298   1.957
 5576SOL    HW117627   0.678   5.307   1.996
 5576SOL    HW217628   0.537   5.224   2.004
 5577SOL     OW17629   3.092   3.471   5.193
 5577SOL    HW117630   2.996   3.446   5.185
 5577SOL    HW217631   3.149   3.390   5.174
 5578SOL     OW17632   3.525   3.710   0.720
 5578SOL    HW117633   3.614   3.674   0.693
 5578SOL    HW217634   3.452   3.659   0.674
 5579SOL     OW17635   0.847   3.945   6.679
 5579SOL    HW117636   0.946   3.954   6.683
 5579SOL    HW217637   0.808   3.968   6.769
 5580SOL     OW17638   5.404   2.686   5.537
 5580SOL    HW117639   5.498   2.721   5.533
 5580SOL    HW217640   5.351   2.724   5.461
 5581SOL     OW17641   1.792   0.053   1.454
 5581SOL    HW117642   1.780   0.065   1.356
 5581SOL    HW217643   1.770   6.981   1.479
 5582SOL     OW17644   2.966   3.914   4.831
 5582SOL    HW117645   2.891   3.939   4.892
 5582SOL    HW217646   3.007   3.828   4.861
 5583SOL     OW17647   4.848   0.040   2.498
 5583SOL    HW117648   4.917   6.995   2.474
 5583SOL    HW217649   4.885   0.102   2.568
 5584SOL     OW17650   5.657   4.234   3.845
 5584SOL    HW117651   5.689   4.141   3.865
 5584SOL    HW217652   5.618   4.274   3.928
 5585SOL     OW17653   4.979   6.343   3.980
 5585SOL    HW117654   5.007   6.259   3.934
 5585SOL    HW217655   5.059   6.391   4.014
 5586SOL     OW17656   0.280   2.563   6.869
 5586SOL    HW117657   0.345   2.629   6.832
 5586SOL    HW217658   0.187   2.599   6.857
 5587SOL     OW17659   4.169   6.669   1.986
 5587SOL    HW117660   4.241   6.697   1.923
 5587SOL    HW217661   4.079   6.688   1.944
 5588SOL     OW17662   1.660   6.000   2.627
 5588SOL    HW117663   1.614   5.911   2.626
 5588SOL    HW217664   1.723   6.003   2.705
 5589SOL     OW17665   5.868   4.077   5.601
 5589SOL    HW117666   5.899   4.056   5.693
 5589SOL    HW217667   5.943   4.062   5.536
 5590SOL     OW17668   6.514   5.544   4.236
 5590SOL    HW117669   6.435   5.604   4.247
 5590SOL    HW217670   6.530   5.525   4.139
 5591SOL     OW17671   5.569   2.077   0.594
 5591SOL    HW117672   5.589   1.988   0.553
 5591SOL    HW217673   5.503   2.065   0.668
 5592SOL     OW17674   7.003   4.727   2.727
 5592SOL    HW117675   7.012   4.645   2.671
 5592SOL    HW217676   6.966   4.704   2.816
 5593SOL     OW17677   0.195   2.956   6.672
 5593SOL    HW117678   0.243   2.888   6.616
 5593SOL    HW217679   0.246   3.041   6.672
 5594SOL     OW17680   3.314   1.030   6.719
 5594SOL    HW117681   3.295   1.068   6.809
 5594SOL    HW217682   3.398   0.975   6.723
 5595SOL     OW17683   6.281   0.704   5.065
 5595SOL    HW117684   6.380   0.716   5.053
 5595SOL    HW217685   6.237   0.794   5.066
 5596SOL     OW17686   4.831   0.786   3.464
 5596SOL    HW117687   4.840   0.687   3.452
 5596SOL    HW217688   4.885   0.832   3.394
 5597SOL     OW17689   5.675   2.440   5.184
 5597SOL    HW117690   5.706   2.502   5.256
 5597SOL    HW217691   5.630   2.492   5.112
 5598SOL     OW17692   6.272   3.915   3.510
 5598SOL    HW117693   6.214   3.856   3.567
 5598SOL    HW217694   6.319   3.860   3.442
 5599SOL     OW17695   1.099   2.955   1.793
 5599SOL    HW117696   1.037   2.887   1.832
 5599SOL    HW217697   1.106   2.941   1.694
 5600SOL     OW17698   2.719   0.390   2.512
 5600SOL    HW117699   2.782   0.341   2.572
 5600SOL    HW217700   2.679   0.327   2.446
 5601SOL     OW17701   2.639   0.755   6.206
 5601SOL    HW117702   2.603   0.675   6.158
 5601SOL    HW217703   2.583   0.772   6.288
 5602SOL     OW17704   0.183   1.098   1.268
 5602SOL    HW117705   0.283   1.100   1.269
 5602SOL    HW217706   0.149   1.060   1.354
 5603SOL     OW17707   5.765   2.128   0.216
 5603SOL    HW117708   5.736   2.120   0.312
 5603SOL    HW217709   5.832   2.202   0.208
 5604SOL     OW17710   6.133   1.986   4.345
 5604SOL    HW117711   6.230   1.980   4.371
 5604SOL    HW217712   6.085   2.044   4.412
 5605SOL     OW17713   0.615   0.996   4.878
 5605SOL    HW117714   0.648   0.942   4.800
 5605SOL    HW217715   0.556   0.939   4.935
 5606SOL     OW17716   5.278   6.903   0.794
 5606SOL    HW117717   5.321   6.823   0.754
 5606SOL    HW217718   5.182   6.883   0.816
 5607SOL     OW17719   6.088   1.159   3.741
 5607SOL    HW117720   6.028   1.155   3.661
 5607SOL    HW217721   6.182   1.138   3.714
 5608SOL     OW17722   6.295   0.746   3.811
 5608SOL    HW117723   6.273   0.842   3.823
 5608SOL    HW217724   6.314   0.704   3.900
 5609SOL     OW17725   4.066   6.190   1.677
 5609SOL    HW117726   3.998   6.142   1.622
 5609SOL    HW217727   4.024   6.268   1.722
 5610SOL     OW17728   4.446   5.126   1.301
 5610SOL    HW117729   4.364   5.077   1.331
 5610SOL    HW217730   4.522   5.061   1.292
 5611SOL     OW17731   0.708   5.183   2.810
 5611SOL    HW117732   0.787   5.121   2.799
 5611SOL    HW217733   0.672   5.206   2.720
 5612SOL     OW17734   4.264   2.776   6.006
 5612SOL    HW117735   4.257   2.852   5.941
 5612SOL    HW217736   4.358   2.743   6.010
 5613SOL     OW17737   5.726   5.704   5.147
 5613SOL    HW117738   5.698   5.709   5.243
 5613SOL    HW217739   5.737   5.609   5.121
 5614SOL     OW17740   4.967   2.497   4.811
 5614SOL    HW117741   4.921   2.457   4.731
 5614SOL    HW217742   5.063   2.470   4.811
 5615SOL     OW17743   6.778   1.684   3.722
 5615SOL    HW117744   6.811   1.702   3.815
 5615SOL    HW217745   6.765   1.771   3.674
 5616SOL     OW17746   2.759   1.922   5.510
 5616SOL    HW117747   2.690   1.980   5.466
 5616SOL    HW217748   2.774   1.955   5.603
 5617SOL     OW17749   2.459   5.967   5.785
 5617SOL    HW117750   2.376   6.018   5.807
 5617SOL    HW217751   2.480   5.978   5.688
 5618SOL     OW17752   6.586   4.357   4.514
 5618SOL    HW117753   6.571   4.278   4.574
 5618SOL    HW217754   6.512   4.361   4.446
 5619SOL     OW17755   3.906   3.877   4.627
 5619SOL    HW117756   3.964   3.807   4.668
 5619SOL    HW217757   3.909   3.870   4.528
 5620SOL     OW17758   4.227   3.722   0.930
 5620SOL    HW117759   4.243   3.623   0.923
 5620SOL    HW217760   4.169   3.752   0.855
 5621SOL     OW17761   2.427   2.547   0.125
 5621SOL    HW117762   2.428   2.634   0.077
 5621SOL    HW217763   2.504   2.543   0.189
 5622SOL     OW17764   4.565   0.721   5.761
 5622SOL    HW117765   4.620   0.779   5.701
 5622SOL    HW217766   4.602   0.724   5.854
 5623SOL     OW17767   4.675   6.314   5.238
 5623SOL    HW117768   4.590   6.268   5.214
 5623SOL    HW217769   4.704   6.374   5.163
 5624SOL     OW17770   0.909   4.132   3.488
 5624SOL    HW117771   0.893   4.230   3.478
 5624SOL    HW217772   0.888   4.103   3.581
 5625SOL     OW17773   6.570   0.085   5.368
 5625SOL    HW117774   6.651   0.059   5.420
 5625SOL    HW217775   6.545   0.179   5.389
 5626SOL     OW17776   2.604   5.757   3.814
 5626SOL    HW117777   2.506   5.740   3.826
 5626SOL    HW217778   2.618   5.820   3.738
 5627SOL     OW17779   0.840   5.208   6.822
 5627SOL    HW117780   0.794   5.231   6.736
 5627SOL    HW217781   0.938   5.227   6.814
 5628SOL     OW17782   2.174   2.412   2.376
 5628SOL    HW117783   2.190   2.342   2.446
 5628SOL    HW217784   2.246   2.481   2.382
 5629SOL     OW17785   4.219   3.321   1.845
 5629SOL    HW117786   4.186   3.234   1.810
 5629SOL    HW217787   4.218   3.320   1.945
 5630SOL     OW17788   1.892   3.473   6.162
 5630SOL    HW117789   1.835   3.433   6.090
 5630SOL    HW217790   1.982   3.431   6.161
 5631SOL     OW17791   4.685   1.824   1.942
 5631SOL    HW117792   4.689   1.882   2.023
 5631SOL    HW217793   4.617   1.752   1.956
 5632SOL     OW17794   3.257   2.326   5.847
 5632SOL    HW117795   3.304   2.407   5.884
 5632SOL    HW217796   3.285   2.245   5.898
 5633SOL     OW17797   5.755   5.053   4.391
 5633SOL    HW117798   5.740   5.139   4.439
 5633SOL    HW217799   5.704   4.980   4.436
 5634SOL     OW17800   2.015   4.771   3.922
 5634SOL    HW117801   2.084   4.805   3.857
 5634SOL    HW217802   1.979   4.848   3.975
 5635SOL     OW17803   1.917   5.520   6.920
 5635SOL    HW117804   1.917   5.601   6.861
 5635SOL    HW217805   2.000   5.466   6.903
 5636SOL     OW17806   4.575   0.091   4.647
 5636SOL    HW117807   4.657   0.117   4.596
 5636SOL    HW217808   4.494   0.115   4.593
 5637SOL     OW17809   4.817   6.718   3.429
 5637SOL    HW117810   4.721   6.723   3.457
 5637SOL    HW217811   4.847   6.809   3.399
 5638SOL     OW17812   7.010   3.647   0.862
 5638SOL    HW117813   0.085   3.637   0.882
 5638SOL    HW217814   6.976   3.562   0.821
 5639SOL     OW17815   1.776   6.978   2.065
 5639SOL    HW117816   1.776   0.018   2.143
 5639SOL    HW217817   1.799   6.886   2.096
 5640SOL     OW17818   3.265   0.821   3.624
 5640SOL    HW117819   3.283   0.898   3.562
 5640SOL    HW217820   3.212   0.751   3.575
 5641SOL     OW17821   0.463   4.868   5.134
 5641SOL    HW117822   0.384   4.872   5.195
 5641SOL    HW217823   0.546   4.853   5.189
 5642SOL     OW17824   1.418   5.991   4.587
 5642SOL    HW117825   1.437   6.090   4.587
 5642SOL    HW217826   1.371   5.967   4.502
 5643SOL     OW17827   4.401   1.402   4.024
 5643SOL    HW117828   4.316   1.430   4.068
 5643SOL    HW217829   4.459   1.482   4.008
 5644SOL     OW17830   3.478   6.634   5.541
 5644SOL    HW117831   3.410   6.631   5.614
 5644SOL    HW217832   3.468   6.719   5.489
 5645SOL     OW17833   6.044   5.038   3.341
 5645SOL    HW117834   6.035   4.951   3.294
 5645SOL    HW217835   5.961   5.092   3.328
 5646SOL     OW17836   1.042   5.815   3.975
 5646SOL    HW117837   1.025   5.743   4.043
 5646SOL    HW217838   0.956   5.863   3.956
 5647SOL     OW17839   4.743   6.142   0.586
 5647SOL    HW117840   4.652   6.153   0.626
 5647SOL    HW217841   4.810   6.134   0.660
 5648SOL     OW17842   1.695   0.048   3.505
 5648SOL    HW117843   1.737   0.065   3.415
 5648SOL    HW217844   1.700   0.132   3.560
 5649SOL     OW17845   0.407   0.875   4.430
 5649SOL    HW117846   0.436   0.785   4.463
 5649SOL    HW217847   0.313   0.869   4.396
 5650SOL     OW17848   0.593   5.607   0.385
 5650SOL    HW117849   0.685   5.628   0.351
 5650SOL    HW217850   0.600   5.540   0.459
 5651SOL     OW17851   1.689   1.073   1.229
 5651SOL    HW117852   1.754   1.049   1.301
 5651SOL    HW217853   1.598   1.084   1.269
 5652SOL     OW17854   6.088   6.922   1.882
 5652SOL    HW117855   6.147   6.990   1.925
 5652SOL    HW217856   6.001   6.917   1.932
 5653SOL     OW17857   6.533   6.045   6.712
 5653SOL    HW117858   6.605   6.012   6.651
 5653SOL    HW217859   6.458   5.980   6.714
 5654SOL     OW17860   6.587   6.981   5.130
 5654SOL    HW117861   6.686   6.983   5.113
 5654SOL    HW217862   6.569   7.005   5.225
 5655SOL     OW17863   1.071   3.856   4.425
 5655SOL    HW117864   0.977   3.826   4.411
 5655SOL    HW217865   1.134   3.781   4.406
 5656SOL     OW17866   0.266   3.756   6.609
 5656SOL    HW117867   0.214   3.717   6.533
 5656SOL    HW217868   0.207   3.818   6.661
 5657SOL     OW17869   6.046   1.891   0.316
 5657SOL    HW117870   6.027   1.896   0.218
 5657SOL    HW217871   6.134   1.935   0.334
 5658SOL     OW17872   3.742   3.638   6.583
 5658SOL    HW117873   3.760   3.577   6.661
 5658SOL    HW217874   3.826   3.650   6.530
 5659SOL     OW17875   3.884   3.129   4.762
 5659SOL    HW117876   3.842   3.203   4.708
 5659SOL    HW217877   3.895   3.159   4.857
 5660SOL     OW17878   5.063   6.781   0.423
 5660SOL    HW117879   5.128   6.708   0.440
 5660SOL    HW217880   5.056   6.839   0.505
 5661SOL     OW17881   1.563   5.668   4.958
 5661SOL    HW117882   1.559   5.568   4.966
 5661SOL    HW217883   1.589   5.707   5.046
 5662SOL     OW17884   2.684   6.020   3.629
 5662SOL    HW117885   2.778   6.013   3.596
 5662SOL    HW217886   2.623   5.971   3.566
 5663SOL     OW17887   1.595   3.281   6.676
 5663SOL    HW117888   1.675   3.223   6.659
 5663SOL    HW217889   1.584   3.294   6.774
 5664SOL     OW17890   6.808   4.225   4.109
 5664SOL    HW117891   6.731   4.246   4.049
 5664SOL    HW217892   6.777   4.170   4.186
 5665SOL     OW17893   1.631   1.024   0.258
 5665SOL    HW117894   1.611   1.119   0.282
 5665SOL    HW217895   1.726   1.004   0.280
 5666SOL     OW17896   6.098   7.016   2.877
 5666SOL    HW117897   6.141   6.927   2.863
 5666SOL    HW217898   6.157   0.049   2.935
 5667SOL     OW17899   1.704   5.065   4.421
 5667SOL    HW117900   1.649   5.040   4.341
 5667SOL    HW217901   1.662   5.029   4.504
 5668SOL     OW17902   5.270   2.711   3.734
 5668SOL    HW117903   5.285   2.774   3.810
 5668SOL    HW217904   5.180   2.730   3.694
 5669SOL     OW17905   0.076   3.432   6.994
 5669SOL    HW117906   0.057   3.427   0.069
 5669SOL    HW217907   7.013   3.436   6.943
 5670SOL     OW17908   6.955   2.811   3.808
 5670SOL    HW117909   7.013   2.814   3.889
 5670SOL    HW217910   6.991   2.872   3.738
 5671SOL     OW17911   6.411   6.177   6.391
 5671SOL    HW117912   6.501   6.219   6.382
 5671SOL    HW217913   6.348   6.242   6.435
 5672SOL     OW17914   4.504   3.890   0.262
 5672SOL    HW117915   4.569   3.888   0.185
 5672SOL    HW217916   4.516   3.975   0.313
 5673SOL     OW17917   1.285   0.664   1.917
 5673SOL    HW117918   1.241   0.753   1.906
 5673SOL    HW217919   1.237   0.596   1.862
 5674SOL     OW17920   0.009   4.995   5.018
 5674SOL    HW117921   6.996   5.088   5.022
 5674SOL    HW217922   6.962   4.931   5.049
 5675SOL     OW17923   4.316   2.588   0.073
 5675SOL    HW117924   4.390   2.629   0.019
 5675SOL    HW217925   4.232   2.590   0.019
 5676SOL     OW17926   2.700   2.211   2.499
 5676SOL    HW117927   2.690   2.236   2.402
 5676SOL    HW217928   2.741   2.120   2.506
 5677SOL     OW17929   1.204   1.569   0.289
 5677SOL    HW117930   1.296   1.591   0.255
 5677SOL    HW217931   1.157   1.513   0.221
 5678SOL     OW17932   4.305   6.818   2.649
 5678SOL    HW117933   4.231   6.874   2.686
 5678SOL    HW217934   4.357   6.777   2.725
 5679SOL     OW17935   0.028   0.943   4.119
 5679SOL    HW117936   0.028   1.043   4.109
 5679SOL    HW217937   0.090   0.903   4.051
 5680SOL     OW17938   1.614   5.142   6.317
 5680SOL    HW117939   1.633   5.050   6.282
 5680SOL    HW217940   1.525   5.143   6.362
 5681SOL     OW17941   0.577   4.640   0.725
 5681SOL    HW117942   0.538   4.636   0.817
 5681SOL    HW217943   0.639   4.719   0.719
 5682SOL     OW17944   2.175   4.888   5.262
 5682SOL    HW117945   2.210   4.795   5.275
 5682SOL    HW217946   2.206   4.925   5.175
 5683SOL     OW17947   4.569   1.203   6.252
 5683SOL    HW117948   4.668   1.195   6.258
 5683SOL    HW217949   4.541   1.295   6.278
 5684SOL     OW17950   2.884   3.629   5.530
 5684SOL    HW117951   2.958   3.561   5.537
 5684SOL    HW217952   2.898   3.683   5.447
 5685SOL     OW17953   2.072   2.064   2.767
 5685SOL    HW117954   2.136   1.987   2.773
 5685SOL    HW217955   1.991   2.044   2.822
 5686SOL     OW17956   2.493   1.066   6.523
 5686SOL    HW117957   2.416   1.091   6.581
 5686SOL    HW217958   2.574   1.119   6.549
 5687SOL     OW17959   1.021   5.141   0.457
 5687SOL    HW117960   1.096   5.193   0.417
 5687SOL    HW217961   0.938   5.155   0.403
 5688SOL     OW17962   0.299   2.444   1.508
 5688SOL    HW117963   0.200   2.432   1.497
 5688SOL    HW217964   0.318   2.485   1.597
 5689SOL     OW17965   3.377   1.570   0.750
 5689SOL    HW117966   3.456   1.580   0.811
 5689SOL    HW217967   3.376   1.477   0.712
 5690SOL     OW17968   2.603   5.833   0.045
 5690SOL    HW117969   2.675   5.777   0.005
 5690SOL    HW217970   2.551   5.778   0.111
 5691SOL     OW17971   3.343   0.245   2.371
 5691SOL    HW117972   3.270   0.296   2.325
 5691SOL    HW217973   3.336   0.257   2.470
 5692SOL     OW17974   5.553   3.624   0.824
 5692SOL    HW117975   5.465   3.624   0.778
 5692SOL    HW217976   5.579   3.530   0.847
 5693SOL     OW17977   4.925   2.114   2.927
 5693SOL    HW117978   4.945   2.048   2.999
 5693SOL    HW217979   4.833   2.150   2.941
 5694SOL     OW17980   0.965   1.773   3.388
 5694SOL    HW117981   0.990   1.766   3.485
 5694SOL    HW217982   1.045   1.803   3.336
 5695SOL     OW17983   1.722   1.817   3.136
 5695SOL    HW117984   1.649   1.766   3.090
 5695SOL    HW217985   1.682   1.892   3.189
 5696SOL     OW17986   0.509   1.003   3.005
 5696SOL    HW117987   0.574   1.071   2.970
 5696SOL    HW217988   0.448   1.048   3.070
 5697SOL     OW17989   5.680   2.387   0.878
 5697SOL    HW117990   5.722   2.467   0.921
 5697SOL    HW217991   5.744   2.346   0.814
 5698SOL     OW17992   1.343   4.771   4.121
 5698SOL    HW117993   1.392   4.790   4.206
 5698SOL    HW217994   1.390   4.698   4.071
 5699SOL     OW17995   0.626   2.817   3.136
 5699SOL    HW117996   0.578   2.876   3.201
 5699SOL    HW217997   0.660   2.736   3.184
 5700SOL     OW17998   6.718   6.874   3.141
 5700SOL    HW117999   6.669   6.857   3.227
 5700SOL    HW218000   6.691   6.963   3.105
 5701SOL     OW18001   1.844   0.695   1.660
 5701SOL    HW118002   1.798   0.650   1.584
 5701SOL    HW218003   1.802   0.784   1.677
 5702SOL     OW18004   2.676   5.468   4.371
 5702SOL    HW118005   2.579   5.461   4.350
 5702SOL    HW218006   2.723   5.386   4.339
 5703SOL     OW18007   6.476   4.572   1.974
 5703SOL    HW118008   6.536   4.493   1.984
 5703SOL    HW218009   6.381   4.545   1.986
 5704SOL     OW18010   4.836   4.588   2.842
 5704SOL    HW118011   4.862   4.537   2.923
 5704SOL    HW218012   4.745   4.629   2.856
 5705SOL     OW18013   4.914   6.807   6.980
 5705SOL    HW118014   4.920   6.799   0.056
 5705SOL    HW218015   4.988   6.753   6.938
 5706SOL     OW18016   6.975   4.060   1.325
 5706SOL    HW118017   6.883   4.095   1.342
 5706SOL    HW218018   7.007   4.012   1.407
 5707SOL     OW18019   0.221   6.369   0.269
 5707SOL    HW118020   0.214   6.324   0.180
 5707SOL    HW218021   0.301   6.335   0.318
 5708SOL     OW18022   5.183   5.342   1.822
 5708SOL    HW118023   5.148   5.435   1.836
 5708SOL    HW218024   5.186   5.294   1.909
 5709SOL     OW18025   1.373   0.963   2.332
 5709SOL    HW118026   1.443   1.022   2.291
 5709SOL    HW218027   1.412   0.914   2.410
 5710SOL     OW18028   2.200   2.632   0.856
 5710SOL    HW118029   2.131   2.592   0.796
 5710SOL    HW218030   2.183   2.730   0.866
 5711SOL     OW18031   5.213   0.871   2.757
 5711SOL    HW118032   5.190   0.782   2.796
 5711SOL    HW218033   5.308   0.871   2.727
 5712SOL     OW18034   6.392   0.774   6.499
 5712SOL    HW118035   6.380   0.763   6.598
 5712SOL    HW218036   6.436   0.861   6.480
 5713SOL     OW18037   3.664   3.033   1.944
 5713SOL    HW118038   3.591   3.046   1.876
 5713SOL    HW218039   3.660   2.939   1.979
 5714SOL     OW18040   0.323   5.687   0.274
 5714SOL    HW118041   0.389   5.633   0.221
 5714SOL    HW218042   0.349   5.686   0.370
 5715SOL     OW18043   1.077   0.620   2.473
 5715SOL    HW118044   1.147   0.641   2.541
 5715SOL    HW218045   1.073   0.522   2.457
 5716SOL     OW18046   1.555   4.586   6.477
 5716SOL    HW118047   1.645   4.544   6.489
 5716SOL    HW218048   1.506   4.586   6.564
 5717SOL     OW18049   1.723   4.913   1.147
 5717SOL    HW118050   1.635   4.961   1.149
 5717SOL    HW218051   1.711   4.823   1.107
 5718SOL     OW18052   0.244   3.663   5.609
 5718SOL    HW118053   0.243   3.673   5.708
 5718SOL    HW218054   0.191   3.737   5.567
 5719SOL     OW18055   2.736   2.258   6.333
 5719SOL    HW118056   2.757   2.263   6.431
 5719SOL    HW218057   2.637   2.267   6.319
 5720SOL     OW18058   1.855   6.007   4.687
 5720SOL    HW118059   1.853   5.912   4.718
 5720SOL    HW218060   1.878   6.010   4.590
 5721SOL     OW18061   6.591   3.114   0.880
 5721SOL    HW118062   6.652   3.063   0.820
 5721SOL    HW218063   6.551   3.051   0.947
 5722SOL     OW18064   6.978   1.427   5.194
 5722SOL    HW118065   0.042   1.449   5.151
 5722SOL    HW218066   6.907   1.417   5.124
 5723SOL     OW18067   5.141   2.837   0.625
 5723SOL    HW118068   5.104   2.839   0.532
 5723SOL    HW218069   5.107   2.917   0.676
 5724SOL     OW18070   5.382   2.945   4.851
 5724SOL    HW118071   5.397   2.898   4.764
 5724SOL    HW218072   5.379   3.044   4.835
 5725SOL     OW18073   5.134   5.510   4.689
 5725SOL    HW118074   5.088   5.529   4.776
 5725SOL    HW218075   5.208   5.445   4.704
 5726SOL     OW18076   0.074   5.317   4.476
 5726SOL    HW118077   0.057   5.222   4.450
 5726SOL    HW218078   0.173   5.335   4.471
 5727SOL     OW18079   0.107   1.763   4.214
 5727SOL    HW118080   0.124   1.853   4.174
 5727SOL    HW218081   0.185   1.737   4.271
 5728SOL     OW18082   3.900   0.314   6.132
 5728SOL    HW118083   3.998   0.329   6.120
 5728SOL    HW218084   3.874   0.340   6.225
 5729SOL     OW18085   1.367   0.943   0.608
 5729SOL    HW118086   1.286   0.911   0.560
 5729SOL    HW218087   1.449   0.906   0.564
 5730SOL     OW18088   5.478   5.123   6.559
 5730SOL    HW118089   5.454   5.203   6.504
 5730SOL    HW218090   5.543   5.066   6.508
 5731SOL     OW18091   0.191   6.369   4.031
 5731SOL    HW118092   0.158   6.456   4.067
 5731SOL    HW218093   0.220   6.380   3.936
 5732SOL     OW18094   6.648   5.263   4.576
 5732SOL    HW118095   6.626   5.358   4.554
 5732SOL    HW218096   6.629   5.206   4.496
 5733SOL     OW18097   4.207   6.600   5.739
 5733SOL    HW118098   4.207   6.694   5.706
 5733SOL    HW218099   4.191   6.538   5.663
 5734SOL     OW18100   1.335   6.577   5.285
 5734SOL    HW118101   1.293   6.577   5.195
 5734SOL    HW218102   1.328   6.669   5.325
 5735SOL     OW18103   4.406   1.857   1.603
 5735SOL    HW118104   4.352   1.787   1.556
 5735SOL    HW218105   4.419   1.830   1.699
 5736SOL     OW18106   6.358   3.968   0.011
 5736SOL    HW118107   6.322   3.896   0.070
 5736SOL    HW218108   6.373   4.051   0.065
 5737SOL     OW18109   5.776   6.886   1.254
 5737SOL    HW118110   5.852   6.883   1.189
 5737SOL    HW218111   5.793   6.956   1.323
 5738SOL     OW18112   2.626   2.215   5.792
 5738SOL    HW118113   2.694   2.142   5.782
 5738SOL    HW218114   2.632   2.277   5.713
 5739SOL     OW18115   1.480   0.381   5.938
 5739SOL    HW118116   1.435   0.307   5.989
 5739SOL    HW218117   1.413   0.427   5.880
 5740SOL     OW18118   4.283   3.799   1.185
 5740SOL    HW118119   4.308   3.896   1.182
 5740SOL    HW218120   4.267   3.766   1.093
 5741SOL     OW18121   0.784   4.489   4.282
 5741SOL    HW118122   0.847   4.414   4.265
 5741SOL    HW218123   0.731   4.469   4.365
 5742SOL     OW18124   5.206   6.972   1.997
 5742SOL    HW118125   5.174   6.897   1.938
 5742SOL    HW218126   5.189   0.036   1.952
 5743SOL     OW18127   2.439   5.293   5.164
 5743SOL    HW118128   2.422   5.330   5.255
 5743SOL    HW218129   2.377   5.336   5.098
 5744SOL     OW18130   4.672   0.950   1.956
 5744SOL    HW118131   4.580   0.918   1.937
 5744SOL    HW218132   4.737   0.903   1.895
 5745SOL     OW18133   2.295   0.926   4.111
 5745SOL    HW118134   2.253   0.987   4.043
 5745SOL    HW218135   2.260   0.833   4.098
 5746SOL     OW18136   6.036   6.919   1.539
 5746SOL    HW118137   6.000   6.935   1.631
 5746SOL    HW218138   6.006   6.991   1.478
 5747SOL     OW18139   6.688   4.756   2.866
 5747SOL    HW118140   6.756   4.745   2.938
 5747SOL    HW218141   6.695   4.848   2.827
 5748SOL     OW18142   1.838   6.002   1.150
 5748SOL    HW118143   1.926   5.961   1.125
 5748SOL    HW218144   1.766   5.933   1.144
 5749SOL     OW18145   1.665   0.479   5.034
 5749SOL    HW118146   1.623   0.447   5.118
 5749SOL    HW218147   1.754   0.435   5.021
 5750SOL     OW18148   4.883   6.369   4.524
 5750SOL    HW118149   4.897   6.328   4.434
 5750SOL    HW218150   4.962   6.349   4.582
 5751SOL     OW18151   2.229   3.028   4.803
 5751SOL    HW118152   2.301   3.013   4.871
 5751SOL    HW218153   2.198   3.123   4.808
 5752SOL     OW18154   6.539   0.963   6.857
 5752SOL    HW118155   6.575   0.870   6.870
 5752SOL    HW218156   6.606   1.018   6.807
 5753SOL     OW18157   3.660   3.984   5.560
 5753SOL    HW118158   3.705   3.942   5.481
 5753SOL    HW218159   3.673   3.926   5.640
 5754SOL     OW18160   5.805   4.427   1.832
 5754SOL    HW118161   5.862   4.445   1.751
 5754SOL    HW218162   5.809   4.505   1.894
 5755SOL     OW18163   2.310   3.473   6.251
 5755SOL    HW118164   2.334   3.461   6.155
 5755SOL    HW218165   2.289   3.384   6.292
 5756SOL     OW18166   6.111   6.585   3.918
 5756SOL    HW118167   6.034   6.567   3.857
 5756SOL    HW218168   6.197   6.559   3.873
 5757SOL     OW18169   6.829   6.594   2.662
 5757SOL    HW118170   6.792   6.685   2.680
 5757SOL    HW218171   6.760   6.525   2.686
 5758SOL     OW18172   2.433   0.933   4.327
 5758SOL    HW118173   2.527   0.901   4.317
 5758SOL    HW218174   2.384   0.923   4.240
 5759SOL     OW18175   5.134   1.557   6.597
 5759SOL    HW118176   5.213   1.608   6.633
 5759SOL    HW218177   5.129   1.468   6.643
 5760SOL     OW18178   1.033   4.744   1.112
 5760SOL    HW118179   1.080   4.665   1.073
 5760SOL    HW218180   1.022   4.731   1.211
 5761SOL     OW18181   5.767   6.964   6.504
 5761SOL    HW118182   5.727   6.966   6.412
 5761SOL    HW218183   5.814   6.877   6.519
 5762SOL     OW18184   4.627   6.348   0.363
 5762SOL    HW118185   4.683   6.267   0.381
 5762SOL    HW218186   4.633   6.372   0.266
 5763SOL     OW18187   0.183   0.704   0.361
 5763SOL    HW118188   0.266   0.649   0.356
 5763SOL    HW218189   0.163   0.742   0.270
 5764SOL     OW18190   4.406   4.586   6.356
 5764SOL    HW118191   4.473   4.522   6.393
 5764SOL    HW218192   4.361   4.635   6.430
 5765SOL     OW18193   6.941   4.210   6.577
 5765SOL    HW118194   6.902   4.249   6.661
 5765SOL    HW218195   6.871   4.211   6.505
 5766SOL     OW18196   2.683   2.520   0.555
 5766SOL    HW118197   2.618   2.466   0.609
 5766SOL    HW218198   2.651   2.526   0.461
 5767SOL     OW18199   2.615   6.385   0.235
 5767SOL    HW118200   2.650   6.467   0.280
 5767SOL    HW218201   2.531   6.356   0.280
 5768SOL     OW18202   0.688   0.271   2.971
 5768SOL    HW118203   0.699   0.195   2.906
 5768SOL    HW218204   0.602   0.259   3.021
 5769SOL     OW18205   2.297   6.392   4.261
 5769SOL    HW118206   2.374   6.417   4.202
 5769SOL    HW218207   2.225   6.462   4.254
 5770SOL     OW18208   6.052   0.645   6.559
 5770SOL    HW118209   6.095   0.557   6.539
 5770SOL    HW218210   5.953   0.637   6.550
 5771SOL     OW18211   0.943   6.194   2.771
 5771SOL    HW118212   0.991   6.153   2.848
 5771SOL    HW218213   0.922   6.123   2.703
 5772SOL     OW18214   6.568   2.651   0.160
 5772SOL    HW118215   6.515   2.644   0.244
 5772SOL    HW218216   6.575   2.746   0.131
 5773SOL     OW18217   5.196   0.984   4.139
 5773SOL    HW118218   5.106   0.941   4.134
 5773SOL    HW218219   5.188   1.073   4.184
 5774SOL     OW18220   2.733   5.303   3.586
 5774SOL    HW118221   2.794   5.232   3.620
 5774SOL    HW218222   2.703   5.361   3.662
 5775SOL     OW18223   1.851   0.661   1.944
 5775SOL    HW118224   1.755   0.638   1.956
 5775SOL    HW218225   1.871   0.671   1.846
 5776SOL     OW18226   6.716   1.147   6.251
 5776SOL    HW118227   6.808   1.124   6.217
 5776SOL    HW218228   6.721   1.232   6.303
 5777SOL     OW18229   6.173   0.842   4.277
 5777SOL    HW118230   6.078   0.831   4.304
 5777SOL    HW218231   6.231   0.843   4.359
 5778SOL     OW18232   2.100   0.026   1.277
 5778SOL    HW118233   2.046   0.025   1.193
 5778SOL    HW218234   2.057   0.085   1.345
 5779SOL     OW18235   4.212   0.877   0.617
 5779SOL    HW118236   4.175   0.815   0.548
 5779SOL    HW218237   4.210   0.833   0.707
 5780SOL     OW18238   5.582   5.608   3.242
 5780SOL    HW118239   5.607   5.514   3.220
 5780SOL    HW218240   5.640   5.670   3.189
 5781SOL     OW18241   1.156   4.096   4.340
 5781SOL    HW118242   1.119   4.009   4.371
 5781SOL    HW218243   1.248   4.108   4.377
 5782SOL     OW18244   1.606   1.015   0.979
 5782SOL    HW118245   1.516   1.049   1.007
 5782SOL    HW218246   1.669   1.020   1.057
 5783SOL     OW18247   2.062   1.119   0.811
 5783SOL    HW118248   1.966   1.138   0.831
 5783SOL    HW218249   2.106   1.083   0.893
 5784SOL     OW18250   0.257   6.499   6.598
 5784SOL    HW118251   0.228   6.549   6.680
 5784SOL    HW218252   0.234   6.552   6.516
 5785SOL     OW18253   2.216   2.080   1.371
 5785SOL    HW118254   2.249   2.075   1.465
 5785SOL    HW218255   2.141   2.015   1.359
 5786SOL     OW18256   1.035   4.155   0.752
 5786SOL    HW118257   1.046   4.254   0.741
 5786SOL    HW218258   1.055   4.110   0.665
 5787SOL     OW18259   4.553   2.630   4.895
 5787SOL    HW118260   4.546   2.611   4.797
 5787SOL    HW218261   4.623   2.571   4.935
 5788SOL     OW18262   3.441   0.591   1.730
 5788SOL    HW118263   3.453   0.498   1.764
 5788SOL    HW218264   3.346   0.604   1.700
 5789SOL     OW18265   3.302   3.018   6.003
 5789SOL    HW118266   3.274   2.927   5.973
 5789SOL    HW218267   3.399   3.018   6.026
 5790SOL     OW18268   7.019   5.307   4.931
 5790SOL    HW118269   7.002   5.297   5.029
 5790SOL    HW218270   0.089   5.340   4.916
 5791SOL     OW18271   3.029   2.057   2.531
 5791SOL    HW118272   2.942   2.020   2.498
 5791SOL    HW218273   3.065   2.122   2.464
 5792SOL     OW18274   5.308   3.884   2.479
 5792SOL    HW118275   5.356   3.834   2.407
 5792SOL    HW218276   5.303   3.828   2.561
 5793SOL     OW18277   5.520   0.592   4.948
 5793SOL    HW118278   5.560   0.563   4.861
 5793SOL    HW218279   5.448   0.528   4.975
 5794SOL     OW18280   3.203   0.080   6.769
 5794SOL    HW118281   3.300   0.093   6.789
 5794SOL    HW218282   3.188   7.009   6.739
 5795SOL     OW18283   0.149   0.102   0.663
 5795SOL    HW118284   0.240   0.099   0.620
 5795SOL    HW218285   0.096   0.177   0.623
 5796SOL     OW18286   4.564   0.625   6.750
 5796SOL    HW118287   4.558   0.629   6.650
 5796SOL    HW218288   4.507   0.698   6.789
 5797SOL     OW18289   5.328   1.413   0.427
 5797SOL    HW118290   5.394   1.402   0.501
 5797SOL    HW218291   5.259   1.479   0.454
 5798SOL     OW18292   6.973   3.857   4.384
 5798SOL    HW118293   6.976   3.846   4.285
 5798SOL    HW218294   0.027   3.913   4.414
 5799SOL     OW18295   0.204   0.403   3.756
 5799SOL    HW118296   0.157   0.487   3.784
 5799SOL    HW218297   0.225   0.409   3.658
 5800SOL     OW18298   0.689   0.250   1.679
 5800SOL    HW118299   0.620   0.178   1.666
 5800SOL    HW218300   0.667   0.303   1.761
 5801SOL     OW18301   2.163   2.440   3.664
 5801SOL    HW118302   2.108   2.373   3.714
 5801SOL    HW218303   2.249   2.455   3.712
 5802SOL     OW18304   6.409   3.279   2.595
 5802SOL    HW118305   6.421   3.288   2.496
 5802SOL    HW218306   6.321   3.235   2.614
 5803SOL     OW18307   1.330   5.174   3.763
 5803SOL    HW118308   1.312   5.272   3.762
 5803SOL    HW218309   1.394   5.152   3.689
 5804SOL     OW18310   6.464   6.071   3.441
 5804SOL    HW118311   6.510   6.047   3.356
 5804SOL    HW218312   6.484   6.167   3.464
 5805SOL     OW18313   1.195   2.799   0.683
 5805SOL    HW118314   1.282   2.837   0.714
 5805SOL    HW218315   1.210   2.709   0.642
 5806SOL     OW18316   6.795   4.814   5.027
 5806SOL    HW118317   6.845   4.828   4.942
 5806SOL    HW218318   6.699   4.834   5.013
 5807SOL     OW18319   1.398   5.335   1.140
 5807SOL    HW118320   1.370   5.251   1.188
 5807SOL    HW218321   1.326   5.404   1.149
 5808SOL     OW18322   6.568   7.008   4.801
 5808SOL    HW118323   6.540   6.992   4.896
 5808SOL    HW218324   6.576   6.921   4.753
 5809SOL     OW18325   6.181   2.315   5.616
 5809SOL    HW118326   6.118   2.238   5.630
 5809SOL    HW218327   6.148   2.394   5.669
 5810SOL     OW18328   4.297   1.502   5.776
 5810SOL    HW118329   4.351   1.483   5.858
 5810SOL    HW218330   4.345   1.569   5.720
 5811SOL     OW18331   3.089   1.793   5.637
 5811SOL    HW118332   3.019   1.724   5.656
 5811SOL    HW218333   3.060   1.849   5.559
 5812SOL     OW18334   4.802   3.399   6.120
 5812SOL    HW118335   4.705   3.376   6.135
 5812SOL    HW218336   4.852   3.317   6.094
 5813SOL     OW18337   2.595   0.087   0.881
 5813SOL    HW118338   2.512   0.060   0.833
 5813SOL    HW218339   2.643   0.005   0.912
 5814SOL     OW18340   0.148   2.901   2.089
 5814SOL    HW118341   0.219   2.843   2.128
 5814SOL    HW218342   0.191   2.974   2.036
 5815SOL     OW18343   4.763   1.854   4.248
 5815SOL    HW118344   4.671   1.893   4.239
 5815SOL    HW218345   4.822   1.892   4.176
 5816SOL     OW18346   6.585   4.709   0.803
 5816SOL    HW118347   6.496   4.681   0.767
 5816SOL    HW218348   6.650   4.633   0.795
 5817SOL     OW18349   6.001   5.254   5.718
 5817SOL    HW118350   5.904   5.237   5.737
 5817SOL    HW218351   6.049   5.167   5.710
 5818SOL     OW18352   6.808   5.704   5.379
 5818SOL    HW118353   6.888   5.721   5.437
 5818SOL    HW218354   6.838   5.666   5.292
 5819SOL     OW18355   3.160   5.227   6.667
 5819SOL    HW118356   3.164   5.305   6.729
 5819SOL    HW218357   3.082   5.236   6.606
 5820SOL     OW18358   4.437   4.500   2.521
 5820SOL    HW118359   4.354   4.512   2.466
 5820SOL    HW218360   4.515   4.483   2.461
 5821SOL     OW18361   6.755   0.716   1.207
 5821SOL    HW118362   6.753   0.710   1.306
 5821SOL    HW218363   6.714   0.634   1.167
 5822SOL     OW18364   1.606   2.653   1.680
 5822SOL    HW118365   1.630   2.605   1.596
 5822SOL    HW218366   1.539   2.724   1.660
 5823SOL     OW18367   2.637   6.800   4.870
 5823SOL    HW118368   2.682   6.889   4.879
 5823SOL    HW218369   2.676   6.736   4.937
 5824SOL     OW18370   0.645   6.260   3.402
 5824SOL    HW118371   0.601   6.317   3.471
 5824SOL    HW218372   0.668   6.315   3.322
 5825SOL     OW18373   0.301   6.065   5.245
 5825SOL    HW118374   0.393   6.062   5.206
 5825SOL    HW218375   0.306   6.095   5.340
 5826SOL     OW18376   0.676   6.189   6.047
 5826SOL    HW118377   0.710   6.267   5.995
 5826SOL    HW218378   0.732   6.108   6.027
 5827SOL     OW18379   1.265   3.388   4.970
 5827SOL    HW118380   1.307   3.368   4.882
 5827SOL    HW218381   1.179   3.438   4.956
 5828SOL     OW18382   4.822   1.354   2.949
 5828SOL    HW118383   4.775   1.400   2.875
 5828SOL    HW218384   4.920   1.354   2.932
 5829SOL     OW18385   1.409   0.852   4.726
 5829SOL    HW118386   1.463   0.843   4.809
 5829SOL    HW218387   1.312   0.859   4.749
 5830SOL     OW18388   4.445   0.030   5.229
 5830SOL    HW118389   4.416   0.121   5.200
 5830SOL    HW218390   4.540   0.014   5.201
 5831SOL     OW18391   1.458   1.500   6.026
 5831SOL    HW118392   1.416   1.456   5.946
 5831SOL    HW218393   1.552   1.526   6.005
 5832SOL     OW18394   3.852   3.958   0.629
 5832SOL    HW118395   3.888   4.033   0.573
 5832SOL    HW218396   3.754   3.949   0.614
 5833SOL     OW18397   3.927   3.210   5.334
 5833SOL    HW118398   3.961   3.287   5.390
 5833SOL    HW218399   3.829   3.222   5.317
 5834SOL     OW18400   6.688   4.294   6.477
 5834SOL    HW118401   6.627   4.245   6.414
 5834SOL    HW218402   6.639   4.317   6.561
 5835SOL     OW18403   6.185   1.967   2.841
 5835SOL    HW118404   6.161   2.018   2.759
 5835SOL    HW218405   6.205   1.872   2.817
 5836SOL     OW18406   2.936   6.672   2.245
 5836SOL    HW118407   2.912   6.764   2.275
 5836SOL    HW218408   2.991   6.677   2.162
 5837SOL     OW18409   3.825   3.530   6.856
 5837SOL    HW118410   3.906   3.581   6.884
 5837SOL    HW218411   3.768   3.512   6.937
 5838SOL     OW18412   3.073   1.873   1.433
 5838SOL    HW118413   3.134   1.849   1.509
 5838SOL    HW218414   3.122   1.930   1.367
 5839SOL     OW18415   0.887   2.056   0.625
 5839SOL    HW118416   0.855   2.061   0.720
 5839SOL    HW218417   0.809   2.041   0.564
 5840SOL     OW18418   0.518   3.974   1.037
 5840SOL    HW118419   0.601   4.018   1.071
 5840SOL    HW218420   0.479   4.029   0.963
 5841SOL     OW18421   5.354   0.750   1.745
 5841SOL    HW118422   5.274   0.768   1.803
 5841SOL    HW218423   5.328   0.687   1.672
 5842SOL     OW18424   4.828   2.440   2.136
 5842SOL    HW118425   4.806   2.394   2.051
 5842SOL    HW218426   4.744   2.470   2.181
 5843SOL     OW18427   1.329   4.253   1.607
 5843SOL    HW118428   1.322   4.293   1.516
 5843SOL    HW218429   1.280   4.165   1.609
 5844SOL     OW18430   1.203   5.964   5.259
 5844SOL    HW118431   1.245   5.966   5.350
 5844SOL    HW218432   1.260   6.016   5.195
 5845SOL     OW18433   1.275   0.195   2.005
 5845SOL    HW118434   1.199   0.251   2.036
 5845SOL    HW218435   1.324   0.242   1.932
 5846SOL     OW18436   5.491   3.383   5.600
 5846SOL    HW118437   5.463   3.399   5.506
 5846SOL    HW218438   5.471   3.289   5.626
 5847SOL     OW18439   2.655   2.515   1.814
 5847SOL    HW118440   2.659   2.534   1.715
 5847SOL    HW218441   2.743   2.536   1.855
 5848SOL     OW18442   1.516   5.505   3.513
 5848SOL    HW118443   1.592   5.560   3.548
 5848SOL    HW218444   1.465   5.558   3.445
 5849SOL     OW18445   2.096   6.662   5.023
 5849SOL    HW118446   2.152   6.739   5.055
 5849SOL    HW218447   2.148   6.577   5.032
 5850SOL     OW18448   0.120   3.360   2.093
 5850SOL    HW118449   0.038   3.329   2.045
 5850SOL    HW218450   0.099   3.374   2.190
 5851SOL     OW18451   5.204   3.927   4.277
 5851SOL    HW118452   5.240   3.835   4.294
 5851SOL    HW218453   5.211   3.947   4.179
 5852SOL     OW18454   4.837   6.006   2.697
 5852SOL    HW118455   4.832   6.093   2.745
 5852SOL    HW218456   4.751   5.956   2.709
 5853SOL     OW18457   4.269   5.017   5.943
 5853SOL    HW118458   4.240   5.004   5.848
 5853SOL    HW218459   4.356   4.970   5.958
 5854SOL     OW18460   4.306   4.532   5.769
 5854SOL    HW118461   4.321   4.456   5.706
 5854SOL    HW218462   4.380   4.599   5.759
 5855SOL     OW18463   1.256   1.576   4.817
 5855SOL    HW118464   1.272   1.542   4.724
 5855SOL    HW218465   1.218   1.503   4.873
 5856SOL     OW18466   1.312   6.504   3.096
 5856SOL    HW118467   1.407   6.508   3.126
 5856SOL    HW218468   1.262   6.440   3.154
 5857SOL     OW18469   6.554   3.656   5.561
 5857SOL    HW118470   6.571   3.559   5.539
 5857SOL    HW218471   6.509   3.662   5.650
 5858SOL     OW18472   2.290   2.500   3.223
 5858SOL    HW118473   2.338   2.553   3.153
 5858SOL    HW218474   2.258   2.414   3.184
 5859SOL     OW18475   6.483   6.230   1.185
 5859SOL    HW118476   6.460   6.132   1.181
 5859SOL    HW218477   6.404   6.281   1.219
 5860SOL     OW18478   0.579   4.958   2.896
 5860SOL    HW118479   0.552   4.893   2.825
 5860SOL    HW218480   0.632   5.033   2.855
 5861SOL     OW18481   5.270   0.897   4.389
 5861SOL    HW118482   5.367   0.905   4.411
 5861SOL    HW218483   5.254   0.925   4.295
 5862SOL     OW18484   6.128   5.222   1.805
 5862SOL    HW118485   6.212   5.168   1.811
 5862SOL    HW218486   6.105   5.257   1.895
 5863SOL     OW18487   2.800   2.065   4.835
 5863SOL    HW118488   2.798   1.975   4.792
 5863SOL    HW218489   2.853   2.061   4.919
 5864SOL     OW18490   3.285   3.285   2.242
 5864SOL    HW118491   3.380   3.306   2.267
 5864SOL    HW218492   3.224   3.355   2.279
 5865SOL     OW18493   5.673   0.975   5.123
 5865SOL    HW118494   5.699   1.056   5.070
 5865SOL    HW218495   5.620   1.004   5.203
 5866SOL     OW18496   3.113   2.914   1.129
 5866SOL    HW118497   3.018   2.943   1.128
 5866SOL    HW218498   3.125   2.833   1.073
 5867SOL     OW18499   1.841   3.081   1.382
 5867SOL    HW118500   1.769   3.069   1.314
 5867SOL    HW218501   1.817   3.031   1.465
 5868SOL     OW18502   1.237   1.638   6.016
 5868SOL    HW118503   1.247   1.607   5.921
 5868SOL    HW218504   1.325   1.629   6.063
 5869SOL     OW18505   1.927   4.515   2.808
 5869SOL    HW118506   1.870   4.433   2.800
 5869SOL    HW218507   2.020   4.487   2.832
 5870SOL     OW18508   4.731   6.421   4.985
 5870SOL    HW118509   4.631   6.417   4.977
 5870SOL    HW218510   4.770   6.331   4.963
 5871SOL     OW18511   3.848   3.219   1.918
 5871SOL    HW118512   3.869   3.229   1.821
 5871SOL    HW218513   3.786   3.141   1.931
 5872SOL     OW18514   4.261   6.849   1.054
 5872SOL    HW118515   4.204   6.881   1.130
 5872SOL    HW218516   4.282   6.926   0.994
 5873SOL     OW18517   3.408   6.431   2.306
 5873SOL    HW118518   3.318   6.441   2.348
 5873SOL    HW218519   3.473   6.396   2.375
 5874SOL     OW18520   2.316   4.277   4.650
 5874SOL    HW118521   2.380   4.308   4.579
 5874SOL    HW218522   2.327   4.335   4.731
 5875SOL     OW18523   3.760   1.866   0.585
 5875SOL    HW118524   3.859   1.875   0.580
 5875SOL    HW218525   3.736   1.773   0.613
 5876SOL     OW18526   4.087   3.533   1.644
 5876SOL    HW118527   4.092   3.529   1.744
 5876SOL    HW218528   4.136   3.614   1.611
 5877SOL     OW18529   6.262   6.453   0.991
 5877SOL    HW118530   6.316   6.528   1.027
 5877SOL    HW218531   6.322   6.383   0.953
 5878SOL     OW18532   0.155   5.857   4.277
 5878SOL    HW118533   0.066   5.817   4.252
 5878SOL    HW218534   0.161   5.950   4.240
 5879SOL     OW18535   1.448   4.117   0.102
 5879SOL    HW118536   1.460   4.158   0.193
 5879SOL    HW218537   1.356   4.080   0.095
 5880SOL     OW18538   4.236   3.808   0.307
 5880SOL    HW118539   4.331   3.836   0.292
 5880SOL    HW218540   4.177   3.889   0.308
 5881SOL     OW18541   0.483   5.445   3.134
 5881SOL    HW118542   0.413   5.405   3.076
 5881SOL    HW218543   0.442   5.516   3.192
 5882SOL     OW18544   0.154   6.392   1.077
 5882SOL    HW118545   0.148   6.466   1.010
 5882SOL    HW218546   0.181   6.307   1.031
 5883SOL     OW18547   0.842   1.882   6.717
 5883SOL    HW118548   0.884   1.820   6.651
 5883SOL    HW218549   0.890   1.876   6.804
 5884SOL     OW18550   2.916   1.707   4.424
 5884SOL    HW118551   2.968   1.737   4.344
 5884SOL    HW218552   2.877   1.787   4.470
 5885SOL     OW18553   0.458   0.380   2.538
 5885SOL    HW118554   0.401   0.320   2.595
 5885SOL    HW218555   0.526   0.425   2.595
 5886SOL     OW18556   0.299   2.510   4.808
 5886SOL    HW118557   0.277   2.603   4.836
 5886SOL    HW218558   0.267   2.446   4.877
 5887SOL     OW18559   2.821   1.160   3.455
 5887SOL    HW118560   2.743   1.132   3.512
 5887SOL    HW218561   2.905   1.151   3.508
 5888SOL     OW18562   3.399   0.924   1.879
 5888SOL    HW118563   3.412   1.019   1.850
 5888SOL    HW218564   3.480   0.871   1.856
 5889SOL     OW18565   1.065   6.398   1.210
 5889SOL    HW118566   0.969   6.371   1.222
 5889SOL    HW218567   1.069   6.489   1.170
 5890SOL     OW18568   1.746   0.269   4.498
 5890SOL    HW118569   1.651   0.257   4.469
 5890SOL    HW218570   1.798   0.313   4.425
 5891SOL     OW18571   3.125   3.212   5.905
 5891SOL    HW118572   3.067   3.161   5.841
 5891SOL    HW218573   3.205   3.156   5.929
 5892SOL     OW18574   0.314   5.480   1.250
 5892SOL    HW118575   0.381   5.510   1.182
 5892SOL    HW218576   0.363   5.449   1.332
 5893SOL     OW18577   1.574   4.326   4.659
 5893SOL    HW118578   1.663   4.370   4.673
 5893SOL    HW218579   1.506   4.373   4.715
 5894SOL     OW18580   6.670   5.542   4.429
 5894SOL    HW118581   6.654   5.635   4.463
 5894SOL    HW218582   6.607   5.524   4.353
 5895SOL     OW18583   5.198   3.317   4.503
 5895SOL    HW118584   5.253   3.297   4.584
 5895SOL    HW218585   5.222   3.254   4.429
 5896SOL     OW18586   4.403   0.916   0.302
 5896SOL    HW118587   4.385   0.849   0.230
 5896SOL    HW218588   4.317   0.946   0.342
 5897SOL     OW18589   3.752   0.540   1.323
 5897SOL    HW118590   3.748   0.484   1.405
 5897SOL    HW218591   3.725   0.634   1.344
 5898SOL     OW18592   2.555   6.611   3.031
 5898SOL    HW118593   2.487   6.542   3.006
 5898SOL    HW218594   2.646   6.568   3.035
 5899SOL     OW18595   5.144   6.700   5.859
 5899SOL    HW118596   5.070   6.756   5.896
 5899SOL    HW218597   5.231   6.748   5.870
 5900SOL     OW18598   5.034   5.108   3.571
 5900SOL    HW118599   4.939   5.106   3.601
 5900SOL    HW218600   5.052   5.195   3.525
 5901SOL     OW18601   2.542   0.488   0.103
 5901SOL    HW118602   2.473   0.417   0.116
 5901SOL    HW218603   2.628   0.446   0.072
 5902SOL     OW18604   6.709   2.325   6.149
 5902SOL    HW118605   6.746   2.397   6.090
 5902SOL    HW218606   6.780   2.258   6.168
 5903SOL     OW18607   4.055   3.798   0.668
 5903SOL    HW118608   4.116   3.874   0.694
 5903SOL    HW218609   3.981   3.832   0.610
 5904SOL     OW18610   1.041   3.678   2.007
 5904SOL    HW118611   0.984   3.620   1.948
 5904SOL    HW218612   0.988   3.705   2.088
 5905SOL     OW18613   6.258   6.220   3.049
 5905SOL    HW118614   6.211   6.308   3.055
 5905SOL    HW218615   6.191   6.148   3.029
 5906SOL     OW18616   4.310   1.865   3.586
 5906SOL    HW118617   4.233   1.902   3.637
 5906SOL    HW218618   4.355   1.938   3.534
 5907SOL     OW18619   1.400   4.894   1.354
 5907SOL    HW118620   1.366   4.954   1.427
 5907SOL    HW218621   1.436   4.950   1.279
 5908SOL     OW18622   0.392   2.788   6.523
 5908SOL    HW118623   0.469   2.743   6.568
 5908SOL    HW218624   0.420   2.878   6.489
 5909SOL     OW18625   6.780   5.297   0.885
 5909SOL    HW118626   6.830   5.228   0.833
 5909SOL    HW218627   6.751   5.259   0.972
 5910SOL     OW18628   0.471   3.294   3.981
 5910SOL    HW118629   0.420   3.245   3.911
 5910SOL    HW218630   0.441   3.266   4.071
 5911SOL     OW18631   6.258   6.640   6.514
 5911SOL    HW118632   6.305   6.643   6.601
 5911SOL    HW218633   6.163   6.669   6.527
 5912SOL     OW18634   0.236   0.518   5.719
 5912SOL    HW118635   0.331   0.502   5.694
 5912SOL    HW218636   0.184   0.545   5.637
 5913SOL     OW18637   4.832   2.669   6.160
 5913SOL    HW118638   4.830   2.605   6.237
 5913SOL    HW218639   4.886   2.749   6.184
 5914SOL     OW18640   1.398   5.339   0.110
 5914SOL    HW118641   1.467   5.410   0.099
 5914SOL    HW218642   1.328   5.349   0.039
 5915SOL     OW18643   4.464   5.839   1.146
 5915SOL    HW118644   4.539   5.833   1.080
 5915SOL    HW218645   4.493   5.893   1.225
 5916SOL     OW18646   6.220   6.459   3.664
 5916SOL    HW118647   6.274   6.429   3.743
 5916SOL    HW218648   6.211   6.383   3.600
 5917SOL     OW18649   3.503   4.169   4.171
 5917SOL    HW118650   3.600   4.158   4.193
 5917SOL    HW218651   3.452   4.191   4.254
 5918SOL     OW18652   2.395   4.535   5.373
 5918SOL    HW118653   2.395   4.436   5.387
 5918SOL    HW218654   2.489   4.567   5.361
 5919SOL     OW18655   3.705   2.901   3.394
 5919SOL    HW118656   3.769   2.963   3.441
 5919SOL    HW218657   3.717   2.909   3.295
 5920SOL     OW18658   4.966   0.829   6.216
 5920SOL    HW118659   4.962   0.775   6.132
 5920SOL    HW218660   5.027   0.785   6.281
 5921SOL     OW18661   4.128   5.193   6.766
 5921SOL    HW118662   4.036   5.232   6.765
 5921SOL    HW218663   4.191   5.257   6.810
 5922SOL     OW18664   5.809   3.574   4.119
 5922SOL    HW118665   5.868   3.586   4.199
 5922SOL    HW218666   5.716   3.600   4.143
 5923SOL     OW18667   0.021   1.857   1.886
 5923SOL    HW118668   0.006   1.889   1.792
 5923SOL    HW218669   6.970   1.796   1.913
 5924SOL     OW18670   6.788   0.090   2.763
 5924SOL    HW118671   6.740   0.174   2.787
 5924SOL    HW218672   6.863   0.112   2.699
 5925SOL     OW18673   3.832   6.709   1.629
 5925SOL    HW118674   3.740   6.675   1.648
 5925SOL    HW218675   3.892   6.687   1.706
 5926SOL     OW18676   3.659   5.023   2.550
 5926SOL    HW118677   3.719   4.943   2.553
 5926SOL    HW218678   3.606   5.022   2.465
 5927SOL     OW18679   1.090   4.984   2.266
 5927SOL    HW118680   1.121   4.987   2.361
 5927SOL    HW218681   0.997   4.946   2.262
 5928SOL     OW18682   3.245   6.691   1.043
 5928SOL    HW118683   3.241   6.614   1.106
 5928SOL    HW218684   3.340   6.717   1.027
 5929SOL     OW18685   6.252   0.785   6.128
 5929SOL    HW118686   6.284   0.691   6.112
 5929SOL    HW218687   6.172   0.783   6.187
 5930SOL     OW18688   6.975   3.947   3.251
 5930SOL    HW118689   0.024   3.983   3.191
 5930SOL    HW218690   7.016   3.882   3.316
 5931SOL     OW18691   6.334   6.546   2.882
 5931SOL    HW118692   6.414   6.526   2.939
 5931SOL    HW218693   6.364   6.577   2.792
 5932SOL     OW18694   3.251   6.943   0.710
 5932SOL    HW118695   3.207   6.878   0.647
 5932SOL    HW218696   3.350   6.936   0.700
 5933SOL     OW18697   6.463   4.946   4.137
 5933SOL    HW118698   6.374   4.923   4.099
 5933SOL    HW218699   6.452   4.973   4.233
 5934SOL     OW18700   3.384   2.848   5.059
 5934SOL    HW118701   3.326   2.790   5.117
 5934SOL    HW218702   3.480   2.835   5.084
 5935SOL     OW18703   6.960   5.351   6.240
 5935SOL    HW118704   6.912   5.271   6.276
 5935SOL    HW218705   6.895   5.426   6.228
 5936SOL     OW18706   3.204   2.628   1.258
 5936SOL    HW118707   3.105   2.624   1.241
 5936SOL    HW218708   3.227   2.718   1.295
 5937SOL     OW18709   6.221   3.251   1.810
 5937SOL    HW118710   6.228   3.191   1.890
 5937SOL    HW218711   6.166   3.331   1.833
 5938SOL     OW18712   6.590   5.890   3.580
 5938SOL    HW118713   6.545   5.887   3.669
 5938SOL    HW218714   6.540   5.953   3.520
 5939SOL     OW18715   2.001   5.639   3.251
 5939SOL    HW118716   1.992   5.666   3.347
 5939SOL    HW218717   2.063   5.702   3.205
 5940SOL     OW18718   4.743   5.163   2.506
 5940SOL    HW118719   4.657   5.165   2.456
 5940SOL    HW218720   4.808   5.226   2.464
 5941SOL     OW18721   5.893   3.638   2.023
 5941SOL    HW118722   5.823   3.601   2.084
 5941SOL    HW218723   5.878   3.736   2.010
 5942SOL     OW18724   4.921   3.391   0.022
 5942SOL    HW118725   4.860   3.325   7.001
 5942SOL    HW218726   4.886   3.484   0.007
 5943SOL     OW18727   3.397   3.914   6.138
 5943SOL    HW118728   3.465   3.850   6.104
 5943SOL    HW218729   3.312   3.904   6.085
 5944SOL     OW18730   6.931   2.319   6.998
 5944SOL    HW118731   0.001   2.306   6.964
 5944SOL    HW218732   6.914   2.258   0.052
 5945SOL     OW18733   6.444   4.863   5.040
 5945SOL    HW118734   6.473   4.816   4.956
 5945SOL    HW218735   6.434   4.797   5.114
 5946SOL     OW18736   3.153   3.568   6.062
 5946SOL    HW118737   3.125   3.573   5.966
 5946SOL    HW218738   3.072   3.561   6.120
 5947SOL     OW18739   3.825   3.425   3.367
 5947SOL    HW118740   3.894   3.417   3.295
 5947SOL    HW218741   3.860   3.485   3.439
 5948SOL     OW18742   4.307   4.793   2.679
 5948SOL    HW118743   4.328   4.725   2.749
 5948SOL    HW218744   4.240   4.755   2.615
 5949SOL     OW18745   5.173   4.420   1.653
 5949SOL    HW118746   5.253   4.478   1.668
 5949SOL    HW218747   5.147   4.376   1.739
 5950SOL     OW18748   5.359   1.557   5.178
 5950SOL    HW118749   5.298   1.630   5.147
 5950SOL    HW218750   5.304   1.476   5.200
 5951SOL     OW18751   1.610   5.007   4.154
 5951SOL    HW118752   1.548   5.041   4.082
 5951SOL    HW218753   1.566   4.932   4.202
 5952SOL     OW18754   5.361   5.722   3.647
 5952SOL    HW118755   5.338   5.817   3.625
 5952SOL    HW218756   5.331   5.701   3.740
 5953SOL     OW18757   6.563   3.863   5.185
 5953SOL    HW118758   6.466   3.877   5.204
 5953SOL    HW218759   6.614   3.857   5.271
 5954SOL     OW18760   6.187   5.758   5.959
 5954SOL    HW118761   6.140   5.796   5.879
 5954SOL    HW218762   6.132   5.685   5.999
 5955SOL     OW18763   4.450   5.368   1.795
 5955SOL    HW118764   4.430   5.274   1.823
 5955SOL    HW218765   4.516   5.409   1.858
 5956SOL     OW18766   4.728   2.449   4.088
 5956SOL    HW118767   4.707   2.425   4.183
 5956SOL    HW218768   4.824   2.478   4.082
 5957SOL     OW18769   3.181   1.158   4.609
 5957SOL    HW118770   3.091   1.196   4.589
 5957SOL    HW218771   3.184   1.063   4.580
 5958SOL     OW18772   4.565   0.190   2.846
 5958SOL    HW118773   4.537   0.157   2.755
 5958SOL    HW218774   4.505   0.265   2.873
 5959SOL     OW18775   4.471   2.873   5.627
 5959SOL    HW118776   4.416   2.840   5.549
 5959SOL    HW218777   4.551   2.922   5.592
 5960SOL     OW18778   4.256   5.219   5.045
 5960SOL    HW118779   4.176   5.160   5.051
 5960SOL    HW218780   4.226   5.315   5.041
 5961SOL     OW18781   4.440   2.303   2.952
 5961SOL    HW118782   4.427   2.337   2.859
 5961SOL    HW218783   4.363   2.244   2.977
 5962SOL     OW18784   6.209   6.354   6.551
 5962SOL    HW118785   6.148   6.433   6.544
 5962SOL    HW218786   6.271   6.367   6.628
 5963SOL     OW18787   2.965   3.650   6.328
 5963SOL    HW118788   2.996   3.733   6.374
 5963SOL    HW218789   2.988   3.570   6.384
 5964SOL     OW18790   1.396   6.644   4.876
 5964SOL    HW118791   1.484   6.654   4.923
 5964SOL    HW218792   1.351   6.734   4.870
 5965SOL     OW18793   1.671   1.875   6.982
 5965SOL    HW118794   1.671   1.792   0.015
 5965SOL    HW218795   1.589   1.929   7.003
 5966SOL     OW18796   2.585   5.899   6.175
 5966SOL    HW118797   2.664   5.905   6.113
 5966SOL    HW218798   2.617   5.908   6.269
 5967SOL     OW18799   2.718   0.001   6.049
 5967SOL    HW118800   2.649   0.071   6.068
 5967SOL    HW218801   2.673   6.935   6.039
 5968SOL     OW18802   5.127   2.362   0.384
 5968SOL    HW118803   5.198   2.298   0.413
 5968SOL    HW218804   5.079   2.396   0.464
 5969SOL     OW18805   6.099   0.447   6.848
 5969SOL    HW118806   6.081   0.537   6.887
 5969SOL    HW218807   6.032   0.428   6.776
 5970SOL     OW18808   0.274   4.403   2.415
 5970SOL    HW118809   0.352   4.348   2.443
 5970SOL    HW218810   0.246   4.378   2.323
 5971SOL     OW18811   0.135   1.100   2.013
 5971SOL    HW118812   0.181   1.107   2.102
 5971SOL    HW218813   0.063   1.168   2.007
 5972SOL     OW18814   4.969   5.931   6.700
 5972SOL    HW118815   4.896   6.000   6.699
 5972SOL    HW218816   4.965   5.877   6.616
 5973SOL     OW18817   1.804   3.000   1.988
 5973SOL    HW118818   1.889   2.961   2.024
 5973SOL    HW218819   1.735   2.928   1.978
 5974SOL     OW18820   5.678   5.890   0.023
 5974SOL    HW118821   5.757   5.946   7.021
 5974SOL    HW218822   5.598   5.948   0.039
 5975SOL     OW18823   3.856   6.745   0.886
 5975SOL    HW118824   3.908   6.670   0.846
 5975SOL    HW218825   3.760   6.738   0.858
 5976SOL     OW18826   3.945   2.630   6.109
 5976SOL    HW118827   3.897   2.676   6.184
 5976SOL    HW218828   3.928   2.679   6.024
 5977SOL     OW18829   1.119   6.386   0.755
 5977SOL    HW118830   1.167   6.408   0.670
 5977SOL    HW218831   1.037   6.333   0.736
 5978SOL     OW18832   3.908   5.428   1.397
 5978SOL    HW118833   3.830   5.474   1.440
 5978SOL    HW218834   3.876   5.372   1.321
 5979SOL     OW18835   6.547   0.787   3.059
 5979SOL    HW118836   6.476   0.857   3.062
 5979SOL    HW218837   6.522   0.711   3.118
 5980SOL     OW18838   3.952   3.970   1.830
 5980SOL    HW118839   4.051   3.958   1.821
 5980SOL    HW218840   3.924   4.055   1.785
 5981SOL     OW18841   5.338   1.971   0.723
 5981SOL    HW118842   5.325   1.883   0.768
 5981SOL    HW218843   5.283   1.975   0.639
 5982SOL     OW18844   6.514   2.193   1.766
 5982SOL    HW118845   6.487   2.130   1.693
 5982SOL    HW218846   6.582   2.148   1.824
 5983SOL     OW18847   1.161   1.262   4.244
 5983SOL    HW118848   1.070   1.300   4.229
 5983SOL    HW218849   1.153   1.171   4.283
 5984SOL     OW18850   5.573   6.100   3.624
 5984SOL    HW118851   5.663   6.054   3.622
 5984SOL    HW218852   5.565   6.159   3.544
 5985SOL     OW18853   6.535   2.934   3.652
 5985SOL    HW118854   6.621   2.977   3.629
 5985SOL    HW218855   6.542   2.835   3.635
 5986SOL     OW18856   3.324   4.128   4.390
 5986SOL    HW118857   3.273   4.177   4.460
 5986SOL    HW218858   3.395   4.072   4.433
 5987SOL     OW18859   5.730   0.489   4.261
 5987SOL    HW118860   5.789   0.482   4.181
 5987SOL    HW218861   5.660   0.560   4.247
 5988SOL     OW18862   4.465   0.981   5.555
 5988SOL    HW118863   4.443   0.942   5.465
 5988SOL    HW218864   4.443   1.078   5.556
 5989SOL     OW18865   1.916   5.817   6.253
 5989SOL    HW118866   1.964   5.738   6.292
 5989SOL    HW218867   1.822   5.791   6.231
 5990SOL     OW18868   3.149   3.298   0.882
 5990SOL    HW118869   3.133   3.315   0.785
 5990SOL    HW218870   3.173   3.201   0.895
 5991SOL     OW18871   4.285   5.387   6.889
 5991SOL    HW118872   4.242   5.380   6.979
 5991SOL    HW218873   4.278   5.482   6.856
 5992SOL     OW18874   3.626   0.174   2.216
 5992SOL    HW118875   3.576   0.205   2.297
 5992SOL    HW218876   3.563   0.133   2.150
 5993SOL     OW18877   3.781   4.236   5.913
 5993SOL    HW118878   3.756   4.170   5.983
 5993SOL    HW218879   3.699   4.278   5.875
 5994SOL     OW18880   6.620   2.216   0.274
 5994SOL    HW118881   6.637   2.213   0.372
 5994SOL    HW218882   6.627   2.310   0.242
 5995SOL     OW18883   4.966   3.254   2.557
 5995SOL    HW118884   5.003   3.281   2.468
 5995SOL    HW218885   4.868   3.236   2.549
 5996SOL     OW18886   0.310   6.629   0.810
 5996SOL    HW118887   0.261   6.562   0.754
 5996SOL    HW218888   0.377   6.676   0.753
 5997SOL     OW18889   0.307   5.100   2.579
 5997SOL    HW118890   0.253   5.019   2.557
 5997SOL    HW218891   0.306   5.116   2.678
 5998SOL     OW18892   6.350   1.786   2.036
 5998SOL    HW118893   6.438   1.744   2.013
 5998SOL    HW218894   6.366   1.880   2.066
 5999SOL     OW18895   2.915   2.947   1.698
 5999SOL    HW118896   2.927   2.848   1.706
 5999SOL    HW218897   2.927   2.975   1.602
 6000SOL     OW18898   2.398   6.548   6.938
 6000SOL    HW118899   2.416   6.593   6.850
 6000SOL    HW218900   2.442   6.458   6.938
 6001SOL     OW18901   6.819   4.955   0.001
 6001SOL    HW118902   6.811   4.939   6.926
 6001SOL    HW218903   6.861   5.044   0.018
 6002SOL     OW18904   5.685   0.197   0.134
 6002SOL    HW118905   5.725   0.153   0.053
 6002SOL    HW218906   5.758   0.236   0.191
 6003SOL     OW18907   5.683   2.027   5.033
 6003SOL    HW118908   5.592   1.985   5.034
 6003SOL    HW218909   5.741   1.980   4.966
 6004SOL     OW18910   0.267   3.983   2.661
 6004SOL    HW118911   0.239   4.053   2.726
 6004SOL    HW218912   0.249   4.015   2.568
 6005SOL     OW18913   5.198   5.451   4.991
 6005SOL    HW118914   5.118   5.404   5.029
 6005SOL    HW218915   5.277   5.435   5.050
 6006SOL     OW18916   2.216   0.333   5.651
 6006SOL    HW118917   2.266   0.268   5.708
 6006SOL    HW218918   2.118   0.319   5.663
 6007SOL     OW18919   5.698   3.853   5.540
 6007SOL    HW118920   5.760   3.785   5.579
 6007SOL    HW218921   5.717   3.943   5.580
 6008SOL     OW18922   2.526   4.873   5.368
 6008SOL    HW118923   2.463   4.892   5.293
 6008SOL    HW218924   2.586   4.797   5.343
 6009SOL     OW18925   2.637   0.633   3.485
 6009SOL    HW118926   2.704   0.621   3.559
 6009SOL    HW218927   2.681   0.674   3.406
 6010SOL     OW18928   0.950   5.326   3.690
 6010SOL    HW118929   1.026   5.347   3.751
 6010SOL    HW218930   0.878   5.395   3.700
 6011SOL     OW18931   6.099   3.078   3.511
 6011SOL    HW118932   6.108   2.979   3.513
 6011SOL    HW218933   6.013   3.102   3.465
 6012SOL     OW18934   5.896   0.812   0.919
 6012SOL    HW118935   5.862   0.822   0.826
 6012SOL    HW218936   5.939   0.722   0.930
 6013SOL     OW18937   5.602   1.270   2.916
 6013SOL    HW118938   5.550   1.217   2.849
 6013SOL    HW218939   5.657   1.339   2.869
 6014SOL     OW18940   3.588   3.882   3.037
 6014SOL    HW118941   3.538   3.969   3.035
 6014SOL    HW218942   3.522   3.806   3.040
 6015SOL     OW18943   5.360   4.149   4.324
 6015SOL    HW118944   5.324   4.086   4.255
 6015SOL    HW218945   5.432   4.205   4.283
 6016SOL     OW18946   6.541   2.372   5.778
 6016SOL    HW118947   6.603   2.334   5.709
 6016SOL    HW218948   6.476   2.302   5.807
 6017SOL     OW18949   6.147   4.779   3.630
 6017SOL    HW118950   6.200   4.728   3.563
 6017SOL    HW218951   6.072   4.721   3.663
 6018SOL     OW18952   3.933   0.748   6.280
 6018SOL    HW118953   3.835   0.727   6.281
 6018SOL    HW218954   3.965   0.752   6.185
 6019SOL     OW18955   0.982   3.072   4.865
 6019SOL    HW118956   0.973   2.974   4.885
 6019SOL    HW218957   0.917   3.123   4.921
 6020SOL     OW18958   0.645   5.160   0.783
 6020SOL    HW118959   0.560   5.212   0.775
 6020SOL    HW218960   0.641   5.101   0.864
 6021SOL     OW18961   4.693   0.806   3.162
 6021SOL    HW118962   4.657   0.863   3.088
 6021SOL    HW218963   4.790   0.826   3.176
 6022SOL     OW18964   6.480   1.794   3.262
 6022SOL    HW118965   6.396   1.845   3.244
 6022SOL    HW218966   6.493   1.724   3.192
 6023SOL     OW18967   5.808   1.208   1.817
 6023SOL    HW118968   5.816   1.120   1.865
 6023SOL    HW218969   5.887   1.220   1.758
 6024SOL     OW18970   1.592   4.620   2.170
 6024SOL    HW118971   1.522   4.672   2.122
 6024SOL    HW218972   1.559   4.596   2.262
 6025SOL     OW18973   3.057   1.721   3.462
 6025SOL    HW118974   3.056   1.644   3.398
 6025SOL    HW218975   3.107   1.798   3.422
 6026SOL     OW18976   0.145   5.014   5.699
 6026SOL    HW118977   0.104   4.941   5.645
 6026SOL    HW218978   0.222   5.054   5.648
 6027SOL     OW18979   0.234   3.401   5.536
 6027SOL    HW118980   0.314   3.379   5.481
 6027SOL    HW218981   0.249   3.488   5.583
 6028SOL     OW18982   6.072   4.630   0.713
 6028SOL    HW118983   6.073   4.727   0.688
 6028SOL    HW218984   6.004   4.582   0.656
 6029SOL     OW18985   2.430   6.742   4.535
 6029SOL    HW118986   2.379   6.763   4.452
 6029SOL    HW218987   2.369   6.745   4.614
 6030SOL     OW18988   4.386   5.029   2.580
 6030SOL    HW118989   4.379   4.940   2.625
 6030SOL    HW218990   4.413   5.098   2.646
 6031SOL     OW18991   3.141   5.520   4.409
 6031SOL    HW118992   3.188   5.531   4.497
 6031SOL    HW218993   3.185   5.446   4.358
 6032SOL     OW18994   2.200   4.620   2.090
 6032SOL    HW118995   2.101   4.637   2.090
 6032SOL    HW218996   2.226   4.574   2.175
 6033SOL     OW18997   2.436   2.424   3.434
 6033SOL    HW118998   2.509   2.367   3.397
 6033SOL    HW218999   2.374   2.451   3.361
 6034SOL     OW19000   1.253   0.483   5.363
 6034SOL    HW119001   1.315   0.441   5.298
 6034SOL    HW219002   1.284   0.576   5.384
 6035SOL     OW19003   1.366   1.314   2.169
 6035SOL    HW119004   1.345   1.303   2.072
 6035SOL    HW219005   1.433   1.245   2.197
 6036SOL     OW19006   5.028   5.084   3.124
 6036SOL    HW119007   5.082   5.088   3.039
 6036SOL    HW219008   4.931   5.092   3.102
 6037SOL     OW19009   3.898   6.894   0.551
 6037SOL    HW119010   3.839   6.822   0.589
 6037SOL    HW219011   3.994   6.865   0.558
 6038SOL     OW19012   1.416   2.951   6.016
 6038SOL    HW119013   1.465   2.867   6.043
 6038SOL    HW219014   1.393   3.003   6.098
 6039SOL     OW19015   3.987   3.062   2.590
 6039SOL    HW119016   3.925   2.993   2.553
 6039SOL    HW219017   4.043   3.100   2.517
 6040SOL     OW19018   1.588   2.394   1.276
 6040SOL    HW119019   1.655   2.387   1.202
 6040SOL    HW219020   1.562   2.302   1.306
 6041SOL     OW19021   2.914   1.004   5.087
 6041SOL    HW119022   2.994   1.046   5.129
 6041SOL    HW219023   2.894   0.917   5.133
 6042SOL     OW19024   4.110   6.808   2.377
 6042SOL    HW119025   4.166   6.806   2.460
 6042SOL    HW219026   4.121   6.722   2.327
 6043SOL     OW19027   0.999   6.154   5.295
 6043SOL    HW119028   0.991   6.234   5.236
 6043SOL    HW219029   1.078   6.099   5.267
 6044SOL     OW19030   1.722   2.769   1.359
 6044SOL    HW119031   1.816   2.741   1.380
 6044SOL    HW219032   1.685   2.711   1.286
 6045SOL     OW19033   6.083   3.644   2.628
 6045SOL    HW119034   6.041   3.647   2.718
 6045SOL    HW219035   6.067   3.730   2.580
 6046SOL     OW19036   3.441   2.447   1.073
 6046SOL    HW119037   3.443   2.545   1.054
 6046SOL    HW219038   3.383   2.401   1.006
 6047SOL     OW19039   5.281   1.835   1.864
 6047SOL    HW119040   5.372   1.875   1.857
 6047SOL    HW219041   5.282   1.744   1.824
 6048SOL     OW19042   4.771   5.177   5.480
 6048SOL    HW119043   4.730   5.124   5.553
 6048SOL    HW219044   4.721   5.263   5.468
 6049SOL     OW19045   4.680   3.276   6.976
 6049SOL    HW119046   4.596   3.308   7.020
 6049SOL    HW219047   4.666   3.183   6.943
 6050SOL     OW19048   3.065   4.652   5.912
 6050SOL    HW119049   3.134   4.717   5.881
 6050SOL    HW219050   3.015   4.616   5.833
 6051SOL     OW19051   1.578   0.304   3.580
 6051SOL    HW119052   1.656   0.347   3.533
 6051SOL    HW219053   1.502   0.296   3.516
 6052SOL     OW19054   5.547   1.231   1.159
 6052SOL    HW119055   5.478   1.262   1.224
 6052SOL    HW219056   5.613   1.172   1.207
 6053SOL     OW19057   4.296   1.146   6.267
 6053SOL    HW119058   4.253   1.147   6.357
 6053SOL    HW219059   4.395   1.150   6.278
 6054SOL     OW19060   2.730   2.729   7.010
 6054SOL    HW119061   2.804   2.796   7.002
 6054SOL    HW219062   2.643   2.770   6.984
 6055SOL     OW19063   5.452   7.002   5.410
 6055SOL    HW119064   5.507   0.062   5.411
 6055SOL    HW219065   5.408   6.992   5.321
 6056SOL     OW19066   4.892   3.354   4.971
 6056SOL    HW119067   4.920   3.316   5.059
 6056SOL    HW219068   4.851   3.444   4.985
 6057SOL     OW19069   0.158   1.217   2.533
 6057SOL    HW119070   0.192   1.291   2.591
 6057SOL    HW219071   0.143   1.135   2.588
 6058SOL     OW19072   4.820   3.792   1.893
 6058SOL    HW119073   4.824   3.708   1.839
 6058SOL    HW219074   4.766   3.860   1.843
 6059SOL     OW19075   5.066   5.358   6.488
 6059SOL    HW119076   5.129   5.311   6.426
 6059SOL    HW219077   5.017   5.429   6.438
 6060SOL     OW19078   3.197   3.290   6.244
 6060SOL    HW119079   3.284   3.338   6.232
 6060SOL    HW219080   3.137   3.311   6.166
 6061SOL     OW19081   4.874   3.337   1.072
 6061SOL    HW119082   4.776   3.346   1.089
 6061SOL    HW219083   4.922   3.322   1.159
 6062SOL     OW19084   2.673   1.357   5.747
 6062SOL    HW119085   2.764   1.395   5.733
 6062SOL    HW219086   2.643   1.377   5.841
 6063SOL     OW19087   4.596   2.321   6.227
 6063SOL    HW119088   4.521   2.353   6.285
 6063SOL    HW219089   4.670   2.389   6.227
 6064SOL     OW19090   1.042   0.220   1.265
 6064SOL    HW119091   0.958   0.185   1.306
 6064SOL    HW219092   1.063   0.309   1.304
 6065SOL     OW19093   0.917   6.509   3.130
 6065SOL    HW119094   0.878   6.425   3.094
 6065SOL    HW219095   0.999   6.488   3.183
 6066SOL     OW19096   4.885   1.598   5.073
 6066SOL    HW119097   4.882   1.520   5.135
 6066SOL    HW219098   4.863   1.568   4.980
 6067SOL     OW19099   5.803   0.831   5.909
 6067SOL    HW119100   5.716   0.788   5.882
 6067SOL    HW219101   5.786   0.925   5.938
 6068SOL     OW19102   4.701   2.747   4.392
 6068SOL    HW119103   4.661   2.786   4.309
 6068SOL    HW219104   4.725   2.820   4.455
 6069SOL     OW19105   6.038   2.910   5.281
 6069SOL    HW119106   6.039   2.948   5.188
 6069SOL    HW219107   6.132   2.900   5.313
 6070SOL     OW19108   2.835   2.028   1.500
 6070SOL    HW119109   2.778   2.032   1.418
 6070SOL    HW219110   2.914   1.970   1.482
 6071SOL     OW19111   6.076   5.655   5.279
 6071SOL    HW119112   6.138   5.703   5.341
 6071SOL    HW219113   6.002   5.716   5.252
 6072SOL     OW19114   6.695   0.218   1.858
 6072SOL    HW119115   6.597   0.236   1.864
 6072SOL    HW219116   6.718   0.190   1.765
 6073SOL     OW19117   5.620   3.067   0.663
 6073SOL    HW119118   5.529   3.036   0.636
 6073SOL    HW219119   5.633   3.163   0.639
 6074SOL     OW19120   0.894   5.874   2.242
 6074SOL    HW119121   0.806   5.891   2.286
 6074SOL    HW219122   0.968   5.887   2.308
 6075SOL     OW19123   4.786   0.464   6.020
 6075SOL    HW119124   4.872   0.513   6.032
 6075SOL    HW219125   4.739   0.499   5.939
 6076SOL     OW19126   3.244   5.643   3.328
 6076SOL    HW119127   3.271   5.651   3.424
 6076SOL    HW219128   3.177   5.714   3.306
 6077SOL     OW19129   6.549   5.253   0.765
 6077SOL    HW119130   6.608   5.200   0.705
 6077SOL    HW219131   6.596   5.272   0.851
 6078SOL     OW19132   4.930   5.344   0.469
 6078SOL    HW119133   4.988   5.402   0.526
 6078SOL    HW219134   4.946   5.366   0.373
 6079SOL     OW19135   4.372   3.608   6.061
 6079SOL    HW119136   4.404   3.692   6.105
 6079SOL    HW219137   4.336   3.546   6.130
 6080SOL     OW19138   0.129   6.154   0.892
 6080SOL    HW119139   0.180   6.069   0.879
 6080SOL    HW219140   0.084   6.180   0.806
 6081SOL     OW19141   6.559   2.631   5.086
 6081SOL    HW119142   6.561   2.545   5.035
 6081SOL    HW219143   6.580   2.707   5.024
 6082SOL     OW19144   2.455   0.849   3.847
 6082SOL    HW119145   2.440   0.797   3.931
 6082SOL    HW219146   2.544   0.895   3.851
 6083SOL     OW19147   6.065   5.967   0.169
 6083SOL    HW119148   6.015   5.988   0.253
 6083SOL    HW219149   6.127   6.041   0.147
 6084SOL     OW19150   1.114   6.903   3.315
 6084SOL    HW119151   1.091   6.919   3.219
 6084SOL    HW219152   1.069   6.972   3.372
 6085SOL     OW19153   7.001   6.859   6.974
 6085SOL    HW119154   0.034   6.878   6.894
 6085SOL    HW219155   0.037   6.829   0.026
 6086SOL     OW19156   2.991   1.280   5.486
 6086SOL    HW119157   2.958   1.218   5.557
 6086SOL    HW219158   2.924   1.353   5.472
 6087SOL     OW19159   3.777   5.944   0.958
 6087SOL    HW119160   3.842   6.017   0.976
 6087SOL    HW219161   3.689   5.983   0.932
 6088SOL     OW19162   5.190   6.368   4.748
 6088SOL    HW119163   5.097   6.392   4.777
 6088SOL    HW219164   5.228   6.443   4.693
 6089SOL     OW19165   5.696   2.706   2.416
 6089SOL    HW119166   5.630   2.702   2.491
 6089SOL    HW219167   5.767   2.773   2.438
 6090SOL     OW19168   2.323   5.496   4.588
 6090SOL    HW119169   2.356   5.455   4.673
 6090SOL    HW219170   2.264   5.574   4.609
 6091SOL     OW19171   2.102   1.142   0.393
 6091SOL    HW119172   2.172   1.072   0.407
 6091SOL    HW219173   2.145   1.229   0.369
 6092SOL     OW19174   4.679   0.618   2.724
 6092SOL    HW119175   4.674   0.531   2.774
 6092SOL    HW219176   4.626   0.687   2.774
 6093SOL     OW19177   2.126   2.957   1.827
 6093SOL    HW119178   2.087   2.946   1.918
 6093SOL    HW219179   2.149   3.053   1.812
 6094SOL     OW19180   1.458   6.114   2.410
 6094SOL    HW119181   1.551   6.133   2.440
 6094SOL    HW219182   1.428   6.184   2.345
 6095SOL     OW19183   5.169   4.586   0.537
 6095SOL    HW119184   5.195   4.491   0.520
 6095SOL    HW219185   5.103   4.615   0.467
 6096SOL     OW19186   6.186   0.178   3.537
 6096SOL    HW119187   6.125   0.130   3.601
 6096SOL    HW219188   6.162   0.153   3.443
 6097SOL     OW19189   1.989   5.719   2.300
 6097SOL    HW119190   2.028   5.628   2.311
 6097SOL    HW219191   1.992   5.767   2.387
 6098SOL     OW19192   0.482   1.544   5.106
 6098SOL    HW119193   0.580   1.536   5.128
 6098SOL    HW219194   0.447   1.455   5.079
 6099SOL     OW19195   5.749   6.226   0.109
 6099SOL    HW119196   5.767   6.219   0.207
 6099SOL    HW219197   5.812   6.165   0.060
 6100SOL     OW19198   5.440   6.268   1.447
 6100SOL    HW119199   5.436   6.174   1.413
 6100SOL    HW219200   5.493   6.324   1.383
 6101SOL     OW19201   0.026   3.198   3.517
 6101SOL    HW119202   7.012   3.273   3.463
 6101SOL    HW219203   0.066   3.234   3.601
 6102SOL     OW19204   3.470   6.103   3.136
 6102SOL    HW119205   3.567   6.119   3.118
 6102SOL    HW219206   3.434   6.039   3.068
 6103SOL     OW19207   6.242   1.783   1.469
 6103SOL    HW119208   6.172   1.846   1.437
 6103SOL    HW219209   6.310   1.769   1.398
 6104SOL     OW19210   5.385   0.507   5.765
 6104SOL    HW119211   5.475   0.549   5.754
 6104SOL    HW219212   5.374   0.432   5.700
 6105SOL     OW19213   3.531   5.957   6.809
 6105SOL    HW119214   3.630   5.963   6.817
 6105SOL    HW219215   3.504   5.983   6.716
 6106SOL     OW19216   1.046   4.772   6.478
 6106SOL    HW119217   1.048   4.840   6.405
 6106SOL    HW219218   1.019   4.683   6.440
 6107SOL     OW19219   4.367   5.921   5.054
 6107SOL    HW119220   4.365   5.947   4.957
 6107SOL    HW219221   4.445   5.860   5.071
 6108SOL     OW19222   2.378   2.761   2.134
 6108SOL    HW119223   2.441   2.837   2.117
 6108SOL    HW219224   2.310   2.788   2.202
 6109SOL     OW19225   5.915   1.722   5.092
 6109SOL    HW119226   5.902   1.763   5.002
 6109SOL    HW219227   5.826   1.699   5.132
 6110SOL     OW19228   3.150   3.830   1.204
 6110SOL    HW119229   3.120   3.763   1.272
 6110SOL    HW219230   3.095   3.822   1.122
 6111SOL     OW19231   1.357   3.412   2.609
 6111SOL    HW119232   1.425   3.366   2.553
 6111SOL    HW219233   1.326   3.495   2.563
 6112SOL     OW19234   3.053   0.165   3.095
 6112SOL    HW119235   3.111   0.204   3.023
 6112SOL    HW219236   3.052   0.066   3.086
 6113SOL     OW19237   3.135   2.247   6.195
 6113SOL    HW119238   3.197   2.169   6.186
 6113SOL    HW219239   3.170   2.324   6.142
 6114SOL     OW19240   4.822   4.839   2.111
 6114SOL    HW119241   4.815   4.788   2.197
 6114SOL    HW219242   4.730   4.848   2.070
 6115SOL     OW19243   5.973   0.699   4.084
 6115SOL    HW119244   5.973   0.724   3.987
 6115SOL    HW219245   6.064   0.666   4.110
 6116SOL     OW19246   4.116   1.400   6.211
 6116SOL    HW119247   4.188   1.448   6.263
 6116SOL    HW219248   4.141   1.304   6.201
 6117SOL     OW19249   1.430   1.118   3.269
 6117SOL    HW119250   1.383   1.206   3.268
 6117SOL    HW219251   1.492   1.113   3.190
 6118SOL     OW19252   7.000   1.292   1.707
 6118SOL    HW119253   6.973   1.388   1.708
 6118SOL    HW219254   6.954   1.244   1.782
 6119SOL     OW19255   1.030   3.962   6.923
 6119SOL    HW119256   1.065   3.930   7.011
 6119SOL    HW219257   1.092   4.032   6.886
 6120SOL     OW19258   3.718   6.142   5.537
 6120SOL    HW119259   3.806   6.127   5.491
 6120SOL    HW219260   3.653   6.072   5.509
 6121SOL     OW19261   0.542   3.700   5.059
 6121SOL    HW119262   0.584   3.703   4.969
 6121SOL    HW219263   0.447   3.672   5.051
 6122SOL     OW19264   4.452   5.378   0.604
 6122SOL    HW119265   4.525   5.394   0.538
 6122SOL    HW219266   4.484   5.317   0.676
 6123SOL     OW19267   5.270   0.179   6.202
 6123SOL    HW119268   5.198   0.160   6.135
 6123SOL    HW219269   5.255   0.124   6.284
 6124SOL     OW19270   1.861   6.667   5.943
 6124SOL    HW119271   1.833   6.749   5.993
 6124SOL    HW219272   1.851   6.587   6.001
 6125SOL     OW19273   2.001   4.199   0.766
 6125SOL    HW119274   1.999   4.103   0.793
 6125SOL    HW219275   2.096   4.227   0.751
 6126SOL     OW19276   0.732   0.273   4.488
 6126SOL    HW119277   0.726   0.364   4.447
 6126SOL    HW219278   0.823   0.235   4.472
 6127SOL     OW19279   3.109   0.365   1.378
 6127SOL    HW119280   3.084   0.396   1.286
 6127SOL    HW219281   3.209   0.355   1.383
 6128SOL     OW19282   6.275   3.854   0.794
 6128SOL    HW119283   6.185   3.811   0.789
 6128SOL    HW219284   6.279   3.931   0.730
 6129SOL     OW19285   0.186   3.707   2.187
 6129SOL    HW119286   0.121   3.703   2.111
 6129SOL    HW219287   0.177   3.624   2.242
 6130SOL     OW19288   5.902   3.081   2.606
 6130SOL    HW119289   5.809   3.115   2.593
 6130SOL    HW219290   5.907   2.985   2.576
 6131SOL     OW19291   0.553   1.677   4.277
 6131SOL    HW119292   0.627   1.615   4.249
 6131SOL    HW219293   0.591   1.756   4.324
 6132SOL     OW19294   4.530   1.625   0.277
 6132SOL    HW119295   4.619   1.614   0.233
 6132SOL    HW219296   4.533   1.704   0.338
 6133SOL     OW19297   2.104   3.358   2.534
 6133SOL    HW119298   2.126   3.264   2.560
 6133SOL    HW219299   2.009   3.378   2.557
 6134SOL     OW19300   4.173   4.754   0.073
 6134SOL    HW119301   4.117   4.718   7.021
 6134SOL    HW219302   4.233   4.826   0.038
 6135SOL     OW19303   6.970   0.139   0.228
 6135SOL    HW119304   0.023   0.203   0.233
 6135SOL    HW219305   6.886   0.189   0.205
 6136SOL     OW19306   1.318   2.792   1.899
 6136SOL    HW119307   1.342   2.804   1.996
 6136SOL    HW219308   1.221   2.812   1.886
 6137SOL     OW19309   6.532   4.021   2.221
 6137SOL    HW119310   6.528   4.121   2.229
 6137SOL    HW219311   6.567   3.997   2.130
 6138SOL     OW19312   3.869   6.803   2.778
 6138SOL    HW119313   3.804   6.857   2.831
 6138SOL    HW219314   3.819   6.744   2.714
 6139SOL     OW19315   1.507   6.723   6.181
 6139SOL    HW119316   1.520   6.626   6.196
 6139SOL    HW219317   1.427   6.737   6.122
 6140SOL     OW19318   0.771   6.418   2.126
 6140SOL    HW119319   0.823   6.429   2.210
 6140SOL    HW219320   0.819   6.464   2.051
 6141SOL     OW19321   0.646   6.837   6.227
 6141SOL    HW119322   0.707   6.916   6.239
 6141SOL    HW219323   0.678   6.761   6.284
 6142SOL     OW19324   0.770   6.304   6.781
 6142SOL    HW119325   0.843   6.363   6.815
 6142SOL    HW219326   0.705   6.286   6.855
 6143SOL     OW19327   6.580   3.405   0.991
 6143SOL    HW119328   6.513   3.449   1.050
 6143SOL    HW219329   6.606   3.316   1.029
 6144SOL     OW19330   4.689   4.773   4.060
 6144SOL    HW119331   4.618   4.721   4.012
 6144SOL    HW219332   4.646   4.833   4.128
 6145SOL     OW19333   5.464   4.859   4.506
 6145SOL    HW119334   5.386   4.878   4.565
 6145SOL    HW219335   5.542   4.830   4.561
 6146SOL     OW19336   3.129   5.795   3.659
 6146SOL    HW119337   3.199   5.754   3.718
 6146SOL    HW219338   3.082   5.724   3.608
 6147SOL     OW19339   2.005   2.099   4.425
 6147SOL    HW119340   2.010   2.184   4.478
 6147SOL    HW219341   1.955   2.116   4.340
 6148SOL     OW19342   4.927   6.884   5.517
 6148SOL    HW119343   4.957   6.806   5.463
 6148SOL    HW219344   5.007   6.934   5.550
 6149SOL     OW19345   2.878   6.373   1.388
 6149SOL    HW119346   2.794   6.365   1.442
 6149SOL    HW219347   2.931   6.289   1.397
 6150SOL     OW19348   5.288   5.467   0.792
 6150SOL    HW119349   5.311   5.392   0.854
 6150SOL    HW219350   5.353   5.471   0.717
 6151SOL     OW19351   5.970   4.984   6.376
 6151SOL    HW119352   6.021   4.938   6.303
 6151SOL    HW219353   6.017   5.068   6.402
 6152SOL     OW19354   6.328   5.705   4.599
 6152SOL    HW119355   6.272   5.669   4.674
 6152SOL    HW219356   6.295   5.669   4.513
 6153SOL     OW19357   5.209   4.766   1.449
 6153SOL    HW119358   5.257   4.686   1.413
 6153SOL    HW219359   5.233   4.779   1.545
 6154SOL     OW19360   6.463   2.413   2.285
 6154SOL    HW119361   6.393   2.480   2.259
 6154SOL    HW219362   6.461   2.336   2.221
 6155SOL     OW19363   1.371   1.452   3.424
 6155SOL    HW119364   1.372   1.462   3.325
 6155SOL    HW219365   1.465   1.451   3.458
 6156SOL     OW19366   4.328   4.566   1.919
 6156SOL    HW119367   4.360   4.487   1.971
 6156SOL    HW219368   4.320   4.541   1.822
 6157SOL     OW19369   0.236   1.986   4.451
 6157SOL    HW119370   0.258   2.022   4.360
 6157SOL    HW219371   0.248   1.887   4.452
 6158SOL     OW19372   3.789   2.088   6.245
 6158SOL    HW119373   3.697   2.097   6.282
 6158SOL    HW219374   3.856   2.104   6.318
 6159SOL     OW19375   4.720   1.988   1.702
 6159SOL    HW119376   4.746   1.904   1.750
 6159SOL    HW219377   4.663   2.044   1.761
 6160SOL     OW19378   5.341   1.119   6.292
 6160SOL    HW119379   5.284   1.040   6.315
 6160SOL    HW219380   5.285   1.189   6.248
 6161SOL     OW19381   5.156   1.712   5.057
 6161SOL    HW119382   5.079   1.670   5.104
 6161SOL    HW219383   5.127   1.745   4.967
 6162SOL     OW19384   6.725   6.205   3.415
 6162SOL    HW119385   6.748   6.288   3.364
 6162SOL    HW219386   6.702   6.228   3.509
 6163SOL     OW19387   5.959   6.611   1.298
 6163SOL    HW119388   5.909   6.527   1.280
 6163SOL    HW219389   5.950   6.673   1.220
 6164SOL     OW19390   3.177   4.087   3.347
 6164SOL    HW119391   3.225   4.105   3.433
 6164SOL    HW219392   3.237   4.036   3.286
 6165SOL     OW19393   4.609   1.677   6.916
 6165SOL    HW119394   4.611   1.649   6.820
 6165SOL    HW219395   4.700   1.667   6.956
 6166SOL     OW19396   5.530   1.888   6.454
 6166SOL    HW119397   5.543   1.985   6.474
 6166SOL    HW219398   5.463   1.878   6.381
 6167SOL     OW19399   1.124   4.864   2.734
 6167SOL    HW119400   1.192   4.882   2.805
 6167SOL    HW219401   1.033   4.891   2.768
 6168SOL     OW19402   1.556   3.517   2.263
 6168SOL    HW119403   1.641   3.562   2.292
 6168SOL    HW219404   1.479   3.579   2.278
 6169SOL     OW19405   1.587   2.295   6.772
 6169SOL    HW119406   1.660   2.294   6.840
 6169SOL    HW219407   1.559   2.202   6.752
 6170SOL     OW19408   2.303   4.236   5.245
 6170SOL    HW119409   2.351   4.157   5.207
 6170SOL    HW219410   2.252   4.282   5.172
 6171SOL     OW19411   1.282   3.422   1.082
 6171SOL    HW119412   1.244   3.360   1.014
 6171SOL    HW219413   1.314   3.506   1.036
 6172SOL     OW19414   1.796   1.750   2.869
 6172SOL    HW119415   1.753   1.745   2.959
 6172SOL    HW219416   1.826   1.658   2.842
 6173SOL     OW19417   6.380   5.699   2.089
 6173SOL    HW119418   6.304   5.729   2.031
 6173SOL    HW219419   6.346   5.635   2.157
 6174SOL     OW19420   5.101   5.011   3.958
 6174SOL    HW119421   5.034   5.085   3.946
 6174SOL    HW219422   5.119   4.999   4.055
 6175SOL     OW19423   4.841   0.348   3.603
 6175SOL    HW119424   4.797   0.402   3.532
 6175SOL    HW219425   4.774   0.320   3.671
 6176SOL     OW19426   5.243   3.525   6.526
 6176SOL    HW119427   5.340   3.524   6.501
 6176SOL    HW219428   5.205   3.616   6.507
 6177SOL     OW19429   5.497   0.781   1.173
 6177SOL    HW119430   5.479   0.833   1.257
 6177SOL    HW219431   5.420   0.793   1.110
 6178SOL     OW19432   4.988   4.735   3.119
 6178SOL    HW119433   4.988   4.644   3.078
 6178SOL    HW219434   4.937   4.799   3.062
 6179SOL     OW19435   0.012   4.890   4.247
 6179SOL    HW119436   7.019   4.970   4.188
 6179SOL    HW219437   0.003   4.807   4.193
 6180SOL     OW19438   3.884   4.378   0.110
 6180SOL    HW119439   3.841   4.445   0.171
 6180SOL    HW219440   3.983   4.383   0.120
 6181SOL     OW19441   3.599   6.631   0.795
 6181SOL    HW119442   3.512   6.620   0.747
 6181SOL    HW219443   3.586   6.684   0.878
 6182SOL     OW19444   5.260   3.116   5.376
 6182SOL    HW119445   5.177   3.071   5.343
 6182SOL    HW219446   5.261   3.116   5.476
 6183SOL     OW19447   2.196   1.573   3.102
 6183SOL    HW119448   2.104   1.548   3.132
 6183SOL    HW219449   2.201   1.671   3.086
 6184SOL     OW19450   1.922   6.600   6.327
 6184SOL    HW119451   1.854   6.673   6.320
 6184SOL    HW219452   1.909   6.535   6.253
 6185SOL     OW19453   0.337   4.148   6.342
 6185SOL    HW119454   0.313   4.229   6.289
 6185SOL    HW219455   0.431   4.120   6.318
 6186SOL     OW19456   6.862   0.086   5.821
 6186SOL    HW119457   6.827   0.000   5.784
 6186SOL    HW219458   6.868   0.080   5.921
 6187SOL     OW19459   4.610   4.740   3.060
 6187SOL    HW119460   4.574   4.828   3.029
 6187SOL    HW219461   4.599   4.732   3.159
 6188SOL     OW19462   2.454   0.190   1.140
 6188SOL    HW119463   2.497   0.197   1.050
 6188SOL    HW219464   2.370   0.136   1.132
 6189SOL     OW19465   5.025   4.192   3.787
 6189SOL    HW119466   5.110   4.233   3.753
 6189SOL    HW219467   4.988   4.130   3.718
 6190SOL     OW19468   0.502   3.942   5.445
 6190SOL    HW119469   0.561   4.006   5.396
 6190SOL    HW219470   0.434   3.904   5.382
 6191SOL     OW19471   3.456   1.860   7.017
 6191SOL    HW119472   3.501   1.893   6.934
 6191SOL    HW219473   3.438   1.762   7.008
 6192SOL     OW19474   3.854   2.282   6.478
 6192SOL    HW119475   3.923   2.350   6.451
 6192SOL    HW219476   3.899   2.196   6.499
 6193SOL     OW19477   5.050   1.178   2.398
 6193SOL    HW119478   4.979   1.132   2.451
 6193SOL    HW219479   5.023   1.182   2.302
 6194SOL     OW19480   1.727   0.158   1.229
 6194SOL    HW119481   1.796   0.228   1.246
 6194SOL    HW219482   1.637   0.200   1.222
 6195SOL     OW19483   4.498   6.253   5.535
 6195SOL    HW119484   4.596   6.270   5.526
 6195SOL    HW219485   4.467   6.281   5.626
 6196SOL     OW19486   5.799   2.767   1.684
 6196SOL    HW119487   5.767   2.675   1.705
 6196SOL    HW219488   5.774   2.829   1.759
 6197SOL     OW19489   4.315   4.708   0.756
 6197SOL    HW119490   4.236   4.676   0.704
 6197SOL    HW219491   4.394   4.716   0.696
 6198SOL     OW19492   3.788   6.339   2.216
 6198SOL    HW119493   3.843   6.279   2.159
 6198SOL    HW219494   3.841   6.367   2.296
 6199SOL     OW19495   1.137   0.795   0.515
 6199SOL    HW119496   1.175   0.724   0.574
 6199SOL    HW219497   1.063   0.755   0.459
 6200SOL     OW19498   1.530   1.367   5.610
 6200SOL    HW119499   1.606   1.427   5.587
 6200SOL    HW219500   1.474   1.351   5.528
 6201SOL     OW19501   0.849   3.458   5.348
 6201SOL    HW119502   0.865   3.526   5.420
 6201SOL    HW219503   0.835   3.368   5.390
 6202SOL     OW19504   3.769   1.754   2.447
 6202SOL    HW119505   3.842   1.704   2.494
 6202SOL    HW219506   3.680   1.723   2.481
 6203SOL     OW19507   0.000   6.779   3.013
 6203SOL    HW119508   7.019   6.851   2.944
 6203SOL    HW219509   0.025   6.819   3.101
 6204SOL     OW19510   0.287   5.099   4.756
 6204SOL    HW119511   0.261   5.027   4.821
 6204SOL    HW219512   0.344   5.060   4.684
 6205SOL     OW19513   6.001   6.304   1.019
 6205SOL    HW119514   6.094   6.337   1.012
 6205SOL    HW219515   5.945   6.344   0.946
 6206SOL     OW19516   6.978   1.356   3.505
 6206SOL    HW119517   0.024   1.414   3.549
 6206SOL    HW219518   6.981   1.371   3.406
 6207SOL     OW19519   1.524   4.810   5.381
 6207SOL    HW119520   1.501   4.733   5.322
 6207SOL    HW219521   1.508   4.896   5.332
 6208SOL     OW19522   5.771   1.781   5.884
 6208SOL    HW119523   5.839   1.766   5.955
 6208SOL    HW219524   5.752   1.878   5.876
 6209SOL     OW19525   4.649   5.624   6.953
 6209SOL    HW119526   4.687   5.537   6.983
 6209SOL    HW219527   4.558   5.608   6.914
 6210SOL     OW19528   5.226   3.449   2.981
 6210SOL    HW119529   5.165   3.467   3.058
 6210SOL    HW219530   5.173   3.450   2.896
 6211SOL     OW19531   3.194   6.400   5.621
 6211SOL    HW119532   3.113   6.355   5.657
 6211SOL    HW219533   3.214   6.482   5.675
 6212SOL     OW19534   2.117   5.363   3.851
 6212SOL    HW119535   2.148   5.340   3.943
 6212SOL    HW219536   2.037   5.424   3.857
 6213SOL     OW19537   5.878   0.267   0.513
 6213SOL    HW119538   5.791   0.216   0.510
 6213SOL    HW219539   5.953   0.203   0.529
 6214SOL     OW19540   5.012   4.901   4.371
 6214SOL    HW119541   4.960   4.824   4.407
 6214SOL    HW219542   4.954   4.954   4.309
 6215SOL     OW19543   4.178   1.088   0.399
 6215SOL    HW119544   4.149   1.183   0.411
 6215SOL    HW219545   4.182   1.043   0.489
 6216SOL     OW19546   6.507   1.073   2.067
 6216SOL    HW119547   6.441   1.146   2.085
 6216SOL    HW219548   6.566   1.061   2.147
 6217SOL     OW19549   0.537   3.994   2.622
 6217SOL    HW119550   0.582   3.914   2.582
 6217SOL    HW219551   0.444   3.970   2.649
 6218SOL     OW19552   3.872   5.700   6.454
 6218SOL    HW119553   3.950   5.640   6.473
 6218SOL    HW219554   3.838   5.683   6.361
 6219SOL     OW19555   1.026   3.044   4.596
 6219SOL    HW119556   0.970   2.961   4.605
 6219SOL    HW219557   1.031   3.090   4.684
 6220SOL     OW19558   1.880   1.798   5.289
 6220SOL    HW119559   1.952   1.755   5.344
 6220SOL    HW219560   1.791   1.773   5.326
 6221SOL     OW19561   5.870   6.045   6.380
 6221SOL    HW119562   5.960   6.074   6.414
 6221SOL    HW219563   5.882   5.998   6.293
 6222SOL     OW19564   0.907   6.465   1.517
 6222SOL    HW119565   0.946   6.374   1.530
 6222SOL    HW219566   0.912   6.491   1.421
 6223SOL     OW19567   0.995   5.093   3.979
 6223SOL    HW119568   0.924   5.111   3.910
 6223SOL    HW219569   1.072   5.047   3.936
 6224SOL     OW19570   2.582   1.712   6.263
 6224SOL    HW119571   2.529   1.709   6.178
 6224SOL    HW219572   2.520   1.708   6.341
 6225SOL     OW19573   3.930   4.153   6.726
 6225SOL    HW119574   3.875   4.177   6.645
 6225SOL    HW219575   4.026   4.175   6.708
 6226SOL     OW19576   6.719   1.714   5.162
 6226SOL    HW119577   6.702   1.745   5.255
 6226SOL    HW219578   6.664   1.633   5.143
 6227SOL     OW19579   3.392   5.761   5.132
 6227SOL    HW119580   3.392   5.771   5.033
 6227SOL    HW219581   3.421   5.669   5.157
 6228SOL     OW19582   1.392   2.503   2.605
 6228SOL    HW119583   1.357   2.564   2.534
 6228SOL    HW219584   1.338   2.515   2.688
 6229SOL     OW19585   0.405   2.108   2.974
 6229SOL    HW119586   0.459   2.061   3.043
 6229SOL    HW219587   0.374   2.043   2.905
 6230SOL     OW19588   0.716   1.801   3.767
 6230SOL    HW119589   0.740   1.869   3.836
 6230SOL    HW219590   0.663   1.845   3.694
 6231SOL     OW19591   6.361   5.980   1.173
 6231SOL    HW119592   6.278   6.003   1.224
 6231SOL    HW219593   6.428   5.940   1.236
 6232SOL     OW19594   0.031   0.468   0.964
 6232SOL    HW119595   0.087   0.551   0.958
 6232SOL    HW219596   0.019   0.443   1.060
 6233SOL     OW19597   6.844   0.923   1.421
 6233SOL    HW119598   6.885   0.995   1.365
 6233SOL    HW219599   6.900   0.840   1.415
 6234SOL     OW19600   6.672   1.269   5.565
 6234SOL    HW119601   6.576   1.242   5.573
 6234SOL    HW219602   6.698   1.272   5.469
 6235SOL     OW19603   1.095   6.760   1.053
 6235SOL    HW119604   1.188   6.787   1.027
 6235SOL    HW219605   1.052   6.833   1.106
 6236SOL     OW19606   0.461   3.837   1.285
 6236SOL    HW119607   0.366   3.811   1.265
 6236SOL    HW219608   0.509   3.856   1.200
 6237SOL     OW19609   2.926   0.279   6.645
 6237SOL    HW119610   2.908   0.250   6.551
 6237SOL    HW219611   2.909   0.204   6.708
 6238SOL     OW19612   3.886   4.822   2.569
 6238SOL    HW119613   3.939   4.768   2.504
 6238SOL    HW219614   3.939   4.903   2.595
 6239SOL     OW19615   2.805   0.244   1.888
 6239SOL    HW119616   2.728   0.237   1.951
 6239SOL    HW219617   2.793   0.179   1.813
 6240SOL     OW19618   1.933   3.205   5.328
 6240SOL    HW119619   1.993   3.285   5.325
 6240SOL    HW219620   1.837   3.235   5.328
 6241SOL     OW19621   3.589   0.049   1.943
 6241SOL    HW119622   3.562   6.977   1.960
 6241SOL    HW219623   3.508   0.103   1.924
 6242SOL     OW19624   4.741   0.606   4.062
 6242SOL    HW119625   4.643   0.587   4.075
 6242SOL    HW219626   4.793   0.522   4.074
 6243SOL     OW19627   5.885   6.214   4.299
 6243SOL    HW119628   5.848   6.121   4.308
 6243SOL    HW219629   5.812   6.276   4.271
 6244SOL     OW19630   6.817   2.346   1.702
 6244SOL    HW119631   6.804   2.256   1.743
 6244SOL    HW219632   6.804   2.339   1.603
 6245SOL     OW19633   1.576   4.267   0.556
 6245SOL    HW119634   1.665   4.310   0.542
 6245SOL    HW219635   1.584   4.168   0.546
 6246SOL     OW19636   1.945   2.016   5.604
 6246SOL    HW119637   1.950   2.065   5.516
 6246SOL    HW219638   1.933   1.918   5.587
 6247SOL     OW19639   0.488   6.041   4.804
 6247SOL    HW119640   0.466   6.072   4.897
 6247SOL    HW219641   0.451   6.106   4.738
 6248SOL     OW19642   3.581   3.291   0.709
 6248SOL    HW119643   3.553   3.195   0.718
 6248SOL    HW219644   3.621   3.322   0.795
 6249SOL     OW19645   0.752   4.012   0.763
 6249SOL    HW119646   0.720   3.921   0.736
 6249SOL    HW219647   0.811   4.003   0.844
 6250SOL     OW19648   6.863   0.094   6.945
 6250SOL    HW119649   6.910   0.166   6.996
 6250SOL    HW219650   6.895   0.005   6.976
 6251SOL     OW19651   4.323   5.729   6.566
 6251SOL    HW119652   4.393   5.692   6.505
 6251SOL    HW219653   4.290   5.816   6.530
 6252SOL     OW19654   1.822   6.203   5.635
 6252SOL    HW119655   1.772   6.286   5.660
 6252SOL    HW219656   1.882   6.223   5.557
 6253SOL     OW19657   2.395   4.336   3.633
 6253SOL    HW119658   2.369   4.425   3.670
 6253SOL    HW219659   2.488   4.314   3.662
 6254SOL     OW19660   5.398   1.549   1.481
 6254SOL    HW119661   5.493   1.528   1.503
 6254SOL    HW219662   5.394   1.593   1.391
 6255SOL     OW19663   3.484   0.229   0.854
 6255SOL    HW119664   3.511   0.320   0.823
 6255SOL    HW219665   3.389   0.212   0.830
 6256SOL     OW19666   3.695   5.466   1.750
 6256SOL    HW119667   3.602   5.447   1.781
 6256SOL    HW219668   3.744   5.516   1.823
 6257SOL     OW19669   5.036   2.053   1.080
 6257SOL    HW119670   4.965   2.121   1.098
 6257SOL    HW219671   4.994   1.964   1.064
 6258SOL     OW19672   3.570   0.461   3.896
 6258SOL    HW119673   3.659   0.477   3.939
 6258SOL    HW219674   3.525   0.383   3.940
 6259SOL     OW19675   2.090   2.406   6.698
 6259SOL    HW119676   2.113   2.358   6.783
 6259SOL    HW219677   2.173   2.448   6.661
 6260SOL     OW19678   3.438   5.376   0.347
 6260SOL    HW119679   3.359   5.437   0.332
 6260SOL    HW219680   3.447   5.358   0.445
 6261SOL     OW19681   3.604   1.170   6.978
 6261SOL    HW119682   3.684   1.118   7.009
 6261SOL    HW219683   3.623   1.268   6.987
 6262SOL     OW19684   2.642   6.330   1.492
 6262SOL    HW119685   2.651   6.269   1.571
 6262SOL    HW219686   2.615   6.421   1.523
 6263SOL     OW19687   0.193   1.068   5.601
 6263SOL    HW119688   0.114   1.035   5.549
 6263SOL    HW219689   0.243   0.991   5.640
 6264SOL     OW19690   1.594   0.183   1.620
 6264SOL    HW119691   1.606   0.148   1.713
 6264SOL    HW219692   1.658   0.138   1.558
 6265SOL     OW19693   3.860   3.362   0.294
 6265SOL    HW119694   3.956   3.381   0.274
 6265SOL    HW219695   3.846   3.364   0.393
 6266SOL     OW19696   4.094   0.838   4.723
 6266SOL    HW119697   4.034   0.899   4.775
 6266SOL    HW219698   4.157   0.892   4.668
 6267SOL     OW19699   2.067   6.876   6.172
 6267SOL    HW119700   2.057   6.922   6.260
 6267SOL    HW219701   2.128   6.798   6.182
 6268SOL     OW19702   2.489   0.122   3.381
 6268SOL    HW119703   2.507   0.203   3.438
 6268SOL    HW219704   2.491   0.148   3.285
 6269SOL     OW19705   0.043   6.557   1.855
 6269SOL    HW119706   0.001   6.501   1.784
 6269SOL    HW219707   0.128   6.596   1.820
 6270SOL     OW19708   1.796   0.021   5.814
 6270SOL    HW119709   1.739   0.025   5.896
 6270SOL    HW219710   1.892   0.015   5.841
 6271SOL     OW19711   6.541   2.500   6.506
 6271SOL    HW119712   6.513   2.538   6.418
 6271SOL    HW219713   6.597   2.568   6.555
 6272SOL     OW19714   0.372   3.195   0.155
 6272SOL    HW119715   0.331   3.179   0.244
 6272SOL    HW219716   0.463   3.235   0.167
 6273SOL     OW19717   1.128   6.585   2.461
 6273SOL    HW119718   1.227   6.581   2.471
 6273SOL    HW219719   1.086   6.593   2.552
 6274SOL     OW19720   3.283   5.541   6.021
 6274SOL    HW119721   3.337   5.616   6.058
 6274SOL    HW219722   3.299   5.534   5.922
 6275SOL     OW19723   2.245   6.006   6.467
 6275SOL    HW119724   2.200   6.019   6.556
 6275SOL    HW219725   2.275   6.095   6.432
 6276SOL     OW19726   1.480   4.186   3.244
 6276SOL    HW119727   1.515   4.255   3.180
 6276SOL    HW219728   1.537   4.186   3.326
 6277SOL     OW19729   5.292   4.168   1.854
 6277SOL    HW119730   5.213   4.212   1.812
 6277SOL    HW219731   5.370   4.230   1.851
 6278SOL     OW19732   4.888   6.013   4.691
 6278SOL    HW119733   4.933   5.933   4.730
 6278SOL    HW219734   4.927   6.032   4.600
 6279SOL     OW19735   3.507   0.074   6.793
 6279SOL    HW119736   3.587   0.120   6.830
 6279SOL    HW219737   3.536   7.012   6.749
 6280SOL     OW19738   0.917   2.389   4.753
 6280SOL    HW119739   0.906   2.365   4.657
 6280SOL    HW219740   0.997   2.342   4.790
 6281SOL     OW19741   0.902   5.099   4.240
 6281SOL    HW119742   0.808   5.066   4.246
 6281SOL    HW219743   0.937   5.085   4.148
 6282SOL     OW19744   0.794   5.974   5.301
 6282SOL    HW119745   0.774   5.947   5.207
 6282SOL    HW219746   0.875   6.032   5.303
 6283SOL     OW19747   6.204   3.121   5.377
 6283SOL    HW119748   6.270   3.135   5.303
 6283SOL    HW219749   6.252   3.105   5.463
 6284SOL     OW19750   0.882   5.517   4.869
 6284SOL    HW119751   0.786   5.506   4.843
 6284SOL    HW219752   0.929   5.576   4.803
 6285SOL     OW19753   0.071   3.854   4.868
 6285SOL    HW119754   0.160   3.809   4.875
 6285SOL    HW219755   0.009   3.794   4.817
 6286SOL     OW19756   5.751   1.536   3.505
 6286SOL    HW119757   5.778   1.543   3.601
 6286SOL    HW219758   5.651   1.531   3.500
 6287SOL     OW19759   3.788   4.952   4.583
 6287SOL    HW119760   3.797   4.932   4.681
 6287SOL    HW219761   3.879   4.956   4.541
 6288SOL     OW19762   5.240   4.444   2.856
 6288SOL    HW119763   5.232   4.367   2.793
 6288SOL    HW219764   5.277   4.523   2.808
 6289SOL     OW19765   1.863   4.785   0.898
 6289SOL    HW119766   1.842   4.702   0.950
 6289SOL    HW219767   1.956   4.815   0.919
 6290SOL     OW19768   6.491   5.295   5.864
 6290SOL    HW119769   6.398   5.287   5.828
 6290SOL    HW219770   6.512   5.391   5.882
 6291SOL     OW19771   4.112   3.378   4.405
 6291SOL    HW119772   4.012   3.374   4.409
 6291SOL    HW219773   4.149   3.383   4.498
 6292SOL     OW19774   1.200   2.358   4.510
 6292SOL    HW119775   1.156   2.392   4.427
 6292SOL    HW219776   1.178   2.419   4.587
 6293SOL     OW19777   3.422   0.825   0.622
 6293SOL    HW119778   3.339   0.829   0.566
 6293SOL    HW219779   3.426   0.738   0.670
 6294SOL     OW19780   3.657   6.250   3.866
 6294SOL    HW119781   3.724   6.256   3.940
 6294SOL    HW219782   3.597   6.171   3.881
 6295SOL     OW19783   5.694   4.775   6.165
 6295SOL    HW119784   5.630   4.726   6.107
 6295SOL    HW219785   5.687   4.873   6.146
 6296SOL     OW19786   0.806   6.423   5.953
 6296SOL    HW119787   0.813   6.511   6.001
 6296SOL    HW219788   0.891   6.405   5.904
 6297SOL     OW19789   5.446   0.680   3.987
 6297SOL    HW119790   5.414   0.766   3.948
 6297SOL    HW219791   5.369   0.633   4.030
 6298SOL     OW19792   1.546   2.772   0.382
 6298SOL    HW119793   1.600   2.700   0.340
 6298SOL    HW219794   1.468   2.795   0.323
 6299SOL     OW19795   5.989   2.121   0.553
 6299SOL    HW119796   6.061   2.181   0.588
 6299SOL    HW219797   6.029   2.054   0.491
 6300SOL     OW19798   6.311   0.673   0.375
 6300SOL    HW119799   6.231   0.684   0.317
 6300SOL    HW219800   6.294   0.714   0.465
 6301SOL     OW19801   3.880   6.788   0.091
 6301SOL    HW119802   3.943   6.788   0.014
 6301SOL    HW219803   3.842   6.696   0.103
 6302SOL     OW19804   1.509   0.487   3.254
 6302SOL    HW119805   1.574   0.442   3.315
 6302SOL    HW219806   1.536   0.583   3.241
 6303SOL     OW19807   1.919   1.194   3.944
 6303SOL    HW119808   1.851   1.221   4.012
 6303SOL    HW219809   1.953   1.276   3.897
 6304SOL     OW19810   2.396   0.807   1.432
 6304SOL    HW119811   2.353   0.746   1.498
 6304SOL    HW219812   2.428   0.753   1.354
 6305SOL     OW19813   6.605   6.768   1.334
 6305SOL    HW119814   6.680   6.791   1.395
 6305SOL    HW219815   6.518   6.786   1.379
 6306SOL     OW19816   0.709   4.231   3.994
 6306SOL    HW119817   0.722   4.145   4.043
 6306SOL    HW219818   0.644   4.289   4.044
 6307SOL     OW19819   3.612   4.263   5.189
 6307SOL    HW119820   3.581   4.223   5.103
 6307SOL    HW219821   3.532   4.283   5.246
 6308SOL     OW19822   2.087   2.338   4.538
 6308SOL    HW119823   2.151   2.375   4.470
 6308SOL    HW219824   2.112   2.371   4.629
 6309SOL     OW19825   6.260   4.510   5.393
 6309SOL    HW119826   6.235   4.414   5.402
 6309SOL    HW219827   6.360   4.518   5.382
 6310SOL     OW19828   2.225   6.031   2.752
 6310SOL    HW119829   2.250   5.935   2.763
 6310SOL    HW219830   2.183   6.044   2.662
 6311SOL     OW19831   4.861   1.079   6.195
 6311SOL    HW119832   4.895   1.112   6.283
 6311SOL    HW219833   4.883   0.982   6.185
 6312SOL     OW19834   6.397   5.886   5.500
 6312SOL    HW119835   6.463   5.842   5.439
 6312SOL    HW219836   6.353   5.963   5.453
 6313SOL     OW19837   7.021   6.191   4.894
 6313SOL    HW119838   0.032   6.279   4.928
 6313SOL    HW219839   0.044   6.117   4.943
 6314SOL     OW19840   4.277   6.932   1.783
 6314SOL    HW119841   4.183   6.905   1.801
 6314SOL    HW219842   4.338   6.856   1.804
 6315SOL     OW19843   1.961   2.774   5.463
 6315SOL    HW119844   1.879   2.799   5.515
 6315SOL    HW219845   1.987   2.851   5.404
 6316SOL     OW19846   4.793   1.686   0.218
 6316SOL    HW119847   4.801   1.603   0.273
 6316SOL    HW219848   4.793   1.766   0.278
 6317SOL     OW19849   4.249   5.137   1.562
 6317SOL    HW119850   4.237   5.229   1.522
 6317SOL    HW219851   4.227   5.068   1.493
 6318SOL     OW19852   3.578   1.340   5.772
 6318SOL    HW119853   3.623   1.369   5.856
 6318SOL    HW219854   3.509   1.408   5.746
 6319SOL     OW19855   6.379   1.797   4.617
 6319SOL    HW119856   6.448   1.774   4.548
 6319SOL    HW219857   6.333   1.714   4.647
 6320SOL     OW19858   5.985   6.616   5.045
 6320SOL    HW119859   5.993   6.517   5.039
 6320SOL    HW219860   5.982   6.644   5.141
 6321SOL     OW19861   3.600   3.013   0.941
 6321SOL    HW119862   3.665   2.956   0.991
 6321SOL    HW219863   3.577   3.094   0.995
 6322SOL     OW19864   1.773   2.451   0.647
 6322SOL    HW119865   1.802   2.384   0.716
 6322SOL    HW219866   1.816   2.430   0.560
 6323SOL     OW19867   2.955   2.666   1.690
 6323SOL    HW119868   2.882   2.617   1.641
 6323SOL    HW219869   2.970   2.622   1.778
 6324SOL     OW19870   5.345   0.447   6.592
 6324SOL    HW119871   5.254   0.416   6.566
 6324SOL    HW219872   5.354   0.544   6.573
 6325SOL     OW19873   1.674   2.029   2.427
 6325SOL    HW119874   1.690   2.013   2.524
 6325SOL    HW219875   1.638   2.122   2.414
 6326SOL     OW19876   4.728   4.883   1.740
 6326SOL    HW119877   4.811   4.913   1.787
 6326SOL    HW219878   4.708   4.945   1.664
 6327SOL     OW19879   6.590   0.690   5.052
 6327SOL    HW119880   6.629   0.640   5.129
 6327SOL    HW219881   6.626   0.654   4.966
 6328SOL     OW19882   3.268   3.222   0.122
 6328SOL    HW119883   3.269   3.256   0.216
 6328SOL    HW219884   3.326   3.281   0.065
 6329SOL     OW19885   2.385   2.097   3.506
 6329SOL    HW119886   2.438   2.030   3.454
 6329SOL    HW219887   2.385   2.184   3.456
 6330SOL     OW19888   4.964   0.490   1.069
 6330SOL    HW119889   4.951   0.400   1.110
 6330SOL    HW219890   4.880   0.544   1.079
 6331SOL     OW19891   6.542   2.948   5.333
 6331SOL    HW119892   6.634   2.910   5.334
 6331SOL    HW219893   6.475   2.874   5.339
 6332SOL     OW19894   0.137   3.474   1.171
 6332SOL    HW119895   0.169   3.404   1.234
 6332SOL    HW219896   0.091   3.431   1.093
 6333SOL     OW19897   4.545   5.445   5.108
 6333SOL    HW119898   4.584   5.361   5.070
 6333SOL    HW219899   4.445   5.441   5.102
 6334SOL     OW19900   2.860   0.629   2.137
 6334SOL    HW119901   2.857   0.633   2.237
 6334SOL    HW219902   2.767   0.641   2.101
 6335SOL     OW19903   3.237   0.408   0.160
 6335SOL    HW119904   3.151   0.417   0.210
 6335SOL    HW219905   3.238   0.322   0.109
 6336SOL     OW19906   0.587   2.161   5.585
 6336SOL    HW119907   0.620   2.176   5.678
 6336SOL    HW219908   0.662   2.176   5.520
 6337SOL     OW19909   4.870   4.810   5.943
 6337SOL    HW119910   4.812   4.733   5.915
 6337SOL    HW219911   4.963   4.777   5.958
 6338SOL     OW19912   3.118   1.846   4.266
 6338SOL    HW119913   3.122   1.746   4.260
 6338SOL    HW219914   3.210   1.882   4.279
 6339SOL     OW19915   1.129   3.520   3.240
 6339SOL    HW119916   1.052   3.491   3.296
 6339SOL    HW219917   1.200   3.561   3.298
 6340SOL     OW19918   1.715   5.239   2.305
 6340SOL    HW119919   1.694   5.226   2.402
 6340SOL    HW219920   1.639   5.206   2.249
 6341SOL     OW19921   0.361   4.013   4.413
 6341SOL    HW119922   0.374   3.979   4.506
 6341SOL    HW219923   0.419   4.093   4.398
 6342SOL     OW19924   1.844   1.044   1.900
 6342SOL    HW119925   1.903   1.013   1.826
 6342SOL    HW219926   1.858   0.986   1.981
 6343SOL     OW19927   4.556   2.189   6.909
 6343SOL    HW119928   4.597   2.112   6.861
 6343SOL    HW219929   4.536   2.162   7.004
 6344SOL     OW19930   5.305   2.681   4.171
 6344SOL    HW119931   5.249   2.600   4.188
 6344SOL    HW219932   5.395   2.669   4.213
 6345SOL     OW19933   6.131   2.859   2.287
 6345SOL    HW119934   6.209   2.918   2.307
 6345SOL    HW219935   6.083   2.893   2.206
 6346SOL     OW19936   6.680   5.239   4.040
 6346SOL    HW119937   6.599   5.189   4.072
 6346SOL    HW219938   6.682   5.238   3.940
 6347SOL     OW19939   2.133   6.935   0.502
 6347SOL    HW119940   2.068   6.990   0.555
 6347SOL    HW219941   2.087   6.852   0.470
 6348SOL     OW19942   0.942   3.717   5.451
 6348SOL    HW119943   0.932   3.786   5.378
 6348SOL    HW219944   0.876   3.735   5.523
 6349SOL     OW19945   2.147   0.461   1.169
 6349SOL    HW119946   2.193   0.474   1.081
 6349SOL    HW219947   2.214   0.439   1.239
 6350SOL     OW19948   0.620   5.657   3.908
 6350SOL    HW119949   0.667   5.660   3.996
 6350SOL    HW219950   0.625   5.746   3.864
 6351SOL     OW19951   6.608   3.679   3.753
 6351SOL    HW119952   6.578   3.651   3.844
 6351SOL    HW219953   6.668   3.609   3.714
 6352SOL     OW19954   4.014   5.995   4.976
 6352SOL    HW119955   4.015   5.957   5.068
 6352SOL    HW219956   4.003   6.094   4.981
 6353SOL     OW19957   0.802   6.685   6.057
 6353SOL    HW119958   0.819   6.748   5.981
 6353SOL    HW219959   0.766   6.736   6.135
 6354SOL     OW19960   2.137   5.717   2.774
 6354SOL    HW119961   2.210   5.758   2.829
 6354SOL    HW219962   2.074   5.667   2.833
 6355SOL     OW19963   0.860   5.380   0.049
 6355SOL    HW119964   0.855   5.476   0.019
 6355SOL    HW219965   0.771   5.337   0.035
 6356SOL     OW19966   4.743   5.706   1.901
 6356SOL    HW119967   4.694   5.750   1.975
 6356SOL    HW219968   4.708   5.738   1.813
 6357SOL     OW19969   6.022   3.709   2.890
 6357SOL    HW119970   5.988   3.801   2.870
 6357SOL    HW219971   6.004   3.688   2.986
 6358SOL     OW19972   0.961   2.495   6.118
 6358SOL    HW119973   1.002   2.585   6.132
 6358SOL    HW219974   0.898   2.499   6.041
 6359SOL     OW19975   5.932   6.816   6.939
 6359SOL    HW119976   5.922   6.885   7.009
 6359SOL    HW219977   6.030   6.797   6.924
 6360SOL     OW19978   1.474   4.224   3.727
 6360SOL    HW119979   1.384   4.225   3.685
 6360SOL    HW219980   1.466   4.241   3.825
 6361SOL     OW19981   0.888   6.935   1.757
 6361SOL    HW119982   0.834   6.889   1.687
 6361SOL    HW219983   0.827   6.977   1.824
 6362SOL     OW19984   6.874   6.116   0.211
 6362SOL    HW119985   6.937   6.105   0.133
 6362SOL    HW219986   6.794   6.058   0.197
 6363SOL     OW19987   1.575   5.180   3.248
 6363SOL    HW119988   1.656   5.237   3.234
 6363SOL    HW219989   1.536   5.156   3.159
 6364SOL     OW19990   2.952   1.131   5.726
 6364SOL    HW119991   2.855   1.106   5.718
 6364SOL    HW219992   3.007   1.048   5.738
 6365SOL     OW19993   5.641   0.649   3.780
 6365SOL    HW119994   5.578   0.663   3.857
 6365SOL    HW219995   5.630   0.724   3.715
 6366SOL     OW19996   1.018   6.008   6.228
 6366SOL    HW119997   1.005   5.936   6.160
 6366SOL    HW219998   1.043   6.093   6.182
 6367SOL     OW19999   4.276   1.432   5.263
 6367SOL    HW120000   4.246   1.476   5.348
 6367SOL    HW220001   4.263   1.333   5.271
 6368SOL     OW20002   3.658   4.913   3.915
 6368SOL    HW120003   3.727   4.984   3.907
 6368SOL    HW220004   3.626   4.908   4.010
 6369SOL     OW20005   2.344   5.510   3.372
 6369SOL    HW120006   2.333   5.428   3.316
 6369SOL    HW220007   2.294   5.499   3.458
 6370SOL     OW20008   0.054   2.949   3.617
 6370SOL    HW120009   0.150   2.926   3.605
 6370SOL    HW220010   0.038   3.041   3.581
 6371SOL     OW20011   4.926   4.596   3.754
 6371SOL    HW120012   5.022   4.588   3.780
 6371SOL    HW220013   4.905   4.691   3.732
 6372SOL     OW20014   2.084   0.413   1.948
 6372SOL    HW120015   2.100   0.399   2.045
 6372SOL    HW220016   2.001   0.467   1.935
 6373SOL     OW20017   4.803   4.010   2.465
 6373SOL    HW120018   4.874   3.951   2.426
 6373SOL    HW220019   4.745   4.046   2.392
 6374SOL     OW20020   3.286   3.933   3.125
 6374SOL    HW120021   3.318   3.882   3.045
 6374SOL    HW220022   3.192   3.964   3.110
 6375SOL     OW20023   0.118   2.121   3.861
 6375SOL    HW120024   0.053   2.193   3.883
 6375SOL    HW220025   0.069   2.044   3.819
 6376SOL     OW20026   5.733   2.180   4.675
 6376SOL    HW120027   5.700   2.214   4.763
 6376SOL    HW220028   5.657   2.145   4.621
 6377SOL     OW20029   6.683   1.771   5.421
 6377SOL    HW120030   6.601   1.788   5.475
 6377SOL    HW220031   6.752   1.728   5.478
 6378SOL     OW20032   4.430   5.332   4.387
 6378SOL    HW120033   4.361   5.264   4.412
 6378SOL    HW220034   4.432   5.404   4.456
 6379SOL     OW20035   1.584   3.862   4.357
 6379SOL    HW120036   1.588   3.961   4.369
 6379SOL    HW220037   1.510   3.840   4.293
 6380SOL     OW20038   0.222   1.676   5.326
 6380SOL    HW120039   0.287   1.734   5.276
 6380SOL    HW220040   0.254   1.582   5.324
 6381SOL     OW20041   3.897   3.233   1.652
 6381SOL    HW120042   3.986   3.197   1.679
 6381SOL    HW220043   3.840   3.157   1.617
 6382SOL     OW20044   1.820   2.145   1.204
 6382SOL    HW120045   1.833   2.048   1.184
 6382SOL    HW220046   1.791   2.156   1.300
 6383SOL     OW20047   1.471   2.095   2.682
 6383SOL    HW120048   1.537   2.020   2.684
 6383SOL    HW220049   1.381   2.060   2.657
 6384SOL     OW20050   6.373   4.248   2.231
 6384SOL    HW120051   6.372   4.288   2.323
 6384SOL    HW220052   6.340   4.316   2.165
 6385SOL     OW20053   0.470   4.620   4.141
 6385SOL    HW120054   0.407   4.657   4.210
 6385SOL    HW220055   0.423   4.613   4.053
 6386SOL     OW20056   2.384   4.861   6.232
 6386SOL    HW120057   2.402   4.959   6.246
 6386SOL    HW220058   2.302   4.850   6.176
 6387SOL     OW20059   0.127   1.916   6.555
 6387SOL    HW120060   0.163   1.823   6.565
 6387SOL    HW220061   0.034   1.912   6.518
 6388SOL     OW20062   3.754   5.652   1.533
 6388SOL    HW120063   3.853   5.667   1.531
 6388SOL    HW220064   3.724   5.638   1.627
 6389SOL     OW20065   0.415   5.854   2.047
 6389SOL    HW120066   0.467   5.770   2.030
 6389SOL    HW220067   0.443   5.893   2.135
 6390SOL     OW20068   0.913   1.155   5.912
 6390SOL    HW120069   0.822   1.120   5.890
 6390SOL    HW220070   0.931   1.141   6.009
 6391SOL     OW20071   2.933   7.000   5.792
 6391SOL    HW120072   2.896   0.048   5.733
 6391SOL    HW220073   2.909   7.019   5.887
 6392SOL     OW20074   2.896   5.311   2.531
 6392SOL    HW120075   2.878   5.234   2.470
 6392SOL    HW220076   2.885   5.282   2.626
 6393SOL     OW20077   6.812   6.876   2.407
 6393SOL    HW120078   6.771   6.854   2.495
 6393SOL    HW220079   6.908   6.849   2.407
 6394SOL     OW20080   2.033   5.307   0.482
 6394SOL    HW120081   1.977   5.239   0.434
 6394SOL    HW220082   2.111   5.333   0.424
 6395SOL     OW20083   0.609   2.268   0.688
 6395SOL    HW120084   0.706   2.276   0.712
 6395SOL    HW220085   0.585   2.340   0.622
 6396SOL     OW20086   4.568   2.920   6.310
 6396SOL    HW120087   4.488   2.978   6.295
 6396SOL    HW220088   4.649   2.965   6.273
 6397SOL     OW20089   5.790   1.808   0.447
 6397SOL    HW120090   5.714   1.794   0.383
 6397SOL    HW220091   5.875   1.822   0.397
 6398SOL     OW20092   2.290   6.734   1.929
 6398SOL    HW120093   2.243   6.697   1.849
 6398SOL    HW220094   2.375   6.777   1.901
 6399SOL     OW20095   1.467   6.304   6.553
 6399SOL    HW120096   1.416   6.389   6.563
 6399SOL    HW220097   1.404   6.230   6.532
 6400SOL     OW20098   2.554   6.121   2.260
 6400SOL    HW120099   2.650   6.112   2.286
 6400SOL    HW220100   2.510   6.189   2.319
 6401SOL     OW20101   5.750   4.916   3.418
 6401SOL    HW120102   5.674   4.913   3.353
 6401SOL    HW220103   5.834   4.887   3.372
 6402SOL     OW20104   3.221   1.830   3.134
 6402SOL    HW120105   3.307   1.855   3.088
 6402SOL    HW220106   3.190   1.907   3.190
 6403SOL     OW20107   0.009   6.052   7.006
 6403SOL    HW120108   7.000   6.135   6.959
 6403SOL    HW220109   7.008   5.972   6.951
 6404SOL     OW20110   4.305   1.502   1.932
 6404SOL    HW120111   4.247   1.527   1.855
 6404SOL    HW220112   4.249   1.467   2.007
 6405SOL     OW20113   2.490   0.460   3.908
 6405SOL    HW120114   2.580   0.425   3.881
 6405SOL    HW220115   2.500   0.521   3.986
 6406SOL     OW20116   0.497   3.067   2.849
 6406SOL    HW120117   0.417   3.109   2.891
 6406SOL    HW220118   0.468   3.005   2.776
 6407SOL     OW20119   2.574   6.128   4.519
 6407SOL    HW120120   2.537   6.219   4.503
 6407SOL    HW220121   2.519   6.083   4.590
 6408SOL     OW20122   5.369   1.623   6.729
 6408SOL    HW120123   5.357   1.578   6.817
 6408SOL    HW220124   5.397   1.718   6.743
 6409SOL     OW20125   6.720   4.486   3.956
 6409SOL    HW120126   6.666   4.402   3.952
 6409SOL    HW220127   6.665   4.560   3.994
 6410SOL     OW20128   1.436   1.562   6.915
 6410SOL    HW120129   1.366   1.493   6.898
 6410SOL    HW220130   1.523   1.532   6.875
 6411SOL     OW20131   0.989   2.686   2.862
 6411SOL    HW120132   0.909   2.746   2.858
 6411SOL    HW220133   1.008   2.663   2.957
 6412SOL     OW20134   0.636   2.401   5.154
 6412SOL    HW120135   0.624   2.302   5.149
 6412SOL    HW220136   0.616   2.442   5.065
 6413SOL     OW20137   4.344   4.894   4.044
 6413SOL    HW120138   4.265   4.873   4.101
 6413SOL    HW220139   4.370   4.812   3.993
 6414SOL     OW20140   5.607   1.017   0.767
 6414SOL    HW120141   5.553   1.038   0.685
 6414SOL    HW220142   5.619   1.101   0.820
 6415SOL     OW20143   1.721   3.006   2.844
 6415SOL    HW120144   1.792   2.948   2.883
 6415SOL    HW220145   1.644   3.013   2.907
 6416SOL     OW20146   1.031   1.548   6.855
 6416SOL    HW120147   0.940   1.544   6.897
 6416SOL    HW220148   1.020   1.557   6.756
 6417SOL     OW20149   6.636   5.218   1.110
 6417SOL    HW120150   6.542   5.253   1.110
 6417SOL    HW220151   6.648   5.154   1.185
 6418SOL     OW20152   4.825   4.186   1.720
 6418SOL    HW120153   4.770   4.107   1.748
 6418SOL    HW220154   4.776   4.270   1.740
 6419SOL     OW20155   2.123   4.705   3.386
 6419SOL    HW120156   2.123   4.718   3.485
 6419SOL    HW220157   2.044   4.752   3.346
 6420SOL     OW20158   3.250   5.199   4.822
 6420SOL    HW120159   3.194   5.193   4.739
 6420SOL    HW220160   3.334   5.250   4.803
 6421SOL     OW20161   5.255   0.403   2.575
 6421SOL    HW120162   5.326   0.473   2.583
 6421SOL    HW220163   5.266   0.337   2.649
 6422SOL     OW20164   0.113   0.875   4.372
 6422SOL    HW120165   0.067   0.806   4.426
 6422SOL    HW220166   0.079   0.872   4.278
 6423SOL     OW20167   4.516   5.284   3.064
 6423SOL    HW120168   4.452   5.351   3.100
 6423SOL    HW220169   4.610   5.314   3.081
 6424SOL     OW20170   7.016   5.914   5.741
 6424SOL    HW120171   7.010   6.011   5.718
 6424SOL    HW220172   0.059   5.903   5.816
 6425SOL     OW20173   6.102   6.458   2.957
 6425SOL    HW120174   6.082   6.393   2.883
 6425SOL    HW220175   6.196   6.489   2.950
 6426SOL     OW20176   1.268   5.157   2.730
 6426SOL    HW120177   1.229   5.135   2.641
 6426SOL    HW220178   1.287   5.073   2.780
 6427SOL     OW20179   3.278   3.369   4.526
 6427SOL    HW120180   3.312   3.280   4.555
 6427SOL    HW220181   3.197   3.394   4.579
 6428SOL     OW20182   5.851   3.548   5.987
 6428SOL    HW120183   5.841   3.624   6.051
 6428SOL    HW220184   5.807   3.467   6.026
 6429SOL     OW20185   1.867   2.012   5.867
 6429SOL    HW120186   1.914   1.940   5.918
 6429SOL    HW220187   1.903   2.016   5.773
 6430SOL     OW20188   6.322   1.038   2.543
 6430SOL    HW120189   6.265   1.099   2.488
 6430SOL    HW220190   6.328   0.948   2.498
 6431SOL     OW20191   5.562   6.978   3.754
 6431SOL    HW120192   5.473   7.021   3.765
 6431SOL    HW220193   5.575   6.952   3.658
 6432SOL     OW20194   4.179   4.232   6.637
 6432SOL    HW120195   4.242   4.175   6.584
 6432SOL    HW220196   4.167   4.320   6.591
 6433SOL     OW20197   2.485   4.820   6.632
 6433SOL    HW120198   2.414   4.758   6.599
 6433SOL    HW220199   2.459   4.854   6.723
 6434SOL     OW20200   2.515   3.804   7.007
 6434SOL    HW120201   2.491   3.841   0.074
 6434SOL    HW220202   2.488   3.869   6.936
 6435SOL     OW20203   4.873   6.818   0.211
 6435SOL    HW120204   4.945   6.802   0.278
 6435SOL    HW220205   4.797   6.868   0.253
 6436SOL     OW20206   2.137   3.370   3.001
 6436SOL    HW120207   2.174   3.292   3.052
 6436SOL    HW220208   2.059   3.340   2.947
 6437SOL     OW20209   2.468   2.052   0.652
 6437SOL    HW120210   2.530   1.975   0.640
 6437SOL    HW220211   2.376   2.026   0.623
 6438SOL     OW20212   6.517   4.803   6.320
 6438SOL    HW120213   6.502   4.815   6.418
 6438SOL    HW220214   6.603   4.754   6.305
 6439SOL     OW20215   5.634   1.306   1.607
 6439SOL    HW120216   5.684   1.288   1.692
 6439SOL    HW220217   5.540   1.273   1.616
 6440SOL     OW20218   2.233   1.538   6.150
 6440SOL    HW120219   2.278   1.626   6.133
 6440SOL    HW220220   2.273   1.469   6.090
 6441SOL     OW20221   6.779   6.271   2.353
 6441SOL    HW120222   6.740   6.312   2.435
 6441SOL    HW220223   6.832   6.339   2.303
 6442SOL     OW20224   2.250   0.810   4.524
 6442SOL    HW120225   2.163   0.851   4.496
 6442SOL    HW220226   2.313   0.810   4.446
 6443SOL     OW20227   3.934   2.254   5.478
 6443SOL    HW120228   3.903   2.172   5.430
 6443SOL    HW220229   3.904   2.250   5.574
 6444SOL     OW20230   6.014   2.763   3.915
 6444SOL    HW120231   6.018   2.830   3.841
 6444SOL    HW220232   5.975   2.807   3.996
 6445SOL     OW20233   3.978   3.196   5.059
 6445SOL    HW120234   4.057   3.251   5.032
 6445SOL    HW220235   3.968   3.198   5.158
 6446SOL     OW20236   1.427   0.981   6.282
 6446SOL    HW120237   1.477   1.034   6.350
 6446SOL    HW220238   1.330   0.976   6.308
 6447SOL     OW20239   5.393   5.026   3.047
 6447SOL    HW120240   5.373   5.117   3.010
 6447SOL    HW220241   5.337   4.958   2.999
 6448SOL     OW20242   4.060   5.450   1.901
 6448SOL    HW120243   4.063   5.353   1.923
 6448SOL    HW220244   4.146   5.476   1.855
 6449SOL     OW20245   3.623   4.847   0.487
 6449SOL    HW120246   3.623   4.804   0.397
 6449SOL    HW220247   3.576   4.935   0.483
 6450SOL     OW20248   0.749   4.116   1.105
 6450SOL    HW120249   0.820   4.160   1.049
 6450SOL    HW220250   0.776   4.022   1.127
 6451SOL     OW20251   2.424   0.333   4.648
 6451SOL    HW120252   2.356   0.292   4.709
 6451SOL    HW220253   2.380   0.403   4.592
 6452SOL     OW20254   4.015   5.953   4.590
 6452SOL    HW120255   4.099   5.902   4.574
 6452SOL    HW220256   3.959   5.905   4.658
 6453SOL     OW20257   2.362   6.349   1.145
 6453SOL    HW120258   2.421   6.284   1.194
 6453SOL    HW220259   2.397   6.363   1.053
 6454SOL     OW20260   2.218   1.844   3.056
 6454SOL    HW120261   2.308   1.887   3.060
 6454SOL    HW220262   2.150   1.907   3.094
 6455SOL     OW20263   0.368   2.507   3.441
 6455SOL    HW120264   0.409   2.431   3.491
 6455SOL    HW220265   0.395   2.502   3.344
 6456SOL     OW20266   1.039   1.146   3.489
 6456SOL    HW120267   1.019   1.051   3.513
 6456SOL    HW220268   0.992   1.207   3.553
 6457SOL     OW20269   4.870   1.795   0.888
 6457SOL    HW120270   4.777   1.817   0.919
 6457SOL    HW220271   4.925   1.766   0.966
 6458SOL     OW20272   0.662   6.401   4.023
 6458SOL    HW120273   0.619   6.486   3.992
 6458SOL    HW220274   0.626   6.324   3.970
 6459SOL     OW20275   6.201   3.557   0.533
 6459SOL    HW120276   6.178   3.493   0.460
 6459SOL    HW220277   6.151   3.533   0.616
 6460SOL     OW20278   5.226   6.193   5.525
 6460SOL    HW120279   5.173   6.207   5.441
 6460SOL    HW220280   5.322   6.216   5.508
 6461SOL     OW20281   2.390   4.837   5.851
 6461SOL    HW120282   2.444   4.911   5.892
 6461SOL    HW220283   2.297   4.870   5.833
 6462SOL     OW20284   2.417   2.728   4.596
 6462SOL    HW120285   2.498   2.780   4.567
 6462SOL    HW220286   2.335   2.783   4.582
 6463SOL     OW20287   6.468   3.501   6.443
 6463SOL    HW120288   6.405   3.516   6.366
 6463SOL    HW220289   6.502   3.589   6.476
 6464SOL     OW20290   1.370   5.594   4.498
 6464SOL    HW120291   1.301   5.591   4.426
 6464SOL    HW220292   1.423   5.509   4.496
 6465SOL     OW20293   6.639   2.849   2.781
 6465SOL    HW120294   6.735   2.833   2.805
 6465SOL    HW220295   6.593   2.761   2.766
 6466SOL     OW20296   1.115   1.427   6.124
 6466SOL    HW120297   1.160   1.503   6.077
 6466SOL    HW220298   1.160   1.341   6.099
 6467SOL     OW20299   3.198   1.358   0.243
 6467SOL    HW120300   3.117   1.327   0.193
 6467SOL    HW220301   3.267   1.286   0.242
 6468SOL     OW20302   3.626   6.183   0.415
 6468SOL    HW120303   3.565   6.167   0.492
 6468SOL    HW220304   3.572   6.207   0.334
 6469SOL     OW20305   5.363   1.198   4.406
 6469SOL    HW120306   5.455   1.181   4.441
 6469SOL    HW220307   5.369   1.250   4.321
 6470SOL     OW20308   6.267   4.068   0.613
 6470SOL    HW120309   6.307   4.146   0.660
 6470SOL    HW220310   6.335   4.028   0.551
 6471SOL     OW20311   6.401   6.805   5.854
 6471SOL    HW120312   6.348   6.779   5.774
 6471SOL    HW220313   6.374   6.897   5.883
 6472SOL     OW20314   0.615   6.176   1.400
 6472SOL    HW120315   0.626   6.140   1.493
 6472SOL    HW220316   0.523   6.211   1.389
 6473SOL     OW20317   3.518   0.896   4.563
 6473SOL    HW120318   3.598   0.838   4.578
 6473SOL    HW220319   3.532   0.984   4.609
 6474SOL     OW20320   2.145   4.594   6.201
 6474SOL    HW120321   2.236   4.563   6.172
 6474SOL    HW220322   2.119   4.546   6.285
 6475SOL     OW20323   6.274   5.103   3.869
 6475SOL    HW120324   6.215   5.078   3.792
 6475SOL    HW220325   6.239   5.062   3.953
 6476SOL     OW20326   4.548   3.543   0.820
 6476SOL    HW120327   4.574   3.629   0.777
 6476SOL    HW220328   4.454   3.520   0.795
 6477SOL     OW20329   6.513   4.540   1.475
 6477SOL    HW120330   6.565   4.611   1.523
 6477SOL    HW220331   6.470   4.578   1.394
 6478SOL     OW20332   3.458   0.550   2.092
 6478SOL    HW120333   3.472   0.626   2.156
 6478SOL    HW220334   3.541   0.495   2.086
 6479SOL     OW20335   4.239   5.812   4.051
 6479SOL    HW120336   4.256   5.827   3.953
 6479SOL    HW220337   4.239   5.713   4.069
 6480SOL     OW20338   2.807   1.801   6.108
 6480SOL    HW120339   2.727   1.786   6.166
 6480SOL    HW220340   2.887   1.757   6.148
 6481SOL     OW20341   3.761   1.925   1.818
 6481SOL    HW120342   3.830   1.876   1.871
 6481SOL    HW220343   3.784   2.023   1.816
 6482SOL     OW20344   0.288   0.944   6.568
 6482SOL    HW120345   0.189   0.928   6.571
 6482SOL    HW220346   0.336   0.858   6.582
 6483SOL     OW20347   1.167   6.124   1.794
 6483SOL    HW120348   1.099   6.081   1.853
 6483SOL    HW220349   1.249   6.145   1.847
 6484SOL     OW20350   3.560   6.676   1.642
 6484SOL    HW120351   3.541   6.593   1.695
 6484SOL    HW220352   3.497   6.682   1.565
 6485SOL     OW20353   2.109   4.959   3.724
 6485SOL    HW120354   2.030   5.004   3.766
 6485SOL    HW220355   2.126   4.999   3.634
 6486SOL     OW20356   2.547   4.937   3.739
 6486SOL    HW120357   2.611   4.920   3.665
 6486SOL    HW220358   2.506   5.027   3.728
 6487SOL     OW20359   6.782   6.524   4.985
 6487SOL    HW120360   6.777   6.488   5.079
 6487SOL    HW220361   6.774   6.448   4.921
 6488SOL     OW20362   3.767   6.101   4.148
 6488SOL    HW120363   3.778   6.017   4.200
 6488SOL    HW220364   3.693   6.156   4.187
 6489SOL     OW20365   3.142   2.789   6.718
 6489SOL    HW120366   3.233   2.749   6.708
 6489SOL    HW220367   3.075   2.717   6.730
 6490SOL     OW20368   4.028   0.741   6.742
 6490SOL    HW120369   4.052   0.814   6.807
 6490SOL    HW220370   4.097   0.736   6.670
 6491SOL     OW20371   3.487   0.414   0.545
 6491SOL    HW120372   3.501   0.417   0.644
 6491SOL    HW220373   3.529   0.494   0.502
 6492SOL     OW20374   4.409   5.189   0.340
 6492SOL    HW120375   4.430   5.277   0.382
 6492SOL    HW220376   4.336   5.144   0.392
 6493SOL     OW20377   1.286   5.032   4.946
 6493SOL    HW120378   1.267   5.115   5.000
 6493SOL    HW220379   1.296   5.057   4.850
 6494SOL     OW20380   0.131   0.595   3.470
 6494SOL    HW120381   0.037   0.563   3.484
 6494SOL    HW220382   0.136   0.645   3.384
 6495SOL     OW20383   5.223   6.739   4.357
 6495SOL    HW120384   5.238   6.815   4.421
 6495SOL    HW220385   5.125   6.731   4.337
 6496SOL     OW20386   6.788   0.583   3.164
 6496SOL    HW120387   6.755   0.580   3.259
 6496SOL    HW220388   6.803   0.678   3.137
 6497SOL     OW20389   1.903   2.591   0.982
 6497SOL    HW120390   1.836   2.656   1.021
 6497SOL    HW220391   1.917   2.613   0.885
 6498SOL     OW20392   2.246   4.086   3.082
 6498SOL    HW120393   2.293   4.078   2.994
 6498SOL    HW220394   2.314   4.101   3.155
 6499SOL     OW20395   4.977   2.690   5.028
 6499SOL    HW120396   5.012   2.653   4.942
 6499SOL    HW220397   5.020   2.778   5.047
 6500SOL     OW20398   6.969   3.951   3.843
 6500SOL    HW120399   7.003   4.042   3.868
 6500SOL    HW220400   6.873   3.944   3.868
 6501SOL     OW20401   6.792   2.406   6.788
 6501SOL    HW120402   6.754   2.499   6.795
 6501SOL    HW220403   6.827   2.377   6.877
 6502SOL     OW20404   6.081   2.671   1.832
 6502SOL    HW120405   6.004   2.607   1.838
 6502SOL    HW220406   6.103   2.688   1.736
 6503SOL     OW20407   4.619   1.531   3.115
 6503SOL    HW120408   4.662   1.524   3.025
 6503SOL    HW220409   4.684   1.503   3.185
 6504SOL     OW20410   4.710   5.815   5.986
 6504SOL    HW120411   4.620   5.793   6.025
 6504SOL    HW220412   4.719   5.772   5.897
 6505SOL     OW20413   5.467   6.042   1.286
 6505SOL    HW120414   5.543   5.994   1.329
 6505SOL    HW220415   5.501   6.096   1.209
 6506SOL     OW20416   6.792   2.624   2.064
 6506SOL    HW120417   6.730   2.584   1.996
 6506SOL    HW220418   6.772   2.721   2.075
 6507SOL     OW20419   1.947   5.211   5.628
 6507SOL    HW120420   2.044   5.185   5.628
 6507SOL    HW220421   1.892   5.135   5.595
 6508SOL     OW20422   1.023   0.899   2.785
 6508SOL    HW120423   0.932   0.904   2.828
 6508SOL    HW220424   1.032   0.972   2.718
 6509SOL     OW20425   2.721   2.004   4.430
 6509SOL    HW120426   2.627   2.012   4.395
 6509SOL    HW220427   2.718   1.977   4.526
 6510SOL     OW20428   6.415   4.941   6.927
 6510SOL    HW120429   6.361   5.000   6.868
 6510SOL    HW220430   6.465   4.874   6.871
 6511SOL     OW20431   4.491   1.442   4.588
 6511SOL    HW120432   4.441   1.507   4.531
 6511SOL    HW220433   4.549   1.491   4.653
 6512SOL     OW20434   4.898   6.236   2.107
 6512SOL    HW120435   4.870   6.263   2.199
 6512SOL    HW220436   4.872   6.307   2.042
 6513SOL     OW20437   3.213   5.305   2.894
 6513SOL    HW120438   3.225   5.213   2.930
 6513SOL    HW220439   3.211   5.370   2.971
 6514SOL     OW20440   5.972   1.204   3.993
 6514SOL    HW120441   5.935   1.119   4.033
 6514SOL    HW220442   6.019   1.183   3.908
 6515SOL     OW20443   0.522   4.766   4.890
 6515SOL    HW120444   0.531   4.841   4.826
 6515SOL    HW220445   0.499   4.801   4.981
 6516SOL     OW20446   0.055   3.320   1.405
 6516SOL    HW120447   0.030   3.365   1.490
 6516SOL    HW220448   7.017   3.350   1.332
 6517SOL     OW20449   6.415   0.289   1.006
 6517SOL    HW120450   6.329   0.239   1.012
 6517SOL    HW220451   6.441   0.321   1.098
 6518SOL     OW20452   6.709   6.799   6.674
 6518SOL    HW120453   6.655   6.827   6.595
 6518SOL    HW220454   6.648   6.758   6.743
 6519SOL     OW20455   1.591   1.458   3.571
 6519SOL    HW120456   1.651   1.380   3.552
 6519SOL    HW220457   1.579   1.467   3.670
 6520SOL     OW20458   5.475   5.610   2.493
 6520SOL    HW120459   5.443   5.705   2.491
 6520SOL    HW220460   5.476   5.577   2.587
 6521SOL     OW20461   2.148   2.996   4.321
 6521SOL    HW120462   2.199   2.946   4.391
 6521SOL    HW220463   2.058   2.955   4.310
 6522SOL     OW20464   4.206   4.438   6.927
 6522SOL    HW120465   4.202   4.438   0.004
 6522SOL    HW220466   4.114   4.453   6.890
 6523SOL     OW20467   4.493   1.333   6.625
 6523SOL    HW120468   4.532   1.425   6.634
 6523SOL    HW220469   4.494   1.288   6.714
 6524SOL     OW20470   2.827   4.094   1.655
 6524SOL    HW120471   2.853   4.128   1.565
 6524SOL    HW220472   2.750   4.147   1.690
 6525SOL     OW20473   2.119   4.807   2.483
 6525SOL    HW120474   2.059   4.814   2.562
 6525SOL    HW220475   2.213   4.828   2.510
 6526SOL     OW20476   2.533   6.617   6.685
 6526SOL    HW120477   2.552   6.527   6.644
 6526SOL    HW220478   2.616   6.673   6.682
 6527SOL     OW20479   0.903   2.798   4.907
 6527SOL    HW120480   0.920   2.707   4.945
 6527SOL    HW220481   0.861   2.856   4.978
 6528SOL     OW20482   6.709   0.937   4.971
 6528SOL    HW120483   6.645   0.862   4.989
 6528SOL    HW220484   6.659   1.018   4.942
 6529SOL     OW20485   1.305   1.868   2.788
 6529SOL    HW120486   1.247   1.924   2.728
 6529SOL    HW220487   1.343   1.792   2.736
 6530SOL     OW20488   0.001   3.946   0.332
 6530SOL    HW120489   7.016   3.884   0.410
 6530SOL    HW220490   6.983   3.904   0.251
 6531SOL     OW20491   5.471   2.865   5.081
 6531SOL    HW120492   5.427   2.893   4.996
 6531SOL    HW220493   5.529   2.939   5.115
 6532SOL     OW20494   6.396   1.084   0.218
 6532SOL    HW120495   6.308   1.128   0.236
 6532SOL    HW220496   6.385   1.016   0.146
 6533SOL     OW20497   4.650   0.021   1.595
 6533SOL    HW120498   4.662   0.113   1.631
 6533SOL    HW220499   4.553   7.019   1.599
 6534SOL     OW20500   3.469   4.221   1.421
 6534SOL    HW120501   3.440   4.180   1.507
 6534SOL    HW220502   3.566   4.248   1.427
 6535SOL     OW20503   6.179   3.860   4.625
 6535SOL    HW120504   6.202   3.830   4.532
 6535SOL    HW220505   6.164   3.779   4.683
 6536SOL     OW20506   1.066   1.501   5.631
 6536SOL    HW120507   1.034   1.566   5.701
 6536SOL    HW220508   1.088   1.551   5.547
 6537SOL     OW20509   6.680   5.202   6.912
 6537SOL    HW120510   6.687   5.102   6.903
 6537SOL    HW220511   6.584   5.228   6.919
 6538SOL     OW20512   2.751   3.359   6.845
 6538SOL    HW120513   2.849   3.373   6.855
 6538SOL    HW220514   2.726   3.367   6.749
 6539SOL     OW20515   3.928   0.765   5.967
 6539SOL    HW120516   3.856   0.812   5.916
 6539SOL    HW220517   3.994   0.725   5.903
 6540SOL     OW20518   4.553   1.883   5.251
 6540SOL    HW120519   4.487   1.919   5.318
 6540SOL    HW220520   4.561   1.784   5.261
 6541SOL     OW20521   4.785   1.873   5.033
 6541SOL    HW120522   4.815   1.779   5.051
 6541SOL    HW220523   4.780   1.924   5.119
 6542SOL     OW20524   6.080   4.320   4.297
 6542SOL    HW120525   6.082   4.420   4.290
 6542SOL    HW220526   6.167   4.283   4.265
 6543SOL     OW20527   5.964   3.246   5.422
 6543SOL    HW120528   6.037   3.180   5.404
 6543SOL    HW220529   5.921   3.225   5.510
 6544SOL     OW20530   0.394   6.420   2.808
 6544SOL    HW120531   0.324   6.366   2.856
 6544SOL    HW220532   0.351   6.468   2.731
 6545SOL     OW20533   4.509   1.820   0.478
 6545SOL    HW120534   4.570   1.891   0.512
 6545SOL    HW220535   4.437   1.802   0.545
 6546SOL     OW20536   3.506   4.250   6.810
 6546SOL    HW120537   3.562   4.202   6.877
 6546SOL    HW220538   3.419   4.278   6.852
 6547SOL     OW20539   4.390   1.697   5.578
 6547SOL    HW120540   4.442   1.612   5.566
 6547SOL    HW220541   4.444   1.761   5.634
 6548SOL     OW20542   1.257   4.393   6.980
 6548SOL    HW120543   1.249   4.311   6.923
 6548SOL    HW220544   1.351   4.403   7.012
 6549SOL     OW20545   4.571   0.938   1.307
 6549SOL    HW120546   4.601   0.852   1.348
 6549SOL    HW220547   4.471   0.943   1.307
 6550SOL     OW20548   0.543   6.701   4.320
 6550SOL    HW120549   0.621   6.648   4.354
 6550SOL    HW220550   0.471   6.638   4.291
 6551SOL     OW20551   1.377   4.846   2.591
 6551SOL    HW120552   1.310   4.895   2.647
 6551SOL    HW220553   1.414   4.769   2.644
 6552SOL     OW20554   1.879   6.554   5.695
 6552SOL    HW120555   1.796   6.544   5.639
 6552SOL    HW220556   1.854   6.593   5.784
 6553SOL     OW20557   0.601   2.016   3.162
 6553SOL    HW120558   0.646   2.103   3.184
 6553SOL    HW220559   0.630   1.946   3.229
 6554SOL     OW20560   6.869   1.111   5.121
 6554SOL    HW120561   6.791   1.067   5.075
 6554SOL    HW220562   6.945   1.117   5.056
 6555SOL     OW20563   0.105   2.289   2.349
 6555SOL    HW120564   0.106   2.251   2.256
 6555SOL    HW220565   0.151   2.378   2.349
 6556SOL     OW20566   5.211   4.547   4.951
 6556SOL    HW120567   5.210   4.603   4.867
 6556SOL    HW220568   5.169   4.458   4.932
 6557SOL     OW20569   3.346   6.401   1.501
 6557SOL    HW120570   3.273   6.441   1.445
 6557SOL    HW220571   3.422   6.374   1.442
 6558SOL     OW20572   6.100   4.898   0.296
 6558SOL    HW120573   6.079   4.972   0.360
 6558SOL    HW220574   6.018   4.873   0.245
 6559SOL     OW20575   1.060   4.458   5.994
 6559SOL    HW120576   1.149   4.430   6.031
 6559SOL    HW220577   1.075   4.521   5.917
 6560SOL     OW20578   4.420   5.460   0.865
 6560SOL    HW120579   4.435   5.449   0.767
 6560SOL    HW220580   4.502   5.431   0.915
 6561SOL     OW20581   3.811   4.201   1.794
 6561SOL    HW120582   3.747   4.136   1.753
 6561SOL    HW220583   3.796   4.292   1.756
 6562SOL     OW20584   5.574   4.062   1.081
 6562SOL    HW120585   5.567   4.017   0.992
 6562SOL    HW220586   5.527   4.006   1.150
 6563SOL     OW20587   5.807   6.612   0.681
 6563SOL    HW120588   5.816   6.524   0.634
 6563SOL    HW220589   5.890   6.666   0.667
 6564SOL     OW20590   6.988   4.404   3.413
 6564SOL    HW120591   7.020   4.381   3.505
 6564SOL    HW220592   6.907   4.464   3.420
 6565SOL     OW20593   6.563   2.662   3.645
 6565SOL    HW120594   6.495   2.595   3.674
 6565SOL    HW220595   6.643   2.615   3.607
 6566SOL     OW20596   3.768   5.743   2.572
 6566SOL    HW120597   3.864   5.771   2.582
 6566SOL    HW220598   3.762   5.667   2.507
 6567SOL     OW20599   4.129   1.483   1.681
 6567SOL    HW120600   4.144   1.571   1.637
 6567SOL    HW220601   4.032   1.473   1.706
 6568SOL     OW20602   4.256   1.121   3.913
 6568SOL    HW120603   4.340   1.067   3.902
 6568SOL    HW220604   4.273   1.196   3.976
 6569SOL     OW20605   2.754   3.414   6.555
 6569SOL    HW120606   2.708   3.461   6.481
 6569SOL    HW220607   2.780   3.322   6.525
 6570SOL     OW20608   4.069   0.461   2.567
 6570SOL    HW120609   4.038   0.481   2.474
 6570SOL    HW220610   4.096   0.546   2.613
 6571SOL     OW20611   2.488   5.473   2.043
 6571SOL    HW120612   2.407   5.448   2.096
 6571SOL    HW220613   2.551   5.527   2.099
 6572SOL     OW20614   6.614   5.033   5.918
 6572SOL    HW120615   6.536   5.095   5.909
 6572SOL    HW220616   6.592   4.961   5.983
 6573SOL     OW20617   2.579   1.437   1.948
 6573SOL    HW120618   2.515   1.401   2.016
 6573SOL    HW220619   2.644   1.498   1.993
 6574SOL     OW20620   3.465   5.687   3.151
 6574SOL    HW120621   3.400   5.682   3.226
 6574SOL    HW220622   3.451   5.610   3.089
 6575SOL     OW20623   1.086   0.333   2.119
 6575SOL    HW120624   1.017   0.404   2.110
 6575SOL    HW220625   1.082   0.293   2.211
 6576SOL     OW20626   2.300   5.759   6.337
 6576SOL    HW120627   2.283   5.851   6.372
 6576SOL    HW220628   2.269   5.753   6.242
 6577SOL     OW20629   0.611   0.983   4.009
 6577SOL    HW120630   0.698   0.992   4.058
 6577SOL    HW220631   0.554   1.063   4.026
 6578SOL     OW20632   1.307   4.346   3.018
 6578SOL    HW120633   1.229   4.284   3.016
 6578SOL    HW220634   1.275   4.441   3.021
 6579SOL     OW20635   6.862   3.459   5.290
 6579SOL    HW120636   6.895   3.482   5.382
 6579SOL    HW220637   6.916   3.510   5.223
 6580SOL     OW20638   6.869   2.016   0.766
 6580SOL    HW120639   6.960   1.980   0.787
 6580SOL    HW220640   6.857   2.105   0.810
 6581SOL     OW20641   2.299   1.340   0.055
 6581SOL    HW120642   2.274   1.249   0.022
 6581SOL    HW220643   2.378   1.333   0.115
 6582SOL     OW20644   1.435   1.185   1.315
 6582SOL    HW120645   1.402   1.092   1.300
 6582SOL    HW220646   1.369   1.250   1.276
 6583SOL     OW20647   3.398   0.042   4.530
 6583SOL    HW120648   3.459   7.008   4.586
 6583SOL    HW220649   3.303   0.017   4.549
 6584SOL     OW20650   4.173   1.700   0.429
 6584SOL    HW120651   4.113   1.643   0.485
 6584SOL    HW220652   4.194   1.652   0.344
 6585SOL     OW20653   6.645   6.370   0.226
 6585SOL    HW120654   6.647   6.361   0.127
 6585SOL    HW220655   6.727   6.417   0.257
 6586SOL     OW20656   6.990   1.579   5.829
 6586SOL    HW120657   6.957   1.518   5.757
 6586SOL    HW220658   6.953   1.550   5.917
 6587SOL     OW20659   2.561   6.234   4.950
 6587SOL    HW120660   2.620   6.304   4.910
 6587SOL    HW220661   2.595   6.209   5.040
 6588SOL     OW20662   1.098   3.944   1.936
 6588SOL    HW120663   1.107   3.845   1.949
 6588SOL    HW220664   1.124   3.968   1.843
 6589SOL     OW20665   5.151   0.498   0.478
 6589SOL    HW120666   5.094   0.577   0.457
 6589SOL    HW220667   5.156   0.438   0.398
 6590SOL     OW20668   1.167   0.879   5.203
 6590SOL    HW120669   1.153   0.878   5.302
 6590SOL    HW220670   1.232   0.807   5.178
 6591SOL     OW20671   5.466   5.910   1.766
 6591SOL    HW120672   5.434   5.822   1.802
 6591SOL    HW220673   5.558   5.899   1.728
 6592SOL     OW20674   6.115   6.899   4.121
 6592SOL    HW120675   6.041   6.945   4.171
 6592SOL    HW220676   6.158   6.830   4.180
 6593SOL     OW20677   2.795   1.727   2.825
 6593SOL    HW120678   2.884   1.728   2.872
 6593SOL    HW220679   2.726   1.770   2.884
 6594SOL     OW20680   3.667   2.139   0.049
 6594SOL    HW120681   3.572   2.159   0.028
 6594SOL    HW220682   3.692   2.051   0.010
 6595SOL     OW20683   0.908   3.495   0.374
 6595SOL    HW120684   0.830   3.555   0.387
 6595SOL    HW220685   0.885   3.403   0.403
 6596SOL     OW20686   3.220   6.115   4.431
 6596SOL    HW120687   3.135   6.145   4.388
 6596SOL    HW220688   3.236   6.019   4.410
 6597SOL     OW20689   2.677   5.413   2.261
 6597SOL    HW120690   2.673   5.313   2.263
 6597SOL    HW220691   2.645   5.450   2.348
 6598SOL     OW20692   1.327   6.569   4.072
 6598SOL    HW120693   1.235   6.534   4.094
 6598SOL    HW220694   1.358   6.630   4.145
 6599SOL     OW20695   5.193   6.939   5.550
 6599SOL    HW120696   5.223   6.871   5.617
 6599SOL    HW220697   5.272   6.973   5.500
 6600SOL     OW20698   5.015   5.317   6.070
 6600SOL    HW120699   5.073   5.296   5.992
 6600SOL    HW220700   4.920   5.292   6.049
 6601SOL     OW20701   0.989   1.955   5.280
 6601SOL    HW120702   0.963   1.858   5.285
 6601SOL    HW220703   0.928   2.002   5.217
 6602SOL     OW20704   0.910   1.655   1.616
 6602SOL    HW120705   0.959   1.621   1.696
 6602SOL    HW220706   0.921   1.591   1.540
 6603SOL     OW20707   0.366   2.856   3.979
 6603SOL    HW120708   0.423   2.834   4.058
 6603SOL    HW220709   0.325   2.772   3.942
 6604SOL     OW20710   2.234   6.652   1.304
 6604SOL    HW120711   2.172   6.641   1.226
 6604SOL    HW220712   2.207   6.590   1.378
 6605SOL     OW20713   5.444   3.948   1.529
 6605SOL    HW120714   5.357   3.930   1.574
 6605SOL    HW220715   5.516   3.960   1.597
 6606SOL     OW20716   6.409   6.395   2.357
 6606SOL    HW120717   6.490   6.451   2.372
 6606SOL    HW220718   6.374   6.411   2.265
 6607SOL     OW20719   1.537   2.855   2.508
 6607SOL    HW120720   1.587   2.771   2.486
 6607SOL    HW220721   1.551   2.922   2.435
 6608SOL     OW20722   6.360   6.565   1.395
 6608SOL    HW120723   6.285   6.627   1.414
 6608SOL    HW220724   6.408   6.594   1.312
 6609SOL     OW20725   4.796   1.140   5.691
 6609SOL    HW120726   4.728   1.202   5.730
 6609SOL    HW220727   4.879   1.191   5.669
 6610SOL     OW20728   2.219   0.814   6.971
 6610SOL    HW120729   2.155   0.836   6.897
 6610SOL    HW220730   2.184   0.735   7.021
 6611SOL     OW20731   6.375   3.114   3.515
 6611SOL    HW120732   6.277   3.125   3.503
 6611SOL    HW220733   6.395   3.023   3.549
 6612SOL     OW20734   6.405   1.855   6.545
 6612SOL    HW120735   6.418   1.757   6.560
 6612SOL    HW220736   6.356   1.895   6.623
 6613SOL     OW20737   6.781   6.198   5.089
 6613SOL    HW120738   6.776   6.265   5.163
 6613SOL    HW220739   6.836   6.234   5.014
 6614SOL     OW20740   5.323   6.150   1.024
 6614SOL    HW120741   5.312   6.249   1.036
 6614SOL    HW220742   5.415   6.130   0.991
 6615SOL     OW20743   1.305   4.749   2.134
 6615SOL    HW120744   1.358   4.726   2.216
 6615SOL    HW220745   1.320   4.845   2.110
 6616SOL     OW20746   3.427   1.288   6.409
 6616SOL    HW120747   3.430   1.322   6.503
 6616SOL    HW220748   3.416   1.189   6.409
 6617SOL     OW20749   3.971   5.080   2.727
 6617SOL    HW120750   3.882   5.070   2.771
 6617SOL    HW220751   4.021   5.155   2.770
 6618SOL     OW20752   1.104   2.771   2.324
 6618SOL    HW120753   1.108   2.832   2.403
 6618SOL    HW220754   1.180   2.707   2.328
 6619SOL     OW20755   6.212   0.191   4.430
 6619SOL    HW120756   6.291   0.205   4.489
 6619SOL    HW220757   6.136   0.249   4.460
 6620SOL     OW20758   1.194   2.855   5.570
 6620SOL    HW120759   1.290   2.864   5.544
 6620SOL    HW220760   1.187   2.808   5.658
 6621SOL     OW20761   2.275   3.195   6.341
 6621SOL    HW120762   2.191   3.157   6.304
 6621SOL    HW220763   2.352   3.136   6.317
 6622SOL     OW20764   5.841   0.099   1.405
 6622SOL    HW120765   5.742   0.110   1.412
 6622SOL    HW220766   5.875   0.154   1.329
 6623SOL     OW20767   2.487   2.922   6.289
 6623SOL    HW120768   2.545   2.942   6.210
 6623SOL    HW220769   2.533   2.951   6.373
 6624SOL     OW20770   0.800   5.841   5.044
 6624SOL    HW120771   0.887   5.807   5.079
 6624SOL    HW220772   0.728   5.773   5.061
 6625SOL     OW20773   5.305   2.064   5.369
 6625SOL    HW120774   5.355   2.151   5.366
 6625SOL    HW220775   5.245   2.058   5.289
 6626SOL     OW20776   4.934   5.480   5.816
 6626SOL    HW120777   5.017   5.466   5.762
 6626SOL    HW220778   4.883   5.557   5.779
 6627SOL     OW20779   2.766   0.144   5.172
 6627SOL    HW120780   2.686   0.084   5.163
 6627SOL    HW220781   2.743   0.220   5.233
 6628SOL     OW20782   4.645   4.467   4.829
 6628SOL    HW120783   4.617   4.423   4.914
 6628SOL    HW220784   4.620   4.563   4.831
 6629SOL     OW20785   4.562   6.045   0.281
 6629SOL    HW120786   4.553   5.985   0.360
 6629SOL    HW220787   4.657   6.042   0.249
 6630SOL     OW20788   3.957   1.154   1.564
 6630SOL    HW120789   3.983   1.250   1.561
 6630SOL    HW220790   3.941   1.121   1.471
 6631SOL     OW20791   2.640   5.464   2.794
 6631SOL    HW120792   2.671   5.395   2.859
 6631SOL    HW220793   2.715   5.526   2.772
 6632SOL     OW20794   0.351   6.237   1.334
 6632SOL    HW120795   0.377   6.333   1.323
 6632SOL    HW220796   0.345   6.193   1.245
 6633SOL     OW20797   0.849   4.504   6.388
 6633SOL    HW120798   0.861   4.559   6.306
 6633SOL    HW220799   0.780   4.434   6.372
 6634SOL     OW20800   6.266   2.403   4.033
 6634SOL    HW120801   6.173   2.405   4.070
 6634SOL    HW220802   6.313   2.488   4.057
 6635SOL     OW20803   4.335   4.657   3.085
 6635SOL    HW120804   4.374   4.631   2.996
 6635SOL    HW220805   4.392   4.620   3.158
 6636SOL     OW20806   4.857   2.585   5.641
 6636SOL    HW120807   4.762   2.603   5.668
 6636SOL    HW220808   4.915   2.583   5.722
 6637SOL     OW20809   1.263   0.139   6.542
 6637SOL    HW120810   1.289   0.220   6.593
 6637SOL    HW220811   1.298   0.057   6.588
 6638SOL     OW20812   3.276   3.801   4.046
 6638SOL    HW120813   3.253   3.718   4.096
 6638SOL    HW220814   3.259   3.881   4.104
 6639SOL     OW20815   5.695   5.009   6.443
 6639SOL    HW120816   5.697   5.102   6.406
 6639SOL    HW220817   5.782   4.964   6.425
 6640SOL     OW20818   1.281   1.831   5.252
 6640SOL    HW120819   1.357   1.894   5.236
 6640SOL    HW220820   1.205   1.880   5.295
 6641SOL     OW20821   2.089   1.916   6.868
 6641SOL    HW120822   1.998   1.895   6.831
 6641SOL    HW220823   2.118   2.006   6.834
 6642SOL     OW20824   3.248   4.997   6.370
 6642SOL    HW120825   3.288   4.930   6.434
 6642SOL    HW220826   3.166   4.959   6.328
 6643SOL     OW20827   6.247   5.482   0.333
 6643SOL    HW120828   6.347   5.479   0.332
 6643SOL    HW220829   6.215   5.557   0.274
 6644SOL     OW20830   2.442   4.768   2.046
 6644SOL    HW120831   2.488   4.683   2.019
 6644SOL    HW220832   2.343   4.755   2.046
 6645SOL     OW20833   6.710   5.348   0.400
 6645SOL    HW120834   6.711   5.399   0.486
 6645SOL    HW220835   6.664   5.402   0.329
 6646SOL     OW20836   3.918   7.007   5.159
 6646SOL    HW120837   3.999   7.022   5.103
 6646SOL    HW220838   3.845   6.968   5.104
 6647SOL     OW20839   4.358   1.004   2.163
 6647SOL    HW120840   4.428   0.939   2.193
 6647SOL    HW220841   4.273   0.986   2.212
 6648SOL     OW20842   4.081   0.179   2.257
 6648SOL    HW120843   4.049   0.113   2.326
 6648SOL    HW220844   4.094   0.268   2.301
 6649SOL     OW20845   5.563   0.509   6.783
 6649SOL    HW120846   5.489   0.470   6.728
 6649SOL    HW220847   5.538   0.505   6.880
 6650SOL     OW20848   2.911   1.655   4.839
 6650SOL    HW120849   2.898   1.715   4.918
 6650SOL    HW220850   3.009   1.640   4.824
 6651SOL     OW20851   2.015   1.644   5.869
 6651SOL    HW120852   2.029   1.702   5.949
 6651SOL    HW220853   2.074   1.674   5.795
 6652SOL     OW20854   0.270   4.488   0.480
 6652SOL    HW120855   0.369   4.499   0.470
 6652SOL    HW220856   0.250   4.395   0.510
 6653SOL     OW20857   3.572   2.884   2.673
 6653SOL    HW120858   3.476   2.858   2.662
 6653SOL    HW220859   3.593   2.894   2.771
 6654SOL     OW20860   1.912   3.640   1.731
 6654SOL    HW120861   1.845   3.581   1.686
 6654SOL    HW220862   1.890   3.736   1.714
 6655SOL     OW20863   1.634   6.983   2.857
 6655SOL    HW120864   1.592   6.910   2.803
 6655SOL    HW220865   1.659   0.036   2.797
 6656SOL     OW20866   6.305   2.059   2.140
 6656SOL    HW120867   6.402   2.078   2.156
 6656SOL    HW220868   6.267   2.009   2.217
 6657SOL     OW20869   6.007   6.531   6.649
 6657SOL    HW120870   5.960   6.509   6.564
 6657SOL    HW220871   5.959   6.607   6.695
 6658SOL     OW20872   6.400   0.970   5.306
 6658SOL    HW120873   6.415   0.895   5.371
 6658SOL    HW220874   6.346   1.042   5.350
 6659SOL     OW20875   2.224   2.467   0.511
 6659SOL    HW120876   2.258   2.560   0.520
 6659SOL    HW220877   2.169   2.443   0.591
 6660SOL     OW20878   1.153   5.671   0.783
 6660SOL    HW120879   1.112   5.676   0.874
 6660SOL    HW220880   1.081   5.662   0.714
 6661SOL     OW20881   0.974   6.613   4.587
 6661SOL    HW120882   0.940   6.549   4.655
 6661SOL    HW220883   1.053   6.572   4.540
 6662SOL     OW20884   0.766   1.213   0.065
 6662SOL    HW120885   0.667   1.204   0.075
 6662SOL    HW220886   0.797   1.293   0.115
 6663SOL     OW20887   0.252   5.464   4.114
 6663SOL    HW120888   0.240   5.365   4.105
 6663SOL    HW220889   0.336   5.492   4.069
 6664SOL     OW20890   2.681   6.082   6.955
 6664SOL    HW120891   2.659   6.004   7.014
 6664SOL    HW220892   2.780   6.096   6.955
 6665SOL     OW20893   1.560   6.472   4.008
 6665SOL    HW120894   1.561   6.410   3.929
 6665SOL    HW220895   1.465   6.496   4.030
 6666SOL     OW20896   5.570   6.958   5.665
 6666SOL    HW120897   5.529   6.920   5.582
 6666SOL    HW220898   5.572   0.035   5.659
 6667SOL     OW20899   6.510   5.782   6.524
 6667SOL    HW120900   6.602   5.815   6.547
 6667SOL    HW220901   6.499   5.689   6.560
 6668SOL     OW20902   6.709   6.083   1.521
 6668SOL    HW120903   6.765   6.043   1.593
 6668SOL    HW220904   6.726   6.182   1.517
 6669SOL     OW20905   1.747   2.382   3.763
 6669SOL    HW120906   1.719   2.404   3.670
 6669SOL    HW220907   1.744   2.464   3.820
 6670SOL     OW20908   4.022   2.489   5.397
 6670SOL    HW120909   3.973   2.402   5.391
 6670SOL    HW220910   4.069   2.508   5.310
 6671SOL     OW20911   6.023   5.788   1.221
 6671SOL    HW120912   5.994   5.800   1.126
 6671SOL    HW220913   5.994   5.867   1.275
 6672SOL     OW20914   6.696   1.769   6.253
 6672SOL    HW120915   6.706   1.867   6.268
 6672SOL    HW220916   6.599   1.744   6.260
 6673SOL     OW20917   5.728   6.059   3.959
 6673SOL    HW120918   5.660   6.071   4.032
 6673SOL    HW220919   5.706   5.977   3.907
 6674SOL     OW20920   0.838   5.124   5.871
 6674SOL    HW120921   0.803   5.144   5.962
 6674SOL    HW220922   0.764   5.089   5.813
 6675SOL     OW20923   4.897   3.444   2.038
 6675SOL    HW120924   4.854   3.409   1.954
 6675SOL    HW220925   4.892   3.374   2.109
 6676SOL     OW20926   6.905   4.221   5.633
 6676SOL    HW120927   6.829   4.281   5.657
 6676SOL    HW220928   6.874   4.154   5.565
 6677SOL     OW20929   0.860   1.732   6.255
 6677SOL    HW120930   0.869   1.643   6.209
 6677SOL    HW220931   0.765   1.761   6.253
 6678SOL     OW20932   3.024   3.237   6.647
 6678SOL    HW120933   3.063   3.151   6.679
 6678SOL    HW220934   2.951   3.218   6.581
 6679SOL     OW20935   2.126   1.768   3.677
 6679SOL    HW120936   2.026   1.772   3.684
 6679SOL    HW220937   2.152   1.696   3.613
 6680SOL     OW20938   4.361   0.325   6.452
 6680SOL    HW120939   4.347   0.292   6.546
 6680SOL    HW220940   4.381   0.248   6.393
 6681SOL     OW20941   4.429   5.818   0.746
 6681SOL    HW120942   4.340   5.782   0.776
 6681SOL    HW220943   4.496   5.805   0.819
 6682SOL     OW20944   1.224   4.230   3.316
 6682SOL    HW120945   1.194   4.323   3.333
 6682SOL    HW220946   1.323   4.230   3.298
 6683SOL     OW20947   5.956   2.914   5.557
 6683SOL    HW120948   5.874   2.970   5.553
 6683SOL    HW220949   5.991   2.899   5.464
 6684SOL     OW20950   2.611   6.594   1.600
 6684SOL    HW120951   2.536   6.627   1.543
 6684SOL    HW220952   2.584   6.595   1.696
 6685SOL     OW20953   6.097   3.346   5.891
 6685SOL    HW120954   6.070   3.254   5.862
 6685SOL    HW220955   6.027   3.383   5.952
 6686SOL     OW20956   5.296   5.922   4.758
 6686SOL    HW120957   5.332   5.994   4.817
 6686SOL    HW220958   5.271   5.843   4.814
 6687SOL     OW20959   0.797   3.052   0.553
 6687SOL    HW120960   0.761   2.966   0.517
 6687SOL    HW220961   0.723   3.105   0.594
 6688SOL     OW20962   0.017   4.544   1.543
 6688SOL    HW120963   6.996   4.465   1.586
 6688SOL    HW220964   0.113   4.547   1.570
 6689SOL     OW20965   4.612   2.977   6.974
 6689SOL    HW120966   4.528   2.979   0.007
 6689SOL    HW220967   4.617   2.890   6.926
 6690SOL     OW20968   2.455   0.913   0.884
 6690SOL    HW120969   2.459   0.855   0.802
 6690SOL    HW220970   2.540   0.903   0.936
 6691SOL     OW20971   3.069   6.169   1.412
 6691SOL    HW120972   3.081   6.114   1.330
 6691SOL    HW220973   3.109   6.122   1.491
 6692SOL     OW20974   4.040   3.998   5.152
 6692SOL    HW120975   4.070   3.924   5.091
 6692SOL    HW220976   3.969   4.051   5.106
 6693SOL     OW20977   4.209   3.850   5.499
 6693SOL    HW120978   4.182   3.938   5.460
 6693SOL    HW220979   4.276   3.807   5.438
 6694SOL     OW20980   4.814   5.139   0.626
 6694SOL    HW120981   4.859   5.206   0.567
 6694SOL    HW220982   4.832   5.047   0.590
 6695SOL     OW20983   2.845   1.358   6.720
 6695SOL    HW120984   2.933   1.401   6.700
 6695SOL    HW220985   2.806   1.322   6.635
 6696SOL     OW20986   1.233   3.121   5.876
 6696SOL    HW120987   1.254   3.201   5.932
 6696SOL    HW220988   1.293   3.045   5.902
 6697SOL     OW20989   4.674   2.235   2.462
 6697SOL    HW120990   4.673   2.216   2.560
 6697SOL    HW220991   4.595   2.192   2.419
 6698SOL     OW20992   2.854   2.818   1.191
 6698SOL    HW120993   2.783   2.775   1.246
 6698SOL    HW220994   2.880   2.757   1.117
 6699SOL     OW20995   3.076   5.272   5.873
 6699SOL    HW120996   3.072   5.345   5.942
 6699SOL    HW220997   2.997   5.279   5.813
 6700SOL     OW20998   7.021   6.705   0.481
 6700SOL    HW120999   0.093   6.674   0.482
 6700SOL    HW221000   7.013   6.790   0.533
 6701SOL     OW21001   5.534   2.777   1.518
 6701SOL    HW121002   5.618   2.770   1.571
 6701SOL    HW221003   5.523   2.870   1.483
 6702SOL     OW21004   2.801   2.008   1.771
 6702SOL    HW121005   2.822   2.025   1.675
 6702SOL    HW221006   2.744   2.083   1.806
 6703SOL     OW21007   6.415   2.272   6.643
 6703SOL    HW121008   6.470   2.352   6.619
 6703SOL    HW221009   6.417   2.259   6.742
 6704SOL     OW21010   3.486   1.870   3.051
 6704SOL    HW121011   3.461   1.930   2.975
 6704SOL    HW221012   3.518   1.925   3.128
 6705SOL     OW21013   6.699   2.019   1.138
 6705SOL    HW121014   6.646   2.103   1.133
 6705SOL    HW221015   6.791   2.035   1.103
 6706SOL     OW21016   1.438   3.849   1.988
 6706SOL    HW121017   1.451   3.917   1.916
 6706SOL    HW221018   1.470   3.760   1.955
 6707SOL     OW21019   6.993   6.269   3.684
 6707SOL    HW121020   7.012   6.226   3.596
 6707SOL    HW221021   6.928   6.213   3.735
 6708SOL     OW21022   6.937   5.306   2.411
 6708SOL    HW121023   6.943   5.220   2.360
 6708SOL    HW221024   6.846   5.347   2.397
 6709SOL     OW21025   2.935   6.946   2.302
 6709SOL    HW121026   2.991   7.009   2.248
 6709SOL    HW221027   2.846   6.988   2.321
 6710SOL     OW21028   3.080   1.112   5.292
 6710SOL    HW121029   3.052   1.175   5.364
 6710SOL    HW221030   3.177   1.123   5.272
 6711SOL     OW21031   5.085   5.338   6.912
 6711SOL    HW121032   5.002   5.326   6.967
 6711SOL    HW221033   5.163   5.349   6.973
 6712SOL     OW21034   4.697   5.130   0.272
 6712SOL    HW121035   4.661   5.120   0.179
 6712SOL    HW221036   4.623   5.155   0.334
 6713SOL     OW21037   2.442   0.823   2.687
 6713SOL    HW121038   2.525   0.875   2.668
 6713SOL    HW221039   2.449   0.733   2.645
 6714SOL     OW21040   6.376   1.117   6.447
 6714SOL    HW121041   6.324   1.158   6.373
 6714SOL    HW221042   6.474   1.135   6.434
 6715SOL     OW21043   6.869   0.113   6.100
 6715SOL    HW121044   6.914   0.157   6.178
 6715SOL    HW221045   6.810   0.040   6.132
 6716SOL     OW21046   0.159   5.938   1.650
 6716SOL    HW121047   0.210   5.858   1.617
 6716SOL    HW221048   0.187   5.959   1.743
 6717SOL     OW21049   4.239   2.370   0.222
 6717SOL    HW121050   4.195   2.313   0.152
 6717SOL    HW221051   4.277   2.452   0.179
 6718SOL     OW21052   4.926   0.184   6.230
 6718SOL    HW121053   4.875   0.266   6.254
 6718SOL    HW221054   4.999   0.208   6.165
 6719SOL     OW21055   1.739   6.805   6.646
 6719SOL    HW121056   1.828   6.763   6.664
 6719SOL    HW221057   1.715   6.793   6.550
 6720SOL     OW21058   0.704   5.956   3.373
 6720SOL    HW121059   0.629   5.898   3.406
 6720SOL    HW221060   0.683   6.051   3.394
 6721SOL     OW21061   6.487   0.682   5.742
 6721SOL    HW121062   6.478   0.766   5.795
 6721SOL    HW221063   6.567   0.631   5.773
 6722SOL     OW21064   7.002   3.666   1.353
 6722SOL    HW121065   6.985   3.652   1.255
 6722SOL    HW221066   6.928   3.624   1.406
 6723SOL     OW21067   2.195   6.611   3.191
 6723SOL    HW121068   2.159   6.629   3.099
 6723SOL    HW221069   2.224   6.696   3.233
 6724SOL     OW21070   1.280   3.830   5.574
 6724SOL    HW121071   1.183   3.822   5.549
 6724SOL    HW221072   1.286   3.862   5.669
 6725SOL     OW21073   1.247   4.007   1.066
 6725SOL    HW121074   1.332   3.957   1.050
 6725SOL    HW221075   1.173   3.943   1.085
 6726SOL     OW21076   0.674   1.964   4.998
 6726SOL    HW121077   0.706   2.056   4.977
 6726SOL    HW221078   0.612   1.968   5.077
 6727SOL     OW21079   6.213   3.868   5.958
 6727SOL    HW121080   6.198   3.863   6.056
 6727SOL    HW221081   6.190   3.781   5.915
 6728SOL     OW21082   4.373   1.453   3.730
 6728SOL    HW121083   4.314   1.408   3.797
 6728SOL    HW221084   4.462   1.472   3.771
 6729SOL     OW21085   6.953   1.604   2.522
 6729SOL    HW121086   0.012   1.576   2.473
 6729SOL    HW221087   6.936   1.701   2.506
 6730SOL     OW21088   2.581   5.887   6.479
 6730SOL    HW121089   2.545   5.794   6.475
 6730SOL    HW221090   2.520   5.944   6.534
 6731SOL     OW21091   1.023   5.617   1.039
 6731SOL    HW121092   0.996   5.701   1.086
 6731SOL    HW221093   1.096   5.572   1.091
 6732SOL     OW21094   5.307   5.034   6.067
 6732SOL    HW121095   5.330   5.038   6.164
 6732SOL    HW221096   5.301   5.127   6.030
 6733SOL     OW21097   3.943   4.483   0.516
 6733SOL    HW121098   3.947   4.540   0.434
 6733SOL    HW221099   3.973   4.536   0.595
 6734SOL     OW21100   6.312   2.453   4.854
 6734SOL    HW121101   6.286   2.412   4.941
 6734SOL    HW221102   6.231   2.492   4.811
 6735SOL     OW21103   6.945   4.826   4.779
 6735SOL    HW121104   6.986   4.916   4.768
 6735SOL    HW221105   7.014   4.755   4.762
 6736SOL     OW21106   3.367   3.785   6.809
 6736SOL    HW121107   3.323   3.705   6.851
 6736SOL    HW221108   3.318   3.810   6.726
 6737SOL     OW21109   1.923   2.685   0.688
 6737SOL    HW121110   1.913   2.756   0.618
 6737SOL    HW221111   1.883   2.600   0.655
 6738SOL     OW21112   1.805   4.285   2.940
 6738SOL    HW121113   1.880   4.246   2.993
 6738SOL    HW221114   1.817   4.261   2.843
 6739SOL     OW21115   3.748   4.879   5.842
 6739SOL    HW121116   3.841   4.860   5.874
 6739SOL    HW221117   3.708   4.952   5.898
 6740SOL     OW21118   1.739   1.275   4.162
 6740SOL    HW121119   1.667   1.258   4.229
 6740SOL    HW221120   1.740   1.373   4.139
 6741SOL     OW21121   4.097   1.273   5.751
 6741SOL    HW121122   4.144   1.354   5.785
 6741SOL    HW221123   4.056   1.223   5.827
 6742SOL     OW21124   6.416   6.030   2.914
 6742SOL    HW121125   6.372   6.103   2.967
 6742SOL    HW221126   6.363   6.012   2.831
 6743SOL     OW21127   4.204   4.374   0.377
 6743SOL    HW121128   4.188   4.374   0.476
 6743SOL    HW221129   4.286   4.319   0.357
 6744SOL     OW21130   5.312   6.008   6.197
 6744SOL    HW121131   5.288   6.104   6.184
 6744SOL    HW221132   5.348   5.994   6.289
 6745SOL     OW21133   0.310   0.015   2.454
 6745SOL    HW121134   0.292   0.048   2.362
 6745SOL    HW221135   0.227   6.994   2.491
 6746SOL     OW21136   0.643   1.218   2.940
 6746SOL    HW121137   0.667   1.270   2.859
 6746SOL    HW221138   0.669   1.269   3.022
 6747SOL     OW21139   5.593   0.950   4.811
 6747SOL    HW121140   5.648   0.937   4.893
 6747SOL    HW221141   5.507   0.996   4.835
 6748SOL     OW21142   1.297   0.193   3.468
 6748SOL    HW121143   1.323   0.115   3.526
 6748SOL    HW221144   1.317   0.172   3.373
 6749SOL     OW21145   2.670   5.982   0.323
 6749SOL    HW121146   2.627   5.939   0.243
 6749SOL    HW221147   2.712   5.912   0.381
 6750SOL     OW21148   4.588   1.381   5.077
 6750SOL    HW121149   4.535   1.298   5.060
 6750SOL    HW221150   4.648   1.398   4.999
 6751SOL     OW21151   3.860   1.050   3.348
 6751SOL    HW121152   3.851   1.078   3.444
 6751SOL    HW221153   3.923   1.112   3.301
 6752SOL     OW21154   0.018   3.248   2.804
 6752SOL    HW121155   0.053   3.253   2.897
 6752SOL    HW221156   0.067   3.176   2.754
 6753SOL     OW21157   4.375   0.949   6.087
 6753SOL    HW121158   4.315   0.950   6.006
 6753SOL    HW221159   4.335   1.006   6.158
 6754SOL     OW21160   6.951   1.878   0.155
 6754SOL    HW121161   6.864   1.914   0.121
 6754SOL    HW221162   6.938   1.785   0.187
 6755SOL     OW21163   4.455   1.321   3.223
 6755SOL    HW121164   4.420   1.259   3.153
 6755SOL    HW221165   4.509   1.393   3.180
 6756SOL     OW21166   4.095   4.950   4.695
 6756SOL    HW121167   4.026   4.883   4.725
 6756SOL    HW221168   4.083   4.968   4.598
 6757SOL     OW21169   4.301   0.381   1.527
 6757SOL    HW121170   4.203   0.373   1.512
 6757SOL    HW221171   4.350   0.326   1.459
 6758SOL     OW21172   6.791   2.983   0.742
 6758SOL    HW121173   6.771   2.891   0.709
 6758SOL    HW221174   6.860   2.978   0.814
 6759SOL     OW21175   0.900   4.261   4.577
 6759SOL    HW121176   0.936   4.324   4.647
 6759SOL    HW221177   0.949   4.276   4.491
 6760SOL     OW21178   6.777   4.893   4.094
 6760SOL    HW121179   6.683   4.925   4.109
 6760SOL    HW221180   6.796   4.817   4.155
 6761SOL     OW21181   6.209   2.503   6.412
 6761SOL    HW121182   6.128   2.562   6.416
 6761SOL    HW221183   6.290   2.558   6.391
 6762SOL     OW21184   6.820   5.724   3.360
 6762SOL    HW121185   6.797   5.690   3.269
 6762SOL    HW221186   6.748   5.700   3.424
 6763SOL     OW21187   7.012   5.462   3.789
 6763SOL    HW121188   0.086   5.457   3.767
 6763SOL    HW221189   6.964   5.385   3.747
 6764SOL     OW21190   2.834   5.123   6.255
 6764SOL    HW121191   2.746   5.083   6.279
 6764SOL    HW221192   2.899   5.051   6.232
 6765SOL     OW21193   4.686   5.095   3.889
 6765SOL    HW121194   4.689   4.995   3.888
 6765SOL    HW221195   4.658   5.126   3.980
 6766SOL     OW21196   4.338   6.650   6.444
 6766SOL    HW121197   4.334   6.564   6.494
 6766SOL    HW221198   4.431   6.664   6.408
 6767SOL     OW21199   0.963   2.289   0.494
 6767SOL    HW121200   0.927   2.201   0.527
 6767SOL    HW221201   1.057   2.276   0.461
 6768SOL     OW21202   6.970   6.522   3.726
 6768SOL    HW121203   6.924   6.529   3.815
 6768SOL    HW221204   6.977   6.425   3.700
 6769SOL     OW21205   3.077   0.558   5.478
 6769SOL    HW121206   3.080   0.526   5.384
 6769SOL    HW221207   3.063   0.657   5.479
 6770SOL     OW21208   6.626   2.018   2.951
 6770SOL    HW121209   6.529   1.994   2.948
 6770SOL    HW221210   6.671   1.987   2.867
 6771SOL     OW21211   3.513   1.041   2.973
 6771SOL    HW121212   3.485   0.946   2.981
 6771SOL    HW221213   3.559   1.070   3.057
 6772SOL     OW21214   5.464   2.713   2.615
 6772SOL    HW121215   5.383   2.733   2.669
 6772SOL    HW221216   5.464   2.617   2.589
 6773SOL     OW21217   6.742   6.955   1.896
 6773SOL    HW121218   6.749   0.032   1.905
 6773SOL    HW221219   6.646   6.929   1.888
 6774SOL     OW21220   1.962   2.514   4.844
 6774SOL    HW121221   2.045   2.559   4.877
 6774SOL    HW221222   1.940   2.437   4.904
 6775SOL     OW21223   0.666   2.376   3.456
 6775SOL    HW121224   0.730   2.402   3.529
 6775SOL    HW221225   0.585   2.333   3.497
 6776SOL     OW21226   3.861   3.297   1.335
 6776SOL    HW121227   3.842   3.346   1.250
 6776SOL    HW221228   3.906   3.211   1.315
 6777SOL     OW21229   4.279   6.000   0.596
 6777SOL    HW121230   4.315   6.062   0.526
 6777SOL    HW221231   4.354   5.969   0.655
 6778SOL     OW21232   6.194   3.543   2.392
 6778SOL    HW121233   6.176   3.567   2.487
 6778SOL    HW221234   6.119   3.487   2.357
 6779SOL     OW21235   5.556   5.245   6.805
 6779SOL    HW121236   5.639   5.281   6.762
 6779SOL    HW221237   5.492   5.216   6.734
 6780SOL     OW21238   1.595   3.303   2.776
 6780SOL    HW121239   1.637   3.388   2.748
 6780SOL    HW221240   1.569   3.249   2.696
 6781SOL     OW21241   6.696   1.946   3.602
 6781SOL    HW121242   6.596   1.943   3.595
 6781SOL    HW221243   6.726   2.041   3.601
 6782SOL     OW21244   0.664   1.024   3.291
 6782SOL    HW121245   0.672   0.924   3.300
 6782SOL    HW221246   0.749   1.061   3.252
 6783SOL     OW21247   0.722   3.841   5.217
 6783SOL    HW121248   0.660   3.785   5.163
 6783SOL    HW221249   0.723   3.934   5.182
 6784SOL     OW21250   2.326   4.342   1.642
 6784SOL    HW121251   2.236   4.326   1.683
 6784SOL    HW221252   2.343   4.440   1.634
 6785SOL     OW21253   5.747   5.208   5.832
 6785SOL    HW121254   5.703   5.280   5.885
 6785SOL    HW221255   5.690   5.126   5.833
 6786SOL     OW21256   0.308   3.257   6.018
 6786SOL    HW121257   0.275   3.288   6.108
 6786SOL    HW221258   0.283   3.324   5.949
 6787SOL     OW21259   3.251   2.111   1.459
 6787SOL    HW121260   3.287   2.134   1.550
 6787SOL    HW221261   3.218   2.194   1.415
 6788SOL     OW21262   0.445   4.219   2.496
 6788SOL    HW121263   0.454   4.133   2.547
 6788SOL    HW221264   0.532   4.268   2.497
 6789SOL     OW21265   0.110   4.588   4.125
 6789SOL    HW121266   0.040   4.532   4.169
 6789SOL    HW221267   0.162   4.637   4.196
 6790SOL     OW21268   0.501   4.381   6.785
 6790SOL    HW121269   0.545   4.397   6.873
 6790SOL    HW221270   0.453   4.464   6.756
 6791SOL     OW21271   4.299   2.004   3.067
 6791SOL    HW121272   4.261   2.004   2.974
 6791SOL    HW221273   4.344   1.916   3.084
 6792SOL     OW21274   4.729   0.329   5.259
 6792SOL    HW121275   4.719   0.341   5.357
 6792SOL    HW221276   4.751   0.234   5.239
 6793SOL     OW21277   3.233   1.475   6.896
 6793SOL    HW121278   3.251   1.510   6.988
 6793SOL    HW221279   3.164   1.533   6.851
 6794SOL     OW21280   4.586   1.472   5.597
 6794SOL    HW121281   4.673   1.476   5.548
 6794SOL    HW221282   4.604   1.465   5.696
 6795SOL     OW21283   1.013   6.962   0.125
 6795SOL    HW121284   0.948   6.888   0.110
 6795SOL    HW221285   1.019   7.018   0.043
 6796SOL     OW21286   5.625   0.111   2.761
 6796SOL    HW121287   5.633   0.210   2.776
 6796SOL    HW221288   5.699   0.064   2.808
 6797SOL     OW21289   6.595   1.609   0.419
 6797SOL    HW121290   6.546   1.643   0.499
 6797SOL    HW221291   6.627   1.516   0.437
 6798SOL     OW21292   6.255   0.474   1.172
 6798SOL    HW121293   6.280   0.430   1.085
 6798SOL    HW221294   6.315   0.553   1.187
 6799SOL     OW21295   5.265   0.214   2.750
 6799SOL    HW121296   5.270   0.187   2.846
 6799SOL    HW221297   5.309   0.145   2.693
 6800SOL     OW21298   2.128   2.234   1.833
 6800SOL    HW121299   2.224   2.224   1.806
 6800SOL    HW221300   2.115   2.321   1.880
 6801SOL     OW21301   0.548   6.367   3.627
 6801SOL    HW121302   0.561   6.450   3.681
 6801SOL    HW221303   0.450   6.346   3.621
 6802SOL     OW21304   3.674   5.663   0.625
 6802SOL    HW121305   3.755   5.694   0.675
 6802SOL    HW221306   3.694   5.659   0.527
 6803SOL     OW21307   4.512   3.367   0.149
 6803SOL    HW121308   4.529   3.290   0.211
 6803SOL    HW221309   4.463   3.439   0.197
 6804SOL     OW21310   3.316   5.208   2.647
 6804SOL    HW121311   3.404   5.172   2.680
 6804SOL    HW221312   3.254   5.219   2.725
 6805SOL     OW21313   0.834   5.212   0.278
 6805SOL    HW121314   0.804   5.126   0.238
 6805SOL    HW221315   0.889   5.263   0.210
 6806SOL     OW21316   0.112   0.554   4.067
 6806SOL    HW121317   0.175   0.547   4.145
 6806SOL    HW221318   0.032   0.496   4.083
 6807SOL     OW21319   3.650   4.087   3.415
 6807SOL    HW121320   3.638   4.114   3.510
 6807SOL    HW221321   3.577   4.128   3.359
 6808SOL     OW21322   5.989   1.360   4.816
 6808SOL    HW121323   6.007   1.329   4.909
 6808SOL    HW221324   6.009   1.458   4.810
 6809SOL     OW21325   5.992   4.146   0.673
 6809SOL    HW121326   5.963   4.122   0.766
 6809SOL    HW221327   6.082   4.106   0.656
 6810SOL     OW21328   3.336   0.772   3.019
 6810SOL    HW121329   3.243   0.761   3.054
 6810SOL    HW221330   3.342   0.736   2.926
 6811SOL     OW21331   6.680   3.207   1.841
 6811SOL    HW121332   6.753   3.141   1.857
 6811SOL    HW221333   6.606   3.190   1.905
 6812SOL     OW21334   3.431   3.868   4.734
 6812SOL    HW121335   3.516   3.832   4.771
 6812SOL    HW221336   3.355   3.810   4.763
 6813SOL     OW21337   5.590   3.414   2.436
 6813SOL    HW121338   5.554   3.334   2.483
 6813SOL    HW221339   5.672   3.447   2.483
 6814SOL     OW21340   4.738   1.828   6.508
 6814SOL    HW121341   4.653   1.793   6.469
 6814SOL    HW221342   4.810   1.759   6.497
 6815SOL     OW21343   1.653   5.806   6.812
 6815SOL    HW121344   1.662   5.898   6.851
 6815SOL    HW221345   1.744   5.770   6.792
 6816SOL     OW21346   7.000   2.007   4.541
 6816SOL    HW121347   0.072   1.985   4.520
 6816SOL    HW221348   6.980   1.981   4.635
 6817SOL     OW21349   2.428   2.610   4.052
 6817SOL    HW121350   2.395   2.702   4.073
 6817SOL    HW221351   2.461   2.608   3.957
 6818SOL     OW21352   2.398   6.146   0.190
 6818SOL    HW121353   2.385   6.125   0.287
 6818SOL    HW221354   2.396   6.061   0.137
 6819SOL     OW21355   4.499   0.795   2.816
 6819SOL    HW121356   4.443   0.818   2.895
 6819SOL    HW221357   4.440   0.782   2.736
 6820SOL     OW21358   1.336   5.741   1.771
 6820SOL    HW121359   1.371   5.650   1.795
 6820SOL    HW221360   1.378   5.809   1.831
 6821SOL     OW21361   4.732   2.881   5.811
 6821SOL    HW121362   4.816   2.907   5.762
 6821SOL    HW221363   4.710   2.786   5.791
 6822SOL     OW21364   6.624   2.791   6.490
 6822SOL    HW121365   6.640   2.889   6.506
 6822SOL    HW221366   6.700   2.753   6.437
 6823SOL     OW21367   5.152   4.235   6.785
 6823SOL    HW121368   5.235   4.289   6.797
 6823SOL    HW221369   5.084   4.289   6.736
 6824SOL     OW21370   1.795   1.802   0.380
 6824SOL    HW121371   1.747   1.714   0.384
 6824SOL    HW221372   1.882   1.791   0.332
 6825SOL     OW21373   6.464   6.534   0.710
 6825SOL    HW121374   6.526   6.580   0.775
 6825SOL    HW221375   6.376   6.582   0.709
 6826SOL     OW21376   0.971   3.550   3.940
 6826SOL    HW121377   0.914   3.627   3.970
 6826SOL    HW221378   0.999   3.497   4.020
 6827SOL     OW21379   5.186   5.432   5.597
 6827SOL    HW121380   5.253   5.357   5.597
 6827SOL    HW221381   5.213   5.501   5.665
 6828SOL     OW21382   3.876   1.461   2.740
 6828SOL    HW121383   3.928   1.504   2.666
 6828SOL    HW221384   3.796   1.518   2.762
 6829SOL     OW21385   5.328   7.004   5.119
 6829SOL    HW121386   5.236   6.980   5.150
 6829SOL    HW221387   5.325   0.004   5.022
 6830SOL     OW21388   5.870   1.124   3.541
 6830SOL    HW121389   5.895   1.087   3.452
 6830SOL    HW221390   5.772   1.145   3.543
 6831SOL     OW21391   1.309   0.923   5.749
 6831SOL    HW121392   1.349   1.014   5.762
 6831SOL    HW221393   1.376   0.853   5.773
 6832SOL     OW21394   2.378   3.514   0.537
 6832SOL    HW121395   2.421   3.601   0.511
 6832SOL    HW221396   2.414   3.440   0.480
 6833SOL     OW21397   3.268   5.259   6.252
 6833SOL    HW121398   3.250   5.165   6.278
 6833SOL    HW221399   3.323   5.261   6.168
 6834SOL     OW21400   5.233   0.295   0.950
 6834SOL    HW121401   5.311   0.346   0.987
 6834SOL    HW221402   5.210   0.219   1.011
 6835SOL     OW21403   3.741   1.491   4.872
 6835SOL    HW121404   3.753   1.526   4.779
 6835SOL    HW221405   3.673   1.546   4.920
 6836SOL     OW21406   2.179   4.310   6.083
 6836SOL    HW121407   2.257   4.370   6.064
 6836SOL    HW221408   2.209   4.237   6.144
 6837SOL     OW21409   0.383   1.050   2.778
 6837SOL    HW121410   0.293   1.060   2.820
 6837SOL    HW221411   0.449   1.021   2.847
 6838SOL     OW21412   2.322   4.293   5.494
 6838SOL    HW121413   2.412   4.274   5.535
 6838SOL    HW221414   2.321   4.260   5.400
 6839SOL     OW21415   5.818   1.849   3.739
 6839SOL    HW121416   5.822   1.750   3.754
 6839SOL    HW221417   5.903   1.879   3.694
 6840SOL     OW21418   2.826   6.117   5.570
 6840SOL    HW121419   2.865   6.030   5.599
 6840SOL    HW221420   2.726   6.111   5.571
 6841SOL     OW21421   3.846   4.659   1.225
 6841SOL    HW121422   3.851   4.699   1.133
 6841SOL    HW221423   3.931   4.681   1.274
 6842SOL     OW21424   1.865   2.728   6.543
 6842SOL    HW121425   1.836   2.644   6.589
 6842SOL    HW221426   1.873   2.802   6.610
 6843SOL     OW21427   5.178   1.298   1.876
 6843SOL    HW121428   5.083   1.313   1.848
 6843SOL    HW221429   5.216   1.383   1.911
 6844SOL     OW21430   5.512   6.144   4.358
 6844SOL    HW121431   5.533   6.107   4.448
 6844SOL    HW221432   5.578   6.215   4.334
 6845SOL     OW21433   5.178   4.349   2.489
 6845SOL    HW121434   5.258   4.318   2.436
 6845SOL    HW221435   5.166   4.447   2.476
 6846SOL     OW21436   4.120   3.084   1.416
 6846SOL    HW121437   4.201   3.087   1.358
 6846SOL    HW221438   4.146   3.094   1.512
 6847SOL     OW21439   6.189   4.174   1.971
 6847SOL    HW121440   6.196   4.110   2.048
 6847SOL    HW221441   6.097   4.168   1.932
 6848SOL     OW21442   2.492   6.187   3.175
 6848SOL    HW121443   2.584   6.192   3.136
 6848SOL    HW221444   2.429   6.149   3.107
 6849SOL     OW21445   2.886   5.735   4.703
 6849SOL    HW121446   2.902   5.806   4.634
 6849SOL    HW221447   2.931   5.650   4.675
 6850SOL     OW21448   5.471   3.238   2.614
 6850SOL    HW121449   5.439   3.145   2.600
 6850SOL    HW221450   5.441   3.270   2.704
 6851SOL     OW21451   1.639   3.361   4.509
 6851SOL    HW121452   1.684   3.438   4.553
 6851SOL    HW221453   1.707   3.302   4.466
 6852SOL     OW21454   1.196   4.579   0.988
 6852SOL    HW121455   1.204   4.618   0.896
 6852SOL    HW221456   1.185   4.480   0.982
 6853SOL     OW21457   6.910   3.434   6.825
 6853SOL    HW121458   6.942   3.458   6.734
 6853SOL    HW221459   6.810   3.436   6.827
 6854SOL     OW21460   5.427   1.156   5.894
 6854SOL    HW121461   5.523   1.154   5.922
 6854SOL    HW221462   5.391   1.250   5.903
 6855SOL     OW21463   3.583   5.875   2.418
 6855SOL    HW121464   3.651   5.836   2.480
 6855SOL    HW221465   3.552   5.963   2.453
 6856SOL     OW21466   4.717   4.322   5.430
 6856SOL    HW121467   4.673   4.274   5.506
 6856SOL    HW221468   4.753   4.255   5.365
 6857SOL     OW21469   3.635   1.700   6.842
 6857SOL    HW121470   3.607   1.762   6.768
 6857SOL    HW221471   3.731   1.716   6.864
 6858SOL     OW21472   4.096   3.704   4.715
 6858SOL    HW121473   4.186   3.748   4.714
 6858SOL    HW221474   4.103   3.614   4.674
 6859SOL     OW21475   1.622   6.532   1.282
 6859SOL    HW121476   1.690   6.465   1.311
 6859SOL    HW221477   1.665   6.621   1.271
 6860SOL     OW21478   5.510   5.619   1.761
 6860SOL    HW121479   5.455   5.655   1.836
 6860SOL    HW221480   5.560   5.538   1.791
 6861SOL     OW21481   5.583   4.452   1.596
 6861SOL    HW121482   5.569   4.361   1.557
 6861SOL    HW221483   5.652   4.501   1.542
 6862SOL     OW21484   2.441   4.472   4.467
 6862SOL    HW121485   2.383   4.463   4.386
 6862SOL    HW221486   2.522   4.527   4.444
 6863SOL     OW21487   5.584   1.563   4.331
 6863SOL    HW121488   5.532   1.519   4.404
 6863SOL    HW221489   5.651   1.498   4.294
 6864SOL     OW21490   3.704   6.134   3.508
 6864SOL    HW121491   3.705   6.056   3.569
 6864SOL    HW221492   3.622   6.190   3.526
 6865SOL     OW21493   6.224   5.895   2.762
 6865SOL    HW121494   6.212   5.844   2.848
 6865SOL    HW221495   6.135   5.926   2.729
 6866SOL     OW21496   6.875   4.393   2.323
 6866SOL    HW121497   6.869   4.313   2.264
 6866SOL    HW221498   6.795   4.396   2.383
 6867SOL     OW21499   1.531   4.687   1.502
 6867SOL    HW121500   1.552   4.715   1.595
 6867SOL    HW221501   1.465   4.750   1.462
 6868SOL     OW21502   1.982   5.243   5.043
 6868SOL    HW121503   1.894   5.251   5.090
 6868SOL    HW221504   2.056   5.273   5.104
 6869SOL     OW21505   5.888   2.212   5.516
 6869SOL    HW121506   5.889   2.306   5.549
 6869SOL    HW221507   5.889   2.211   5.416
 6870SOL     OW21508   6.937   4.048   2.335
 6870SOL    HW121509   7.023   4.004   2.363
 6870SOL    HW221510   6.898   4.097   2.413
 6871SOL     OW21511   6.326   5.101   2.296
 6871SOL    HW121512   6.280   5.026   2.248
 6871SOL    HW221513   6.367   5.066   2.380
 6872SOL     OW21514   1.360   3.570   0.642
 6872SOL    HW121515   1.449   3.525   0.644
 6872SOL    HW221516   1.362   3.646   0.577
 6873SOL     OW21517   5.642   3.720   5.133
 6873SOL    HW121518   5.663   3.634   5.180
 6873SOL    HW221519   5.578   3.773   5.188
 6874SOL     OW21520   0.835   4.807   3.096
 6874SOL    HW121521   0.811   4.761   3.181
 6874SOL    HW221522   0.805   4.751   3.018
 6875SOL     OW21523   1.552   2.764   3.356
 6875SOL    HW121524   1.632   2.768   3.415
 6875SOL    HW221525   1.579   2.738   3.263
 6876SOL     OW21526   3.978   5.440   5.284
 6876SOL    HW121527   3.949   5.525   5.239
 6876SOL    HW221528   3.943   5.362   5.233
 6877SOL     OW21529   2.456   4.124   6.114
 6877SOL    HW121530   2.483   4.178   6.034
 6877SOL    HW221531   2.434   4.185   6.190
 6878SOL     OW21532   2.359   2.377   5.208
 6878SOL    HW121533   2.347   2.288   5.252
 6878SOL    HW221534   2.281   2.435   5.229
 6879SOL     OW21535   1.030   1.914   6.898
 6879SOL    HW121536   1.069   1.998   6.861
 6879SOL    HW221537   1.103   1.847   6.912
 6880SOL     OW21538   2.098   3.471   5.009
 6880SOL    HW121539   2.137   3.528   5.082
 6880SOL    HW221540   2.136   3.378   5.016
 6881SOL     OW21541   0.435   3.766   2.275
 6881SOL    HW121542   0.341   3.752   2.244
 6881SOL    HW221543   0.451   3.863   2.291
 6882SOL     OW21544   3.067   0.339   5.840
 6882SOL    HW121545   3.095   0.408   5.773
 6882SOL    HW221546   3.014   0.267   5.795
 6883SOL     OW21547   3.920   1.250   0.870
 6883SOL    HW121548   3.898   1.305   0.951
 6883SOL    HW221549   3.864   1.281   0.793
 6884SOL     OW21550   1.860   3.797   4.328
 6884SOL    HW121551   1.760   3.792   4.336
 6884SOL    HW221552   1.895   3.863   4.395
 6885SOL     OW21553   3.714   5.457   4.862
 6885SOL    HW121554   3.707   5.445   4.961
 6885SOL    HW221555   3.810   5.475   4.837
 6886SOL     OW21556   0.107   0.626   2.970
 6886SOL    HW121557   0.139   0.660   2.882
 6886SOL    HW221558   0.067   0.535   2.958
 6887SOL     OW21559   5.088   0.145   5.692
 6887SOL    HW121560   5.131   0.078   5.630
 6887SOL    HW221561   4.995   0.165   5.660
 6888SOL     OW21562   5.536   6.795   6.688
 6888SOL    HW121563   5.513   6.707   6.728
 6888SOL    HW221564   5.490   6.805   6.600
 6889SOL     OW21565   1.294   2.203   5.844
 6889SOL    HW121566   1.311   2.106   5.858
 6889SOL    HW221567   1.379   2.255   5.855
 6890SOL     OW21568   3.514   6.318   1.734
 6890SOL    HW121569   3.547   6.224   1.742
 6890SOL    HW221570   3.443   6.323   1.664
 6891SOL     OW21571   2.092   4.005   4.391
 6891SOL    HW121572   2.112   3.996   4.293
 6891SOL    HW221573   2.123   3.923   4.439
 6892SOL     OW21574   3.308   0.958   3.355
 6892SOL    HW121575   3.388   0.909   3.320
 6892SOL    HW221576   3.224   0.912   3.324
 6893SOL     OW21577   5.271   5.918   1.129
 6893SOL    HW121578   5.332   5.920   1.208
 6893SOL    HW221579   5.277   6.004   1.080
 6894SOL     OW21580   6.427   5.576   6.876
 6894SOL    HW121581   6.407   5.658   6.929
 6894SOL    HW221582   6.447   5.601   6.782
 6895SOL     OW21583   2.873   5.122   6.671
 6895SOL    HW121584   2.851   5.149   6.765
 6895SOL    HW221585   2.833   5.032   6.651
 6896SOL     OW21586   2.489   6.727   3.952
 6896SOL    HW121587   2.403   6.761   3.990
 6896SOL    HW221588   2.549   6.804   3.931
 6897SOL     OW21589   2.050   3.731   0.183
 6897SOL    HW121590   2.108   3.651   0.166
 6897SOL    HW221591   1.993   3.748   0.103
 6898SOL     OW21592   3.742   1.591   1.961
 6898SOL    HW121593   3.790   1.645   2.030
 6898SOL    HW221594   3.661   1.641   1.929
 6899SOL     OW21595   4.739   0.152   0.950
 6899SOL    HW121596   4.648   0.142   0.990
 6899SOL    HW221597   4.739   0.228   0.885
 6900SOL     OW21598   6.166   0.991   5.927
 6900SOL    HW121599   6.084   1.047   5.942
 6900SOL    HW221600   6.181   0.931   6.006
 6901SOL     OW21601   1.059   0.186   5.994
 6901SOL    HW121602   1.073   0.203   5.896
 6901SOL    HW221603   0.981   0.240   6.025
 6902SOL     OW21604   6.834   6.453   0.773
 6902SOL    HW121605   6.907   6.518   0.794
 6902SOL    HW221606   6.826   6.442   0.673
 6903SOL     OW21607   4.195   5.190   5.433
 6903SOL    HW121608   4.266   5.126   5.404
 6903SOL    HW221609   4.200   5.274   5.379
 6904SOL     OW21610   6.029   1.690   4.186
 6904SOL    HW121611   6.115   1.718   4.229
 6904SOL    HW221612   5.967   1.769   4.181
 6905SOL     OW21613   6.011   6.698   0.409
 6905SOL    HW121614   5.937   6.640   0.377
 6905SOL    HW221615   5.988   6.794   0.391
 6906SOL     OW21616   4.114   0.654   3.844
 6906SOL    HW121617   4.100   0.582   3.912
 6906SOL    HW221618   4.196   0.706   3.866
 6907SOL     OW21619   4.887   1.310   1.108
 6907SOL    HW121620   4.929   1.398   1.129
 6907SOL    HW221621   4.947   1.236   1.137
 6908SOL     OW21622   1.077   6.483   5.431
 6908SOL    HW121623   0.990   6.529   5.415
 6908SOL    HW221624   1.147   6.521   5.372
 6909SOL     OW21625   5.356   4.856   1.696
 6909SOL    HW121626   5.304   4.924   1.748
 6909SOL    HW221627   5.446   4.894   1.673
 6910SOL     OW21628   6.766   2.485   3.255
 6910SOL    HW121629   6.844   2.450   3.203
 6910SOL    HW221630   6.687   2.425   3.241
 6911SOL     OW21631   3.923   6.766   3.224
 6911SOL    HW121632   3.951   6.770   3.129
 6911SOL    HW221633   4.001   6.741   3.282
 6912SOL     OW21634   4.976   5.002   1.190
 6912SOL    HW121635   4.904   4.944   1.229
 6912SOL    HW221636   4.935   5.065   1.124
 6913SOL     OW21637   5.184   5.228   5.834
 6913SOL    HW121638   5.194   5.129   5.821
 6913SOL    HW221639   5.110   5.261   5.776
 6914SOL     OW21640   5.945   4.698   0.141
 6914SOL    HW121641   5.989   4.687   0.053
 6914SOL    HW221642   5.997   4.648   0.211
 6915SOL     OW21643   6.491   4.827   1.844
 6915SOL    HW121644   6.430   4.887   1.896
 6915SOL    HW221645   6.497   4.738   1.889
 6916SOL     OW21646   6.048   3.923   0.469
 6916SOL    HW121647   6.089   3.962   0.387
 6916SOL    HW221648   6.112   3.860   0.513
 6917SOL     OW21649   3.227   5.518   0.598
 6917SOL    HW121650   3.127   5.513   0.600
 6917SOL    HW221651   3.257   5.562   0.513
 6918SOL     OW21652   1.399   3.368   4.738
 6918SOL    HW121653   1.385   3.352   4.641
 6918SOL    HW221654   1.478   3.315   4.770
 6919SOL     OW21655   0.446   5.905   3.217
 6919SOL    HW121656   0.528   5.959   3.200
 6919SOL    HW221657   0.419   5.912   3.313
 6920SOL     OW21658   4.337   6.312   5.781
 6920SOL    HW121659   4.369   6.381   5.845
 6920SOL    HW221660   4.301   6.233   5.831
 6921SOL     OW21661   4.645   5.468   3.356
 6921SOL    HW121662   4.704   5.412   3.298
 6921SOL    HW221663   4.701   5.526   3.416
 6922SOL     OW21664   1.955   5.731   6.731
 6922SOL    HW121665   1.946   5.660   6.661
 6922SOL    HW221666   1.967   5.820   6.686
 6923SOL     OW21667   5.360   6.191   3.813
 6923SOL    HW121668   5.385   6.186   3.910
 6923SOL    HW221669   5.437   6.160   3.757
 6924SOL     OW21670   0.834   4.299   6.726
 6924SOL    HW121671   0.914   4.262   6.678
 6924SOL    HW221672   0.842   4.281   6.823
 6925SOL     OW21673   3.976   6.211   4.595
 6925SOL    HW121674   4.033   6.257   4.662
 6925SOL    HW221675   3.989   6.113   4.601
 6926SOL     OW21676   3.030   3.091   2.582
 6926SOL    HW121677   3.058   3.101   2.486
 6926SOL    HW221678   3.043   3.178   2.629
 6927SOL     OW21679   5.214   3.997   6.072
 6927SOL    HW121680   5.253   4.083   6.037
 6927SOL    HW221681   5.240   3.922   6.012
 6928SOL     OW21682   6.641   6.695   0.866
 6928SOL    HW121683   6.687   6.658   0.785
 6928SOL    HW221684   6.689   6.665   0.948
 6929SOL     OW21685   5.034   5.662   1.318
 6929SOL    HW121686   4.959   5.639   1.379
 6929SOL    HW221687   5.099   5.721   1.366
 6930SOL     OW21688   0.108   0.197   1.798
 6930SOL    HW121689   0.139   0.173   1.707
 6930SOL    HW221690   0.166   0.154   1.866
 6931SOL     OW21691   1.714   0.897   2.308
 6931SOL    HW121692   1.719   0.814   2.364
 6931SOL    HW221693   1.772   0.887   2.228
 6932SOL     OW21694   3.965   0.455   0.952
 6932SOL    HW121695   3.952   0.472   0.855
 6932SOL    HW221696   3.956   0.357   0.970
 6933SOL     OW21697   3.749   5.859   4.800
 6933SOL    HW121698   3.797   5.899   4.878
 6933SOL    HW221699   3.651   5.858   4.817
 6934SOL     OW21700   4.797   4.585   5.805
 6934SOL    HW121701   4.817   4.495   5.844
 6934SOL    HW221702   4.857   4.601   5.727
 6935SOL     OW21703   4.597   6.108   3.787
 6935SOL    HW121704   4.665   6.181   3.799
 6935SOL    HW221705   4.535   6.106   3.865
 6936SOL     OW21706   6.763   3.033   2.569
 6936SOL    HW121707   6.861   3.016   2.582
 6936SOL    HW221708   6.710   2.967   2.622
 6937SOL     OW21709   6.348   6.213   6.877
 6937SOL    HW121710   6.431   6.260   6.848
 6937SOL    HW221711   6.349   6.119   6.842
 6938SOL     OW21712   4.792   3.755   5.332
 6938SOL    HW121713   4.887   3.784   5.322
 6938SOL    HW221714   4.773   3.681   5.267
 6939SOL     OW21715   0.051   4.330   0.940
 6939SOL    HW121716   0.120   4.305   1.007
 6939SOL    HW221717   0.009   4.417   0.965
 6940SOL     OW21718   5.067   1.127   0.087
 6940SOL    HW121719   5.033   1.210   0.042
 6940SOL    HW221720   5.153   1.147   0.134
 6941SOL     OW21721   3.803   3.283   2.942
 6941SOL    HW121722   3.863   3.244   3.012
 6941SOL    HW221723   3.771   3.211   2.881
 6942SOL     OW21724   6.791   2.483   0.543
 6942SOL    HW121725   6.778   2.490   0.444
 6942SOL    HW221726   6.740   2.405   0.578
 6943SOL     OW21727   4.928   6.490   0.045
 6943SOL    HW121728   4.917   6.577   7.020
 6943SOL    HW221729   5.013   6.446   0.015
 6944SOL     OW21730   1.505   4.576   6.149
 6944SOL    HW121731   1.491   4.568   6.248
 6944SOL    HW221732   1.598   4.608   6.130
 6945SOL     OW21733   5.741   3.020   6.368
 6945SOL    HW121734   5.704   2.939   6.323
 6945SOL    HW221735   5.760   3.000   6.464
 6946SOL     OW21736   6.470   6.395   2.079
 6946SOL    HW121737   6.528   6.454   2.023
 6946SOL    HW221738   6.511   6.304   2.086
 6947SOL     OW21739   3.229   6.872   5.822
 6947SOL    HW121740   3.286   6.911   5.896
 6947SOL    HW221741   3.134   6.899   5.836
 6948SOL     OW21742   6.650   0.720   6.871
 6948SOL    HW121743   6.737   0.704   6.824
 6948SOL    HW221744   6.582   0.653   6.840
 6949SOL     OW21745   5.610   0.262   4.049
 6949SOL    HW121746   5.566   0.240   3.962
 6949SOL    HW221747   5.672   0.339   4.037
 6950SOL     OW21748   2.003   0.283   3.641
 6950SOL    HW121749   1.963   0.361   3.688
 6950SOL    HW221750   1.989   0.293   3.543
 6951SOL     OW21751   6.297   6.408   6.084
 6951SOL    HW121752   6.379   6.437   6.035
 6951SOL    HW221753   6.299   6.308   6.096
 6952SOL     OW21754   0.240   5.858   3.777
 6952SOL    HW121755   0.185   5.883   3.857
 6952SOL    HW221756   0.256   5.760   3.777
 6953SOL     OW21757   4.837   0.480   6.680
 6953SOL    HW121758   4.811   0.390   6.647
 6953SOL    HW221759   4.755   0.537   6.692
 6954SOL     OW21760   0.672   4.077   4.516
 6954SOL    HW121761   0.693   3.979   4.527
 6954SOL    HW221762   0.757   4.130   4.520
 6955SOL     OW21763   6.751   0.685   2.676
 6955SOL    HW121764   6.850   0.671   2.678
 6955SOL    HW221765   6.713   0.647   2.592
 6956SOL     OW21766   4.858   6.355   2.439
 6956SOL    HW121767   4.927   6.323   2.503
 6956SOL    HW221768   4.769   6.315   2.463
 6957SOL     OW21769   5.803   4.903   1.834
 6957SOL    HW121770   5.759   4.904   1.924
 6957SOL    HW221771   5.734   4.923   1.763
 6958SOL     OW21772   3.203   3.971   5.004
 6958SOL    HW121773   3.216   3.874   4.983
 6958SOL    HW221774   3.160   4.017   4.926
 6959SOL     OW21775   2.787   1.178   4.718
 6959SOL    HW121776   2.853   1.198   4.645
 6959SOL    HW221777   2.791   1.250   4.787
 6960SOL     OW21778   1.284   5.794   1.330
 6960SOL    HW121779   1.274   5.865   1.400
 6960SOL    HW221780   1.372   5.748   1.342
 6961SOL     OW21781   6.487   2.907   3.910
 6961SOL    HW121782   6.470   2.965   3.831
 6961SOL    HW221783   6.557   2.839   3.887
 6962SOL     OW21784   5.282   5.473   2.306
 6962SOL    HW121785   5.331   5.517   2.381
 6962SOL    HW221786   5.342   5.465   2.227
 6963SOL     OW21787   0.150   5.166   0.946
 6963SOL    HW121788   0.165   5.087   1.005
 6963SOL    HW221789   0.104   5.238   0.998
 6964SOL     OW21790   4.069   5.403   4.698
 6964SOL    HW121791   4.002   5.461   4.650
 6964SOL    HW221792   4.020   5.336   4.753
 6965SOL     OW21793   0.978   3.655   6.486
 6965SOL    HW121794   1.004   3.563   6.458
 6965SOL    HW221795   0.924   3.698   6.414
 6966SOL     OW21796   6.506   2.382   3.246
 6966SOL    HW121797   6.536   2.288   3.265
 6966SOL    HW221798   6.455   2.416   3.325
 6967SOL     OW21799   1.589   0.440   5.615
 6967SOL    HW121800   1.549   0.351   5.632
 6967SOL    HW221801   1.547   0.508   5.675
 6968SOL     OW21802   3.740   6.952   2.247
 6968SOL    HW121803   3.705   0.020   2.224
 6968SOL    HW221804   3.818   6.962   2.308
 6969SOL     OW21805   3.048   2.219   1.094
 6969SOL    HW121806   3.108   2.156   1.045
 6969SOL    HW221807   3.052   2.199   1.192
 6970SOL     OW21808   4.403   3.586   0.251
 6970SOL    HW121809   4.316   3.628   0.279
 6970SOL    HW221810   4.471   3.658   0.235
 6971SOL     OW21811   6.629   4.300   1.387
 6971SOL    HW121812   6.586   4.378   1.432
 6971SOL    HW221813   6.674   4.330   1.303
 6972SOL     OW21814   5.219   4.982   4.195
 6972SOL    HW121815   5.307   5.001   4.239
 6972SOL    HW221816   5.160   4.934   4.259
 6973SOL     OW21817   1.195   3.759   5.208
 6973SOL    HW121818   1.267   3.746   5.140
 6973SOL    HW221819   1.193   3.681   5.270
 6974SOL     OW21820   4.002   3.108   3.092
 6974SOL    HW121821   4.046   3.098   3.002
 6974SOL    HW221822   3.911   3.067   3.089
 6975SOL     OW21823   2.261   6.404   5.844
 6975SOL    HW121824   2.194   6.380   5.774
 6975SOL    HW221825   2.342   6.443   5.801
 6976SOL     OW21826   4.523   5.333   5.816
 6976SOL    HW121827   4.437   5.348   5.866
 6976SOL    HW221828   4.527   5.238   5.786
 6977SOL     OW21829   4.362   2.406   1.939
 6977SOL    HW121830   4.422   2.486   1.928
 6977SOL    HW221831   4.279   2.420   1.886
 6978SOL     OW21832   5.830   2.351   1.547
 6978SOL    HW121833   5.770   2.277   1.576
 6978SOL    HW221834   5.916   2.345   1.597
 6979SOL     OW21835   1.390   4.983   0.608
 6979SOL    HW121836   1.484   5.015   0.591
 6979SOL    HW221837   1.356   5.025   0.692
 6980SOL     OW21838   1.436   0.972   3.497
 6980SOL    HW121839   1.399   1.027   3.572
 6980SOL    HW221840   1.428   1.023   3.411
 6981SOL     OW21841   2.781   3.098   6.201
 6981SOL    HW121842   2.863   3.152   6.181
 6981SOL    HW221843   2.777   3.019   6.140
 6982SOL     OW21844   1.240   0.955   4.131
 6982SOL    HW121845   1.338   0.949   4.147
 6982SOL    HW221846   1.220   0.940   4.035
 6983SOL     OW21847   5.138   2.165   3.347
 6983SOL    HW121848   5.183   2.235   3.292
 6983SOL    HW221849   5.206   2.103   3.386
 6984SOL     OW21850   2.345   2.166   4.192
 6984SOL    HW121851   2.376   2.115   4.272
 6984SOL    HW221852   2.321   2.259   4.219
 6985SOL     OW21853   3.769   5.668   1.105
 6985SOL    HW121854   3.752   5.750   1.050
 6985SOL    HW221855   3.868   5.649   1.106
 6986SOL     OW21856   2.034   6.282   6.487
 6986SOL    HW121857   1.991   6.205   6.439
 6986SOL    HW221858   1.963   6.339   6.529
 6987SOL     OW21859   0.250   1.927   6.165
 6987SOL    HW121860   0.338   1.975   6.177
 6987SOL    HW221861   0.188   1.985   6.112
 6988SOL     OW21862   6.894   1.057   6.006
 6988SOL    HW121863   6.841   1.055   5.921
 6988SOL    HW221864   6.927   0.964   6.027
 6989SOL     OW21865   0.595   3.434   3.765
 6989SOL    HW121866   0.653   3.362   3.726
 6989SOL    HW221867   0.548   3.398   3.846
 6990SOL     OW21868   5.130   2.216   1.389
 6990SOL    HW121869   5.088   2.138   1.343
 6990SOL    HW221870   5.063   2.289   1.397
 6991SOL     OW21871   3.114   4.932   3.621
 6991SOL    HW121872   3.188   4.947   3.554
 6991SOL    HW221873   3.099   5.016   3.673
 6992SOL     OW21874   4.962   6.688   5.331
 6992SOL    HW121875   4.959   6.741   5.246
 6992SOL    HW221876   4.869   6.660   5.356
 6993SOL     OW21877   7.000   0.888   2.943
 6993SOL    HW121878   6.901   0.893   2.938
 6993SOL    HW221879   0.006   0.792   2.937
 6994SOL     OW21880   0.482   3.199   4.930
 6994SOL    HW121881   0.499   3.271   4.863
 6994SOL    HW221882   0.524   3.114   4.899
 6995SOL     OW21883   6.510   5.068   6.208
 6995SOL    HW121884   6.519   5.000   6.280
 6995SOL    HW221885   6.431   5.046   6.150
 6996SOL     OW21886   2.587   6.870   6.416
 6996SOL    HW121887   2.539   6.854   6.503
 6996SOL    HW221888   2.521   6.876   6.342
 6997SOL     OW21889   6.049   6.603   5.378
 6997SOL    HW121890   6.071   6.610   5.475
 6997SOL    HW221891   5.964   6.552   5.366
 6998SOL     OW21892   2.396   2.467   1.322
 6998SOL    HW121893   2.383   2.561   1.355
 6998SOL    HW221894   2.345   2.454   1.237
 6999SOL     OW21895   2.460   2.662   6.200
 6999SOL    HW121896   2.553   2.626   6.201
 6999SOL    HW221897   2.459   2.755   6.238
 7000SOL     OW21898   6.144   5.897   1.797
 7000SOL    HW121899   6.168   5.936   1.708
 7000SOL    HW221900   6.175   5.959   1.870
 7001SOL     OW21901   2.732   3.163   5.540
 7001SOL    HW121902   2.727   3.092   5.470
 7001SOL    HW221903   2.681   3.133   5.621
 7002SOL     OW21904   1.707   4.884   2.647
 7002SOL    HW121905   1.736   4.934   2.729
 7002SOL    HW221906   1.640   4.938   2.597
 7003SOL     OW21907   4.206   5.385   0.130
 7003SOL    HW121908   4.241   5.291   0.122
 7003SOL    HW221909   4.269   5.439   0.185
 7004SOL     OW21910   2.069   4.872   1.518
 7004SOL    HW121911   2.091   4.857   1.615
 7004SOL    HW221912   2.092   4.966   1.493
 7005SOL     OW21913   1.644   6.423   6.742
 7005SOL    HW121914   1.588   6.352   6.701
 7005SOL    HW221915   1.740   6.398   6.735
 7006SOL     OW21916   5.111   4.719   4.751
 7006SOL    HW121917   5.017   4.692   4.770
 7006SOL    HW221918   5.111   4.790   4.680
 7007SOL     OW21919   4.637   6.718   3.710
 7007SOL    HW121920   4.582   6.745   3.631
 7007SOL    HW221921   4.583   6.656   3.767
 7008SOL     OW21922   1.923   4.393   5.438
 7008SOL    HW121923   1.831   4.379   5.475
 7008SOL    HW221924   1.941   4.326   5.367
 7009SOL     OW21925   6.262   5.708   2.541
 7009SOL    HW121926   6.237   5.761   2.621
 7009SOL    HW221927   6.305   5.768   2.473
 7010SOL     OW21928   4.279   4.285   5.943
 7010SOL    HW121929   4.190   4.299   5.899
 7010SOL    HW221930   4.351   4.289   5.873
 7011SOL     OW21931   3.007   0.201   6.114
 7011SOL    HW121932   3.063   0.239   6.041
 7011SOL    HW221933   2.924   0.160   6.075
 7012SOL     OW21934   1.841   1.190   2.540
 7012SOL    HW121935   1.905   1.267   2.536
 7012SOL    HW221936   1.753   1.219   2.502
 7013SOL     OW21937   0.621   0.199   0.409
 7013SOL    HW121938   0.658   0.136   0.341
 7013SOL    HW221939   0.694   0.229   0.470
 7014SOL     OW21940   4.755   3.070   1.439
 7014SOL    HW121941   4.777   3.008   1.515
 7014SOL    HW221942   4.668   3.116   1.457
 7015SOL     OW21943   6.303   4.798   2.443
 7015SOL    HW121944   6.360   4.861   2.495
 7015SOL    HW221945   6.360   4.742   2.384
 7016SOL     OW21946   3.708   4.648   1.620
 7016SOL    HW121947   3.680   4.628   1.526
 7016SOL    HW221948   3.627   4.651   1.679
 7017SOL     OW21949   2.275   6.735   2.724
 7017SOL    HW121950   2.355   6.675   2.721
 7017SOL    HW221951   2.299   6.821   2.768
 7018SOL     OW21952   5.670   4.220   4.803
 7018SOL    HW121953   5.691   4.233   4.706
 7018SOL    HW221954   5.702   4.130   4.832
 7019SOL     OW21955   2.478   3.563   6.453
 7019SOL    HW121956   2.558   3.609   6.415
 7019SOL    HW221957   2.430   3.514   6.380
 7020SOL     OW21958   6.118   0.038   6.411
 7020SOL    HW121959   6.118   0.029   6.511
 7020SOL    HW221960   6.047   0.103   6.384
 7021SOL     OW21961   1.823   1.247   5.700
 7021SOL    HW121962   1.903   1.194   5.670
 7021SOL    HW221963   1.845   1.344   5.699
 7022SOL     OW21964   4.607   5.813   0.544
 7022SOL    HW121965   4.529   5.832   0.603
 7022SOL    HW221966   4.677   5.763   0.595
 7023SOL     OW21967   0.361   1.748   3.717
 7023SOL    HW121968   0.452   1.768   3.679
 7023SOL    HW221969   0.363   1.660   3.764
 7024SOL     OW21970   1.679   4.514   5.733
 7024SOL    HW121971   1.692   4.603   5.777
 7024SOL    HW221972   1.630   4.454   5.795
 7025SOL     OW21973   2.355   1.520   6.835
 7025SOL    HW121974   2.335   1.462   6.914
 7025SOL    HW221975   2.433   1.482   6.785
 7026SOL     OW21976   2.767   1.586   2.081
 7026SOL    HW121977   2.728   1.678   2.088
 7026SOL    HW221978   2.820   1.566   2.164
 7027SOL     OW21979   2.871   4.791   3.747
 7027SOL    HW121980   2.918   4.787   3.659
 7027SOL    HW221981   2.812   4.711   3.757
 7028SOL     OW21982   4.957   6.755   4.245
 7028SOL    HW121983   4.888   6.787   4.309
 7028SOL    HW221984   4.912   6.726   4.160
 7029SOL     OW21985   4.514   5.808   6.168
 7029SOL    HW121986   4.493   5.711   6.184
 7029SOL    HW221987   4.438   5.864   6.200
 7030SOL     OW21988   6.845   2.411   5.014
 7030SOL    HW121989   6.902   2.486   4.981
 7030SOL    HW221990   6.762   2.407   4.959
 7031SOL     OW21991   2.163   6.423   4.701
 7031SOL    HW121992   2.101   6.386   4.770
 7031SOL    HW221993   2.160   6.523   4.702
 7032SOL     OW21994   3.472   0.316   3.533
 7032SOL    HW121995   3.393   0.306   3.472
 7032SOL    HW221996   3.452   0.385   3.602
 7033SOL     OW21997   1.108   2.213   3.622
 7033SOL    HW121998   1.198   2.190   3.587
 7033SOL    HW221999   1.067   2.286   3.567
 7034SOL     OW22000   6.103   0.082   3.291
 7034SOL    HW122001   6.182   0.036   3.252
 7034SOL    HW222002   6.051   0.127   3.219
 7035SOL     OW22003   1.532   6.014   1.454
 7035SOL    HW122004   1.538   5.929   1.403
 7035SOL    HW222005   1.436   6.040   1.465
 7036SOL     OW22006   0.163   0.867   2.387
 7036SOL    HW122007   0.189   0.953   2.345
 7036SOL    HW222008   0.234   0.837   2.450
 7037SOL     OW22009   1.384   0.298   6.735
 7037SOL    HW122010   1.468   0.275   6.784
 7037SOL    HW222011   1.373   0.397   6.733
 7038SOL     OW22012   1.823   3.104   4.229
 7038SOL    HW122013   1.816   3.177   4.296
 7038SOL    HW222014   1.786   3.135   4.141
 7039SOL     OW22015   2.863   5.192   1.675
 7039SOL    HW122016   2.779   5.203   1.727
 7039SOL    HW222017   2.850   5.125   1.603
 7040SOL     OW22018   5.649   2.108   4.400
 7040SOL    HW122019   5.692   2.137   4.315
 7040SOL    HW222020   5.647   2.008   4.405
 7041SOL     OW22021   0.765   2.377   1.544
 7041SOL    HW122022   0.833   2.434   1.499
 7041SOL    HW222023   0.703   2.435   1.597
 7042SOL     OW22024   5.240   5.794   6.416
 7042SOL    HW122025   5.148   5.784   6.453
 7042SOL    HW222026   5.296   5.848   6.478
 7043SOL     OW22027   2.213   2.785   3.247
 7043SOL    HW122028   2.255   2.694   3.251
 7043SOL    HW222029   2.130   2.786   3.303
 7044SOL     OW22030   4.824   5.200   2.927
 7044SOL    HW122031   4.778   5.169   2.844
 7044SOL    HW222032   4.922   5.206   2.910
 7045SOL     OW22033   4.869   5.603   2.528
 7045SOL    HW122034   4.925   5.559   2.457
 7045SOL    HW222035   4.882   5.702   2.523
 7046SOL     OW22036   3.490   1.425   2.884
 7046SOL    HW122037   3.565   1.485   2.857
 7046SOL    HW222038   3.402   1.470   2.866
 7047SOL     OW22039   0.842   2.835   2.264
 7047SOL    HW122040   0.821   2.757   2.205
 7047SOL    HW222041   0.941   2.843   2.275
 7048SOL     OW22042   6.952   6.064   2.419
 7048SOL    HW122043   6.948   6.117   2.334
 7048SOL    HW222044   6.891   6.106   2.487
 7049SOL     OW22045   2.698   1.775   1.066
 7049SOL    HW122046   2.734   1.722   0.990
 7049SOL    HW222047   2.732   1.737   1.152
 7050SOL     OW22048   3.854   3.660   2.411
 7050SOL    HW122049   3.917   3.583   2.408
 7050SOL    HW222050   3.860   3.704   2.501
 7051SOL     OW22051   0.515   0.437   0.949
 7051SOL    HW122052   0.565   0.394   1.023
 7051SOL    HW222053   0.448   0.372   0.911
 7052SOL     OW22054   5.964   2.591   3.563
 7052SOL    HW122055   5.956   2.553   3.471
 7052SOL    HW222056   6.017   2.675   3.560
 7053SOL     OW22057   1.317   3.909   4.806
 7053SOL    HW122058   1.408   3.945   4.784
 7053SOL    HW222059   1.320   3.809   4.804
 7054SOL     OW22060   0.734   6.586   0.711
 7054SOL    HW122061   0.744   6.657   0.641
 7054SOL    HW222062   0.806   6.598   0.780
 7055SOL     OW22063   4.024   5.702   5.476
 7055SOL    HW122064   3.999   5.772   5.409
 7055SOL    HW222065   3.975   5.617   5.456
 7056SOL     OW22066   5.619   5.859   2.504
 7056SOL    HW122067   5.670   5.773   2.505
 7056SOL    HW222068   5.586   5.877   2.411
 7057SOL     OW22069   0.898   5.711   3.578
 7057SOL    HW122070   0.978   5.695   3.635
 7057SOL    HW222071   0.898   5.805   3.545
 7058SOL     OW22072   6.783   6.070   6.032
 7058SOL    HW122073   6.789   6.137   5.958
 7058SOL    HW222074   6.751   5.983   5.995
 7059SOL     OW22075   6.956   0.843   3.441
 7059SOL    HW122076   6.908   0.837   3.354
 7059SOL    HW222077   6.939   0.760   3.494
 7060SOL     OW22078   4.158   0.443   2.043
 7060SOL    HW122079   4.134   0.349   2.017
 7060SOL    HW222080   4.255   0.458   2.030
 7061SOL     OW22081   0.010   3.258   4.139
 7061SOL    HW122082   0.060   3.183   4.097
 7061SOL    HW222083   0.070   3.338   4.146
 7062SOL     OW22084   4.779   1.425   4.879
 7062SOL    HW122085   4.835   1.429   4.796
 7062SOL    HW222086   4.806   1.345   4.933
 7063SOL     OW22087   0.947   0.811   1.213
 7063SOL    HW122088   0.949   0.908   1.191
 7063SOL    HW222089   0.873   0.793   1.278
 7064SOL     OW22090   4.050   2.126   2.274
 7064SOL    HW122091   3.958   2.102   2.242
 7064SOL    HW222092   4.098   2.174   2.201
 7065SOL     OW22093   4.171   3.185   6.496
 7065SOL    HW122094   4.147   3.243   6.575
 7065SOL    HW222095   4.103   3.197   6.424
 7066SOL     OW22096   4.352   0.015   0.397
 7066SOL    HW122097   4.431   6.992   0.438
 7066SOL    HW222098   4.369   0.114   0.395
 7067SOL     OW22099   1.510   1.507   5.170
 7067SOL    HW122100   1.420   1.520   5.129
 7067SOL    HW222101   1.578   1.559   5.118
 7068SOL     OW22102   0.416   4.288   4.412
 7068SOL    HW122103   0.330   4.331   4.438
 7068SOL    HW222104   0.487   4.311   4.479
 7069SOL     OW22105   6.041   1.951   3.553
 7069SOL    HW122106   6.080   2.037   3.587
 7069SOL    HW222107   6.099   1.875   3.581
 7070SOL     OW22108   6.206   6.299   4.669
 7070SOL    HW122109   6.192   6.201   4.681
 7070SOL    HW222110   6.176   6.347   4.752
 7071SOL     OW22111   1.374   6.197   6.197
 7071SOL    HW122112   1.323   6.142   6.132
 7071SOL    HW222113   1.444   6.140   6.241
 7072SOL     OW22114   0.782   6.304   6.284
 7072SOL    HW122115   0.736   6.265   6.204
 7072SOL    HW222116   0.722   6.295   6.364
 7073SOL     OW22117   5.032   6.913   4.538
 7073SOL    HW122118   4.964   6.906   4.465
 7073SOL    HW222119   5.025   6.834   4.598
 7074SOL     OW22120   4.528   2.223   1.811
 7074SOL    HW122121   4.488   2.157   1.747
 7074SOL    HW222122   4.456   2.280   1.849
 7075SOL     OW22123   1.845   5.274   5.282
 7075SOL    HW122124   1.792   5.196   5.315
 7075SOL    HW222125   1.916   5.296   5.349
 7076SOL     OW22126   5.647   2.556   6.570
 7076SOL    HW122127   5.671   2.542   6.474
 7076SOL    HW222128   5.646   2.654   6.590
 7077SOL     OW22129   2.273   4.477   4.198
 7077SOL    HW122130   2.260   4.428   4.112
 7077SOL    HW222131   2.221   4.562   4.196
 7078SOL     OW22132   6.778   0.456   1.119
 7078SOL    HW122133   6.870   0.483   1.149
 7078SOL    HW222134   6.768   0.474   1.021
 7079SOL     OW22135   6.524   6.122   4.986
 7079SOL    HW122136   6.608   6.124   5.041
 7079SOL    HW222137   6.547   6.100   4.891
 7080SOL     OW22138   2.792   2.212   4.137
 7080SOL    HW122139   2.881   2.246   4.107
 7080SOL    HW222140   2.779   2.233   4.234
 7081SOL     OW22141   2.577   1.653   0.055
 7081SOL    HW122142   2.507   1.717   0.023
 7081SOL    HW222143   2.605   1.593   7.003
 7082SOL     OW22144   6.295   4.577   0.060
 7082SOL    HW122145   6.232   4.603   7.009
 7082SOL    HW222146   6.242   4.544   0.139
 7083SOL     OW22147   2.829   0.458   0.453
 7083SOL    HW122148   2.774   0.407   0.519
 7083SOL    HW222149   2.926   0.450   0.476
 7084SOL     OW22150   0.551   6.591   5.374
 7084SOL    HW122151   0.515   6.643   5.452
 7084SOL    HW222152   0.509   6.624   5.290
 7085SOL     OW22153   1.250   1.831   2.031
 7085SOL    HW122154   1.284   1.925   2.027
 7085SOL    HW222155   1.328   1.768   2.033
 7086SOL     OW22156   5.445   1.302   5.044
 7086SOL    HW122157   5.418   1.350   4.961
 7086SOL    HW222158   5.366   1.293   5.105
 7087SOL     OW22159   6.305   4.139   3.324
 7087SOL    HW122160   6.403   4.159   3.318
 7087SOL    HW222161   6.290   4.072   3.397
 7088SOL     OW22162   5.643   3.164   3.557
 7088SOL    HW122163   5.558   3.139   3.510
 7088SOL    HW222164   5.678   3.085   3.607
 7089SOL     OW22165   3.276   2.131   4.806
 7089SOL    HW122166   3.242   2.190   4.879
 7089SOL    HW222167   3.241   2.163   4.718
 7090SOL     OW22168   2.241   0.924   6.432
 7090SOL    HW122169   2.147   0.951   6.411
 7090SOL    HW222170   2.304   0.991   6.393
 7091SOL     OW22171   0.238   1.662   6.460
 7091SOL    HW122172   0.327   1.677   6.416
 7091SOL    HW222173   0.173   1.630   6.392
 7092SOL     OW22174   4.355   2.517   6.410
 7092SOL    HW122175   4.315   2.521   6.319
 7092SOL    HW222176   4.286   2.487   6.476
 7093SOL     OW22177   3.017   3.860   3.439
 7093SOL    HW122178   2.999   3.876   3.537
 7093SOL    HW222179   3.058   3.942   3.400
 7094SOL     OW22180   0.970   5.703   6.011
 7094SOL    HW122181   0.886   5.699   6.065
 7094SOL    HW222182   1.032   5.631   6.041
 7095SOL     OW22183   2.926   4.021   5.880
 7095SOL    HW122184   2.876   4.048   5.962
 7095SOL    HW222185   2.872   3.955   5.829
 7096SOL     OW22186   6.527   1.110   3.383
 7096SOL    HW122187   6.611   1.125   3.434
 7096SOL    HW222188   6.527   1.168   3.301
 7097SOL     OW22189   5.704   1.457   1.383
 7097SOL    HW122190   5.803   1.468   1.387
 7097SOL    HW222191   5.671   1.423   1.471
 7098SOL     OW22192   0.901   0.482   4.821
 7098SOL    HW122193   0.950   0.563   4.851
 7098SOL    HW222194   0.947   0.443   4.742
 7099SOL     OW22195   2.492   0.938   5.059
 7099SOL    HW122196   2.461   0.893   5.143
 7099SOL    HW222197   2.452   1.030   5.055
 7100SOL     OW22198   5.642   2.781   0.747
 7100SOL    HW122199   5.564   2.755   0.803
 7100SOL    HW222200   5.632   2.877   0.718
 7101SOL     OW22201   2.423   1.111   4.754
 7101SOL    HW122202   2.459   1.202   4.735
 7101SOL    HW222203   2.493   1.043   4.733
 7102SOL     OW22204   4.342   0.536   0.859
 7102SOL    HW122205   4.344   0.498   0.952
 7102SOL    HW222206   4.317   0.464   0.794
 7103SOL     OW22207   4.580   5.321   1.567
 7103SOL    HW122208   4.508   5.338   1.635
 7103SOL    HW222209   4.566   5.380   1.488
 7104SOL     OW22210   0.484   3.092   4.609
 7104SOL    HW122211   0.566   3.059   4.657
 7104SOL    HW222212   0.428   3.014   4.581
 7105SOL     OW22213   2.934   2.766   5.410
 7105SOL    HW122214   2.931   2.789   5.507
 7105SOL    HW222215   2.999   2.691   5.394
 7106SOL     OW22216   2.884   3.371   3.298
 7106SOL    HW122217   2.911   3.336   3.387
 7106SOL    HW222218   2.884   3.471   3.299
 7107SOL     OW22219   2.361   2.112   0.152
 7107SOL    HW122220   2.316   2.029   0.186
 7107SOL    HW222221   2.339   2.189   0.211
 7108SOL     OW22222   3.841   6.386   2.812
 7108SOL    HW122223   3.936   6.375   2.840
 7108SOL    HW222224   3.805   6.298   2.781
 7109SOL     OW22225   2.786   0.450   6.115
 7109SOL    HW122226   2.723   0.443   6.038
 7109SOL    HW222227   2.873   0.487   6.083
 7110SOL     OW22228   3.423   5.487   4.206
 7110SOL    HW122229   3.481   5.466   4.285
 7110SOL    HW222230   3.478   5.529   4.134
 7111SOL     OW22231   1.737   1.825   4.202
 7111SOL    HW122232   1.802   1.798   4.131
 7111SOL    HW222233   1.649   1.846   4.159
 7112SOL     OW22234   1.341   5.483   4.062
 7112SOL    HW122235   1.425   5.435   4.087
 7112SOL    HW222236   1.323   5.470   3.965
 7113SOL     OW22237   3.705   3.920   4.866
 7113SOL    HW122238   3.735   3.869   4.947
 7113SOL    HW222239   3.783   3.965   4.824
 7114SOL     OW22240   3.998   6.844   1.859
 7114SOL    HW122241   3.929   6.911   1.830
 7114SOL    HW222242   3.980   6.818   1.954
 7115SOL     OW22243   5.421   3.691   1.947
 7115SOL    HW122244   5.343   3.753   1.945
 7115SOL    HW222245   5.403   3.613   1.887
 7116SOL     OW22246   6.077   4.229   3.253
 7116SOL    HW122247   6.173   4.202   3.250
 7116SOL    HW222248   6.063   4.309   3.194
 7117SOL     OW22249   6.503   5.808   4.786
 7117SOL    HW122250   6.524   5.901   4.755
 7117SOL    HW222251   6.442   5.764   4.720
 7118SOL     OW22252   2.539   3.623   0.945
 7118SOL    HW122253   2.443   3.645   0.963
 7118SOL    HW222254   2.555   3.526   0.960
 7119SOL     OW22255   5.268   1.858   2.621
 7119SOL    HW122256   5.186   1.875   2.676
 7119SOL    HW222257   5.247   1.791   2.550
 7120SOL     OW22258   3.693   2.097   2.774
 7120SOL    HW122259   3.719   2.096   2.678
 7120SOL    HW222260   3.605   2.145   2.784
 7121SOL     OW22261   1.872   6.801   2.914
 7121SOL    HW122262   1.940   6.866   2.882
 7121SOL    HW222263   1.781   6.832   2.888
 7122SOL     OW22264   1.426   0.058   5.856
 7122SOL    HW122265   1.487   7.003   5.869
 7122SOL    HW222266   1.392   0.089   5.944
 7123SOL     OW22267   2.152   4.687   3.058
 7123SOL    HW122268   2.057   4.657   3.065
 7123SOL    HW222269   2.166   4.733   2.970
 7124SOL     OW22270   0.004   2.205   0.454
 7124SOL    HW122271   7.009   2.107   0.462
 7124SOL    HW222272   0.061   2.235   0.530
 7125SOL     OW22273   6.280   6.806   0.733
 7125SOL    HW122274   6.240   6.746   0.664
 7125SOL    HW222275   6.232   6.794   0.820
 7126SOL     OW22276   3.401   4.765   6.956
 7126SOL    HW122277   3.394   4.700   0.009
 7126SOL    HW222278   3.362   4.853   6.984
 7127SOL     OW22279   1.790   5.544   5.162
 7127SOL    HW122280   1.777   5.512   5.068
 7127SOL    HW222281   1.811   5.467   5.221
 7128SOL     OW22282   3.339   4.655   0.207
 7128SOL    HW122283   3.274   4.721   0.245
 7128SOL    HW222284   3.353   4.581   0.273
 7129SOL     OW22285   1.844   1.497   0.037
 7129SOL    HW122286   1.933   1.536   0.062
 7129SOL    HW222287   1.773   1.536   0.097
 7130SOL     OW22288   4.096   5.367   5.653
 7130SOL    HW122289   4.148   5.453   5.658
 7130SOL    HW222290   4.132   5.312   5.578
 7131SOL     OW22291   2.470   0.817   0.607
 7131SOL    HW122292   2.420   0.734   0.584
 7131SOL    HW222293   2.409   0.896   0.598
 7132SOL     OW22294   4.116   3.635   6.814
 7132SOL    HW122295   4.130   3.734   6.822
 7132SOL    HW222296   4.084   3.614   6.722
 7133SOL     OW22297   5.168   5.468   5.322
 7133SOL    HW122298   5.122   5.555   5.304
 7133SOL    HW222299   5.165   5.448   5.420
 7134SOL     OW22300   5.834   6.913   2.062
 7134SOL    HW122301   5.802   6.820   2.075
 7134SOL    HW222302   5.786   6.955   1.985
 7135SOL     OW22303   0.859   3.257   3.156
 7135SOL    HW122304   0.779   3.308   3.190
 7135SOL    HW222305   0.828   3.172   3.115
 7136SOL     OW22306   2.051   2.534   1.253
 7136SOL    HW122307   2.091   2.604   1.311
 7136SOL    HW222308   2.013   2.577   1.170
 7137SOL     OW22309   3.803   0.136   6.598
 7137SOL    HW122310   3.847   0.203   6.538
 7137SOL    HW222311   3.737   0.183   6.657
 7138SOL     OW22312   1.547   2.927   6.745
 7138SOL    HW122313   1.588   2.975   6.823
 7138SOL    HW222314   1.526   2.833   6.772
 7139SOL     OW22315   5.653   4.286   2.117
 7139SOL    HW122316   5.606   4.260   2.033
 7139SOL    HW222317   5.699   4.206   2.156
 7140SOL     OW22318   5.675   4.565   4.170
 7140SOL    HW122319   5.681   4.526   4.262
 7140SOL    HW222320   5.580   4.593   4.152
 7141SOL     OW22321   3.775   6.292   1.609
 7141SOL    HW122322   3.819   6.232   1.542
 7141SOL    HW222323   3.677   6.293   1.594
 7142SOL     OW22324   4.615   0.253   3.760
 7142SOL    HW122325   4.630   0.218   3.853
 7142SOL    HW222326   4.520   0.237   3.733
 7143SOL     OW22327   1.098   2.808   6.070
 7143SOL    HW122328   1.152   2.849   6.143
 7143SOL    HW222329   1.003   2.801   6.099
 7144SOL     OW22330   1.984   1.693   2.570
 7144SOL    HW122331   2.001   1.752   2.492
 7144SOL    HW222332   2.069   1.647   2.597
 7145SOL     OW22333   4.286   6.757   0.174
 7145SOL    HW122334   4.214   6.811   0.217
 7145SOL    HW222335   4.360   6.818   0.144
 7146SOL     OW22336   2.296   0.149   0.833
 7146SOL    HW122337   2.270   0.114   0.923
 7146SOL    HW222338   2.228   0.215   0.802
 7147SOL     OW22339   0.409   6.766   3.505
 7147SOL    HW122340   0.492   6.810   3.472
 7147SOL    HW222341   0.383   6.692   3.443
 7148SOL     OW22342   0.669   6.361   0.245
 7148SOL    HW122343   0.672   6.324   0.153
 7148SOL    HW222344   0.737   6.314   0.302
 7149SOL     OW22345   6.032   6.720   2.937
 7149SOL    HW122346   5.933   6.733   2.945
 7149SOL    HW222347   6.053   6.622   2.936
 7150SOL     OW22348   3.490   1.788   2.170
 7150SOL    HW122349   3.498   1.881   2.134
 7150SOL    HW222350   3.581   1.748   2.178
 7151SOL     OW22351   2.255   6.264   0.814
 7151SOL    HW122352   2.300   6.175   0.803
 7151SOL    HW222353   2.316   6.336   0.781
 7152SOL     OW22354   1.258   1.210   4.671
 7152SOL    HW122355   1.159   1.200   4.665
 7152SOL    HW222356   1.281   1.261   4.755
 7153SOL     OW22357   3.486   5.332   1.895
 7153SOL    HW122358   3.397   5.335   1.851
 7153SOL    HW222359   3.476   5.349   1.993
 7154SOL     OW22360   3.547   0.812   3.965
 7154SOL    HW122361   3.595   0.760   4.035
 7154SOL    HW222362   3.466   0.855   4.005
 7155SOL     OW22363   1.985   3.378   1.978
 7155SOL    HW122364   2.040   3.305   1.937
 7155SOL    HW222365   2.044   3.456   2.001
 7156SOL     OW22366   0.394   3.943   4.709
 7156SOL    HW122367   0.473   3.997   4.738
 7156SOL    HW222368   0.310   3.985   4.745
 7157SOL     OW22369   6.242   3.973   2.139
 7157SOL    HW122370   6.309   4.028   2.190
 7157SOL    HW222371   6.248   3.878   2.169
 7158SOL     OW22372   1.447   6.801   2.677
 7158SOL    HW122373   1.405   6.713   2.695
 7158SOL    HW222374   1.379   6.874   2.688
 7159SOL     OW22375   0.598   4.622   2.468
 7159SOL    HW122376   0.636   4.560   2.537
 7159SOL    HW222377   0.670   4.650   2.405
 7160SOL     OW22378   5.128   0.301   3.221
 7160SOL    HW122379   5.038   0.259   3.237
 7160SOL    HW222380   5.198   0.251   3.271
 7161SOL     OW22381   2.931   3.670   4.552
 7161SOL    HW122382   2.975   3.728   4.484
 7161SOL    HW222383   2.837   3.701   4.567
 7162SOL     OW22384   1.669   5.512   6.038
 7162SOL    HW122385   1.716   5.510   5.949
 7162SOL    HW222386   1.708   5.442   6.098
 7163SOL     OW22387   2.902   6.630   2.861
 7163SOL    HW122388   2.905   6.683   2.776
 7163SOL    HW222389   2.935   6.537   2.844
 7164SOL     OW22390   1.799   0.930   4.049
 7164SOL    HW122391   1.878   0.976   4.089
 7164SOL    HW222392   1.721   0.992   4.050
 7165SOL     OW22393   6.971   1.507   1.921
 7165SOL    HW122394   6.909   1.570   1.967
 7165SOL    HW222395   0.039   1.548   1.915
 7166SOL     OW22396   5.932   3.119   0.490
 7166SOL    HW122397   5.993   3.112   0.411
 7166SOL    HW222398   5.979   3.165   0.565
 7167SOL     OW22399   5.203   3.371   4.153
 7167SOL    HW122400   5.190   3.274   4.133
 7167SOL    HW222401   5.145   3.425   4.091
 7168SOL     OW22402   1.922   2.193   3.276
 7168SOL    HW122403   2.001   2.239   3.316
 7168SOL    HW222404   1.840   2.248   3.292
 7169SOL     OW22405   6.351   2.758   5.252
 7169SOL    HW122406   6.315   2.673   5.289
 7169SOL    HW222407   6.405   2.738   5.170
 7170SOL     OW22408   5.106   5.946   3.334
 7170SOL    HW122409   5.131   6.040   3.311
 7170SOL    HW222410   5.130   5.886   3.257
 7171SOL     OW22411   5.335   3.933   0.259
 7171SOL    HW122412   5.430   3.930   0.289
 7171SOL    HW222413   5.319   3.864   0.189
 7172SOL     OW22414   1.637   0.718   5.298
 7172SOL    HW122415   1.606   0.793   5.239
 7172SOL    HW222416   1.646   0.635   5.243
 7173SOL     OW22417   0.069   4.417   5.947
 7173SOL    HW122418   0.108   4.365   5.871
 7173SOL    HW222419   0.053   4.357   6.025
 7174SOL     OW22420   0.532   4.560   0.464
 7174SOL    HW122421   0.626   4.567   0.431
 7174SOL    HW222422   0.527   4.588   0.559
 7175SOL     OW22423   4.990   2.422   6.541
 7175SOL    HW122424   4.948   2.381   6.622
 7175SOL    HW222425   4.972   2.363   6.461
 7176SOL     OW22426   0.842   6.459   2.727
 7176SOL    HW122427   0.869   6.363   2.732
 7176SOL    HW222428   0.759   6.473   2.780
 7177SOL     OW22429   2.098   5.873   4.391
 7177SOL    HW122430   2.139   5.956   4.353
 7177SOL    HW222431   2.000   5.889   4.406
 7178SOL     OW22432   1.743   2.457   5.681
 7178SOL    HW122433   1.779   2.531   5.737
 7178SOL    HW222434   1.701   2.496   5.599
 7179SOL     OW22435   2.157   3.971   4.111
 7179SOL    HW122436   2.076   4.029   4.103
 7179SOL    HW222437   2.145   3.889   4.054
 7180SOL     OW22438   2.376   5.190   0.129
 7180SOL    HW122439   2.424   5.179   0.042
 7180SOL    HW222440   2.406   5.119   0.193
 7181SOL     OW22441   2.279   6.089   0.458
 7181SOL    HW122442   2.278   6.163   0.526
 7181SOL    HW222443   2.301   6.003   0.504
 7182SOL     OW22444   1.558   2.545   5.241
 7182SOL    HW122445   1.657   2.550   5.253
 7182SOL    HW222446   1.525   2.633   5.207
 7183SOL     OW22447   2.647   6.129   0.535
 7183SOL    HW122448   2.654   6.071   0.454
 7183SOL    HW222449   2.620   6.221   0.508
 7184SOL     OW22450   7.005   1.418   3.220
 7184SOL    HW122451   0.057   1.466   3.264
 7184SOL    HW222452   0.015   1.367   3.141
 7185SOL     OW22453   5.300   0.414   5.033
 7185SOL    HW122454   5.334   0.434   5.124
 7185SOL    HW222455   5.237   0.336   5.037
 7186SOL     OW22456   6.452   0.513   0.194
 7186SOL    HW122457   6.387   0.571   0.241
 7186SOL    HW222458   6.533   0.566   0.168
 7187SOL     OW22459   3.718   4.064   6.887
 7187SOL    HW122460   3.683   3.985   6.837
 7187SOL    HW222461   3.795   4.103   6.837
 7188SOL     OW22462   6.737   0.459   0.571
 7188SOL    HW122463   6.828   0.498   0.580
 7188SOL    HW222464   6.669   0.528   0.597
 7189SOL     OW22465   0.705   0.903   6.024
 7189SOL    HW122466   0.682   0.925   5.929
 7189SOL    HW222467   0.705   0.804   6.037
 7190SOL     OW22468   7.008   3.736   2.971
 7190SOL    HW122469   6.967   3.740   3.062
 7190SOL    HW222470   6.937   3.731   2.902
 7191SOL     OW22471   0.489   4.487   2.899
 7191SOL    HW122472   0.407   4.519   2.946
 7191SOL    HW222473   0.525   4.407   2.947
 7192SOL     OW22474   3.350   4.575   5.318
 7192SOL    HW122475   3.364   4.476   5.318
 7192SOL    HW222476   3.252   4.595   5.317
 7193SOL     OW22477   1.963   2.672   2.255
 7193SOL    HW122478   1.993   2.581   2.282
 7193SOL    HW222479   1.870   2.688   2.290
 7194SOL     OW22480   2.706   2.307   0.946
 7194SOL    HW122481   2.787   2.259   0.914
 7194SOL    HW222482   2.624   2.258   0.918
 7195SOL     OW22483   6.876   4.230   6.849
 7195SOL    HW122484   6.794   4.252   6.903
 7195SOL    HW222485   6.937   4.309   6.849
 7196SOL     OW22486   3.401   4.126   1.179
 7196SOL    HW122487   3.307   4.122   1.146
 7196SOL    HW222488   3.401   4.151   1.276
 7197SOL     OW22489   0.248   2.630   5.631
 7197SOL    HW122490   0.213   2.614   5.723
 7197SOL    HW222491   0.344   2.602   5.626
 7198SOL     OW22492   0.691   0.653   6.734
 7198SOL    HW122493   0.628   0.713   6.783
 7198SOL    HW222494   0.715   0.694   6.646
 7199SOL     OW22495   2.306   1.185   2.719
 7199SOL    HW122496   2.276   1.096   2.755
 7199SOL    HW222497   2.404   1.182   2.700
 7200SOL     OW22498   2.669   1.827   0.635
 7200SOL    HW122499   2.727   1.863   0.708
 7200SOL    HW222500   2.691   1.731   0.619
 7201SOL     OW22501   0.971   5.615   4.165
 7201SOL    HW122502   0.871   5.623   4.155
 7201SOL    HW222503   0.998   5.519   4.155
 7202SOL     OW22504   4.319   0.611   6.067
 7202SOL    HW122505   4.396   0.670   6.043
 7202SOL    HW222506   4.241   0.633   6.008
 7203SOL     OW22507   6.737   1.777   0.786
 7203SOL    HW122508   6.781   1.867   0.781
 7203SOL    HW222509   6.670   1.777   0.860
 7204SOL     OW22510   0.493   6.726   5.599
 7204SOL    HW122511   0.404   6.766   5.620
 7204SOL    HW222512   0.530   6.683   5.681
 7205SOL     OW22513   0.880   5.380   3.384
 7205SOL    HW122514   0.824   5.304   3.352
 7205SOL    HW222515   0.905   5.364   3.480
 7206SOL     OW22516   1.895   0.415   1.202
 7206SOL    HW122517   1.849   0.425   1.113
 7206SOL    HW222518   1.989   0.448   1.194
 7207SOL     OW22519   3.765   0.427   2.593
 7207SOL    HW122520   3.740   0.412   2.688
 7207SOL    HW222521   3.865   0.428   2.584
 7208SOL     OW22522   4.094   6.382   3.587
 7208SOL    HW122523   4.040   6.309   3.545
 7208SOL    HW222524   4.185   6.348   3.609
 7209SOL     OW22525   2.928   3.506   2.557
 7209SOL    HW122526   2.898   3.481   2.465
 7209SOL    HW222527   2.918   3.428   2.619
 7210SOL     OW22528   4.605   0.822   3.947
 7210SOL    HW122529   4.610   0.801   3.849
 7210SOL    HW222530   4.667   0.761   3.996
 7211SOL     OW22531   2.918   5.516   3.774
 7211SOL    HW122532   2.821   5.503   3.795
 7211SOL    HW222533   2.929   5.531   3.676
 7212SOL     OW22534   0.367   6.245   4.642
 7212SOL    HW122535   0.304   6.313   4.680
 7212SOL    HW222536   0.323   6.198   4.566
 7213SOL     OW22537   5.213   0.379   7.012
 7213SOL    HW122538   5.134   0.436   6.989
 7213SOL    HW222539   5.206   0.292   6.964
 7214SOL     OW22540   0.331   5.166   5.574
 7214SOL    HW122541   0.280   5.154   5.489
 7214SOL    HW222542   0.426   5.189   5.554
 7215SOL     OW22543   0.113   3.369   5.300
 7215SOL    HW122544   0.133   3.390   5.396
 7215SOL    HW222545   0.033   3.422   5.270
 7216SOL     OW22546   3.180   6.337   6.673
 7216SOL    HW122547   3.190   6.257   6.613
 7216SOL    HW222548   3.271   6.368   6.702
 7217SOL     OW22549   2.395   4.329   2.596
 7217SOL    HW122550   2.309   4.373   2.569
 7217SOL    HW222551   2.470   4.396   2.589
 7218SOL     OW22552   4.989   2.347   5.572
 7218SOL    HW122553   4.934   2.430   5.569
 7218SOL    HW222554   5.065   2.356   5.507
 7219SOL     OW22555   4.482   6.571   4.646
 7219SOL    HW122556   4.470   6.554   4.743
 7219SOL    HW222557   4.579   6.577   4.625
 7220SOL     OW22558   0.537   5.710   4.848
 7220SOL    HW122559   0.625   5.736   4.807
 7220SOL    HW222560   0.554   5.658   4.931
 7221SOL     OW22561   4.337   5.488   4.612
 7221SOL    HW122562   4.344   5.586   4.633
 7221SOL    HW222563   4.243   5.458   4.626
 7222SOL     OW22564   5.918   0.480   2.989
 7222SOL    HW122565   5.853   0.440   3.054
 7222SOL    HW222566   5.943   0.572   3.020
 7223SOL     OW22567   2.784   2.353   1.430
 7223SOL    HW122568   2.727   2.360   1.348
 7223SOL    HW222569   2.847   2.275   1.420
 7224SOL     OW22570   5.766   2.350   3.845
 7224SOL    HW122571   5.678   2.309   3.821
 7224SOL    HW222572   5.764   2.448   3.827
 7225SOL     OW22573   0.787   6.056   7.010
 7225SOL    HW122574   0.815   6.017   6.923
 7225SOL    HW222575   0.812   6.153   7.013
 7226SOL     OW22576   6.838   1.064   1.018
 7226SOL    HW122577   6.773   1.130   0.980
 7226SOL    HW222578   6.832   0.978   0.967
 7227SOL     OW22579   0.839   2.318   0.831
 7227SOL    HW122580   0.854   2.245   0.897
 7227SOL    HW222581   0.790   2.393   0.875
 7228SOL     OW22582   0.964   1.181   2.134
 7228SOL    HW122583   0.952   1.211   2.039
 7228SOL    HW222584   1.014   1.095   2.136
 7229SOL     OW22585   1.605   6.625   5.035
 7229SOL    HW122586   1.611   6.531   5.068
 7229SOL    HW222587   1.573   6.684   5.108
 7230SOL     OW22588   4.666   5.096   4.497
 7230SOL    HW122589   4.760   5.114   4.467
 7230SOL    HW222590   4.635   5.171   4.555
 7231SOL     OW22591   5.174   0.037   0.181
 7231SOL    HW122592   5.196   0.129   0.213
 7231SOL    HW222593   5.090   0.040   0.127
 7232SOL     OW22594   5.155   5.813   3.072
 7232SOL    HW122595   5.192   5.734   3.122
 7232SOL    HW222596   5.230   5.866   3.033
 7233SOL     OW22597   0.434   2.791   4.615
 7233SOL    HW122598   0.495   2.825   4.544
 7233SOL    HW222599   0.360   2.739   4.572
 7234SOL     OW22600   5.239   3.840   3.533
 7234SOL    HW122601   5.236   3.837   3.433
 7234SOL    HW222602   5.255   3.748   3.569
 7235SOL     OW22603   0.019   4.218   1.907
 7235SOL    HW122604   0.083   4.177   1.972
 7235SOL    HW222605   0.052   4.203   1.814
 7236SOL     OW22606   2.465   1.449   2.403
 7236SOL    HW122607   2.469   1.548   2.387
 7236SOL    HW222608   2.404   1.408   2.335
 7237SOL     OW22609   5.725   0.016   5.247
 7237SOL    HW122610   5.794   7.015   5.315
 7237SOL    HW222611   5.758   7.016   5.156
 7238SOL     OW22612   3.188   2.009   1.018
 7238SOL    HW122613   3.270   1.995   1.074
 7238SOL    HW222614   3.168   1.926   0.967
 7239SOL     OW22615   2.382   1.694   2.360
 7239SOL    HW122616   2.350   1.759   2.430
 7239SOL    HW222617   2.407   1.745   2.277
 7240SOL     OW22618   2.146   4.872   6.123
 7240SOL    HW122619   2.129   4.881   6.025
 7240SOL    HW222620   2.107   4.786   6.156
 7241SOL     OW22621   2.937   0.592   0.751
 7241SOL    HW122622   2.961   0.504   0.711
 7241SOL    HW222623   2.856   0.628   0.706
 7242SOL     OW22624   6.235   5.868   0.448
 7242SOL    HW122625   6.222   5.770   0.467
 7242SOL    HW222626   6.199   5.922   0.524
 7243SOL     OW22627   6.844   4.499   6.321
 7243SOL    HW122628   6.834   4.568   6.393
 7243SOL    HW222629   6.761   4.444   6.315
 7244SOL     OW22630   5.659   0.587   1.046
 7244SOL    HW122631   5.631   0.669   1.096
 7244SOL    HW222632   5.759   0.576   1.052
 7245SOL     OW22633   0.495   2.151   5.141
 7245SOL    HW122634   0.420   2.137   5.206
 7245SOL    HW222635   0.458   2.179   5.053
 7246SOL     OW22636   6.414   0.385   4.239
 7246SOL    HW122637   6.340   0.376   4.172
 7246SOL    HW222638   6.375   0.406   4.329
 7247SOL     OW22639   3.032   6.708   4.094
 7247SOL    HW122640   2.961   6.703   4.024
 7247SOL    HW222641   2.991   6.698   4.185
 7248SOL     OW22642   3.564   0.865   3.501
 7248SOL    HW122643   3.495   0.795   3.482
 7248SOL    HW222644   3.614   0.886   3.417
 7249SOL     OW22645   5.864   4.552   2.378
 7249SOL    HW122646   5.806   4.537   2.458
 7249SOL    HW222647   5.812   4.601   2.308
 7250SOL     OW22648   4.236   5.829   6.209
 7250SOL    HW122649   4.174   5.755   6.235
 7250SOL    HW222650   4.183   5.908   6.179
 7251SOL     OW22651   0.440   6.664   5.133
 7251SOL    HW122652   0.451   6.599   5.057
 7251SOL    HW222653   0.446   6.758   5.097
 7252SOL     OW22654   3.881   3.014   3.739
 7252SOL    HW122655   3.939   3.096   3.735
 7252SOL    HW222656   3.867   2.988   3.835
 7253SOL     OW22657   2.241   6.213   6.717
 7253SOL    HW122658   2.211   6.276   6.645
 7253SOL    HW222659   2.340   6.202   6.713
 7254SOL     OW22660   4.562   5.734   5.099
 7254SOL    HW122661   4.557   5.635   5.118
 7254SOL    HW222662   4.654   5.758   5.068
 7255SOL     OW22663   3.763   3.512   1.159
 7255SOL    HW122664   3.820   3.592   1.139
 7255SOL    HW222665   3.706   3.532   1.239
 7256SOL     OW22666   4.481   4.442   4.249
 7256SOL    HW122667   4.429   4.524   4.275
 7256SOL    HW222668   4.428   4.361   4.273
 7257SOL     OW22669   4.944   3.443   4.045
 7257SOL    HW122670   4.853   3.484   4.052
 7257SOL    HW222671   4.977   3.449   3.951
 7258SOL     OW22672   3.897   0.964   2.963
 7258SOL    HW122673   3.972   0.938   3.024
 7258SOL    HW222674   3.884   1.063   2.967
 7259SOL     OW22675   3.293   3.189   1.354
 7259SOL    HW122676   3.319   3.284   1.340
 7259SOL    HW222677   3.206   3.185   1.403
 7260SOL     OW22678   2.698   2.252   2.998
 7260SOL    HW122679   2.671   2.319   2.928
 7260SOL    HW222680   2.736   2.300   3.077
 7261SOL     OW22681   1.981   3.309   1.324
 7261SOL    HW122682   1.925   3.238   1.366
 7261SOL    HW222683   1.922   3.378   1.281
 7262SOL     OW22684   5.369   1.861   4.497
 7262SOL    HW122685   5.378   1.957   4.524
 7262SOL    HW222686   5.386   1.851   4.399
 7263SOL     OW22687   0.156   6.541   2.321
 7263SOL    HW122688   0.206   6.581   2.244
 7263SOL    HW222689   0.127   6.449   2.299
 7264SOL     OW22690   6.195   1.517   6.498
 7264SOL    HW122691   6.264   1.552   6.561
 7264SOL    HW222692   6.114   1.488   6.550
 7265SOL     OW22693   5.490   5.979   5.963
 7265SOL    HW122694   5.421   5.981   6.036
 7265SOL    HW222695   5.477   6.059   5.904
 7266SOL     OW22696   4.258   0.114   1.200
 7266SOL    HW122697   4.335   0.177   1.211
 7266SOL    HW222698   4.229   0.081   1.290
 7267SOL     OW22699   6.538   5.523   5.610
 7267SOL    HW122700   6.482   5.548   5.531
 7267SOL    HW222701   6.494   5.556   5.693
 7268SOL     OW22702   4.410   4.575   2.792
 7268SOL    HW122703   4.468   4.532   2.862
 7268SOL    HW222704   4.421   4.526   2.705
 7269SOL     OW22705   6.913   6.189   1.108
 7269SOL    HW122706   6.947   6.138   1.187
 7269SOL    HW222707   6.989   6.235   1.062
 7270SOL     OW22708   1.303   3.023   4.839
 7270SOL    HW122709   1.233   3.092   4.824
 7270SOL    HW222710   1.393   3.066   4.849
 7271SOL     OW22711   0.420   4.951   4.244
 7271SOL    HW122712   0.366   5.035   4.245
 7271SOL    HW222713   0.501   4.964   4.187
 7272SOL     OW22714   5.651   4.870   2.064
 7272SOL    HW122715   5.661   4.850   2.162
 7272SOL    HW222716   5.555   4.868   2.039
 7273SOL     OW22717   5.563   5.004   2.641
 7273SOL    HW122718   5.567   4.931   2.709
 7273SOL    HW222719   5.648   5.004   2.587
 7274SOL     OW22720   1.074   6.210   6.715
 7274SOL    HW122721   1.169   6.184   6.729
 7274SOL    HW222722   1.032   6.230   6.803
 7275SOL     OW22723   6.911   1.165   2.413
 7275SOL    HW122724   7.007   1.182   2.435
 7275SOL    HW222725   6.854   1.191   2.490
 7276SOL     OW22726   3.621   1.516   3.541
 7276SOL    HW122727   3.579   1.425   3.530
 7276SOL    HW222728   3.572   1.581   3.484
 7277SOL     OW22729   5.306   1.331   4.092
 7277SOL    HW122730   5.228   1.269   4.100
 7277SOL    HW222731   5.278   1.423   4.121
 7278SOL     OW22732   3.255   1.864   1.936
 7278SOL    HW122733   3.210   1.912   2.011
 7278SOL    HW222734   3.348   1.899   1.926
 7279SOL     OW22735   4.060   2.895   6.800
 7279SOL    HW122736   3.990   2.892   6.870
 7279SOL    HW222737   4.031   2.957   6.726
 7280SOL     OW22738   6.658   2.387   4.486
 7280SOL    HW122739   6.676   2.297   4.524
 7280SOL    HW222740   6.714   2.455   4.533
 7281SOL     OW22741   2.292   0.353   0.492
 7281SOL    HW122742   2.358   0.284   0.520
 7281SOL    HW222743   2.318   0.442   0.531
 7282SOL     OW22744   6.626   6.624   0.500
 7282SOL    HW122745   6.599   6.720   0.501
 7282SOL    HW222746   6.553   6.568   0.539
 7283SOL     OW22747   3.205   6.921   1.936
 7283SOL    HW122748   3.146   6.936   1.856
 7283SOL    HW222749   3.190   6.993   2.003
 7284SOL     OW22750   6.861   3.342   4.719
 7284SOL    HW122751   6.772   3.295   4.711
 7284SOL    HW222752   6.934   3.276   4.702
 7285SOL     OW22753   5.637   3.745   1.794
 7285SOL    HW122754   5.590   3.717   1.878
 7285SOL    HW222755   5.617   3.679   1.722
 7286SOL     OW22756   0.872   0.325   0.643
 7286SOL    HW122757   0.966   0.293   0.648
 7286SOL    HW222758   0.866   0.419   0.677
 7287SOL     OW22759   6.397   3.351   4.841
 7287SOL    HW122760   6.312   3.404   4.833
 7287SOL    HW222761   6.473   3.414   4.857
 7288SOL     OW22762   1.016   2.762   1.953
 7288SOL    HW122763   1.029   2.672   1.994
 7288SOL    HW222764   1.050   2.832   2.015
 7289SOL     OW22765   7.003   2.045   2.747
 7289SOL    HW122766   6.917   2.004   2.777
 7289SOL    HW222767   6.985   2.118   2.681
 7290SOL     OW22768   3.079   0.852   5.430
 7290SOL    HW122769   3.089   0.868   5.528
 7290SOL    HW222770   3.069   0.940   5.383
 7291SOL     OW22771   3.246   0.171   0.747
 7291SOL    HW122772   3.157   0.209   0.771
 7291SOL    HW222773   3.240   0.071   0.744
 7292SOL     OW22774   2.783   0.095   3.438
 7292SOL    HW122775   2.844   0.102   3.517
 7292SOL    HW222776   2.707   0.160   3.449
 7293SOL     OW22777   1.669   1.270   5.940
 7293SOL    HW122778   1.684   1.242   5.845
 7293SOL    HW222779   1.702   1.364   5.951
 7294SOL     OW22780   2.975   3.872   0.559
 7294SOL    HW122781   2.920   3.923   0.494
 7294SOL    HW222782   2.934   3.782   0.575
 7295SOL     OW22783   7.003   4.350   1.328
 7295SOL    HW122784   6.976   4.389   1.416
 7295SOL    HW222785   6.986   4.251   1.328
 7296SOL     OW22786   4.614   4.784   2.542
 7296SOL    HW122787   4.547   4.790   2.615
 7296SOL    HW222788   4.574   4.817   2.457
 7297SOL     OW22789   2.858   6.800   2.663
 7297SOL    HW122790   2.805   6.860   2.722
 7297SOL    HW222791   2.804   6.776   2.582
 7298SOL     OW22792   5.095   5.687   0.390
 7298SOL    HW122793   5.154   5.764   0.364
 7298SOL    HW222794   5.119   5.607   0.335
 7299SOL     OW22795   0.905   1.643   0.673
 7299SOL    HW122796   0.969   1.703   0.625
 7299SOL    HW222797   0.813   1.682   0.667
 7300SOL     OW22798   0.693   5.367   2.321
 7300SOL    HW122799   0.634   5.288   2.304
 7300SOL    HW222800   0.655   5.447   2.275
 7301SOL     OW22801   6.455   1.769   6.123
 7301SOL    HW122802   6.501   1.725   6.046
 7301SOL    HW222803   6.378   1.824   6.090
 7302SOL     OW22804   0.266   1.943   5.461
 7302SOL    HW122805   0.249   1.848   5.435
 7302SOL    HW222806   0.285   1.998   5.380
 7303SOL     OW22807   3.335   0.639   6.804
 7303SOL    HW122808   3.298   0.727   6.776
 7303SOL    HW222809   3.260   0.577   6.826
 7304SOL     OW22810   1.983   5.692   1.829
 7304SOL    HW122811   1.930   5.762   1.782
 7304SOL    HW222812   1.945   5.677   1.920
 7305SOL     OW22813   5.772   2.090   1.296
 7305SOL    HW122814   5.724   2.167   1.256
 7305SOL    HW222815   5.841   2.056   1.232
 7306SOL     OW22816   3.769   1.846   1.461
 7306SOL    HW122817   3.770   1.747   1.475
 7306SOL    HW222818   3.736   1.890   1.545
 7307SOL     OW22819   4.411   0.147   2.370
 7307SOL    HW122820   4.377   0.101   2.288
 7307SOL    HW222821   4.455   0.234   2.344
 7308SOL     OW22822   6.749   1.369   3.298
 7308SOL    HW122823   6.844   1.375   3.268
 7308SOL    HW222824   6.743   1.308   3.378
 7309SOL     OW22825   2.711   6.609   1.908
 7309SOL    HW122826   2.760   6.544   1.851
 7309SOL    HW222827   2.671   6.562   1.987
 7310SOL     OW22828   1.650   3.146   6.247
 7310SOL    HW122829   1.703   3.106   6.172
 7310SOL    HW222830   1.633   3.076   6.316
 7311SOL     OW22831   1.092   0.007   0.427
 7311SOL    HW122832   1.036   7.018   0.345
 7311SOL    HW222833   1.188   0.017   0.400
 7312SOL     OW22834   0.854   1.757   5.015
 7312SOL    HW122835   0.854   1.717   5.107
 7312SOL    HW222836   0.778   1.821   5.006
 7313SOL     OW22837   2.291   1.677   0.530
 7313SOL    HW122838   2.361   1.643   0.468
 7313SOL    HW222839   2.292   1.624   0.615
 7314SOL     OW22840   0.086   3.913   5.902
 7314SOL    HW122841   0.058   3.941   5.994
 7314SOL    HW222842   0.164   3.852   5.908
 7315SOL     OW22843   5.651   5.533   2.317
 7315SOL    HW122844   5.728   5.597   2.328
 7315SOL    HW222845   5.590   5.541   2.395
 7316SOL     OW22846   3.513   2.109   6.343
 7316SOL    HW122847   3.443   2.038   6.345
 7316SOL    HW222848   3.498   2.173   6.419
 7317SOL     OW22849   3.651   1.117   1.843
 7317SOL    HW122850   3.748   1.097   1.834
 7317SOL    HW222851   3.628   1.129   1.940
 7318SOL     OW22852   3.393   6.385   2.739
 7318SOL    HW122853   3.469   6.358   2.799
 7318SOL    HW222854   3.425   6.451   2.671
 7319SOL     OW22855   6.087   3.851   6.234
 7319SOL    HW122856   6.115   3.803   6.317
 7319SOL    HW222857   6.084   3.949   6.253
 7320SOL     OW22858   0.787   3.508   0.081
 7320SOL    HW122859   0.704   3.488   0.132
 7320SOL    HW222860   0.793   3.448   0.001
 7321SOL     OW22861   2.170   6.456   6.293
 7321SOL    HW122862   2.122   6.541   6.274
 7321SOL    HW222863   2.123   6.406   6.366
 7322SOL     OW22864   0.135   3.035   2.688
 7322SOL    HW122865   0.103   2.990   2.604
 7322SOL    HW222866   0.197   2.974   2.737
 7323SOL     OW22867   2.615   2.310   1.229
 7323SOL    HW122868   2.638   2.328   1.133
 7323SOL    HW222869   2.562   2.387   1.265
 7324SOL     OW22870   6.258   4.604   2.669
 7324SOL    HW122871   6.332   4.592   2.735
 7324SOL    HW222872   6.276   4.685   2.614
 7325SOL     OW22873   2.942   6.972   5.189
 7325SOL    HW122874   2.961   6.933   5.279
 7325SOL    HW222875   2.870   0.017   5.196
 7326SOL     OW22876   3.844   0.458   6.408
 7326SOL    HW122877   3.907   0.398   6.457
 7326SOL    HW222878   3.880   0.551   6.408
 7327SOL     OW22879   5.849   3.332   3.927
 7327SOL    HW122880   5.824   3.404   3.991
 7327SOL    HW222881   5.831   3.363   3.833
 7328SOL     OW22882   4.572   6.655   6.007
 7328SOL    HW122883   4.669   6.655   5.983
 7328SOL    HW222884   4.524   6.723   5.951
 7329SOL     OW22885   1.228   2.854   0.371
 7329SOL    HW122886   1.247   2.769   0.321
 7329SOL    HW222887   1.247   2.840   0.468
 7330SOL     OW22888   2.121   2.893   0.862
 7330SOL    HW122889   2.028   2.926   0.845
 7330SOL    HW222890   2.182   2.971   0.877
 7331SOL     OW22891   5.279   5.897   2.176
 7331SOL    HW122892   5.229   5.933   2.097
 7331SOL    HW222893   5.216   5.852   2.239
 7332SOL     OW22894   4.225   4.115   6.904
 7332SOL    HW122895   4.147   4.148   6.957
 7332SOL    HW222896   4.243   4.177   6.828
 7333SOL     OW22897   5.847   3.372   3.060
 7333SOL    HW122898   5.912   3.439   3.096
 7333SOL    HW222899   5.896   3.287   3.037
 7334SOL     OW22900   3.077   5.576   5.625
 7334SOL    HW122901   3.168   5.553   5.660
 7334SOL    HW222902   3.064   5.533   5.535
 7335SOL     OW22903   0.185   2.267   3.175
 7335SOL    HW122904   0.167   2.177   3.215
 7335SOL    HW222905   0.198   2.257   3.076
 7336SOL     OW22906   2.190   6.082   1.425
 7336SOL    HW122907   2.290   6.085   1.430
 7336SOL    HW222908   2.156   6.167   1.385
 7337SOL     OW22909   2.371   2.973   1.373
 7337SOL    HW122910   2.461   3.015   1.384
 7337SOL    HW222911   2.335   2.947   1.463
 7338SOL     OW22912   6.041   1.961   1.464
 7338SOL    HW122913   5.955   1.984   1.418
 7338SOL    HW222914   6.032   1.979   1.562
 7339SOL     OW22915   6.996   6.868   5.498
 7339SOL    HW122916   0.039   6.891   5.427
 7339SOL    HW222917   0.021   6.829   5.577
 7340SOL     OW22918   3.897   1.787   6.870
 7340SOL    HW122919   3.997   1.785   6.867
 7340SOL    HW222920   3.867   1.809   6.963
 7341SOL     OW22921   1.628   5.100   5.377
 7341SOL    HW122922   1.577   5.165   5.432
 7341SOL    HW222923   1.582   5.089   5.288
 7342SOL     OW22924   6.064   6.978   0.335
 7342SOL    HW122925   6.141   6.916   0.324
 7342SOL    HW222926   5.998   6.963   0.261
 7343SOL     OW22927   5.547   3.125   1.817
 7343SOL    HW122928   5.450   3.107   1.799
 7343SOL    HW222929   5.592   3.040   1.843
 7344SOL     OW22930   2.013   6.979   6.425
 7344SOL    HW122931   2.073   0.018   6.475
 7344SOL    HW222932   1.986   6.904   6.485
 7345SOL     OW22933   4.900   5.885   5.539
 7345SOL    HW122934   4.976   5.901   5.602
 7345SOL    HW222935   4.863   5.973   5.509
 7346SOL     OW22936   3.905   4.136   1.389
 7346SOL    HW122937   3.898   4.132   1.289
 7346SOL    HW222938   3.831   4.194   1.424
 7347SOL     OW22939   6.466   2.437   1.306
 7347SOL    HW122940   6.492   2.512   1.367
 7347SOL    HW222941   6.445   2.356   1.361
 7348SOL     OW22942   1.658   3.281   3.494
 7348SOL    HW122943   1.669   3.206   3.429
 7348SOL    HW222944   1.602   3.353   3.452
 7349SOL     OW22945   3.605   1.893   1.248
 7349SOL    HW122946   3.552   1.815   1.216
 7349SOL    HW222947   3.646   1.870   1.337
 7350SOL     OW22948   1.293   3.296   3.902
 7350SOL    HW122949   1.204   3.250   3.905
 7350SOL    HW222950   1.332   3.288   3.811
 7351SOL     OW22951   4.212   5.007   6.552
 7351SOL    HW122952   4.144   4.935   6.539
 7351SOL    HW222953   4.186   5.064   6.630
 7352SOL     OW22954   1.907   2.545   3.299
 7352SOL    HW122955   1.943   2.638   3.308
 7352SOL    HW222956   1.910   2.518   3.202
 7353SOL     OW22957   0.734   0.468   5.697
 7353SOL    HW122958   0.723   0.401   5.624
 7353SOL    HW222959   0.646   0.486   5.741
 7354SOL     OW22960   0.358   1.370   6.070
 7354SOL    HW122961   0.332   1.383   6.166
 7354SOL    HW222962   0.277   1.342   6.018
 7355SOL     OW22963   1.231   6.668   6.903
 7355SOL    HW122964   1.193   6.617   6.981
 7355SOL    HW222965   1.328   6.648   6.895
 7356SOL     OW22966   5.429   2.957   6.095
 7356SOL    HW122967   5.347   3.007   6.121
 7356SOL    HW222968   5.510   3.011   6.118
 7357SOL     OW22969   4.665   1.020   1.055
 7357SOL    HW122970   4.645   0.969   1.138
 7357SOL    HW222971   4.665   1.118   1.075
 7358SOL     OW22972   2.000   2.392   2.035
 7358SOL    HW122973   1.943   2.389   2.117
 7358SOL    HW222974   1.998   2.483   1.996
 7359SOL     OW22975   3.295   2.745   0.816
 7359SOL    HW122976   3.245   2.739   0.730
 7359SOL    HW222977   3.232   2.731   0.892
 7360SOL     OW22978   3.363   2.151   6.095
 7360SOL    HW122979   3.430   2.135   6.023
 7360SOL    HW222980   3.407   2.137   6.184
 7361SOL     OW22981   4.123   0.190   1.969
 7361SOL    HW122982   4.042   0.149   1.927
 7361SOL    HW222983   4.124   0.168   2.067
 7362SOL     OW22984   0.766   6.778   4.984
 7362SOL    HW122985   0.765   6.678   4.983
 7362SOL    HW222986   0.733   6.812   4.896
 7363SOL     OW22987   4.103   1.601   1.251
 7363SOL    HW122988   4.200   1.592   1.230
 7363SOL    HW222989   4.086   1.690   1.293
 7364SOL     OW22990   4.372   0.016   1.557
 7364SOL    HW122991   4.348   7.023   1.653
 7364SOL    HW222992   4.290   0.033   1.504
 7365SOL     OW22993   1.481   5.794   2.203
 7365SOL    HW122994   1.484   5.860   2.128
 7365SOL    HW222995   1.461   5.841   2.288
 7366SOL     OW22996   1.655   5.626   0.744
 7366SOL    HW122997   1.612   5.618   0.654
 7366SOL    HW222998   1.603   5.690   0.801
 7367SOL     OW22999   4.548   4.169   1.237
 7367SOL    HW123000   4.609   4.141   1.310
 7367SOL    HW223001   4.507   4.258   1.260
 7368SOL     OW23002   3.622   2.916   4.175
 7368SOL    HW123003   3.675   2.892   4.256
 7368SOL    HW223004   3.529   2.881   4.185
 7369SOL     OW23005   4.990   3.090   1.033
 7369SOL    HW123006   4.978   3.189   1.023
 7369SOL    HW223007   4.978   3.064   1.128
 7370SOL     OW23008   2.332   0.274   5.396
 7370SOL    HW123009   2.316   0.309   5.488
 7370SOL    HW223010   2.369   0.181   5.401
 7371SOL     OW23011   2.523   5.597   3.556
 7371SOL    HW123012   2.506   5.562   3.648
 7371SOL    HW223013   2.465   5.546   3.491
 7372SOL     OW23014   3.058   0.890   5.707
 7372SOL    HW123015   2.981   0.825   5.702
 7372SOL    HW223016   3.116   0.866   5.785
 7373SOL     OW23017   5.339   1.986   3.437
 7373SOL    HW123018   5.331   1.925   3.516
 7373SOL    HW223019   5.351   1.931   3.354
 7374SOL     OW23020   2.934   2.281   5.258
 7374SOL    HW123021   3.020   2.317   5.224
 7374SOL    HW223022   2.860   2.306   5.196
 7375SOL     OW23023   1.951   2.229   3.018
 7375SOL    HW123024   1.871   2.205   2.963
 7375SOL    HW223025   1.940   2.192   3.111
 7376SOL     OW23026   4.152   1.363   0.519
 7376SOL    HW123027   4.128   1.421   0.596
 7376SOL    HW223028   4.248   1.378   0.494
 7377SOL     OW23029   5.139   5.824   1.906
 7377SOL    HW123030   5.080   5.876   1.968
 7377SOL    HW223031   5.104   5.830   1.813
 7378SOL     OW23032   0.034   2.089   5.080
 7378SOL    HW123033   0.025   2.028   5.001
 7378SOL    HW223034   6.966   2.114   5.113
 7379SOL     OW23035   3.979   2.086   2.859
 7379SOL    HW123036   3.881   2.081   2.839
 7379SOL    HW223037   4.026   2.013   2.809
 7380SOL     OW23038   6.783   3.321   5.025
 7380SOL    HW123039   6.744   3.356   5.110
 7380SOL    HW223040   6.786   3.395   4.957
 7381SOL     OW23041   4.973   4.189   2.584
 7381SOL    HW123042   4.917   4.126   2.531
 7381SOL    HW223043   5.039   4.235   2.524
 7382SOL     OW23044   0.185   5.883   5.936
 7382SOL    HW123045   0.270   5.936   5.939
 7382SOL    HW223046   0.207   5.785   5.944
 7383SOL     OW23047   0.538   6.729   1.654
 7383SOL    HW123048   0.628   6.750   1.618
 7383SOL    HW223049   0.544   6.711   1.752
 7384SOL     OW23050   5.334   0.815   2.445
 7384SOL    HW123051   5.362   0.745   2.512
 7384SOL    HW223052   5.290   0.771   2.367
 7385SOL     OW23053   4.470   6.821   2.152
 7385SOL    HW123054   4.382   6.860   2.179
 7385SOL    HW223055   4.544   6.871   2.197
 7386SOL     OW23056   0.024   2.223   5.451
 7386SOL    HW123057   0.087   2.300   5.448
 7386SOL    HW223058   6.972   2.238   5.388
 7387SOL     OW23059   4.131   6.718   4.386
 7387SOL    HW123060   4.212   6.768   4.417
 7387SOL    HW223061   4.127   6.719   4.287
 7388SOL     OW23062   6.734   5.347   3.471
 7388SOL    HW123063   6.668   5.422   3.471
 7388SOL    HW223064   6.814   5.374   3.418
 7389SOL     OW23065   1.036   4.893   0.132
 7389SOL    HW123066   1.029   4.816   0.195
 7389SOL    HW223067   0.956   4.951   0.140
 7390SOL     OW23068   1.534   1.245   6.941
 7390SOL    HW123069   1.512   1.268   0.013
 7390SOL    HW223070   1.632   1.223   6.934
 7391SOL     OW23071   4.871   4.080   4.709
 7391SOL    HW123072   4.795   4.119   4.656
 7391SOL    HW223073   4.945   4.054   4.647
 7392SOL     OW23074   3.010   5.671   6.808
 7392SOL    HW123075   2.973   5.689   6.717
 7392SOL    HW223076   3.095   5.620   6.800
 7393SOL     OW23077   6.165   5.393   1.500
 7393SOL    HW123078   6.182   5.450   1.419
 7393SOL    HW223079   6.080   5.342   1.487
 7394SOL     OW23080   3.130   2.434   6.561
 7394SOL    HW123081   3.120   2.486   6.646
 7394SOL    HW223082   3.063   2.468   6.494
 7395SOL     OW23083   2.122   1.552   0.070
 7395SOL    HW123084   2.178   1.470   0.072
 7395SOL    HW223085   2.172   1.626   0.024
 7396SOL     OW23086   1.305   6.817   0.268
 7396SOL    HW123087   1.316   6.819   0.169
 7396SOL    HW223088   1.313   6.909   0.305
 7397SOL     OW23089   5.355   5.199   5.036
 7397SOL    HW123090   5.295   5.142   4.980
 7397SOL    HW223091   5.403   5.265   4.978
 7398SOL     OW23092   3.329   5.233   4.111
 7398SOL    HW123093   3.242   5.188   4.133
 7398SOL    HW223094   3.338   5.315   4.167
 7399SOL     OW23095   0.445   3.392   5.356
 7399SOL    HW123096   0.492   3.334   5.290
 7399SOL    HW223097   0.459   3.488   5.331
 7400SOL     OW23098   2.510   4.048   6.506
 7400SOL    HW123099   2.581   3.978   6.502
 7400SOL    HW223100   2.437   4.025   6.442
 7401SOL     OW23101   0.871   1.021   4.165
 7401SOL    HW123102   0.878   0.950   4.095
 7401SOL    HW223103   0.913   0.989   4.250
 7402SOL     OW23104   2.144   5.377   5.237
 7402SOL    HW123105   2.112   5.472   5.235
 7402SOL    HW223106   2.212   5.367   5.310
 7403SOL     OW23107   1.490   3.453   3.356
 7403SOL    HW123108   1.484   3.545   3.318
 7403SOL    HW223109   1.401   3.408   3.350
 7404SOL     OW23110   2.859   5.944   1.657
 7404SOL    HW123111   2.853   5.900   1.568
 7404SOL    HW223112   2.805   5.894   1.724
 7405SOL     OW23113   2.667   4.938   4.174
 7405SOL    HW123114   2.731   4.863   4.192
 7405SOL    HW223115   2.575   4.910   4.197
 7406SOL     OW23116   1.284   3.500   3.562
 7406SOL    HW123117   1.279   3.568   3.489
 7406SOL    HW223118   1.210   3.517   3.628
 7407SOL     OW23119   6.802   5.896   5.132
 7407SOL    HW123120   6.815   5.799   5.111
 7407SOL    HW223121   6.800   5.948   5.047
 7408SOL     OW23122   1.080   3.677   5.743
 7408SOL    HW123123   1.009   3.653   5.809
 7408SOL    HW223124   1.148   3.604   5.739
 7409SOL     OW23125   0.491   1.202   4.768
 7409SOL    HW123126   0.416   1.173   4.709
 7409SOL    HW223127   0.529   1.122   4.814
 7410SOL     OW23128   0.066   4.800   0.988
 7410SOL    HW123129   0.123   4.807   0.906
 7410SOL    HW223130   0.124   4.800   1.069
 7411SOL     OW23131   2.906   6.276   4.204
 7411SOL    HW123132   2.867   6.290   4.295
 7411SOL    HW223133   2.998   6.315   4.201
 7412SOL     OW23134   4.083   0.963   2.261
 7412SOL    HW123135   4.002   1.008   2.224
 7412SOL    HW223136   4.061   0.869   2.286
 7413SOL     OW23137   5.988   5.321   4.910
 7413SOL    HW123138   6.045   5.240   4.911
 7413SOL    HW223139   5.940   5.327   4.822
 7414SOL     OW23140   6.773   6.797   3.929
 7414SOL    HW123141   6.871   6.794   3.909
 7414SOL    HW223142   6.741   6.891   3.927
 7415SOL     OW23143   1.053   4.217   3.057
 7415SOL    HW123144   1.073   4.237   3.153
 7415SOL    HW223145   0.995   4.136   3.050
 7416SOL     OW23146   2.905   0.566   3.918
 7416SOL    HW123147   2.953   0.635   3.865
 7416SOL    HW223148   2.858   0.609   3.995
 7417SOL     OW23149   2.345   6.969   6.189
 7417SOL    HW123150   2.275   6.970   6.117
 7417SOL    HW223151   2.354   6.876   6.225
 7418SOL     OW23152   4.190   5.171   0.617
 7418SOL    HW123153   4.252   5.096   0.637
 7418SOL    HW223154   4.218   5.253   0.668
 7419SOL     OW23155   6.440   2.584   4.620
 7419SOL    HW123156   6.358   2.587   4.563
 7419SOL    HW223157   6.416   2.553   4.712
 7420SOL     OW23158   6.610   6.576   2.405
 7420SOL    HW123159   6.676   6.582   2.330
 7420SOL    HW223160   6.560   6.662   2.412
 7421SOL     OW23161   3.091   3.570   1.745
 7421SOL    HW123162   3.162   3.640   1.744
 7421SOL    HW223163   3.129   3.485   1.782
 7422SOL     OW23164   0.177   3.457   2.351
 7422SOL    HW123165   0.213   3.409   2.431
 7422SOL    HW223166   0.093   3.506   2.376
 7423SOL     OW23167   6.547   4.421   5.970
 7423SOL    HW123168   6.511   4.360   5.900
 7423SOL    HW223169   6.647   4.425   5.963
 7424SOL     OW23170   6.356   0.726   4.473
 7424SOL    HW123171   6.303   0.646   4.444
 7424SOL    HW223172   6.434   0.738   4.412
 7425SOL     OW23173   4.552   5.875   6.755
 7425SOL    HW123174   4.639   5.881   6.804
 7425SOL    HW223175   4.547   5.788   6.706
 7426SOL     OW23176   1.138   1.851   6.306
 7426SOL    HW123177   1.079   1.782   6.264
 7426SOL    HW223178   1.098   1.942   6.294
 7427SOL     OW23179   3.288   5.846   4.147
 7427SOL    HW123180   3.337   5.804   4.071
 7427SOL    HW223181   3.191   5.821   4.142
 7428SOL     OW23182   3.579   1.550   5.438
 7428SOL    HW123183   3.651   1.501   5.489
 7428SOL    HW223184   3.575   1.515   5.344
 7429SOL     OW23185   5.220   0.013   3.528
 7429SOL    HW123186   5.162   6.962   3.562
 7429SOL    HW223187   5.214   0.017   3.428
 7430SOL     OW23188   0.420   3.816   6.220
 7430SOL    HW123189   0.322   3.826   6.201
 7430SOL    HW223190   0.471   3.888   6.174
 7431SOL     OW23191   0.242   3.419   2.718
 7431SOL    HW123192   0.238   3.519   2.717
 7431SOL    HW223193   0.149   3.382   2.716
 7432SOL     OW23194   0.201   7.019   3.557
 7432SOL    HW123195   0.259   6.942   3.528
 7432SOL    HW223196   0.181   0.054   3.478
 7433SOL     OW23197   5.734   5.230   0.926
 7433SOL    HW123198   5.798   5.265   0.858
 7433SOL    HW223199   5.722   5.131   0.912
 7434SOL     OW23200   4.570   0.920   6.403
 7434SOL    HW123201   4.521   0.961   6.326
 7434SOL    HW223202   4.605   0.831   6.376
 7435SOL     OW23203   3.698   5.354   0.111
 7435SOL    HW123204   3.624   5.291   0.090
 7435SOL    HW223205   3.766   5.353   0.038
 7436SOL     OW23206   5.467   3.400   6.215
 7436SOL    HW123207   5.449   3.326   6.281
 7436SOL    HW223208   5.533   3.369   6.147
 7437SOL     OW23209   0.271   6.099   0.417
 7437SOL    HW123210   0.352   6.150   0.390
 7437SOL    HW223211   0.231   6.055   0.337
 7438SOL     OW23212   0.782   5.535   1.175
 7438SOL    HW123213   0.858   5.551   1.112
 7438SOL    HW223214   0.817   5.517   1.267
 7439SOL     OW23215   1.662   6.175   4.791
 7439SOL    HW123216   1.728   6.124   4.735
 7439SOL    HW223217   1.579   6.120   4.802
 7440SOL     OW23218   0.939   3.208   4.359
 7440SOL    HW123219   0.960   3.296   4.402
 7440SOL    HW223220   0.981   3.134   4.411
 7441SOL     OW23221   4.689   5.936   4.865
 7441SOL    HW123222   4.729   5.959   4.954
 7441SOL    HW223223   4.729   5.994   4.795
 7442SOL     OW23224   1.220   1.312   6.400
 7442SOL    HW123225   1.273   1.362   6.332
 7442SOL    HW223226   1.196   1.222   6.363
 7443SOL     OW23227   0.235   0.643   1.375
 7443SOL    HW123228   0.277   0.704   1.442
 7443SOL    HW223229   0.195   0.698   1.301
 7444SOL     OW23230   6.607   3.534   4.801
 7444SOL    HW123231   6.570   3.625   4.782
 7444SOL    HW223232   6.644   3.495   4.717
 7445SOL     OW23233   3.553   0.826   1.213
 7445SOL    HW123234   3.479   0.891   1.232
 7445SOL    HW223235   3.526   0.735   1.246
 7446SOL     OW23236   5.586   4.402   0.919
 7446SOL    HW123237   5.589   4.305   0.942
 7446SOL    HW223238   5.516   4.418   0.850
 7447SOL     OW23239   1.447   2.829   5.465
 7447SOL    HW123240   1.524   2.775   5.498
 7447SOL    HW223241   1.480   2.893   5.394
 7448SOL     OW23242   5.535   6.663   5.276
 7448SOL    HW123243   5.608   6.697   5.335
 7448SOL    HW223244   5.498   6.738   5.222
 7449SOL     OW23245   6.445   2.420   1.667
 7449SOL    HW123246   6.354   2.399   1.632
 7449SOL    HW223247   6.483   2.340   1.714
 7450SOL     OW23248   4.928   2.250   4.460
 7450SOL    HW123249   4.977   2.214   4.539
 7450SOL    HW223250   4.904   2.345   4.476
 7451SOL     OW23251   1.150   6.809   2.285
 7451SOL    HW123252   1.114   6.720   2.315
 7451SOL    HW223253   1.091   6.847   2.214
 7452SOL     OW23254   0.602   6.350   4.757
 7452SOL    HW123255   0.533   6.310   4.696
 7452SOL    HW223256   0.626   6.284   4.828
 7453SOL     OW23257   4.877   6.025   6.337
 7453SOL    HW123258   4.842   6.116   6.314
 7453SOL    HW223259   4.884   5.970   6.254
 7454SOL     OW23260   1.294   2.489   1.424
 7454SOL    HW123261   1.354   2.486   1.503
 7454SOL    HW223262   1.317   2.415   1.361
 7455SOL     OW23263   0.230   2.027   1.935
 7455SOL    HW123264   0.158   1.967   1.969
 7455SOL    HW223265   0.258   1.998   1.843
 7456SOL     OW23266   0.423   2.582   4.327
 7456SOL    HW123267   0.352   2.636   4.371
 7456SOL    HW223268   0.461   2.517   4.394
 7457SOL     OW23269   3.661   0.882   5.331
 7457SOL    HW123270   3.743   0.927   5.297
 7457SOL    HW223271   3.681   0.838   5.418
 7458SOL     OW23272   2.850   6.858   6.309
 7458SOL    HW123273   2.760   6.843   6.350
 7458SOL    HW223274   2.838   6.884   6.213
 7459SOL     OW23275   4.595   0.656   0.801
 7459SOL    HW123276   4.509   0.636   0.847
 7459SOL    HW223277   4.578   0.672   0.704
 7460SOL     OW23278   1.765   4.332   1.245
 7460SOL    HW123279   1.669   4.304   1.238
 7460SOL    HW223280   1.776   4.394   1.323
 7461SOL     OW23281   5.905   1.439   6.135
 7461SOL    HW123282   5.836   1.512   6.133
 7461SOL    HW223283   5.976   1.459   6.068
 7462SOL     OW23284   1.964   3.662   2.949
 7462SOL    HW123285   1.891   3.596   2.963
 7462SOL    HW223286   2.032   3.624   2.887
 7463SOL     OW23287   3.337   4.652   1.369
 7463SOL    HW123288   3.293   4.626   1.455
 7463SOL    HW223289   3.373   4.570   1.324
 7464SOL     OW23290   3.725   6.852   6.330
 7464SOL    HW123291   3.703   6.939   6.287
 7464SOL    HW223292   3.733   6.865   6.429
 7465SOL     OW23293   1.403   6.869   0.012
 7465SOL    HW123294   1.318   6.864   6.983
 7465SOL    HW223295   1.477   6.900   6.975
 7466SOL     OW23296   0.378   6.924   6.248
 7466SOL    HW123297   0.471   6.900   6.277
 7466SOL    HW223298   0.345   6.856   6.182
 7467SOL     OW23299   6.637   1.065   0.536
 7467SOL    HW123300   6.547   1.023   0.548
 7467SOL    HW223301   6.692   1.008   0.476
 7468SOL     OW23302   6.208   3.195   2.200
 7468SOL    HW123303   6.117   3.231   2.223
 7468SOL    HW223304   6.278   3.244   2.251
 7469SOL     OW23305   6.528   0.002   0.192
 7469SOL    HW123306   6.585   0.022   0.271
 7469SOL    HW223307   6.483   0.085   0.160
 7470SOL     OW23308   0.167   3.035   4.056
 7470SOL    HW123309   0.144   3.021   4.152
 7470SOL    HW223310   0.250   2.985   4.034
 7471SOL     OW23311   5.692   5.890   5.668
 7471SOL    HW123312   5.745   5.974   5.659
 7471SOL    HW223313   5.689   5.863   5.765
 7472SOL     OW23314   6.096   6.648   4.541
 7472SOL    HW123315   6.064   6.672   4.633
 7472SOL    HW223316   6.074   6.552   4.522
 7473SOL     OW23317   0.224   4.677   2.819
 7473SOL    HW123318   0.276   4.631   2.747
 7473SOL    HW223319   0.140   4.714   2.780
 7474SOL     OW23320   2.624   1.456   5.250
 7474SOL    HW123321   2.578   1.374   5.217
 7474SOL    HW223322   2.565   1.501   5.317
 7475SOL     OW23323   3.764   1.379   2.225
 7475SOL    HW123324   3.729   1.431   2.148
 7475SOL    HW223325   3.863   1.392   2.232
 7476SOL     OW23326   3.896   5.450   4.227
 7476SOL    HW123327   3.927   5.451   4.322
 7476SOL    HW223328   3.825   5.380   4.216
 7477SOL     OW23329   6.567   1.723   4.441
 7477SOL    HW123330   6.652   1.769   4.414
 7477SOL    HW223331   6.548   1.649   4.376
 7478SOL     OW23332   4.452   4.924   6.914
 7478SOL    HW123333   4.462   4.826   6.896
 7478SOL    HW223334   4.362   4.955   6.884
 7479SOL     OW23335   4.017   2.456   1.433
 7479SOL    HW123336   3.970   2.532   1.387
 7479SOL    HW223337   4.102   2.489   1.473
 7480SOL     OW23338   6.474   4.140   1.850
 7480SOL    HW123339   6.412   4.170   1.923
 7480SOL    HW223340   6.424   4.137   1.763
 7481SOL     OW23341   6.255   5.398   2.646
 7481SOL    HW123342   6.265   5.497   2.638
 7481SOL    HW223343   6.191   5.365   2.577
 7482SOL     OW23344   5.272   2.346   3.174
 7482SOL    HW123345   5.370   2.367   3.174
 7482SOL    HW223346   5.247   2.306   3.085
 7483SOL     OW23347   4.541   2.316   5.125
 7483SOL    HW123348   4.610   2.376   5.085
 7483SOL    HW223349   4.584   2.233   5.159
 7484SOL     OW23350   0.819   0.190   3.381
 7484SOL    HW123351   0.895   0.150   3.432
 7484SOL    HW223352   0.849   0.213   3.289
 7485SOL     OW23353   3.081   6.646   4.526
 7485SOL    HW123354   3.137   6.690   4.456
 7485SOL    HW223355   3.136   6.581   4.577
 7486SOL     OW23356   2.899   0.770   6.172
 7486SOL    HW123357   2.902   0.715   6.089
 7486SOL    HW223358   2.804   0.790   6.195
 7487SOL     OW23359   2.713   6.439   2.425
 7487SOL    HW123360   2.654   6.516   2.449
 7487SOL    HW223361   2.748   6.451   2.332
 7488SOL     OW23362   2.101   6.904   4.520
 7488SOL    HW123363   2.017   6.951   4.493
 7488SOL    HW223364   2.124   6.835   4.451
 7489SOL     OW23365   5.065   2.116   4.639
 7489SOL    HW123366   5.053   2.033   4.585
 7489SOL    HW223367   5.038   2.099   4.733
 7490SOL     OW23368   0.900   1.718   1.012
 7490SOL    HW123369   0.989   1.719   0.967
 7490SOL    HW223370   0.859   1.627   1.004
 7491SOL     OW23371   6.593   3.315   6.641
 7491SOL    HW123372   6.542   3.368   6.573
 7491SOL    HW223373   6.691   3.323   6.623
 7492SOL     OW23374   2.688   0.841   4.411
 7492SOL    HW123375   2.763   0.872   4.353
 7492SOL    HW223376   2.695   0.742   4.425
 7493SOL     OW23377   0.035   3.941   6.541
 7493SOL    HW123378   0.083   3.910   6.460
 7493SOL    HW223379   0.023   4.040   6.537
 7494SOL     OW23380   5.905   0.635   2.767
 7494SOL    HW123381   5.945   0.711   2.819
 7494SOL    HW223382   5.906   0.553   2.824
 7495SOL     OW23383   2.434   1.072   0.193
 7495SOL    HW123384   2.359   1.064   0.127
 7495SOL    HW223385   2.515   1.026   0.158
 7496SOL     OW23386   0.343   3.414   6.475
 7496SOL    HW123387   0.439   3.444   6.475
 7496SOL    HW223388   0.294   3.460   6.549
 7497SOL     OW23389   2.705   4.374   0.233
 7497SOL    HW123390   2.786   4.331   0.193
 7497SOL    HW223391   2.644   4.405   0.160
 7498SOL     OW23392   2.365   1.271   5.432
 7498SOL    HW123393   2.342   1.187   5.383
 7498SOL    HW223394   2.345   1.350   5.374
 7499SOL     OW23395   4.835   1.251   3.444
 7499SOL    HW123396   4.772   1.176   3.466
 7499SOL    HW223397   4.928   1.224   3.466
 7500SOL     OW23398   3.801   5.693   4.114
 7500SOL    HW123399   3.788   5.778   4.165
 7500SOL    HW223400   3.837   5.623   4.175
 7501SOL     OW23401   6.377   4.706   4.403
 7501SOL    HW123402   6.404   4.693   4.308
 7501SOL    HW223403   6.457   4.731   4.457
 7502SOL     OW23404   1.475   0.472   4.474
 7502SOL    HW123405   1.487   0.483   4.573
 7502SOL    HW223406   1.553   0.514   4.427
 7503SOL     OW23407   2.431   1.743   0.961
 7503SOL    HW123408   2.500   1.736   1.033
 7503SOL    HW223409   2.460   1.811   0.893
 7504SOL     OW23410   2.046   0.376   3.145
 7504SOL    HW123411   2.015   0.468   3.120
 7504SOL    HW223412   2.141   0.364   3.115
 7505SOL     OW23413   2.580   1.953   6.015
 7505SOL    HW123414   2.617   1.909   6.096
 7505SOL    HW223415   2.650   2.012   5.973
 7506SOL     OW23416   4.813   6.604   2.707
 7506SOL    HW123417   4.747   6.661   2.758
 7506SOL    HW223418   4.779   6.589   2.614
 7507SOL     OW23419   0.485   0.811   1.529
 7507SOL    HW123420   0.504   0.762   1.614
 7507SOL    HW223421   0.410   0.877   1.545
 7508SOL     OW23422   6.704   6.661   2.126
 7508SOL    HW123423   6.768   6.589   2.153
 7508SOL    HW223424   6.698   6.664   2.026
 7509SOL     OW23425   5.917   4.776   0.927
 7509SOL    HW123426   5.941   4.819   1.014
 7509SOL    HW223427   5.997   4.731   0.888
 7510SOL     OW23428   2.733   4.405   5.395
 7510SOL    HW123429   2.766   4.450   5.312
 7510SOL    HW223430   2.688   4.319   5.371
 7511SOL     OW23431   1.888   6.731   3.468
 7511SOL    HW123432   1.911   6.809   3.527
 7511SOL    HW223433   1.885   6.761   3.373
 7512SOL     OW23434   3.084   4.902   6.748
 7512SOL    HW123435   3.119   4.833   6.684
 7512SOL    HW223436   3.092   4.993   6.706
 7513SOL     OW23437   2.031   1.245   1.620
 7513SOL    HW123438   2.035   1.245   1.720
 7513SOL    HW223439   2.058   1.335   1.585
 7514SOL     OW23440   2.205   5.485   1.760
 7514SOL    HW123441   2.142   5.556   1.794
 7514SOL    HW223442   2.299   5.517   1.769
 7515SOL     OW23443   0.153   5.410   2.609
 7515SOL    HW123444   0.188   5.453   2.526
 7515SOL    HW223445   0.227   5.403   2.676
 7516SOL     OW23446   6.258   5.638   4.252
 7516SOL    HW123447   6.184   5.580   4.286
 7516SOL    HW223448   6.220   5.729   4.229
 7517SOL     OW23449   6.748   3.451   1.254
 7517SOL    HW123450   6.775   3.515   1.181
 7517SOL    HW223451   6.740   3.501   1.340
 7518SOL     OW23452   4.279   5.039   3.247
 7518SOL    HW123453   4.278   5.130   3.290
 7518SOL    HW223454   4.343   5.040   3.170
 7519SOL     OW23455   0.139   6.921   4.558
 7519SOL    HW123456   0.233   6.952   4.540
 7519SOL    HW223457   0.110   6.955   4.648
 7520SOL     OW23458   3.102   6.678   2.047
 7520SOL    HW123459   3.144   6.601   1.998
 7520SOL    HW223460   3.148   6.763   2.022
 7521SOL     OW23461   4.797   4.485   6.270
 7521SOL    HW123462   4.822   4.388   6.281
 7521SOL    HW223463   4.871   4.534   6.224
 7522SOL     OW23464   2.970   6.396   6.213
 7522SOL    HW123465   2.976   6.429   6.119
 7522SOL    HW223466   2.886   6.432   6.255
 7523SOL     OW23467   5.703   0.890   6.289
 7523SOL    HW123468   5.700   0.979   6.242
 7523SOL    HW223469   5.614   0.872   6.331
 7524SOL     OW23470   1.695   2.351   6.437
 7524SOL    HW123471   1.650   2.439   6.452
 7524SOL    HW223472   1.771   2.362   6.373
 7525SOL     OW23473   2.760   0.477   6.560
 7525SOL    HW123474   2.697   0.503   6.634
 7525SOL    HW223475   2.828   0.413   6.595
 7526SOL     OW23476   3.182   3.327   1.828
 7526SOL    HW123477   3.149   3.236   1.850
 7526SOL    HW223478   3.270   3.343   1.872
 7527SOL     OW23479   4.332   6.010   3.092
 7527SOL    HW123480   4.385   6.084   3.134
 7527SOL    HW223481   4.250   5.992   3.146
 7528SOL     OW23482   4.594   1.585   6.640
 7528SOL    HW123483   4.688   1.593   6.608
 7528SOL    HW223484   4.538   1.655   6.597
 7529SOL     OW23485   5.993   0.462   4.391
 7529SOL    HW123486   5.997   0.447   4.490
 7529SOL    HW223487   5.903   0.435   4.357
 7530SOL     OW23488   0.118   4.046   2.099
 7530SOL    HW123489   0.136   3.969   2.038
 7530SOL    HW223490   0.078   4.012   2.184
 7531SOL     OW23491   4.378   1.926   4.048
 7531SOL    HW123492   4.412   1.913   4.141
 7531SOL    HW223493   4.297   1.869   4.034
 7532SOL     OW23494   5.589   4.987   1.643
 7532SOL    HW123495   5.607   5.003   1.545
 7532SOL    HW223496   5.573   5.075   1.688
 7533SOL     OW23497   2.850   1.519   2.513
 7533SOL    HW123498   2.817   1.511   2.607
 7533SOL    HW223499   2.889   1.432   2.483
 7534SOL     OW23500   4.273   6.610   6.052
 7534SOL    HW123501   4.354   6.563   6.017
 7534SOL    HW223502   4.192   6.556   6.033
 7535SOL     OW23503   2.697   0.476   5.817
 7535SOL    HW123504   2.663   0.445   5.728
 7535SOL    HW223505   2.797   0.475   5.817
 7536SOL     OW23506   5.354   4.933   5.343
 7536SOL    HW123507   5.320   5.021   5.311
 7536SOL    HW223508   5.278   4.876   5.374
 7537SOL     OW23509   2.548   5.197   3.120
 7537SOL    HW123510   2.621   5.216   3.055
 7537SOL    HW223511   2.587   5.187   3.212
 7538SOL     OW23512   3.477   3.334   1.981
 7538SOL    HW123513   3.554   3.337   2.044
 7538SOL    HW223514   3.488   3.257   1.918
 7539SOL     OW23515   1.511   2.710   3.904
 7539SOL    HW123516   1.471   2.749   3.822
 7539SOL    HW223517   1.439   2.668   3.960
 7540SOL     OW23518   3.501   6.199   6.008
 7540SOL    HW123519   3.464   6.153   5.927
 7540SOL    HW223520   3.579   6.256   5.982
 7541SOL     OW23521   6.945   4.431   4.256
 7541SOL    HW123522   6.896   4.371   4.194
 7541SOL    HW223523   6.946   4.392   4.348
 7542SOL     OW23524   0.791   5.621   6.975
 7542SOL    HW123525   0.787   5.635   6.876
 7542SOL    HW223526   0.715   5.668   7.018
 7543SOL     OW23527   3.855   1.912   1.134
 7543SOL    HW123528   3.761   1.913   1.169
 7543SOL    HW223529   3.917   1.881   1.205
 7544SOL     OW23530   0.396   2.588   3.008
 7544SOL    HW123531   0.397   2.686   3.027
 7544SOL    HW223532   0.373   2.537   3.091
 7545SOL     OW23533   5.699   6.325   2.471
 7545SOL    HW123534   5.605   6.356   2.468
 7545SOL    HW223535   5.760   6.398   2.439
 7546SOL     OW23536   3.152   1.016   2.405
 7546SOL    HW123537   3.188   0.948   2.341
 7546SOL    HW223538   3.120   1.096   2.354
 7547SOL     OW23539   4.701   0.185   0.476
 7547SOL    HW123540   4.800   0.183   0.461
 7547SOL    HW223541   4.665   0.275   0.450
 7548SOL     OW23542   3.563   2.268   0.440
 7548SOL    HW123543   3.551   2.359   0.479
 7548SOL    HW223544   3.598   2.276   0.346
 7549SOL     OW23545   5.633   1.967   0.946
 7549SOL    HW123546   5.562   1.898   0.962
 7549SOL    HW223547   5.646   2.022   1.028
 7550SOL     OW23548   2.481   4.378   1.989
 7550SOL    HW123549   2.509   4.415   2.078
 7550SOL    HW223550   2.435   4.290   2.003
 7551SOL     OW23551   4.813   3.723   6.882
 7551SOL    HW123552   4.819   3.686   6.789
 7551SOL    HW223553   4.743   3.674   6.934
 7552SOL     OW23554   1.685   5.712   3.573
 7552SOL    HW123555   1.643   5.743   3.488
 7552SOL    HW223556   1.737   5.787   3.614
 7553SOL     OW23557   4.724   5.033   5.948
 7553SOL    HW123558   4.749   5.127   5.971
 7553SOL    HW223559   4.794   4.970   5.983
 7554SOL     OW23560   4.228   1.231   1.679
 7554SOL    HW123561   4.208   1.327   1.698
 7554SOL    HW223562   4.230   1.216   1.580
 7555SOL     OW23563   2.002   4.746   5.504
 7555SOL    HW123564   2.048   4.736   5.415
 7555SOL    HW223565   2.061   4.709   5.576
 7556SOL     OW23566   0.842   3.225   5.499
 7556SOL    HW123567   0.922   3.229   5.560
 7556SOL    HW223568   0.766   3.182   5.548
 7557SOL     OW23569   5.305   2.529   5.895
 7557SOL    HW123570   5.288   2.446   5.842
 7557SOL    HW223571   5.258   2.522   5.983
 7558SOL     OW23572   1.741   2.731   4.486
 7558SOL    HW123573   1.644   2.751   4.473
 7558SOL    HW223574   1.757   2.633   4.473
 7559SOL     OW23575   6.418   5.064   0.186
 7559SOL    HW123576   6.425   5.056   0.087
 7559SOL    HW223577   6.403   4.973   0.226
 7560SOL     OW23578   5.304   6.663   0.999
 7560SOL    HW123579   5.215   6.688   0.961
 7560SOL    HW223580   5.345   6.743   1.044
 7561SOL     OW23581   0.822   3.411   6.813
 7561SOL    HW123582   0.882   3.339   6.778
 7561SOL    HW223583   0.847   3.498   6.772
 7562SOL     OW23584   5.874   5.910   5.065
 7562SOL    HW123585   5.876   5.984   5.132
 7562SOL    HW223586   5.807   5.841   5.094
 7563SOL     OW23587   2.558   6.166   0.924
 7563SOL    HW123588   2.585   6.104   0.998
 7563SOL    HW223589   2.487   6.122   0.869
 7564SOL     OW23590   4.938   1.670   2.920
 7564SOL    HW123591   4.975   1.584   2.955
 7564SOL    HW223592   4.840   1.660   2.904
 7565SOL     OW23593   5.640   3.914   0.286
 7565SOL    HW123594   5.677   3.907   0.379
 7565SOL    HW223595   5.608   4.008   0.270
 7566SOL     OW23596   6.835   4.539   3.719
 7566SOL    HW123597   6.861   4.633   3.701
 7566SOL    HW223598   6.794   4.532   3.810
 7567SOL     OW23599   2.079   1.906   5.132
 7567SOL    HW123600   2.016   1.845   5.180
 7567SOL    HW223601   2.070   1.892   5.033
 7568SOL     OW23602   5.588   6.238   3.372
 7568SOL    HW123603   5.558   6.191   3.290
 7568SOL    HW223604   5.682   6.270   3.360
 7569SOL     OW23605   4.018   5.036   6.276
 7569SOL    HW123606   4.051   5.005   6.365
 7569SOL    HW223607   3.967   4.961   6.233
 7570SOL     OW23608   5.302   4.460   5.517
 7570SOL    HW123609   5.269   4.444   5.424
 7570SOL    HW223610   5.402   4.458   5.518
 7571SOL     OW23611   4.782   5.653   3.526
 7571SOL    HW123612   4.800   5.747   3.498
 7571SOL    HW223613   4.851   5.625   3.593
 7572SOL     OW23614   4.265   1.031   2.806
 7572SOL    HW123615   4.309   1.072   2.726
 7572SOL    HW223616   4.191   0.972   2.776
 7573SOL     OW23617   6.590   6.686   4.874
 7573SOL    HW123618   6.651   6.611   4.897
 7573SOL    HW223619   6.572   6.686   4.775
 7574SOL     OW23620   6.342   1.120   4.507
 7574SOL    HW123621   6.254   1.148   4.547
 7574SOL    HW223622   6.349   1.156   4.414
 7575SOL     OW23623   4.135   0.634   5.815
 7575SOL    HW123624   4.067   0.562   5.801
 7575SOL    HW223625   4.190   0.644   5.732
 7576SOL     OW23626   5.699   4.856   0.180
 7576SOL    HW123627   5.751   4.807   0.109
 7576SOL    HW223628   5.685   4.951   0.151
 7577SOL     OW23629   6.985   6.508   5.488
 7577SOL    HW123630   6.959   6.415   5.462
 7577SOL    HW223631   0.054   6.507   5.526
 7578SOL     OW23632   2.700   5.832   2.414
 7578SOL    HW123633   2.770   5.789   2.472
 7578SOL    HW223634   2.745   5.885   2.342
 7579SOL     OW23635   5.891   2.463   1.864
 7579SOL    HW123636   5.921   2.368   1.854
 7579SOL    HW223637   5.800   2.474   1.823
 7580SOL     OW23638   1.497   3.943   4.021
 7580SOL    HW123639   1.430   3.890   4.074
 7580SOL    HW223640   1.589   3.923   4.055
 7581SOL     OW23641   6.945   0.206   1.359
 7581SOL    HW123642   6.863   0.153   1.338
 7581SOL    HW223643   7.023   0.168   1.309
 7582SOL     OW23644   2.609   0.694   0.276
 7582SOL    HW123645   2.592   0.611   0.223
 7582SOL    HW223646   2.648   0.764   0.217
 7583SOL     OW23647   6.285   3.231   0.496
 7583SOL    HW123648   6.210   3.268   0.551
 7583SOL    HW223649   6.372   3.261   0.535
 7584SOL     OW23650   2.477   6.726   1.382
 7584SOL    HW123651   2.547   6.739   1.312
 7584SOL    HW223652   2.389   6.710   1.338
 7585SOL     OW23653   2.235   2.640   5.731
 7585SOL    HW123654   2.286   2.700   5.670
 7585SOL    HW223655   2.291   2.618   5.811
 7586SOL     OW23656   3.934   0.934   3.746
 7586SOL    HW123657   3.869   0.858   3.742
 7586SOL    HW223658   3.977   0.935   3.837
 7587SOL     OW23659   2.554   1.954   6.430
 7587SOL    HW123660   2.591   2.041   6.461
 7587SOL    HW223661   2.616   1.914   6.363
 7588SOL     OW23662   1.227   3.166   2.692
 7588SOL    HW123663   1.288   3.245   2.686
 7588SOL    HW223664   1.133   3.195   2.670
 7589SOL     OW23665   6.917   6.818   1.755
 7589SOL    HW123666   6.911   6.732   1.806
 7589SOL    HW223667   6.859   6.887   1.798
 7590SOL     OW23668   4.476   1.732   6.434
 7590SOL    HW123669   4.452   1.720   6.337
 7590SOL    HW223670   4.454   1.825   6.463
 7591SOL     OW23671   0.038   4.580   0.266
 7591SOL    HW123672   0.116   4.549   0.211
 7591SOL    HW223673   7.003   4.641   0.212
 7592SOL     OW23674   6.521   4.342   6.693
 7592SOL    HW123675   6.540   4.349   6.791
 7592SOL    HW223676   6.493   4.249   6.671
 7593SOL     OW23677   5.344   2.242   1.206
 7593SOL    HW123678   5.329   2.304   1.129
 7593SOL    HW223679   5.276   2.261   1.277
 7594SOL     OW23680   0.474   5.113   2.106
 7594SOL    HW123681   0.438   5.073   2.191
 7594SOL    HW223682   0.473   5.044   2.034
 7595SOL     OW23683   7.012   2.673   5.860
 7595SOL    HW123684   7.018   2.772   5.875
 7595SOL    HW223685   0.081   2.634   5.858
 7596SOL     OW23686   4.940   5.896   3.750
 7596SOL    HW123687   5.013   5.964   3.760
 7596SOL    HW223688   4.901   5.876   3.840
 7597SOL     OW23689   3.600   6.106   2.808
 7597SOL    HW123690   3.519   6.104   2.749
 7597SOL    HW223691   3.593   6.183   2.872
 7598SOL     OW23692   0.171   1.446   3.643
 7598SOL    HW123693   0.253   1.390   3.631
 7598SOL    HW223694   0.175   1.492   3.732
 7599SOL     OW23695   5.734   1.927   2.305
 7599SOL    HW123696   5.800   1.860   2.339
 7599SOL    HW223697   5.642   1.888   2.309
 7600SOL     OW23698   1.799   1.085   2.791
 7600SOL    HW123699   1.822   1.167   2.844
 7600SOL    HW223700   1.808   1.105   2.694
 7601SOL     OW23701   2.094   5.153   2.584
 7601SOL    HW123702   2.016   5.202   2.624
 7601SOL    HW223703   2.095   5.168   2.485
 7602SOL     OW23704   0.595   4.484   0.006
 7602SOL    HW123705   0.598   4.579   6.997
 7602SOL    HW223706   0.686   4.455   0.034
 7603SOL     OW23707   1.959   5.060   6.229
 7603SOL    HW123708   1.922   5.001   6.301
 7603SOL    HW223709   2.040   5.017   6.189
 7604SOL     OW23710   1.487   4.826   4.337
 7604SOL    HW123711   1.430   4.855   4.413
 7604SOL    HW223712   1.508   4.729   4.347
 7605SOL     OW23713   0.484   0.016   0.878
 7605SOL    HW123714   0.568   0.067   0.857
 7605SOL    HW223715   0.467   6.972   0.806
 7606SOL     OW23716   6.766   3.477   3.652
 7606SOL    HW123717   6.817   3.444   3.573
 7606SOL    HW223718   6.829   3.492   3.728
 7607SOL     OW23719   4.456   4.916   0.328
 7607SOL    HW123720   4.434   5.013   0.317
 7607SOL    HW223721   4.468   4.896   0.425
 7608SOL     OW23722   3.411   3.669   3.093
 7608SOL    HW123723   3.475   3.595   3.109
 7608SOL    HW223724   3.394   3.717   3.179
 7609SOL     OW23725   0.764   3.767   4.018
 7609SOL    HW123726   0.737   3.694   4.082
 7609SOL    HW223727   0.713   3.757   3.933
 7610SOL     OW23728   6.013   6.113   0.401
 7610SOL    HW123729   6.067   6.066   0.471
 7610SOL    HW223730   6.059   6.197   0.373
 7611SOL     OW23731   0.403   1.760   0.173
 7611SOL    HW123732   0.408   1.845   0.119
 7611SOL    HW223733   0.495   1.721   0.181
 7612SOL     OW23734   5.157   3.217   5.029
 7612SOL    HW123735   5.125   3.268   4.949
 7612SOL    HW223736   5.097   3.235   5.107
 7613SOL     OW23737   6.364   3.521   1.174
 7613SOL    HW123738   6.326   3.586   1.109
 7613SOL    HW223739   6.366   3.562   1.265
 7614SOL     OW23740   5.188   3.653   0.867
 7614SOL    HW123741   5.147   3.743   0.875
 7614SOL    HW223742   5.248   3.636   0.945
 7615SOL     OW23743   4.079   3.581   6.546
 7615SOL    HW123744   4.151   3.644   6.516
 7615SOL    HW223745   4.065   3.510   6.477
 7616SOL     OW23746   6.417   5.226   5.508
 7616SOL    HW123747   6.372   5.284   5.440
 7616SOL    HW223748   6.484   5.281   5.560
 7617SOL     OW23749   4.163   5.777   2.790
 7617SOL    HW123750   4.195   5.872   2.788
 7617SOL    HW223751   4.114   5.760   2.875
 7618SOL     OW23752   0.418   1.529   5.822
 7618SOL    HW123753   0.420   1.481   5.910
 7618SOL    HW223754   0.401   1.464   5.748
 7619SOL     OW23755   5.758   2.978   5.366
 7619SOL    HW123756   5.661   2.973   5.339
 7619SOL    HW223757   5.809   3.030   5.297
 7620SOL     OW23758   4.171   5.506   0.574
 7620SOL    HW123759   4.267   5.480   0.583
 7620SOL    HW223760   4.148   5.517   0.477
 7621SOL     OW23761   0.210   1.840   0.375
 7621SOL    HW123762   0.260   1.791   0.303
 7621SOL    HW223763   0.199   1.935   0.349
 7622SOL     OW23764   5.412   5.624   1.510
 7622SOL    HW123765   5.357   5.541   1.504
 7622SOL    HW223766   5.458   5.628   1.598
 7623SOL     OW23767   4.528   3.504   6.839
 7623SOL    HW123768   4.613   3.483   6.887
 7623SOL    HW223769   4.468   3.424   6.841
 7624SOL     OW23770   6.984   2.911   4.879
 7624SOL    HW123771   7.011   2.840   4.945
 7624SOL    HW223772   6.980   2.999   4.925
 7625SOL     OW23773   5.027   1.096   1.102
 7625SOL    HW123774   4.961   1.030   1.137
 7625SOL    HW223775   5.120   1.068   1.128
 7626SOL     OW23776   5.909   6.830   4.476
 7626SOL    HW123777   5.981   6.762   4.474
 7626SOL    HW223778   5.820   6.784   4.483
 7627SOL     OW23779   5.426   2.545   6.925
 7627SOL    HW123780   5.505   2.588   6.969
 7627SOL    HW223781   5.381   2.484   6.990
 7628SOL     OW23782   4.003   0.340   2.811
 7628SOL    HW123783   3.954   0.424   2.834
 7628SOL    HW223784   4.055   0.354   2.727
 7629SOL     OW23785   6.756   6.841   2.779
 7629SOL    HW123786   6.719   6.826   2.870
 7629SOL    HW223787   6.745   6.937   2.753
 7630SOL     OW23788   6.389   0.229   1.698
 7630SOL    HW123789   6.309   0.268   1.653
 7630SOL    HW223790   6.469   0.239   1.638
 7631SOL     OW23791   0.908   0.600   6.213
 7631SOL    HW123792   0.810   0.607   6.198
 7631SOL    HW223793   0.951   0.689   6.196
 7632SOL     OW23794   3.603   2.813   2.072
 7632SOL    HW123795   3.517   2.775   2.106
 7632SOL    HW223796   3.679   2.776   2.125
 7633SOL     OW23797   5.098   1.509   1.215
 7633SOL    HW123798   5.031   1.489   1.286
 7633SOL    HW223799   5.186   1.468   1.239
 7634SOL     OW23800   0.718   1.884   2.944
 7634SOL    HW123801   0.669   1.923   3.022
 7634SOL    HW223802   0.813   1.916   2.946
 7635SOL     OW23803   3.558   5.574   4.646
 7635SOL    HW123804   3.577   5.672   4.637
 7635SOL    HW223805   3.617   5.536   4.717
 7636SOL     OW23806   1.124   2.442   4.249
 7636SOL    HW123807   1.053   2.394   4.196
 7636SOL    HW223808   1.112   2.541   4.238
 7637SOL     OW23809   2.596   4.995   1.971
 7637SOL    HW123810   2.529   4.935   2.014
 7637SOL    HW223811   2.662   4.941   1.919
 7638SOL     OW23812   3.954   6.328   0.555
 7638SOL    HW123813   3.913   6.244   0.519
 7638SOL    HW223814   4.053   6.325   0.543
 7639SOL     OW23815   1.238   2.192   0.104
 7639SOL    HW123816   1.157   2.206   0.047
 7639SOL    HW223817   1.215   2.129   0.178
 7640SOL     OW23818   3.116   1.705   6.838
 7640SOL    HW123819   3.153   1.790   6.798
 7640SOL    HW223820   3.029   1.725   6.883
 7641SOL     OW23821   1.502   4.483   1.799
 7641SOL    HW123822   1.545   4.438   1.877
 7641SOL    HW223823   1.412   4.443   1.783
 7642SOL     OW23824   4.042   0.682   3.280
 7642SOL    HW123825   4.117   0.671   3.346
 7642SOL    HW223826   4.053   0.768   3.231
 7643SOL     OW23827   4.862   3.155   4.394
 7643SOL    HW123828   4.859   3.094   4.315
 7643SOL    HW223829   4.927   3.120   4.461
 7644SOL     OW23830   5.952   2.852   2.486
 7644SOL    HW123831   6.002   2.812   2.563
 7644SOL    HW223832   6.011   2.853   2.405
 7645SOL     OW23833   4.048   4.165   5.567
 7645SOL    HW123834   4.083   4.203   5.653
 7645SOL    HW223835   3.959   4.206   5.547
 7646SOL     OW23836   1.556   3.167   2.537
 7646SOL    HW123837   1.585   3.197   2.446
 7646SOL    HW223838   1.587   3.073   2.553
 7647SOL     OW23839   6.695   3.871   2.399
 7647SOL    HW123840   6.786   3.897   2.366
 7647SOL    HW223841   6.626   3.927   2.353
 7648SOL     OW23842   3.051   1.423   3.421
 7648SOL    HW123843   3.066   1.373   3.336
 7648SOL    HW223844   2.957   1.456   3.425
 7649SOL     OW23845   0.458   0.676   3.035
 7649SOL    HW123846   0.552   0.653   3.057
 7649SOL    HW223847   0.420   0.736   3.106
 7650SOL     OW23848   4.342   2.789   1.416
 7650SOL    HW123849   4.404   2.774   1.493
 7650SOL    HW223850   4.395   2.803   1.332
 7651SOL     OW23851   2.611   0.966   4.652
 7651SOL    HW123852   2.667   1.049   4.648
 7651SOL    HW223853   2.630   0.910   4.571
 7652SOL     OW23854   6.242   3.774   4.376
 7652SOL    HW123855   6.236   3.680   4.412
 7652SOL    HW223856   6.315   3.779   4.309
 7653SOL     OW23857   2.423   2.230   6.920
 7653SOL    HW123858   2.412   2.203   7.015
 7653SOL    HW223859   2.490   2.170   6.876
 7654SOL     OW23860   4.859   3.106   3.394
 7654SOL    HW123861   4.922   3.041   3.437
 7654SOL    HW223862   4.835   3.177   3.459
 7655SOL     OW23863   4.558   0.495   3.549
 7655SOL    HW123864   4.563   0.593   3.572
 7655SOL    HW223865   4.600   0.442   3.623
 7656SOL     OW23866   1.974   5.503   6.288
 7656SOL    HW123867   2.041   5.486   6.216
 7656SOL    HW223868   1.891   5.452   6.269
 7657SOL     OW23869   1.873   2.901   3.950
 7657SOL    HW123870   1.929   2.983   3.935
 7657SOL    HW223871   1.904   2.854   4.032
 7658SOL     OW23872   3.700   0.099   5.745
 7658SOL    HW123873   3.696   0.140   5.836
 7658SOL    HW223874   3.686   0.169   5.676
 7659SOL     OW23875   5.890   5.215   0.429
 7659SOL    HW123876   5.975   5.218   0.376
 7659SOL    HW223877   5.820   5.165   0.377
 7660SOL     OW23878   0.744   6.208   3.763
 7660SOL    HW123879   0.701   6.204   3.853
 7660SOL    HW223880   0.693   6.269   3.704
 7661SOL     OW23881   6.358   2.633   4.215
 7661SOL    HW123882   6.333   2.719   4.170
 7661SOL    HW223883   6.447   2.643   4.259
 7662SOL     OW23884   1.084   2.897   2.584
 7662SOL    HW123885   1.094   2.878   2.681
 7662SOL    HW223886   1.063   2.994   2.570
 7663SOL     OW23887   1.296   6.004   5.986
 7663SOL    HW123888   1.330   5.965   5.900
 7663SOL    HW223889   1.279   5.931   6.052
 7664SOL     OW23890   3.572   0.251   1.641
 7664SOL    HW123891   3.523   0.169   1.611
 7664SOL    HW223892   3.542   0.275   1.733
 7665SOL     OW23893   4.596   0.102   4.943
 7665SOL    HW123894   4.634   0.086   4.852
 7665SOL    HW223895   4.521   0.167   4.937
 7666SOL     OW23896   0.516   6.479   1.383
 7666SOL    HW123897   0.615   6.491   1.389
 7666SOL    HW223898   0.471   6.540   1.449
 7667SOL     OW23899   4.943   5.401   2.076
 7667SOL    HW123900   4.946   5.466   2.001
 7667SOL    HW223901   4.875   5.330   2.056
 7668SOL     OW23902   2.947   4.764   0.785
 7668SOL    HW123903   2.875   4.704   0.750
 7668SOL    HW223904   2.972   4.736   0.878
 7669SOL     OW23905   5.722   1.777   5.557
 7669SOL    HW123906   5.670   1.834   5.493
 7669SOL    HW223907   5.746   1.830   5.638
 7670SOL     OW23908   0.658   5.192   0.023
 7670SOL    HW123909   0.701   5.171   6.958
 7670SOL    HW223910   0.637   5.106   0.069
 7671SOL     OW23911   4.051   1.223   3.275
 7671SOL    HW123912   4.074   1.221   3.373
 7671SOL    HW223913   4.108   1.291   3.229
 7672SOL     OW23914   6.787   6.632   3.004
 7672SOL    HW123915   6.753   6.707   3.060
 7672SOL    HW223916   6.887   6.634   3.003
 7673SOL     OW23917   1.836   5.531   0.277
 7673SOL    HW123918   1.935   5.542   0.283
 7673SOL    HW223919   1.804   5.477   0.355
 7674SOL     OW23920   5.455   1.418   3.608
 7674SOL    HW123921   5.363   1.422   3.570
 7674SOL    HW223922   5.451   1.397   3.706
 7675SOL     OW23923   6.020   6.763   2.578
 7675SOL    HW123924   5.968   6.680   2.599
 7675SOL    HW223925   6.099   6.739   2.522
 7676SOL     OW23926   1.944   2.071   0.628
 7676SOL    HW123927   1.936   2.085   0.529
 7676SOL    HW223928   2.032   2.029   0.649
 7677SOL     OW23929   0.517   4.922   1.914
 7677SOL    HW123930   0.601   4.977   1.919
 7677SOL    HW223931   0.455   4.963   1.847
 7678SOL     OW23932   2.240   1.927   4.559
 7678SOL    HW123933   2.151   1.971   4.551
 7678SOL    HW223934   2.271   1.931   4.654
 7679SOL     OW23935   2.915   5.486   6.409
 7679SOL    HW123936   2.841   5.437   6.454
 7679SOL    HW223937   2.963   5.424   6.347
 7680SOL     OW23938   1.884   2.066   0.358
 7680SOL    HW123939   1.852   1.971   0.367
 7680SOL    HW223940   1.825   2.114   0.293
 7681SOL     OW23941   2.386   0.009   0.599
 7681SOL    HW123942   2.391   0.057   0.686
 7681SOL    HW223943   2.291   7.023   0.571
 7682SOL     OW23944   3.147   0.024   2.581
 7682SOL    HW123945   3.157   6.970   2.645
 7682SOL    HW223946   3.204   0.007   2.500
 7683SOL     OW23947   6.226   1.470   3.452
 7683SOL    HW123948   6.136   1.431   3.432
 7683SOL    HW223949   6.219   1.570   3.456
 7684SOL     OW23950   3.764   2.038   2.521
 7684SOL    HW123951   3.716   2.088   2.449
 7684SOL    HW223952   3.767   1.940   2.497
 7685SOL     OW23953   3.384   2.276   7.022
 7685SOL    HW123954   3.417   2.358   6.975
 7685SOL    HW223955   3.343   2.214   6.955
 7686SOL     OW23956   6.292   0.265   2.780
 7686SOL    HW123957   6.366   0.256   2.713
 7686SOL    HW223958   6.207   0.231   2.740
 7687SOL     OW23959   5.775   4.851   4.178
 7687SOL    HW123960   5.760   4.754   4.199
 7687SOL    HW223961   5.831   4.892   4.250
 7688SOL     OW23962   0.739   6.017   5.560
 7688SOL    HW123963   0.832   6.013   5.596
 7688SOL    HW223964   0.741   6.031   5.461
 7689SOL     OW23965   5.293   6.507   3.056
 7689SOL    HW123966   5.206   6.479   3.098
 7689SOL    HW223967   5.295   6.476   2.961
 7690SOL     OW23968   5.884   5.287   0.699
 7690SOL    HW123969   5.964   5.346   0.691
 7690SOL    HW223970   5.846   5.270   0.608
 7691SOL     OW23971   5.398   2.285   5.052
 7691SOL    HW123972   5.474   2.340   5.085
 7691SOL    HW223973   5.326   2.282   5.122
 7692SOL     OW23974   0.357   6.192   1.720
 7692SOL    HW123975   0.294   6.254   1.672
 7692SOL    HW223976   0.304   6.133   1.782
 7693SOL     OW23977   3.956   0.236   1.213
 7693SOL    HW123978   4.032   0.215   1.151
 7693SOL    HW223979   3.873   0.250   1.159
 7694SOL     OW23980   0.211   4.788   5.305
 7694SOL    HW123981   0.210   4.709   5.244
 7694SOL    HW223982   0.126   4.838   5.295
 7695SOL     OW23983   4.197   6.455   0.494
 7695SOL    HW123984   4.269   6.508   0.540
 7695SOL    HW223985   4.204   6.468   0.395
 7696SOL     OW23986   6.838   1.423   4.970
 7696SOL    HW123987   6.745   1.458   4.976
 7696SOL    HW223988   6.850   1.372   4.885
 7697SOL     OW23989   3.052   6.274   2.248
 7697SOL    HW123990   3.125   6.265   2.180
 7697SOL    HW223991   3.080   6.339   2.319
 7698SOL     OW23992   6.596   2.140   3.334
 7698SOL    HW123993   6.654   2.092   3.267
 7698SOL    HW223994   6.557   2.073   3.398
 7699SOL     OW23995   3.897   5.732   6.891
 7699SOL    HW123996   3.959   5.805   6.859
 7699SOL    HW223997   3.827   5.715   6.821
 7700SOL     OW23998   4.728   6.094   4.342
 7700SOL    HW123999   4.630   6.087   4.323
 7700SOL    HW224000   4.764   6.004   4.366
 7701SOL     OW24001   6.874   1.652   0.257
 7701SOL    HW124002   6.934   1.581   0.296
 7701SOL    HW224003   6.800   1.671   0.321
 7702SOL     OW24004   3.750   5.920   5.970
 7702SOL    HW124005   3.830   5.913   6.029
 7702SOL    HW224006   3.759   6.000   5.911
 7703SOL     OW24007   6.097   0.725   5.483
 7703SOL    HW124008   6.152   0.807   5.482
 7703SOL    HW224009   6.054   0.714   5.573
 7704SOL     OW24010   5.368   5.215   5.548
 7704SOL    HW124011   5.341   5.221   5.452
 7704SOL    HW224012   5.377   5.119   5.574
 7705SOL     OW24013   3.806   5.132   6.472
 7705SOL    HW124014   3.720   5.177   6.450
 7705SOL    HW224015   3.882   5.195   6.453
 7706SOL     OW24016   4.269   3.223   5.449
 7706SOL    HW124017   4.352   3.180   5.416
 7706SOL    HW224018   4.208   3.153   5.488
 7707SOL     OW24019   0.628   5.873   6.112
 7707SOL    HW124020   0.651   5.801   6.046
 7707SOL    HW224021   0.574   5.833   6.186
 7708SOL     OW24022   6.338   0.473   6.044
 7708SOL    HW124023   6.338   0.421   6.130
 7708SOL    HW224024   6.372   0.415   5.970
 7709SOL     OW24025   5.379   4.590   1.696
 7709SOL    HW124026   5.400   4.686   1.713
 7709SOL    HW224027   5.461   4.543   1.664
 7710SOL     OW24028   2.788   0.305   0.860
 7710SOL    HW124029   2.748   0.327   0.770
 7710SOL    HW224030   2.742   0.224   0.897
 7711SOL     OW24031   6.383   5.963   5.151
 7711SOL    HW124032   6.427   5.874   5.150
 7711SOL    HW224033   6.423   6.021   5.079
 7712SOL     OW24034   5.328   5.875   2.476
 7712SOL    HW124035   5.335   5.956   2.418
 7712SOL    HW224036   5.233   5.861   2.501
 7713SOL     OW24037   1.577   4.500   0.798
 7713SOL    HW124038   1.565   4.468   0.704
 7713SOL    HW224039   1.575   4.600   0.800
 7714SOL     OW24040   6.467   4.283   5.727
 7714SOL    HW124041   6.371   4.311   5.717
 7714SOL    HW224042   6.526   4.361   5.711
 7715SOL     OW24043   4.169   1.985   6.675
 7715SOL    HW124044   4.133   2.024   6.760
 7715SOL    HW224045   4.197   1.890   6.690
 7716SOL     OW24046   6.404   4.431   3.646
 7716SOL    HW124047   6.493   4.390   3.627
 7716SOL    HW224048   6.340   4.359   3.675
 7717SOL     OW24049   1.501   0.835   4.991
 7717SOL    HW124050   1.593   0.835   4.952
 7717SOL    HW224051   1.480   0.925   5.028
 7718SOL     OW24052   1.490   2.168   3.002
 7718SOL    HW124053   1.558   2.133   2.937
 7718SOL    HW224054   1.528   2.246   3.051
 7719SOL     OW24055   6.407   4.234   4.712
 7719SOL    HW124056   6.408   4.323   4.757
 7719SOL    HW224057   6.330   4.180   4.746
 7720SOL     OW24058   0.326   0.946   0.012
 7720SOL    HW124059   0.288   1.020   6.981
 7720SOL    HW224060   0.341   0.977   0.106
 7721SOL     OW24061   0.243   5.263   2.375
 7721SOL    HW124062   0.143   5.255   2.377
 7721SOL    HW224063   0.280   5.235   2.464
 7722SOL     OW24064   0.800   6.081   3.136
 7722SOL    HW124065   0.720   6.069   3.077
 7722SOL    HW224066   0.864   6.005   3.122
 7723SOL     OW24067   5.137   3.045   6.996
 7723SOL    HW124068   5.221   2.994   7.015
 7723SOL    HW224069   5.132   3.065   6.899
 7724SOL     OW24070   3.119   4.290   1.201
 7724SOL    HW124071   3.110   4.358   1.274
 7724SOL    HW224072   3.080   4.326   1.117
 7725SOL     OW24073   6.098   2.445   3.282
 7725SOL    HW124074   6.011   2.495   3.280
 7725SOL    HW224075   6.079   2.347   3.278
 7726SOL     OW24076   1.901   6.345   5.204
 7726SOL    HW124077   1.865   6.287   5.130
 7726SOL    HW224078   1.928   6.287   5.281
 7727SOL     OW24079   0.559   0.739   2.346
 7727SOL    HW124080   0.490   0.759   2.415
 7727SOL    HW224081   0.588   0.824   2.302
 7728SOL     OW24082   1.084   4.765   3.422
 7728SOL    HW124083   1.018   4.837   3.403
 7728SOL    HW224084   1.170   4.806   3.453
 7729SOL     OW24085   6.110   2.863   0.894
 7729SOL    HW124086   6.030   2.917   0.867
 7729SOL    HW224087   6.083   2.795   0.962
 7730SOL     OW24088   6.132   6.091   1.282
 7730SOL    HW124089   6.147   6.189   1.276
 7730SOL    HW224090   6.040   6.073   1.317
 7731SOL     OW24091   6.671   0.640   0.103
 7731SOL    HW124092   6.691   0.726   0.149
 7731SOL    HW224093   6.655   0.657   0.006
 7732SOL     OW24094   4.491   6.233   0.680
 7732SOL    HW124095   4.445   6.218   0.593
 7732SOL    HW224096   4.435   6.293   0.737
 7733SOL     OW24097   4.418   6.489   2.478
 7733SOL    HW124098   4.483   6.554   2.440
 7733SOL    HW224099   4.427   6.488   2.578
 7734SOL     OW24100   2.551   4.917   2.849
 7734SOL    HW124101   2.587   4.955   2.763
 7734SOL    HW224102   2.460   4.953   2.866
 7735SOL     OW24103   5.087   6.178   6.862
 7735SOL    HW124104   5.134   6.214   6.781
 7735SOL    HW224105   5.056   6.085   6.844
 7736SOL     OW24106   3.537   3.808   0.069
 7736SOL    HW124107   3.495   3.817   7.002
 7736SOL    HW224108   3.488   3.739   0.122
 7737SOL     OW24109   3.041   0.689   2.532
 7737SOL    HW124110   3.078   0.604   2.569
 7737SOL    HW224111   2.958   0.669   2.479
 7738SOL     OW24112   3.113   5.965   0.390
 7738SOL    HW124113   3.210   5.945   0.403
 7738SOL    HW224114   3.095   5.981   0.293
 7739SOL     OW24115   0.804   1.967   0.913
 7739SOL    HW124116   0.851   1.895   0.964
 7739SOL    HW224117   0.712   1.935   0.889
 7740SOL     OW24118   1.885   0.912   3.505
 7740SOL    HW124119   1.837   0.870   3.582
 7740SOL    HW224120   1.970   0.954   3.537
 7741SOL     OW24121   0.739   4.785   5.798
 7741SOL    HW124122   0.687   4.866   5.770
 7741SOL    HW224123   0.829   4.813   5.833
 7742SOL     OW24124   5.820   1.602   3.222
 7742SOL    HW124125   5.801   1.630   3.316
 7742SOL    HW224126   5.737   1.565   3.180
 7743SOL     OW24127   5.757   1.240   0.256
 7743SOL    HW124128   5.725   1.324   0.300
 7743SOL    HW224129   5.804   1.264   0.171
 7744SOL     OW24130   0.964   5.954   3.439
 7744SOL    HW124131   1.033   5.972   3.370
 7744SOL    HW224132   0.874   5.945   3.396
 7745SOL     OW24133   3.522   0.848   5.886
 7745SOL    HW124134   3.512   0.938   5.842
 7745SOL    HW224135   3.593   0.796   5.839
 7746SOL     OW24136   2.868   6.492   6.974
 7746SOL    HW124137   2.778   6.454   6.955
 7746SOL    HW224138   2.879   6.502   0.050
 7747SOL     OW24139   4.681   5.778   1.635
 7747SOL    HW124140   4.707   5.864   1.593
 7747SOL    HW224141   4.587   5.755   1.609
 7748SOL     OW24142   3.041   3.681   4.950
 7748SOL    HW124143   3.071   3.595   4.909
 7748SOL    HW224144   3.046   3.674   5.050
 7749SOL     OW24145   2.644   2.596   5.397
 7749SOL    HW124146   2.734   2.639   5.388
 7749SOL    HW224147   2.574   2.661   5.369
 7750SOL     OW24148   0.079   6.619   1.521
 7750SOL    HW124149   0.146   6.611   1.446
 7750SOL    HW224150   0.109   6.690   1.584
 7751SOL     OW24151   1.479   2.222   2.222
 7751SOL    HW124152   1.492   2.314   2.183
 7751SOL    HW224153   1.452   2.230   2.317
 7752SOL     OW24154   5.230   0.499   5.985
 7752SOL    HW124155   5.284   0.525   5.905
 7752SOL    HW224156   5.289   0.498   6.066
 7753SOL     OW24157   2.741   1.463   4.326
 7753SOL    HW124158   2.797   1.480   4.407
 7753SOL    HW224159   2.800   1.452   4.246
 7754SOL     OW24160   3.321   6.049   1.123
 7754SOL    HW124161   3.382   6.021   1.050
 7754SOL    HW224162   3.368   6.043   1.211
 7755SOL     OW24163   2.066   2.474   5.882
 7755SOL    HW124164   2.096   2.400   5.821
 7755SOL    HW224165   2.064   2.560   5.831
 7756SOL     OW24166   2.723   6.981   2.821
 7756SOL    HW124167   2.629   6.946   2.820
 7756SOL    HW224168   2.772   6.941   2.899
 7757SOL     OW24169   6.057   4.897   1.158
 7757SOL    HW124170   6.118   4.946   1.096
 7757SOL    HW224171   6.105   4.874   1.242
 7758SOL     OW24172   2.224   0.162   6.477
 7758SOL    HW124173   2.249   0.156   6.381
 7758SOL    HW224174   2.203   0.257   6.501
 7759SOL     OW24175   1.934   1.394   5.182
 7759SOL    HW124176   1.944   1.367   5.278
 7759SOL    HW224177   2.022   1.384   5.136
 7760SOL     OW24178   5.823   3.517   2.576
 7760SOL    HW124179   5.908   3.499   2.625
 7760SOL    HW224180   5.831   3.602   2.525
 7761SOL     OW24181   6.415   6.697   4.621
 7761SOL    HW124182   6.317   6.704   4.640
 7761SOL    HW224183   6.449   6.784   4.587
 7762SOL     OW24184   2.237   0.438   4.072
 7762SOL    HW124185   2.330   0.429   4.037
 7762SOL    HW224186   2.218   0.364   4.137
 7763SOL     OW24187   2.353   6.974   6.608
 7763SOL    HW124188   2.291   0.017   6.565
 7763SOL    HW224189   2.412   7.022   6.673
 7764SOL     OW24190   3.250   3.748   5.581
 7764SOL    HW124191   3.187   3.818   5.615
 7764SOL    HW224192   3.233   3.733   5.484
 7765SOL     OW24193   5.872   2.773   4.631
 7765SOL    HW124194   5.854   2.871   4.628
 7765SOL    HW224195   5.829   2.728   4.552
 7766SOL     OW24196   6.771   3.877   0.521
 7766SOL    HW124197   6.849   3.819   0.543
 7766SOL    HW224198   6.758   3.945   0.593
 7767SOL     OW24199   4.526   6.185   2.162
 7767SOL    HW124200   4.492   6.204   2.070
 7767SOL    HW224201   4.528   6.086   2.177
 7768SOL     OW24202   5.005   4.467   3.025
 7768SOL    HW124203   5.023   4.431   3.116
 7768SOL    HW224204   5.089   4.463   2.970
 7769SOL     OW24205   4.739   1.573   4.233
 7769SOL    HW124206   4.640   1.558   4.245
 7769SOL    HW224207   4.758   1.671   4.229
 7770SOL     OW24208   0.767   3.520   5.110
 7770SOL    HW124209   0.807   3.495   5.198
 7770SOL    HW224210   0.673   3.551   5.124
 7771SOL     OW24211   3.297   1.405   5.336
 7771SOL    HW124212   3.281   1.494   5.295
 7771SOL    HW224213   3.337   1.343   5.269
 7772SOL     OW24214   5.296   6.505   1.802
 7772SOL    HW124215   5.364   6.438   1.831
 7772SOL    HW224216   5.306   6.523   1.704
 7773SOL     OW24217   1.465   4.918   5.628
 7773SOL    HW124218   1.496   4.863   5.706
 7773SOL    HW224219   1.478   4.865   5.544
 7774SOL     OW24220   4.978   2.610   4.098
 7774SOL    HW124221   5.060   2.554   4.112
 7774SOL    HW224222   4.996   2.679   4.028
 7775SOL     OW24223   4.483   6.970   0.023
 7775SOL    HW124224   4.393   6.997   7.011
 7775SOL    HW224225   4.529   0.027   0.062
 7776SOL     OW24226   0.853   5.728   6.707
 7776SOL    HW124227   0.949   5.710   6.725
 7776SOL    HW224228   0.838   5.826   6.697
 7777SOL     OW24229   6.220   5.615   3.916
 7777SOL    HW124230   6.221   5.705   3.960
 7777SOL    HW224231   6.312   5.592   3.886
 7778SOL     OW24232   5.732   4.023   2.207
 7778SOL    HW124233   5.794   3.953   2.169
 7778SOL    HW224234   5.653   3.978   2.249
 7779SOL     OW24235   2.678   0.995   1.991
 7779SOL    HW124236   2.708   1.087   1.965
 7779SOL    HW224237   2.605   0.965   1.930
 7780SOL     OW24238   1.009   4.918   5.894
 7780SOL    HW124239   0.949   4.995   5.874
 7780SOL    HW224240   1.049   4.930   5.985
 7781SOL     OW24241   1.962   4.407   1.618
 7781SOL    HW124242   1.994   4.438   1.707
 7781SOL    HW224243   1.921   4.484   1.569
 7782SOL     OW24244   4.839   5.032   4.221
 7782SOL    HW124245   4.742   5.011   4.235
 7782SOL    HW224246   4.849   5.101   4.149
 7783SOL     OW24247   1.031   0.192   5.711
 7783SOL    HW124248   0.982   0.120   5.661
 7783SOL    HW224249   1.018   0.280   5.664
 7784SOL     OW24250   3.567   2.397   1.462
 7784SOL    HW124251   3.533   2.341   1.386
 7784SOL    HW224252   3.493   2.455   1.497
 7785SOL     OW24253   2.245   6.006   4.043
 7785SOL    HW124254   2.339   6.038   4.027
 7785SOL    HW224255   2.245   5.907   4.053
 7786SOL     OW24256   3.701   0.082   0.233
 7786SOL    HW124257   3.725   0.044   0.144
 7786SOL    HW224258   3.602   0.076   0.247
 7787SOL     OW24259   2.256   2.850   0.020
 7787SOL    HW124260   2.323   2.804   6.984
 7787SOL    HW224261   2.299   2.872   0.107
 7788SOL     OW24262   1.646   5.094   1.614
 7788SOL    HW124263   1.636   5.069   1.711
 7788SOL    HW224264   1.687   5.017   1.564
 7789SOL     OW24265   3.276   0.119   6.232
 7789SOL    HW124266   3.294   0.127   6.330
 7789SOL    HW224267   3.181   0.146   6.214
 7790SOL     OW24268   5.179   5.624   2.682
 7790SOL    HW124269   5.278   5.626   2.666
 7790SOL    HW224270   5.145   5.717   2.696
 7791SOL     OW24271   2.060   4.949   2.257
 7791SOL    HW124272   2.070   4.881   2.330
 7791SOL    HW224273   2.120   5.027   2.275
 7792SOL     OW24274   1.391   6.070   4.125
 7792SOL    HW124275   1.457   6.135   4.088
 7792SOL    HW224276   1.314   6.060   4.061
 7793SOL     OW24277   3.792   0.642   0.076
 7793SOL    HW124278   3.789   0.641   6.999
 7793SOL    HW224279   3.699   0.637   0.111
 7794SOL     OW24280   0.331   4.047   1.837
 7794SOL    HW124281   0.264   4.095   1.780
 7794SOL    HW224282   0.294   3.959   1.866
 7795SOL     OW24283   2.422   5.029   5.110
 7795SOL    HW124284   2.486   4.988   5.045
 7795SOL    HW224285   2.463   5.112   5.149
 7796SOL     OW24286   3.565   2.748   5.387
 7796SOL    HW124287   3.623   2.827   5.374
 7796SOL    HW224288   3.614   2.665   5.360
 7797SOL     OW24289   0.741   6.701   1.273
 7797SOL    HW124290   0.770   6.781   1.220
 7797SOL    HW224291   0.786   6.619   1.238
 7798SOL     OW24292   0.806   2.466   3.047
 7798SOL    HW124293   0.874   2.437   2.980
 7798SOL    HW224294   0.718   2.480   3.000
 7799SOL     OW24295   1.904   5.158   2.146
 7799SOL    HW124296   1.975   5.091   2.170
 7799SOL    HW224297   1.837   5.163   2.220
 7800SOL     OW24298   0.837   5.595   3.162
 7800SOL    HW124299   0.884   5.561   3.243
 7800SOL    HW224300   0.799   5.517   3.111
 7801SOL     OW24301   1.850   1.454   2.684
 7801SOL    HW124302   1.859   1.515   2.606
 7801SOL    HW224303   1.934   1.401   2.695
 7802SOL     OW24304   6.402   3.066   0.271
 7802SOL    HW124305   6.438   3.048   0.363
 7802SOL    HW224306   6.302   3.068   0.274
 7803SOL     OW24307   4.379   2.068   0.409
 7803SOL    HW124308   4.351   2.105   0.497
 7803SOL    HW224309   4.373   1.968   0.412
 7804SOL     OW24310   4.698   2.174   4.835
 7804SOL    HW124311   4.663   2.132   4.919
 7804SOL    HW224312   4.621   2.208   4.781
 7805SOL     OW24313   5.195   3.367   2.366
 7805SOL    HW124314   5.227   3.432   2.435
 7805SOL    HW224315   5.236   3.390   2.278
 7806SOL     OW24316   5.581   1.526   6.162
 7806SOL    HW124317   5.562   1.562   6.253
 7806SOL    HW224318   5.580   1.426   6.165
 7807SOL     OW24319   0.674   4.540   5.243
 7807SOL    HW124320   0.587   4.518   5.200
 7807SOL    HW224321   0.677   4.637   5.265
 7808SOL     OW24322   6.158   3.397   3.500
 7808SOL    HW124323   6.142   3.298   3.507
 7808SOL    HW224324   6.178   3.433   3.591
 7809SOL     OW24325   5.242   5.203   5.273
 7809SOL    HW124326   5.192   5.289   5.276
 7809SOL    HW224327   5.302   5.202   5.193
 7810SOL     OW24328   3.075   6.754   5.398
 7810SOL    HW124329   2.981   6.765   5.429
 7810SOL    HW224330   3.129   6.834   5.425
 7811SOL     OW24331   1.325   5.429   1.612
 7811SOL    HW124332   1.242   5.448   1.560
 7811SOL    HW224333   1.403   5.475   1.569
 7812SOL     OW24334   1.951   2.661   4.105
 7812SOL    HW124335   1.972   2.567   4.131
 7812SOL    HW224336   1.925   2.714   4.185
 7813SOL     OW24337   4.246   2.159   1.294
 7813SOL    HW124338   4.245   2.143   1.195
 7813SOL    HW224339   4.341   2.159   1.327
 7814SOL     OW24340   0.102   3.003   3.080
 7814SOL    HW124341   0.009   3.019   3.046
 7814SOL    HW224342   0.159   3.082   3.060
 7815SOL     OW24343   5.809   2.194   4.151
 7815SOL    HW124344   5.880   2.255   4.116
 7815SOL    HW224345   5.764   2.148   4.075
 7816SOL     OW24346   0.638   2.431   6.893
 7816SOL    HW124347   0.708   2.438   6.822
 7816SOL    HW224348   0.563   2.493   6.872
 7817SOL     OW24349   4.960   4.443   4.814
 7817SOL    HW124350   4.936   4.470   4.720
 7817SOL    HW224351   4.878   4.448   4.871
 7818SOL     OW24352   4.814   1.229   2.688
 7818SOL    HW124353   4.758   1.149   2.667
 7818SOL    HW224354   4.869   1.211   2.769
 7819SOL     OW24355   0.300   3.714   3.739
 7819SOL    HW124356   0.338   3.750   3.654
 7819SOL    HW224357   0.200   3.720   3.736
 7820SOL     OW24358   1.684   1.015   5.681
 7820SOL    HW124359   1.734   0.949   5.737
 7820SOL    HW224360   1.728   1.104   5.687
 7821SOL     OW24361   5.612   6.110   1.061
 7821SOL    HW124362   5.701   6.065   1.074
 7821SOL    HW224363   5.626   6.201   1.022
 7822SOL     OW24364   1.137   1.371   0.112
 7822SOL    HW124365   1.158   1.295   0.174
 7822SOL    HW224366   1.155   1.344   0.018
 7823SOL     OW24367   2.511   3.841   6.081
 7823SOL    HW124368   2.606   3.808   6.080
 7823SOL    HW224369   2.511   3.940   6.088
 7824SOL     OW24370   5.941   0.809   4.411
 7824SOL    HW124371   5.967   0.766   4.497
 7824SOL    HW224372   5.873   0.752   4.363
 7825SOL     OW24373   1.130   3.583   0.799
 7825SOL    HW124374   1.216   3.558   0.754
 7825SOL    HW224375   1.068   3.505   0.798
 7826SOL     OW24376   5.677   1.759   6.736
 7826SOL    HW124377   5.635   1.679   6.778
 7826SOL    HW224378   5.668   1.754   6.637
 7827SOL     OW24379   2.906   4.357   0.632
 7827SOL    HW124380   2.827   4.306   0.600
 7827SOL    HW224381   2.971   4.294   0.675
 7828SOL     OW24382   0.631   5.314   1.258
 7828SOL    HW124383   0.668   5.388   1.202
 7828SOL    HW224384   0.570   5.351   1.328
 7829SOL     OW24385   2.000   2.899   0.522
 7829SOL    HW124386   2.060   2.944   0.456
 7829SOL    HW224387   1.941   2.968   0.565
 7830SOL     OW24388   4.318   3.716   6.459
 7830SOL    HW124389   4.349   3.677   6.373
 7830SOL    HW224390   4.303   3.814   6.448
 7831SOL     OW24391   1.371   5.639   0.953
 7831SOL    HW124392   1.307   5.659   0.879
 7831SOL    HW224393   1.387   5.540   0.958
 7832SOL     OW24394   3.246   1.277   4.129
 7832SOL    HW124395   3.313   1.341   4.167
 7832SOL    HW224396   3.226   1.303   4.034
 7833SOL     OW24397   0.367   0.480   6.800
 7833SOL    HW124398   0.274   0.502   6.829
 7833SOL    HW224399   0.432   0.538   6.849
 7834SOL     OW24400   0.418   1.374   3.551
 7834SOL    HW124401   0.475   1.298   3.520
 7834SOL    HW224402   0.477   1.450   3.580
 7835SOL     OW24403   2.202   2.647   4.866
 7835SOL    HW124404   2.178   2.714   4.936
 7835SOL    HW224405   2.194   2.689   4.775
 7836SOL     OW24406   3.821   2.473   5.631
 7836SOL    HW124407   3.886   2.410   5.672
 7836SOL    HW224408   3.827   2.467   5.531
 7837SOL     OW24409   6.485   6.259   1.782
 7837SOL    HW124410   6.432   6.343   1.794
 7837SOL    HW224411   6.581   6.282   1.766
 7838SOL     OW24412   4.339   6.195   0.445
 7838SOL    HW124413   4.401   6.256   0.395
 7838SOL    HW224414   4.248   6.200   0.404
 7839SOL     OW24415   5.987   4.845   5.452
 7839SOL    HW124416   6.000   4.835   5.353
 7839SOL    HW224417   6.007   4.939   5.479
 7840SOL     OW24418   5.030   3.097   4.695
 7840SOL    HW124419   4.953   3.098   4.759
 7840SOL    HW224420   5.089   3.176   4.712
 7841SOL     OW24421   5.708   1.494   6.817
 7841SOL    HW124422   5.680   1.439   6.896
 7841SOL    HW224423   5.801   1.526   6.830
 7842SOL     OW24424   2.334   1.470   2.857
 7842SOL    HW124425   2.292   1.493   2.945
 7842SOL    HW224426   2.326   1.371   2.842
 7843SOL     OW24427   5.104   4.481   2.201
 7843SOL    HW124428   5.107   4.515   2.295
 7843SOL    HW224429   5.111   4.558   2.137
 7844SOL     OW24430   4.340   0.744   3.969
 7844SOL    HW124431   4.275   0.801   4.020
 7844SOL    HW224432   4.432   0.782   3.978
 7845SOL     OW24433   6.112   1.421   3.801
 7845SOL    HW124434   6.125   1.323   3.785
 7845SOL    HW224435   6.126   1.441   3.897
 7846SOL     OW24436   1.993   0.474   1.485
 7846SOL    HW124437   2.003   0.569   1.514
 7846SOL    HW224438   1.978   0.470   1.386
 7847SOL     OW24439   6.315   2.002   1.663
 7847SOL    HW124440   6.240   2.032   1.722
 7847SOL    HW224441   6.284   1.928   1.603
 7848SOL     OW24442   3.044   3.661   1.383
 7848SOL    HW124443   2.988   3.702   1.455
 7848SOL    HW224444   2.984   3.614   1.318
 7849SOL     OW24445   5.604   3.797   3.858
 7849SOL    HW124446   5.622   3.803   3.760
 7849SOL    HW224447   5.669   3.856   3.907
 7850SOL     OW24448   0.088   1.828   3.784
 7850SOL    HW124449   0.011   1.814   3.846
 7850SOL    HW224450   0.161   1.764   3.807
 7851SOL     OW24451   6.988   6.932   0.628
 7851SOL    HW124452   6.907   6.986   0.608
 7851SOL    HW224453   0.046   6.990   0.626
 7852SOL     OW24454   2.657   0.389   5.271
 7852SOL    HW124455   2.737   0.415   5.217
 7852SOL    HW224456   2.574   0.419   5.223
 7853SOL     OW24457   4.097   1.747   1.646
 7853SOL    HW124458   4.144   1.762   1.734
 7853SOL    HW224459   3.998   1.760   1.659
 7854SOL     OW24460   3.369   3.489   0.611
 7854SOL    HW124461   3.293   3.424   0.615
 7854SOL    HW224462   3.455   3.441   0.628
 7855SOL     OW24463   2.935   5.915   5.704
 7855SOL    HW124464   2.996   5.932   5.782
 7855SOL    HW224465   2.989   5.911   5.620
 7856SOL     OW24466   5.590   5.053   4.119
 7856SOL    HW124467   5.649   4.974   4.131
 7856SOL    HW224468   5.529   5.062   4.198
 7857SOL     OW24469   5.915   2.658   5.294
 7857SOL    HW124470   5.946   2.624   5.205
 7857SOL    HW224471   5.954   2.748   5.310
 7858SOL     OW24472   4.478   5.549   3.670
 7858SOL    HW124473   4.566   5.505   3.690
 7858SOL    HW224474   4.490   5.648   3.667
 7859SOL     OW24475   6.161   4.256   5.646
 7859SOL    HW124476   6.225   4.188   5.681
 7859SOL    HW224477   6.134   4.232   5.553
 7860SOL     OW24478   4.439   0.432   2.895
 7860SOL    HW124479   4.404   0.525   2.891
 7860SOL    HW224480   4.404   0.386   2.977
 7861SOL     OW24481   3.902   5.283   1.682
 7861SOL    HW124482   3.836   5.349   1.719
 7861SOL    HW224483   3.906   5.292   1.583
 7862SOL     OW24484   3.097   4.667   1.724
 7862SOL    HW124485   3.030   4.608   1.771
 7862SOL    HW224486   3.175   4.611   1.695
 7863SOL     OW24487   6.524   6.273   3.628
 7863SOL    HW124488   6.432   6.252   3.662
 7863SOL    HW224489   6.592   6.230   3.688
 7864SOL     OW24490   0.083   6.419   5.190
 7864SOL    HW124491   0.041   6.356   5.254
 7864SOL    HW224492   0.180   6.396   5.179
 7865SOL     OW24493   4.490   6.867   4.336
 7865SOL    HW124494   4.455   6.846   4.427
 7865SOL    HW224495   4.519   6.783   4.291
 7866SOL     OW24496   2.515   1.847   6.879
 7866SOL    HW124497   2.416   1.848   6.891
 7866SOL    HW224498   2.538   1.798   6.794
 7867SOL     OW24499   4.960   6.400   2.815
 7867SOL    HW124500   4.895   6.324   2.817
 7867SOL    HW224501   4.912   6.483   2.784
 7868SOL     OW24502   5.482   6.777   2.290
 7868SOL    HW124503   5.393   6.734   2.276
 7868SOL    HW224504   5.480   6.871   2.257
 7869SOL     OW24505   5.842   3.646   0.344
 7869SOL    HW124506   5.882   3.730   0.383
 7869SOL    HW224507   5.758   3.669   0.295
 7870SOL     OW24508   4.922   5.226   4.495
 7870SOL    HW124509   4.906   5.318   4.459
 7870SOL    HW224510   5.012   5.194   4.463
 7871SOL     OW24511   5.493   3.671   2.949
 7871SOL    HW124512   5.588   3.643   2.936
 7871SOL    HW224513   5.490   3.763   2.988
 7872SOL     OW24514   2.099   4.413   2.531
 7872SOL    HW124515   2.086   4.315   2.514
 7872SOL    HW224516   2.017   4.450   2.574
 7873SOL     OW24517   5.380   0.613   5.213
 7873SOL    HW124518   5.414   0.652   5.299
 7873SOL    HW224519   5.367   0.687   5.146
 7874SOL     OW24520   4.825   1.485   0.411
 7874SOL    HW124521   4.856   1.391   0.427
 7874SOL    HW224522   4.755   1.509   0.477
 7875SOL     OW24523   4.616   2.424   6.795
 7875SOL    HW124524   4.595   2.341   6.848
 7875SOL    HW224525   4.707   2.416   6.756
 7876SOL     OW24526   6.811   0.227   4.935
 7876SOL    HW124527   6.860   0.174   5.005
 7876SOL    HW224528   6.871   0.297   4.898
 7877SOL     OW24529   0.031   3.014   2.417
 7877SOL    HW124530   0.104   2.953   2.387
 7877SOL    HW224531   7.001   3.045   2.338
 7878SOL     OW24532   4.560   5.012   4.177
 7878SOL    HW124533   4.513   5.013   4.266
 7878SOL    HW224534   4.494   4.990   4.105
 7879SOL     OW24535   4.970   5.589   3.721
 7879SOL    HW124536   4.972   5.676   3.770
 7879SOL    HW224537   5.062   5.549   3.719
 7880SOL     OW24538   0.915   5.406   0.920
 7880SOL    HW124539   0.981   5.474   0.951
 7880SOL    HW224540   0.947   5.364   0.835
 7881SOL     OW24541   5.482   3.609   4.679
 7881SOL    HW124542   5.434   3.677   4.624
 7881SOL    HW224543   5.506   3.531   4.622
 7882SOL     OW24544   1.610   2.751   3.080
 7882SOL    HW124545   1.695   2.732   3.031
 7882SOL    HW224546   1.532   2.735   3.020
 7883SOL     OW24547   1.576   6.967   1.131
 7883SOL    HW124548   1.615   0.032   1.157
 7883SOL    HW224549   1.516   6.934   1.203
 7884SOL     OW24550   1.841   3.765   3.683
 7884SOL    HW124551   1.909   3.705   3.641
 7884SOL    HW224552   1.840   3.750   3.782
 7885SOL     OW24553   6.255   6.553   2.154
 7885SOL    HW124554   6.333   6.496   2.128
 7885SOL    HW224555   6.185   6.548   2.084
 7886SOL     OW24556   4.451   4.368   1.007
 7886SOL    HW124557   4.361   4.406   0.985
 7886SOL    HW224558   4.467   4.286   0.951
 7887SOL     OW24559   3.453   2.504   5.530
 7887SOL    HW124560   3.529   2.539   5.474
 7887SOL    HW224561   3.405   2.432   5.480
 7888SOL     OW24562   0.199   0.731   5.229
 7888SOL    HW124563   0.242   0.819   5.248
 7888SOL    HW224564   0.266   0.658   5.241
 7889SOL     OW24565   0.736   4.952   0.177
 7889SOL    HW124566   0.646   4.939   0.217
 7889SOL    HW224567   0.773   4.863   0.148
 7890SOL     OW24568   0.736   3.533   4.142
 7890SOL    HW124569   0.656   3.558   4.197
 7890SOL    HW224570   0.718   3.448   4.093
 7891SOL     OW24571   1.532   4.034   4.717
 7891SOL    HW124572   1.535   4.134   4.726
 7891SOL    HW224573   1.619   4.001   4.682
 7892SOL     OW24574   1.686   2.177   3.995
 7892SOL    HW124575   1.728   2.248   3.938
 7892SOL    HW224576   1.588   2.175   3.977
 7893SOL     OW24577   5.951   0.087   2.207
 7893SOL    HW124578   6.006   0.030   2.268
 7893SOL    HW224579   5.886   0.029   2.157
 7894SOL     OW24580   2.988   0.805   1.600
 7894SOL    HW124581   3.073   0.771   1.560
 7894SOL    HW224582   2.981   0.774   1.695
 7895SOL     OW24583   4.756   0.059   5.158
 7895SOL    HW124584   4.716   0.094   5.073
 7895SOL    HW224585   4.802   6.995   5.140
 7896SOL     OW24586   5.382   2.987   1.040
 7896SOL    HW124587   5.333   3.037   0.968
 7896SOL    HW224588   5.331   2.905   1.065
 7897SOL     OW24589   3.676   2.554   1.227
 7897SOL    HW124590   3.662   2.506   1.313
 7897SOL    HW224591   3.610   2.522   1.159
 7898SOL     OW24592   3.842   0.254   3.682
 7898SOL    HW124593   3.860   0.348   3.712
 7898SOL    HW224594   3.777   0.211   3.744
 7899SOL     OW24595   5.829   6.889   1.704
 7899SOL    HW124596   5.788   6.848   1.623
 7899SOL    HW224597   5.806   6.986   1.707
 7900SOL     OW24598   0.831   5.242   1.618
 7900SOL    HW124599   0.910   5.224   1.675
 7900SOL    HW224600   0.837   5.186   1.535
 7901SOL     OW24601   5.166   1.100   6.608
 7901SOL    HW124602   5.260   1.068   6.610
 7901SOL    HW224603   5.111   1.047   6.673
 7902SOL     OW24604   6.057   6.019   3.031
 7902SOL    HW124605   5.994   6.048   3.103
 7902SOL    HW224606   6.081   5.923   3.044
 7903SOL     OW24607   4.569   1.910   2.597
 7903SOL    HW124608   4.667   1.927   2.610
 7903SOL    HW224609   4.532   1.863   2.677
 7904SOL     OW24610   5.474   7.019   3.082
 7904SOL    HW124611   5.390   0.035   3.043
 7904SOL    HW224612   5.486   6.926   3.049
 7905SOL     OW24613   5.291   2.395   0.164
 7905SOL    HW124614   5.248   2.308   0.140
 7905SOL    HW224615   5.252   2.428   0.251
 7906SOL     OW24616   0.708   5.834   0.916
 7906SOL    HW124617   0.700   5.832   1.016
 7906SOL    HW224618   0.689   5.926   0.883
 7907SOL     OW24619   6.545   1.515   3.765
 7907SOL    HW124620   6.457   1.556   3.742
 7907SOL    HW224621   6.616   1.555   3.709
 7908SOL     OW24622   0.688   1.318   6.120
 7908SOL    HW124623   0.753   1.379   6.073
 7908SOL    HW224624   0.598   1.325   6.076
 7909SOL     OW24625   4.655   4.223   3.815
 7909SOL    HW124626   4.684   4.130   3.834
 7909SOL    HW224627   4.692   4.253   3.727
 7910SOL     OW24628   1.849   3.153   0.223
 7910SOL    HW124629   1.845   3.057   0.193
 7910SOL    HW224630   1.915   3.162   0.297
 7911SOL     OW24631   1.107   4.977   1.006
 7911SOL    HW124632   1.032   5.043   1.004
 7911SOL    HW224633   1.081   4.898   1.061
 7912SOL     OW24634   6.381   4.642   1.261
 7912SOL    HW124635   6.377   4.660   1.163
 7912SOL    HW224636   6.325   4.710   1.309
 7913SOL     OW24637   1.726   3.849   2.180
 7913SOL    HW124638   1.732   3.773   2.115
 7913SOL    HW224639   1.698   3.932   2.131
 7914SOL     OW24640   6.953   4.557   1.000
 7914SOL    HW124641   7.009   4.640   0.994
 7914SOL    HW224642   6.872   4.567   0.943
 7915SOL     OW24643   4.946   2.250   2.397
 7915SOL    HW124644   4.999   2.252   2.482
 7915SOL    HW224645   4.850   2.271   2.417
 7916SOL     OW24646   0.152   6.372   5.731
 7916SOL    HW124647   0.147   6.376   5.831
 7916SOL    HW224648   0.247   6.380   5.702
 7917SOL     OW24649   3.936   3.222   5.699
 7917SOL    HW124650   3.943   3.283   5.620
 7917SOL    HW224651   3.902   3.274   5.778
 7918SOL     OW24652   6.707   1.275   4.455
 7918SOL    HW124653   6.727   1.217   4.376
 7918SOL    HW224654   6.628   1.333   4.435
 7919SOL     OW24655   1.549   4.823   2.996
 7919SOL    HW124656   1.589   4.770   3.071
 7919SOL    HW224657   1.622   4.869   2.945
 7920SOL     OW24658   6.382   6.667   1.117
 7920SOL    HW124659   6.467   6.706   1.082
 7920SOL    HW224660   6.329   6.738   1.163
 7921SOL     OW24661   5.556   5.907   2.246
 7921SOL    HW124662   5.460   5.911   2.218
 7921SOL    HW224663   5.613   5.886   2.167
 7922SOL     OW24664   0.566   6.261   7.017
 7922SOL    HW124665   0.577   6.162   0.003
 7922SOL    HW224666   0.486   6.281   6.960
 7923SOL     OW24667   3.894   0.982   6.502
 7923SOL    HW124668   3.862   0.967   6.409
 7923SOL    HW224669   3.977   0.929   6.517
 7924SOL     OW24670   4.834   0.195   1.439
 7924SOL    HW124671   4.763   0.256   1.472
 7924SOL    HW224672   4.793   0.111   1.406
 7925SOL     OW24673   0.749   7.014   0.261
 7925SOL    HW124674   0.825   0.037   0.217
 7925SOL    HW224675   0.723   6.933   0.207
 7926SOL     OW24676   5.231   1.843   5.965
 7926SOL    HW124677   5.275   1.780   5.902
 7926SOL    HW224678   5.133   1.823   5.970
 7927SOL     OW24679   4.607   6.707   2.465
 7927SOL    HW124680   4.590   6.795   2.510
 7927SOL    HW224681   4.627   6.722   2.368
 7928SOL     OW24682   1.226   1.955   3.988
 7928SOL    HW124683   1.229   1.861   3.954
 7928SOL    HW224684   1.134   1.992   3.976
 7929SOL     OW24685   3.815   3.341   5.914
 7929SOL    HW124686   3.908   3.368   5.940
 7929SOL    HW224687   3.769   3.418   5.870
 7930SOL     OW24688   4.506   4.841   5.981
 7930SOL    HW124689   4.562   4.920   6.006
 7930SOL    HW224690   4.527   4.765   6.042
 7931SOL     OW24691   3.296   3.457   0.317
 7931SOL    HW124692   3.379   3.470   0.371
 7931SOL    HW224693   3.222   3.512   0.356
 7932SOL     OW24694   1.314   5.842   6.454
 7932SOL    HW124695   1.406   5.804   6.459
 7932SOL    HW224696   1.264   5.798   6.379
 7933SOL     OW24697   6.520   0.569   6.347
 7933SOL    HW124698   6.482   0.659   6.368
 7933SOL    HW224699   6.614   0.579   6.314
 7934SOL     OW24700   1.344   5.266   6.619
 7934SOL    HW124701   1.303   5.231   6.704
 7934SOL    HW224702   1.346   5.193   6.551
 7935SOL     OW24703   5.837   6.361   1.217
 7935SOL    HW124704   5.869   6.305   1.294
 7935SOL    HW224705   5.892   6.341   1.137
 7936SOL     OW24706   3.336   6.139   2.662
 7936SOL    HW124707   3.288   6.115   2.746
 7936SOL    HW224708   3.357   6.237   2.663
 7937SOL     OW24709   0.033   5.627   4.130
 7937SOL    HW124710   7.006   5.613   4.215
 7937SOL    HW224711   0.100   5.554   4.118
 7938SOL     OW24712   6.395   6.448   4.491
 7938SOL    HW124713   6.405   6.547   4.503
 7938SOL    HW224714   6.329   6.413   4.557
 7939SOL     OW24715   1.595   1.947   5.805
 7939SOL    HW124716   1.628   1.942   5.711
 7939SOL    HW224717   1.655   2.007   5.859
 7940SOL     OW24718   2.461   2.453   2.357
 7940SOL    HW124719   2.472   2.472   2.260
 7940SOL    HW224720   2.541   2.403   2.391
 7941SOL     OW24721   5.613   6.199   2.172
 7941SOL    HW124722   5.645   6.271   2.232
 7941SOL    HW224723   5.598   6.115   2.225
 7942SOL     OW24724   0.474   4.228   3.000
 7942SOL    HW124725   0.393   4.216   2.942
 7942SOL    HW224726   0.548   4.169   2.966
 7943SOL     OW24727   0.691   4.660   6.030
 7943SOL    HW124728   0.687   4.726   5.955
 7943SOL    HW224729   0.775   4.674   6.082
 7944SOL     OW24730   0.818   2.612   0.499
 7944SOL    HW124731   0.884   2.675   0.457
 7944SOL    HW224732   0.866   2.529   0.528
 7945SOL     OW24733   6.427   5.684   1.725
 7945SOL    HW124734   6.433   5.772   1.772
 7945SOL    HW224735   6.403   5.699   1.629
 7946SOL     OW24736   3.461   0.497   5.362
 7946SOL    HW124737   3.452   0.595   5.377
 7946SOL    HW224738   3.388   0.449   5.410
 7947SOL     OW24739   2.866   1.546   5.454
 7947SOL    HW124740   2.906   1.578   5.368
 7947SOL    HW224741   2.790   1.606   5.479
 7948SOL     OW24742   1.063   6.180   0.966
 7948SOL    HW124743   1.070   6.194   1.065
 7948SOL    HW224744   1.053   6.269   0.921
 7949SOL     OW24745   4.657   4.071   5.981
 7949SOL    HW124746   4.748   4.038   6.005
 7949SOL    HW224747   4.613   4.005   5.920
 7950SOL     OW24748   4.863   5.503   4.559
 7950SOL    HW124749   4.829   5.438   4.628
 7950SOL    HW224750   4.915   5.575   4.604
 7951SOL     OW24751   1.921   4.605   2.141
 7951SOL    HW124752   1.867   4.530   2.179
 7951SOL    HW224753   1.879   4.693   2.166
 7952SOL     OW24754   0.350   3.199   6.905
 7952SOL    HW124755   0.445   3.186   6.876
 7952SOL    HW224756   0.346   3.202   7.005
 7953SOL     OW24757   4.120   2.248   2.514
 7953SOL    HW124758   4.092   2.233   2.419
 7953SOL    HW224759   4.040   2.269   2.569
 7954SOL     OW24760   2.780   4.440   6.104
 7954SOL    HW124761   2.765   4.366   6.170
 7954SOL    HW224762   2.806   4.400   6.016
 7955SOL     OW24763   2.405   1.109   6.281
 7955SOL    HW124764   2.478   1.088   6.346
 7955SOL    HW224765   2.341   1.174   6.322
 7956SOL     OW24766   5.262   0.461   1.893
 7956SOL    HW124767   5.232   0.498   1.806
 7956SOL    HW224768   5.199   0.490   1.965
 7957SOL     OW24769   1.437   0.582   0.578
 7957SOL    HW124770   1.458   0.673   0.542
 7957SOL    HW224771   1.459   0.513   0.509
 7958SOL     OW24772   4.460   4.918   6.505
 7958SOL    HW124773   4.501   4.952   6.420
 7958SOL    HW224774   4.375   4.969   6.523
 7959SOL     OW24775   5.184   6.665   1.343
 7959SOL    HW124776   5.112   6.726   1.310
 7959SOL    HW224777   5.148   6.573   1.352
 7960SOL     OW24778   2.076   0.689   5.759
 7960SOL    HW124779   2.004   0.624   5.735
 7960SOL    HW224780   2.140   0.646   5.822
 7961SOL     OW24781   6.920   0.860   0.806
 7961SOL    HW124782   6.949   0.955   0.800
 7961SOL    HW224783   6.921   0.818   0.715
 7962SOL     OW24784   1.200   1.184   5.405
 7962SOL    HW124785   1.101   1.193   5.422
 7962SOL    HW224786   1.234   1.102   5.450
 7963SOL     OW24787   5.547   6.075   4.622
 7963SOL    HW124788   5.543   6.169   4.656
 7963SOL    HW224789   5.470   6.022   4.658
 7964SOL     OW24790   0.210   4.189   2.882
 7964SOL    HW124791   0.194   4.112   2.944
 7964SOL    HW224792   0.180   4.273   2.926
 7965SOL     OW24793   4.189   2.342   5.981
 7965SOL    HW124794   4.141   2.417   5.936
 7965SOL    HW224795   4.288   2.354   5.969
 7966SOL     OW24796   3.016   2.841   5.676
 7966SOL    HW124797   2.988   2.789   5.757
 7966SOL    HW224798   3.115   2.841   5.668
 7967SOL     OW24799   3.293   6.250   2.104
 7967SOL    HW124800   3.335   6.306   2.176
 7967SOL    HW224801   3.315   6.154   2.119
 7968SOL     OW24802   6.826   2.363   4.132
 7968SOL    HW124803   6.828   2.313   4.219
 7968SOL    HW224804   6.908   2.341   4.079
 7969SOL     OW24805   5.413   5.868   0.844
 7969SOL    HW124806   5.332   5.838   0.793
 7969SOL    HW224807   5.388   5.879   0.941
 7970SOL     OW24808   6.513   2.786   1.915
 7970SOL    HW124809   6.481   2.862   1.859
 7970SOL    HW224810   6.435   2.733   1.948
 7971SOL     OW24811   3.453   1.683   1.168
 7971SOL    HW124812   3.364   1.670   1.212
 7971SOL    HW224813   3.461   1.620   1.090
 7972SOL     OW24814   2.401   2.900   0.635
 7972SOL    HW124815   2.432   2.993   0.657
 7972SOL    HW224816   2.387   2.849   0.719
 7973SOL     OW24817   4.354   4.680   4.291
 7973SOL    HW124818   4.390   4.753   4.349
 7973SOL    HW224819   4.265   4.708   4.254
 7974SOL     OW24820   5.943   1.099   5.528
 7974SOL    HW124821   5.956   1.039   5.449
 7974SOL    HW224822   5.850   1.136   5.527
 7975SOL     OW24823   6.468   0.859   1.608
 7975SOL    HW124824   6.450   0.872   1.706
 7975SOL    HW224825   6.385   0.825   1.564
 7976SOL     OW24826   1.211   0.455   5.835
 7976SOL    HW124827   1.127   0.510   5.824
 7976SOL    HW224828   1.208   0.377   5.773
 7977SOL     OW24829   4.321   5.711   3.091
 7977SOL    HW124830   4.366   5.710   3.180
 7977SOL    HW224831   4.290   5.804   3.070
 7978SOL     OW24832   6.405   2.123   6.113
 7978SOL    HW124833   6.332   2.072   6.158
 7978SOL    HW224834   6.459   2.172   6.181
 7979SOL     OW24835   3.653   5.164   5.445
 7979SOL    HW124836   3.615   5.168   5.538
 7979SOL    HW224837   3.641   5.252   5.400
 7980SOL     OW24838   3.344   5.490   6.366
 7980SOL    HW124839   3.319   5.415   6.304
 7980SOL    HW224840   3.333   5.577   6.319
 7981SOL     OW24841   0.816   5.131   1.383
 7981SOL    HW124842   0.910   5.107   1.358
 7981SOL    HW224843   0.782   5.202   1.321
 7982SOL     OW24844   1.406   0.995   0.132
 7982SOL    HW124845   1.500   1.023   0.148
 7982SOL    HW224846   1.383   1.006   0.035
 7983SOL     OW24847   5.899   2.556   0.401
 7983SOL    HW124848   5.911   2.648   0.365
 7983SOL    HW224849   5.899   2.559   0.501
 7984SOL     OW24850   1.215   1.105   0.737
 7984SOL    HW124851   1.265   1.184   0.773
 7984SOL    HW224852   1.280   1.031   0.718
 7985SOL     OW24853   2.869   1.508   4.566
 7985SOL    HW124854   2.896   1.594   4.522
 7985SOL    HW224855   2.851   1.525   4.663
 7986SOL     OW24856   2.476   0.937   6.034
 7986SOL    HW124857   2.552   0.872   6.045
 7986SOL    HW224858   2.471   0.997   6.114
 7987SOL     OW24859   2.150   2.575   0.105
 7987SOL    HW124860   2.132   2.536   0.015
 7987SOL    HW224861   2.249   2.573   0.123
 7988SOL     OW24862   0.989   1.908   2.952
 7988SOL    HW124863   1.056   1.840   2.982
 7988SOL    HW224864   0.980   1.904   2.852
 7989SOL     OW24865   2.601   3.208   7.014
 7989SOL    HW124866   2.528   3.269   0.022
 7989SOL    HW224867   2.673   3.261   6.970
 7990SOL     OW24868   1.538   4.947   5.138
 7990SOL    HW124869   1.588   4.861   5.130
 7990SOL    HW224870   1.458   4.945   5.078
 7991SOL     OW24871   6.365   0.907   3.428
 7991SOL    HW124872   6.270   0.938   3.426
 7991SOL    HW224873   6.425   0.982   3.401
 7992SOL     OW24874   1.254   0.440   0.395
 7992SOL    HW124875   1.224   0.395   0.311
 7992SOL    HW224876   1.284   0.533   0.375
 7993SOL     OW24877   6.885   7.012   1.071
 7993SOL    HW124878   6.931   6.926   1.095
 7993SOL    HW224879   6.933   0.033   0.995
 7994SOL     OW24880   3.672   0.095   3.536
 7994SOL    HW124881   3.753   0.154   3.531
 7994SOL    HW224882   3.590   0.151   3.529
 7995SOL     OW24883   6.123   5.481   3.462
 7995SOL    HW124884   6.149   5.536   3.542
 7995SOL    HW224885   6.205   5.447   3.417
 7996SOL     OW24886   3.390   6.439   4.341
 7996SOL    HW124887   3.450   6.370   4.301
 7996SOL    HW224888   3.435   6.528   4.338
 7997SOL     OW24889   0.336   1.350   0.933
 7997SOL    HW124890   0.343   1.398   1.020
 7997SOL    HW224891   0.313   1.254   0.950
 7998SOL     OW24892   2.648   0.353   0.627
 7998SOL    HW124893   2.565   0.378   0.676
 7998SOL    HW224894   2.627   0.285   0.557
 7999SOL     OW24895   0.988   0.851   6.145
 7999SOL    HW124896   1.015   0.867   6.050
 7999SOL    HW224897   0.931   0.927   6.177
 8000SOL     OW24898   5.112   0.132   6.657
 8000SOL    HW124899   5.065   0.213   6.623
 8000SOL    HW224900   5.170   0.157   6.735
 8001SOL     OW24901   4.290   6.623   1.524
 8001SOL    HW124902   4.198   6.640   1.490
 8001SOL    HW224903   4.349   6.701   1.502
 8002SOL     OW24904   1.943   0.822   6.593
 8002SOL    HW124905   1.850   0.844   6.622
 8002SOL    HW224906   1.955   0.852   6.498
 8003SOL     OW24907   2.814   5.571   2.094
 8003SOL    HW124908   2.834   5.494   2.034
 8003SOL    HW224909   2.775   5.537   2.180
 8004SOL     OW24910   2.241   3.073   3.193
 8004SOL    HW124911   2.264   3.128   3.274
 8004SOL    HW224912   2.244   2.976   3.217
 8005SOL     OW24913   3.045   1.086   3.636
 8005SOL    HW124914   3.010   1.110   3.726
 8005SOL    HW224915   3.143   1.102   3.633
 8006SOL     OW24916   2.122   6.459   5.555
 8006SOL    HW124917   2.095   6.492   5.465
 8006SOL    HW224918   2.061   6.497   5.624
 8007SOL     OW24919   6.068   1.434   5.920
 8007SOL    HW124920   6.064   1.531   5.895
 8007SOL    HW224921   6.157   1.396   5.893
 8008SOL     OW24922   4.272   5.997   6.506
 8008SOL    HW124923   4.184   5.986   6.460
 8008SOL    HW224924   4.266   6.070   6.574
 8009SOL     OW24925   5.750   0.726   1.325
 8009SOL    HW124926   5.717   0.646   1.376
 8009SOL    HW224927   5.672   0.780   1.293
 8010SOL     OW24928   2.286   1.072   5.246
 8010SOL    HW124929   2.319   0.978   5.237
 8010SOL    HW224930   2.187   1.072   5.260
 8011SOL     OW24931   3.054   2.691   0.958
 8011SOL    HW124932   3.045   2.602   1.003
 8011SOL    HW224933   2.992   2.695   0.879
 8012SOL     OW24934   2.149   3.447   0.184
 8012SOL    HW124935   2.099   3.424   0.101
 8012SOL    HW224936   2.245   3.464   0.162
 8013SOL     OW24937   1.359   5.410   3.001
 8013SOL    HW124938   1.313   5.499   2.991
 8013SOL    HW224939   1.298   5.347   3.048
 8014SOL     OW24940   1.165   6.436   4.457
 8014SOL    HW124941   1.207   6.351   4.425
 8014SOL    HW224942   1.234   6.508   4.462
 8015SOL     OW24943   2.514   0.156   6.126
 8015SOL    HW124944   2.541   0.220   6.198
 8015SOL    HW224945   2.459   0.083   6.165
 8016SOL     OW24946   3.951   0.438   5.805
 8016SOL    HW124947   3.981   0.346   5.782
 8016SOL    HW224948   3.866   0.459   5.758
 8017SOL     OW24949   5.647   0.125   0.496
 8017SOL    HW124950   5.643   0.044   0.437
 8017SOL    HW224951   5.554   0.156   0.515
 8018SOL     OW24952   3.047   2.099   0.065
 8018SOL    HW124953   3.133   2.067   0.106
 8018SOL    HW224954   2.971   2.043   0.099
 8019SOL     OW24955   2.613   4.781   0.909
 8019SOL    HW124956   2.678   4.823   0.972
 8019SOL    HW224957   2.659   4.759   0.823
 8020SOL     OW24958   6.207   0.197   6.952
 8020SOL    HW124959   6.165   0.270   6.898
 8020SOL    HW224960   6.153   0.184   0.013
 8021SOL     OW24961   1.180   2.757   0.949
 8021SOL    HW124962   1.090   2.763   0.994
 8021SOL    HW224963   1.171   2.780   0.853
 8022SOL     OW24964   5.725   0.769   2.311
 8022SOL    HW124965   5.640   0.725   2.283
 8022SOL    HW224966   5.795   0.699   2.325
 8023SOL     OW24967   6.398   4.804   3.069
 8023SOL    HW124968   6.429   4.882   3.015
 8023SOL    HW224969   6.461   4.789   3.145
 8024SOL     OW24970   1.172   4.971   5.545
 8024SOL    HW124971   1.130   4.886   5.513
 8024SOL    HW224972   1.262   4.952   5.583
 8025SOL     OW24973   2.210   5.578   0.808
 8025SOL    HW124974   2.195   5.481   0.824
 8025SOL    HW224975   2.150   5.610   0.735
 8026SOL     OW24976   6.958   4.181   0.458
 8026SOL    HW124977   6.966   4.096   0.405
 8026SOL    HW224978   0.026   4.212   0.485
 8027SOL     OW24979   3.851   0.253   5.272
 8027SOL    HW124980   3.890   0.161   5.263
 8027SOL    HW224981   3.825   0.287   5.181
 8028SOL     OW24982   4.221   5.605   5.670
 8028SOL    HW124983   4.168   5.635   5.591
 8028SOL    HW224984   4.280   5.680   5.700
 8029SOL     OW24985   5.593   3.276   1.395
 8029SOL    HW124986   5.655   3.341   1.439
 8029SOL    HW224987   5.568   3.310   1.304
 8030SOL     OW24988   5.181   5.069   0.367
 8030SOL    HW124989   5.237   5.003   0.318
 8030SOL    HW224990   5.092   5.028   0.389
 8031SOL     OW24991   6.236   6.732   2.361
 8031SOL    HW124992   6.260   6.642   2.325
 8031SOL    HW224993   6.317   6.774   2.402
 8032SOL     OW24994   6.309   4.491   1.649
 8032SOL    HW124995   6.342   4.530   1.736
 8032SOL    HW224996   6.383   4.491   1.582
 8033SOL     OW24997   4.393   2.146   6.630
 8033SOL    HW124998   4.313   2.090   6.650
 8033SOL    HW224999   4.458   2.141   6.706
 8034SOL     OW25000   4.297   0.691   5.176
 8034SOL    HW125001   4.337   0.606   5.209
 8034SOL    HW225002   4.318   0.703   5.079
 8035SOL     OW25003   5.324   1.439   2.604
 8035SOL    HW125004   5.395   1.449   2.674
 8035SOL    HW225005   5.352   1.370   2.537
 8036SOL     OW25006   6.584   4.248   3.907
 8036SOL    HW125007   6.604   4.150   3.898
 8036SOL    HW225008   6.513   4.261   3.977
 8037SOL     OW25009   2.120   3.310   6.939
 8037SOL    HW125010   2.046   3.349   6.885
 8037SOL    HW225011   2.085   3.235   6.995
 8038SOL     OW25012   4.692   0.648   2.280
 8038SOL    HW125013   4.650   0.570   2.326
 8038SOL    HW225014   4.777   0.672   2.327
 8039SOL     OW25015   0.302   1.334   5.316
 8039SOL    HW125016   0.350   1.316   5.230
 8039SOL    HW225017   0.213   1.287   5.314
 8040SOL     OW25018   1.566   5.635   0.316
 8040SOL    HW125019   1.651   5.614   0.268
 8040SOL    HW225020   1.564   5.587   0.404
 8041SOL     OW25021   3.080   0.634   3.230
 8041SOL    HW125022   3.070   0.733   3.236
 8041SOL    HW225023   3.085   0.606   3.135
 8042SOL     OW25024   3.880   2.947   4.984
 8042SOL    HW125025   3.925   2.900   4.908
 8042SOL    HW225026   3.903   3.044   4.982
 8043SOL     OW25027   3.565   6.108   0.905
 8043SOL    HW125028   3.621   6.172   0.958
 8043SOL    HW225029   3.552   6.145   0.813
 8044SOL     OW25030   4.944   2.938   0.804
 8044SOL    HW125031   4.865   2.957   0.747
 8044SOL    HW225032   4.957   3.012   0.870
 8045SOL     OW25033   6.578   2.117   2.172
 8045SOL    HW125034   6.630   2.042   2.214
 8045SOL    HW225035   6.639   2.194   2.154
 8046SOL     OW25036   0.963   4.400   1.657
 8046SOL    HW125037   0.958   4.311   1.612
 8046SOL    HW225038   0.875   4.422   1.698
 8047SOL     OW25039   4.086   5.599   6.176
 8047SOL    HW125040   4.128   5.563   6.093
 8047SOL    HW225041   3.988   5.577   6.175
 8048SOL     OW25042   3.916   1.471   0.025
 8048SOL    HW125043   3.824   1.458   7.012
 8048SOL    HW225044   3.911   1.513   0.116
 8049SOL     OW25045   0.808   0.166   6.744
 8049SOL    HW125046   0.797   0.118   6.831
 8049SOL    HW225047   0.753   0.250   6.744
 8050SOL     OW25048   2.082   3.690   3.371
 8050SOL    HW125049   2.073   3.599   3.331
 8050SOL    HW225050   2.134   3.749   3.309
 8051SOL     OW25051   4.411   6.285   4.166
 8051SOL    HW125052   4.469   6.321   4.239
 8051SOL    HW225053   4.378   6.195   4.192
 8052SOL     OW25054   3.216   1.689   0.973
 8052SOL    HW125055   3.255   1.664   0.884
 8052SOL    HW225056   3.169   1.610   1.013
 8053SOL     OW25057   3.610   2.923   4.633
 8053SOL    HW125058   3.524   2.936   4.682
 8053SOL    HW225059   3.672   2.866   4.687
 8054SOL     OW25060   6.691   4.491   4.914
 8054SOL    HW125061   6.643   4.547   4.982
 8054SOL    HW225062   6.661   4.518   4.823
 8055SOL     OW25063   0.471   0.463   5.541
 8055SOL    HW125064   0.534   0.387   5.554
 8055SOL    HW225065   0.472   0.492   5.445
 8056SOL     OW25066   2.751   0.692   4.789
 8056SOL    HW125067   2.821   0.761   4.771
 8056SOL    HW225068   2.698   0.718   4.870
 8057SOL     OW25069   2.544   1.917   3.042
 8057SOL    HW125070   2.529   1.843   2.976
 8057SOL    HW225071   2.515   2.004   3.001
 8058SOL     OW25072   3.356   0.003   3.453
 8058SOL    HW125073   3.331   0.017   3.357
 8058SOL    HW225074   3.392   6.934   3.465
 8059SOL     OW25075   2.448   2.054   4.409
 8059SOL    HW125076   2.478   2.140   4.451
 8059SOL    HW225077   2.390   2.004   4.474
 8060SOL     OW25078   6.539   2.251   6.337
 8060SOL    HW125079   6.530   2.324   6.405
 8060SOL    HW225080   6.583   2.287   6.255
 8061SOL     OW25081   0.032   0.041   2.885
 8061SOL    HW125082   6.977   0.069   2.829
 8061SOL    HW225083   0.049   0.110   2.955
 8062SOL     OW25084   3.392   4.971   4.475
 8062SOL    HW125085   3.311   5.028   4.487
 8062SOL    HW225086   3.424   4.939   4.564
 8063SOL     OW25087   2.481   1.871   2.610
 8063SOL    HW125088   2.554   1.803   2.597
 8063SOL    HW225089   2.413   1.834   2.673
 8064SOL     OW25090   6.771   2.717   0.668
 8064SOL    HW125091   6.706   2.687   0.738
 8064SOL    HW225092   6.799   2.638   0.612
 8065SOL     OW25093   2.657   5.499   3.838
 8065SOL    HW125094   2.616   5.464   3.922
 8065SOL    HW225095   2.628   5.594   3.824
 8066SOL     OW25096   0.487   1.141   5.590
 8066SOL    HW125097   0.525   1.232   5.608
 8066SOL    HW225098   0.395   1.150   5.553
 8067SOL     OW25099   5.288   2.965   3.006
 8067SOL    HW125100   5.239   3.015   3.077
 8067SOL    HW225101   5.256   2.995   2.916
 8068SOL     OW25102   6.919   4.733   1.390
 8068SOL    HW125103   6.941   4.641   1.421
 8068SOL    HW225104   6.990   4.797   1.420
 8069SOL     OW25105   2.431   5.341   1.025
 8069SOL    HW125106   2.508   5.312   0.968
 8069SOL    HW225107   2.460   5.418   1.082
 8070SOL     OW25108   4.313   3.214   0.773
 8070SOL    HW125109   4.395   3.165   0.744
 8070SOL    HW225110   4.232   3.169   0.736
 8071SOL     OW25111   3.358   6.337   5.033
 8071SOL    HW125112   3.294   6.398   4.986
 8071SOL    HW225113   3.383   6.262   4.972
 8072SOL     OW25114   3.811   1.078   0.540
 8072SOL    HW125115   3.852   1.149   0.482
 8072SOL    HW225116   3.880   1.041   0.601
 8073SOL     OW25117   2.836   5.467   4.907
 8073SOL    HW125118   2.812   5.470   4.810
 8073SOL    HW225119   2.926   5.426   4.918
 8074SOL     OW25120   3.004   2.999   0.724
 8074SOL    HW125121   3.038   2.906   0.711
 8074SOL    HW225122   3.078   3.064   0.712
 8075SOL     OW25123   6.563   6.894   0.465
 8075SOL    HW125124   6.594   6.968   0.524
 8075SOL    HW225125   6.464   6.896   0.457
 8076SOL     OW25126   5.950   0.952   5.266
 8076SOL    HW125127   6.012   0.874   5.254
 8076SOL    HW225128   5.857   0.925   5.239
 8077SOL     OW25129   3.580   6.348   2.511
 8077SOL    HW125130   3.648   6.419   2.491
 8077SOL    HW225131   3.626   6.260   2.523
 8078SOL     OW25132   6.963   1.938   0.459
 8078SOL    HW125133   6.980   1.863   0.523
 8078SOL    HW225134   7.004   1.917   0.371
 8079SOL     OW25135   6.649   1.270   3.876
 8079SOL    HW125136   6.578   1.335   3.848
 8079SOL    HW225137   6.736   1.297   3.835
 8080SOL     OW25138   0.669   3.039   2.290
 8080SOL    HW125139   0.741   2.977   2.259
 8080SOL    HW225140   0.586   2.987   2.309
 8081SOL     OW25141   6.420   5.657   6.092
 8081SOL    HW125142   6.461   5.689   6.178
 8081SOL    HW225143   6.352   5.723   6.061
 8082SOL     OW25144   3.994   0.782   1.938
 8082SOL    HW125145   3.984   0.882   1.934
 8082SOL    HW225146   4.037   0.756   2.025
 8083SOL     OW25147   4.961   3.185   3.160
 8083SOL    HW125148   4.895   3.177   3.085
 8083SOL    HW225149   4.912   3.184   3.247
 8084SOL     OW25150   3.785   6.534   0.070
 8084SOL    HW125151   3.799   6.538   0.169
 8084SOL    HW225152   3.804   6.442   0.037
 8085SOL     OW25153   5.954   6.719   2.230
 8085SOL    HW125154   5.930   6.776   2.152
 8085SOL    HW225155   6.054   6.719   2.241
 8086SOL     OW25156   6.727   0.587   2.352
 8086SOL    HW125157   6.812   0.537   2.334
 8086SOL    HW225158   6.730   0.675   2.304
 8087SOL     OW25159   1.995   0.159   0.182
 8087SOL    HW125160   2.057   0.182   0.107
 8087SOL    HW225161   1.903   0.144   0.147
 8088SOL     OW25162   6.307   1.158   1.672
 8088SOL    HW125163   6.343   1.073   1.711
 8088SOL    HW225164   6.344   1.171   1.580
 8089SOL     OW25165   6.073   2.812   0.600
 8089SOL    HW125166   6.036   2.733   0.648
 8089SOL    HW225167   6.082   2.888   0.664
 8090SOL     OW25168   3.981   1.473   6.782
 8090SOL    HW125169   3.887   1.486   6.753
 8090SOL    HW225170   3.987   1.481   6.882
 8091SOL     OW25171   1.818   3.998   5.015
 8091SOL    HW125172   1.772   3.928   5.069
 8091SOL    HW225173   1.916   3.995   5.035
 8092SOL     OW25174   6.095   2.074   5.435
 8092SOL    HW125175   6.025   2.132   5.477
 8092SOL    HW225176   6.068   1.978   5.445
 8093SOL     OW25177   3.470   4.905   2.832
 8093SOL    HW125178   3.442   4.841   2.904
 8093SOL    HW225179   3.541   4.966   2.867
 8094SOL     OW25180   0.533   3.670   4.762
 8094SOL    HW125181   0.629   3.692   4.749
 8094SOL    HW225182   0.476   3.741   4.721
 8095SOL     OW25183   0.085   4.665   4.494
 8095SOL    HW125184   0.069   4.586   4.435
 8095SOL    HW225185   0.001   4.717   4.506
 8096SOL     OW25186   2.131   6.683   2.947
 8096SOL    HW125187   2.200   6.676   2.875
 8096SOL    HW225188   2.040   6.688   2.906
 8097SOL     OW25189   3.878   6.715   4.494
 8097SOL    HW125190   3.973   6.707   4.464
 8097SOL    HW225191   3.871   6.785   4.564
 8098SOL     OW25192   1.876   6.556   3.113
 8098SOL    HW125193   1.896   6.628   3.180
 8098SOL    HW225194   1.907   6.585   3.023
 8099SOL     OW25195   4.170   5.738   4.868
 8099SOL    HW125196   4.159   5.793   4.951
 8099SOL    HW225197   4.231   5.785   4.804
 8100SOL     OW25198   0.312   0.144   6.732
 8100SOL    HW125199   0.379   0.159   6.658
 8100SOL    HW225200   0.222   0.173   6.701
 8101SOL     OW25201   1.795   6.107   2.190
 8101SOL    HW125202   1.847   6.022   2.184
 8101SOL    HW225203   1.767   6.123   2.284
 8102SOL     OW25204   0.774   3.725   3.590
 8102SOL    HW125205   0.702   3.739   3.658
 8102SOL    HW225206   0.759   3.786   3.512
 8103SOL     OW25207   3.190   0.120   1.512
 8103SOL    HW125208   3.242   0.070   1.443
 8103SOL    HW225209   3.207   0.218   1.502
 8104SOL     OW25210   1.881   0.309   5.863
 8104SOL    HW125211   1.921   0.220   5.886
 8104SOL    HW225212   1.820   0.299   5.785
 8105SOL     OW25213   0.773   3.032   3.012
 8105SOL    HW125214   0.698   3.066   2.955
 8105SOL    HW225215   0.763   2.933   3.024
 8106SOL     OW25216   3.250   6.267   2.998
 8106SOL    HW125217   3.282   6.287   3.091
 8106SOL    HW225218   3.233   6.352   2.949
 8107SOL     OW25219   1.176   5.104   4.266
 8107SOL    HW125220   1.223   5.038   4.323
 8107SOL    HW225221   1.077   5.087   4.269
 8108SOL     OW25222   6.279   2.829   5.910
 8108SOL    HW125223   6.295   2.806   6.006
 8108SOL    HW225224   6.181   2.839   5.893
 8109SOL     OW25225   0.283   4.258   5.538
 8109SOL    HW125226   0.266   4.356   5.532
 8109SOL    HW225227   0.241   4.222   5.621
 8110SOL     OW25228   3.922   6.096   2.152
 8110SOL    HW125229   3.985   6.089   2.074
 8110SOL    HW225230   3.941   6.024   2.217
 8111SOL     OW25231   5.108   1.205   4.257
 8111SOL    HW125232   5.046   1.282   4.267
 8111SOL    HW225233   5.180   1.210   4.326
 8112SOL     OW25234   2.511   2.279   4.496
 8112SOL    HW125235   2.545   2.264   4.589
 8112SOL    HW225236   2.449   2.357   4.495
 8113SOL     OW25237   1.791   3.732   0.289
 8113SOL    HW125238   1.887   3.739   0.266
 8113SOL    HW225239   1.736   3.780   0.220
 8114SOL     OW25240   1.579   4.396   3.089
 8114SOL    HW125241   1.657   4.394   3.027
 8114SOL    HW225242   1.494   4.386   3.036
 8115SOL     OW25243   3.686   0.265   6.826
 8115SOL    HW125244   3.784   0.282   6.839
 8115SOL    HW225245   3.635   0.347   6.850
 8116SOL     OW25246   4.537   4.674   6.875
 8116SOL    HW125247   4.626   4.652   6.915
 8116SOL    HW225248   4.479   4.593   6.877
 8117SOL     OW25249   2.229   6.845   3.647
 8117SOL    HW125250   2.188   6.925   3.603
 8117SOL    HW225251   2.328   6.847   3.634
 8118SOL     OW25252   5.045   4.458   0.174
 8118SOL    HW125253   5.051   4.557   0.161
 8118SOL    HW225254   5.038   4.438   0.272
 8119SOL     OW25255   5.277   5.433   6.652
 8119SOL    HW125256   5.259   5.363   6.721
 8119SOL    HW225257   5.222   5.413   6.570
 8120SOL     OW25258   2.947   5.025   0.904
 8120SOL    HW125259   2.917   5.000   0.812
 8120SOL    HW225260   2.952   4.942   0.960
 8121SOL     OW25261   6.996   5.068   2.299
 8121SOL    HW125262   7.020   4.995   2.363
 8121SOL    HW225263   6.897   5.068   2.285
 8122SOL     OW25264   0.418   5.126   3.649
 8122SOL    HW125265   0.432   5.060   3.576
 8122SOL    HW225266   0.473   5.208   3.631
 8123SOL     OW25267   6.889   2.008   6.852
 8123SOL    HW125268   6.807   2.014   6.796
 8123SOL    HW225269   6.924   2.100   6.868
 8124SOL     OW25270   5.381   6.136   1.688
 8124SOL    HW125271   5.412   6.047   1.720
 8124SOL    HW225272   5.421   6.156   1.599
 8125SOL     OW25273   1.337   1.576   3.172
 8125SOL    HW125274   1.417   1.621   3.135
 8125SOL    HW225275   1.289   1.527   3.099
 8126SOL     OW25276   4.829   4.164   2.833
 8126SOL    HW125277   4.891   4.228   2.787
 8126SOL    HW225278   4.814   4.085   2.774
 8127SOL     OW25279   2.462   4.472   6.670
 8127SOL    HW125280   2.386   4.535   6.655
 8127SOL    HW225281   2.530   4.485   6.598
 8128SOL     OW25282   3.037   2.137   2.251
 8128SOL    HW125283   2.986   2.173   2.173
 8128SOL    HW225284   3.115   2.197   2.271
 8129SOL     OW25285   4.118   0.740   6.458
 8129SOL    HW125286   4.182   0.672   6.423
 8129SOL    HW225287   4.042   0.750   6.394
 8130SOL     OW25288   0.504   3.846   6.687
 8130SOL    HW125289   0.575   3.786   6.650
 8130SOL    HW225290   0.415   3.813   6.658
 8131SOL     OW25291   2.483   1.877   1.440
 8131SOL    HW125292   2.437   1.942   1.500
 8131SOL    HW225293   2.544   1.927   1.378
 8132SOL     OW25294   5.896   6.923   6.112
 8132SOL    HW125295   5.869   6.994   6.177
 8132SOL    HW225296   5.882   6.956   6.019
 8133SOL     OW25297   3.375   6.108   1.389
 8133SOL    HW125298   3.367   6.026   1.445
 8133SOL    HW225299   3.326   6.183   1.432
 8134SOL     OW25300   6.867   2.458   5.764
 8134SOL    HW125301   6.800   2.472   5.691
 8134SOL    HW225302   6.926   2.538   5.772
 8135SOL     OW25303   3.045   6.537   1.528
 8135SOL    HW125304   2.994   6.620   1.551
 8135SOL    HW225305   2.992   6.481   1.466
 8136SOL     OW25306   4.510   5.706   3.318
 8136SOL    HW125307   4.447   5.728   3.393
 8136SOL    HW225308   4.544   5.613   3.329
 8137SOL     OW25309   3.430   1.912   5.084
 8137SOL    HW125310   3.354   1.962   5.125
 8137SOL    HW225311   3.509   1.915   5.146
 8138SOL     OW25312   4.912   0.752   0.772
 8138SOL    HW125313   4.934   0.848   0.790
 8138SOL    HW225314   4.988   0.694   0.801
 8139SOL     OW25315   0.253   1.140   2.263
 8139SOL    HW125316   0.191   1.162   2.338
 8139SOL    HW225317   0.341   1.186   2.279
 8140SOL     OW25318   5.420   0.527   0.108
 8140SOL    HW125319   5.466   0.486   0.187
 8140SOL    HW225320   5.350   0.464   0.074
 8141SOL     OW25321   4.133   6.345   4.788
 8141SOL    HW125322   4.220   6.330   4.834
 8141SOL    HW225323   4.143   6.415   4.718
 8142SOL     OW25324   0.571   5.134   0.489
 8142SOL    HW125325   0.547   5.106   0.396
 8142SOL    HW225326   0.579   5.233   0.494
 8143SOL     OW25327   5.731   4.564   1.402
 8143SOL    HW125328   5.786   4.646   1.388
 8143SOL    HW225329   5.715   4.519   1.314
 8144SOL     OW25330   6.250   5.868   6.487
 8144SOL    HW125331   6.212   5.846   6.577
 8144SOL    HW225332   6.347   5.842   6.484
 8145SOL     OW25333   5.764   5.878   1.714
 8145SOL    HW125334   5.800   5.800   1.664
 8145SOL    HW225335   5.825   5.956   1.703
 8146SOL     OW25336   4.051   0.695   4.488
 8146SOL    HW125337   4.070   0.710   4.585
 8146SOL    HW225338   4.123   0.637   4.449
 8147SOL     OW25339   6.065   1.912   1.735
 8147SOL    HW125340   6.024   1.935   1.823
 8147SOL    HW225341   6.090   1.815   1.734
 8148SOL     OW25342   5.224   4.387   1.036
 8148SOL    HW125343   5.262   4.452   0.971
 8148SOL    HW225344   5.137   4.421   1.071
 8149SOL     OW25345   2.830   5.955   2.223
 8149SOL    HW125346   2.866   5.917   2.138
 8149SOL    HW225347   2.895   6.020   2.261
 8150SOL     OW25348   1.621   4.071   0.849
 8150SOL    HW125349   1.710   4.031   0.870
 8150SOL    HW225350   1.617   4.092   0.751
 8151SOL     OW25351   6.060   2.270   1.331
 8151SOL    HW125352   6.097   2.331   1.261
 8151SOL    HW225353   5.961   2.266   1.323
 8152SOL     OW25354   6.992   1.639   2.876
 8152SOL    HW125355   0.058   1.678   2.899
 8152SOL    HW225356   6.992   1.610   2.780
 8153SOL     OW25357   2.198   0.161   3.851
 8153SOL    HW125358   2.294   0.190   3.858
 8153SOL    HW225359   2.151   0.220   3.785
 8154SOL     OW25360   3.166   4.942   2.344
 8154SOL    HW125361   3.221   4.864   2.376
 8154SOL    HW225362   3.083   4.908   2.300
 8155SOL     OW25363   1.799   3.622   2.013
 8155SOL    HW125364   1.854   3.657   1.938
 8155SOL    HW225365   1.858   3.578   2.081
 8156SOL     OW25366   4.985   6.966   0.644
 8156SOL    HW125367   4.976   6.988   0.741
 8156SOL    HW225368   4.985   0.028   0.590
 8157SOL     OW25369   0.116   5.301   6.746
 8157SOL    HW125370   0.205   5.264   6.721
 8157SOL    HW225371   0.108   5.395   6.712
 8158SOL     OW25372   5.246   4.909   0.916
 8158SOL    HW125373   5.156   4.905   0.959
 8158SOL    HW225374   5.297   4.825   0.936
 8159SOL     OW25375   3.034   6.026   2.427
 8159SOL    HW125376   3.044   5.930   2.451
 8159SOL    HW225377   3.119   6.059   2.385
 8160SOL     OW25378   5.204   1.237   3.156
 8160SOL    HW125379   5.224   1.167   3.088
 8160SOL    HW225380   5.107   1.232   3.182
 8161SOL     OW25381   5.156   2.021   6.310
 8161SOL    HW125382   5.114   2.070   6.234
 8161SOL    HW225383   5.227   1.959   6.275
 8162SOL     OW25384   6.067   6.392   5.830
 8162SOL    HW125385   6.118   6.395   5.916
 8162SOL    HW225386   6.096   6.312   5.778
 8163SOL     OW25387   2.622   4.158   5.335
 8163SOL    HW125388   2.623   4.096   5.414
 8163SOL    HW225389   2.551   4.129   5.271
 8164SOL     OW25390   5.852   3.473   0.613
 8164SOL    HW125391   5.866   3.530   0.531
 8164SOL    HW225392   5.806   3.389   0.586
 8165SOL     OW25393   1.133   4.642   6.865
 8165SOL    HW125394   1.204   4.711   6.853
 8165SOL    HW225395   1.174   4.558   6.902
 8166SOL     OW25396   1.590   0.349   1.949
 8166SOL    HW125397   1.543   0.305   2.025
 8166SOL    HW225398   1.655   0.286   1.908
 8167SOL     OW25399   6.088   6.929   5.127
 8167SOL    HW125400   6.119   7.003   5.187
 8167SOL    HW225401   6.150   6.851   5.135
 8168SOL     OW25402   2.509   1.415   3.827
 8168SOL    HW125403   2.445   1.491   3.813
 8168SOL    HW225404   2.461   1.328   3.815
 8169SOL     OW25405   4.591   2.575   1.874
 8169SOL    HW125406   4.647   2.635   1.932
 8169SOL    HW225407   4.647   2.499   1.841
 8170SOL     OW25408   1.682   5.631   2.280
 8170SOL    HW125409   1.634   5.544   2.269
 8170SOL    HW225410   1.619   5.707   2.264
 8171SOL     OW25411   1.486   1.310   0.174
 8171SOL    HW125412   1.409   1.330   0.235
 8171SOL    HW225413   1.568   1.355   0.209
 8172SOL     OW25414   1.131   1.551   1.778
 8172SOL    HW125415   1.207   1.490   1.801
 8172SOL    HW225416   1.160   1.615   1.706
 8173SOL     OW25417   4.002   0.802   1.461
 8173SOL    HW125418   4.014   0.879   1.524
 8173SOL    HW225419   3.908   0.802   1.426
 8174SOL     OW25420   6.136   2.266   0.719
 8174SOL    HW125421   6.093   2.316   0.795
 8174SOL    HW225422   6.214   2.214   0.754
 8175SOL     OW25423   0.152   3.375   6.265
 8175SOL    HW125424   0.078   3.314   6.292
 8175SOL    HW225425   0.215   3.389   6.342
 8176SOL     OW25426   3.084   5.499   2.494
 8176SOL    HW125427   3.181   5.482   2.508
 8176SOL    HW225428   3.038   5.413   2.472
 8177SOL     OW25429   2.486   6.187   3.689
 8177SOL    HW125430   2.560   6.121   3.673
 8177SOL    HW225431   2.470   6.239   3.605
 8178SOL     OW25432   3.205   6.045   6.559
 8178SOL    HW125433   3.123   6.038   6.501
 8178SOL    HW225434   3.178   6.036   6.655
 8179SOL     OW25435   4.100   2.577   5.854
 8179SOL    HW125436   4.012   2.623   5.864
 8179SOL    HW225437   4.172   2.633   5.897
 8180SOL     OW25438   6.315   0.112   4.839
 8180SOL    HW125439   6.227   0.069   4.821
 8180SOL    HW225440   6.389   0.054   4.805
 8181SOL     OW25441   2.055   1.733   2.042
 8181SOL    HW125442   1.966   1.719   1.998
 8181SOL    HW225443   2.085   1.827   2.025
 8182SOL     OW25444   3.411   2.653   6.587
 8182SOL    HW125445   3.501   2.611   6.596
 8182SOL    HW225446   3.378   2.641   6.493
 8183SOL     OW25447   0.055   2.710   4.112
 8183SOL    HW125448   0.131   2.653   4.080
 8183SOL    HW225449   0.090   2.788   4.164
 8184SOL     OW25450   5.520   2.250   5.831
 8184SOL    HW125451   5.610   2.263   5.789
 8184SOL    HW225452   5.524   2.277   5.927
 8185SOL     OW25453   2.830   6.180   0.220
 8185SOL    HW125454   2.758   6.113   0.238
 8185SOL    HW225455   2.789   6.270   0.208
 8186SOL     OW25456   3.406   5.147   6.535
 8186SOL    HW125457   3.353   5.101   6.465
 8186SOL    HW225458   3.346   5.201   6.593
 8187SOL     OW25459   1.641   1.726   5.337
 8187SOL    HW125460   1.660   1.637   5.297
 8187SOL    HW225461   1.558   1.721   5.392
 8188SOL     OW25462   5.367   2.485   2.224
 8188SOL    HW125463   5.397   2.441   2.139
 8188SOL    HW225464   5.267   2.492   2.225
 8189SOL     OW25465   4.808   4.923   2.675
 8189SOL    HW125466   4.776   4.846   2.620
 8189SOL    HW225467   4.789   5.009   2.627
 8190SOL     OW25468   4.537   5.221   4.708
 8190SOL    HW125469   4.437   5.216   4.710
 8190SOL    HW225470   4.566   5.316   4.710
 8191SOL     OW25471   3.181   5.454   3.133
 8191SOL    HW125472   3.236   5.480   3.212
 8191SOL    HW225473   3.154   5.536   3.083
 8192SOL     OW25474   3.714   5.299   0.429
 8192SOL    HW125475   3.769   5.365   0.480
 8192SOL    HW225476   3.695   5.335   0.337
 8193SOL     OW25477   6.743   0.038   4.196
 8193SOL    HW125478   6.835   0.070   4.218
 8193SOL    HW225479   6.676   0.087   4.252
 8194SOL     OW25480   6.421   2.497   0.573
 8194SOL    HW125481   6.412   2.397   0.576
 8194SOL    HW225482   6.409   2.529   0.479
 8195SOL     OW25483   0.685   0.221   0.797
 8195SOL    HW125484   0.644   0.300   0.843
 8195SOL    HW225485   0.738   0.252   0.718
 8196SOL     OW25486   3.537   0.291   5.587
 8196SOL    HW125487   3.438   0.308   5.585
 8196SOL    HW225488   3.567   0.258   5.498
 8197SOL     OW25489   4.191   0.924   5.897
 8197SOL    HW125490   4.147   0.835   5.894
 8197SOL    HW225491   4.122   0.996   5.905
 8198SOL     OW25492   3.009   6.108   3.012
 8198SOL    HW125493   3.026   6.063   2.925
 8198SOL    HW225494   3.096   6.134   3.054
 8199SOL     OW25495   0.042   3.183   6.439
 8199SOL    HW125496   0.120   3.188   6.502
 8199SOL    HW225497   0.044   3.096   6.390
 8200SOL     OW25498   4.494   3.518   1.493
 8200SOL    HW125499   4.488   3.419   1.487
 8200SOL    HW225500   4.410   3.554   1.535
 8201SOL     OW25501   5.543   0.882   4.417
 8201SOL    HW125502   5.588   0.815   4.475
 8201SOL    HW225503   5.590   0.970   4.425
 8202SOL     OW25504   0.423   5.675   4.218
 8202SOL    HW125505   0.465   5.639   4.301
 8202SOL    HW225506   0.331   5.637   4.207
 8203SOL     OW25507   4.778   2.367   0.518
 8203SOL    HW125508   4.734   2.324   0.439
 8203SOL    HW225509   4.793   2.298   0.589
 8204SOL     OW25510   2.869   5.697   0.711
 8204SOL    HW125511   2.914   5.744   0.786
 8204SOL    HW225512   2.886   5.599   0.718
 8205SOL     OW25513   6.746   4.869   1.149
 8205SOL    HW125514   6.758   4.772   1.125
 8205SOL    HW225515   6.803   4.925   1.090
 8206SOL     OW25516   3.822   2.764   5.886
 8206SOL    HW125517   3.783   2.723   5.804
 8206SOL    HW225518   3.803   2.862   5.886
 8207SOL     OW25519   3.783   4.398   5.352
 8207SOL    HW125520   3.718   4.359   5.285
 8207SOL    HW225521   3.761   4.362   5.443
 8208SOL     OW25522   2.454   6.139   1.637
 8208SOL    HW125523   2.398   6.221   1.645
 8208SOL    HW225524   2.545   6.156   1.676
 8209SOL     OW25525   0.638   1.918   5.311
 8209SOL    HW125526   0.659   2.007   5.271
 8209SOL    HW225527   0.616   1.929   5.408
 8210SOL     OW25528   2.483   0.847   1.856
 8210SOL    HW125529   2.540   0.775   1.816
 8210SOL    HW225530   2.465   0.917   1.787
 8211SOL     OW25531   3.410   3.811   3.542
 8211SOL    HW125532   3.420   3.909   3.523
 8211SOL    HW225533   3.419   3.796   3.640
 8212SOL     OW25534   3.405   1.337   1.274
 8212SOL    HW125535   3.348   1.264   1.312
 8212SOL    HW225536   3.413   1.411   1.340
 8213SOL     OW25537   5.330   4.678   2.704
 8213SOL    HW125538   5.278   4.733   2.639
 8213SOL    HW225539   5.390   4.737   2.757
 8214SOL     OW25540   1.625   5.494   3.819
 8214SOL    HW125541   1.600   5.456   3.729
 8214SOL    HW225542   1.720   5.473   3.838
 8215SOL     OW25543   4.212   4.926   6.850
 8215SOL    HW125544   4.176   5.017   6.827
 8215SOL    HW225545   4.142   4.857   6.831
 8216SOL     OW25546   4.521   0.074   3.273
 8216SOL    HW125547   4.500   0.144   3.341
 8216SOL    HW225548   4.465   7.016   3.290
 8217SOL     OW25549   2.194   3.919   2.287
 8217SOL    HW125550   2.260   3.860   2.241
 8217SOL    HW225551   2.203   4.013   2.253
 8218SOL     OW25552   1.887   6.980   3.953
 8218SOL    HW125553   1.836   7.003   3.871
 8218SOL    HW225554   1.948   6.903   3.935
 8219SOL     OW25555   4.037   3.924   1.527
 8219SOL    HW125556   3.992   3.891   1.610
 8219SOL    HW225557   3.994   4.010   1.499
 8220SOL     OW25558   3.372   4.304   5.306
 8220SOL    HW125559   3.376   4.234   5.378
 8220SOL    HW225560   3.283   4.300   5.261
 8221SOL     OW25561   6.522   4.501   3.326
 8221SOL    HW125562   6.528   4.402   3.340
 8221SOL    HW225563   6.609   4.543   3.354
 8222SOL     OW25564   5.123   2.461   1.097
 8222SOL    HW125565   5.201   2.501   1.144
 8222SOL    HW225566   5.079   2.530   1.040
 8223SOL     OW25567   0.130   4.713   5.982
 8223SOL    HW125568   0.201   4.700   5.913
 8223SOL    HW225569   0.094   4.624   6.010
 8224SOL     OW25570   4.871   1.872   1.467
 8224SOL    HW125571   4.808   1.920   1.528
 8224SOL    HW225572   4.964   1.878   1.502
 8225SOL     OW25573   3.464   0.966   0.883
 8225SOL    HW125574   3.386   0.927   0.933
 8225SOL    HW225575   3.479   0.913   0.800
 8226SOL     OW25576   3.135   0.452   1.017
 8226SOL    HW125577   3.073   0.442   0.939
 8226SOL    HW225578   3.119   0.540   1.061
 8227SOL     OW25579   0.208   1.554   2.436
 8227SOL    HW125580   0.270   1.506   2.374
 8227SOL    HW225581   0.261   1.611   2.499
 8228SOL     OW25582   0.630   1.757   5.989
 8228SOL    HW125583   0.606   1.688   5.921
 8228SOL    HW225584   0.692   1.823   5.948
 8229SOL     OW25585   4.226   4.037   0.874
 8229SOL    HW125586   4.321   4.039   0.841
 8229SOL    HW225587   4.214   4.109   0.943
 8230SOL     OW25588   3.746   6.579   5.516
 8230SOL    HW125589   3.820   6.615   5.573
 8230SOL    HW225590   3.666   6.639   5.524
 8231SOL     OW25591   3.504   2.015   1.941
 8231SOL    HW125592   3.573   1.953   1.903
 8231SOL    HW225593   3.543   2.105   1.954
 8232SOL     OW25594   5.505   2.243   2.750
 8232SOL    HW125595   5.560   2.196   2.818
 8232SOL    HW225596   5.471   2.177   2.683
 8233SOL     OW25597   1.309   0.026   6.283
 8233SOL    HW125598   1.284   0.069   6.370
 8233SOL    HW225599   1.299   6.950   6.291
 8234SOL     OW25600   2.900   3.615   6.987
 8234SOL    HW125601   2.927   3.567   6.903
 8234SOL    HW225602   2.826   3.679   6.967
 8235SOL     OW25603   0.559   3.849   0.253
 8235SOL    HW125604   0.503   3.861   0.171
 8235SOL    HW225605   0.618   3.930   0.265
 8236SOL     OW25606   0.604   5.460   6.135
 8236SOL    HW125607   0.516   5.499   6.163
 8236SOL    HW225608   0.678   5.510   6.179
 8237SOL     OW25609   4.657   6.193   6.437
 8237SOL    HW125610   4.621   6.100   6.424
 8237SOL    HW225611   4.588   6.260   6.409
 8238SOL     OW25612   0.418   6.021   0.013
 8238SOL    HW125613   0.362   5.966   0.075
 8238SOL    HW225614   0.359   6.088   6.990
 8239SOL     OW25615   0.526   0.609   4.965
 8239SOL    HW125616   0.505   0.700   4.999
 8239SOL    HW225617   0.463   0.543   5.005
 8240SOL     OW25618   2.915   3.641   3.257
 8240SOL    HW125619   2.960   3.640   3.168
 8240SOL    HW225620   2.930   3.730   3.301
 8241SOL     OW25621   2.377   5.128   6.284
 8241SOL    HW125622   2.448   5.144   6.353
 8241SOL    HW225623   2.364   5.211   6.230
 8242SOL     OW25624   0.781   3.857   4.826
 8242SOL    HW125625   0.841   3.804   4.887
 8242SOL    HW225626   0.818   3.950   4.817
 8243SOL     OW25627   0.219   4.256   0.223
 8243SOL    HW125628   0.244   4.160   0.212
 8243SOL    HW225629   0.279   4.298   0.290
 8244SOL     OW25630   0.222   0.255   3.964
 8244SOL    HW125631   0.319   0.234   3.979
 8244SOL    HW225632   0.214   0.324   3.892
 8245SOL     OW25633   3.502   1.292   3.429
 8245SOL    HW125634   3.543   1.217   3.378
 8245SOL    HW225635   3.478   1.366   3.367
 8246SOL     OW25636   0.374   4.626   6.690
 8246SOL    HW125637   0.337   4.596   6.603
 8246SOL    HW225638   0.454   4.684   6.674
 8247SOL     OW25639   2.488   6.271   3.955
 8247SOL    HW125640   2.467   6.226   3.869
 8247SOL    HW225641   2.532   6.206   4.017
 8248SOL     OW25642   0.771   5.218   5.193
 8248SOL    HW125643   0.741   5.169   5.112
 8248SOL    HW225644   0.694   5.267   5.233
 8249SOL     OW25645   2.652   0.865   5.389
 8249SOL    HW125646   2.565   0.838   5.348
 8249SOL    HW225647   2.638   0.945   5.447
 8250SOL     OW25648   3.349   1.971   1.247
 8250SOL    HW125649   3.319   2.034   1.319
 8250SOL    HW225650   3.433   1.925   1.277
 8251SOL     OW25651   6.224   1.031   4.089
 8251SOL    HW125652   6.220   0.961   4.161
 8251SOL    HW225653   6.162   1.106   4.112
 8252SOL     OW25654   3.734   1.308   0.678
 8252SOL    HW125655   3.662   1.283   0.742
 8252SOL    HW225656   3.742   1.237   0.608
 8253SOL     OW25657   3.806   5.770   0.113
 8253SOL    HW125658   3.805   5.868   0.134
 8253SOL    HW225659   3.835   5.756   0.019
 8254SOL     OW25660   5.589   4.408   6.249
 8254SOL    HW125661   5.594   4.348   6.169
 8254SOL    HW225662   5.679   4.448   6.266
 8255SOL     OW25663   1.325   0.190   6.065
 8255SOL    HW125664   1.324   0.136   6.149
 8255SOL    HW225665   1.234   0.226   6.047
 8256SOL     OW25666   6.525   0.301   2.940
 8256SOL    HW125667   6.575   0.387   2.927
 8256SOL    HW225668   6.434   0.310   2.901
 8257SOL     OW25669   5.845   4.576   3.972
 8257SOL    HW125670   5.760   4.578   4.023
 8257SOL    HW225671   5.921   4.603   4.031
 8258SOL     OW25672   5.166   3.058   1.504
 8258SOL    HW125673   5.204   3.097   1.420
 8258SOL    HW225674   5.149   2.960   1.491
 8259SOL     OW25675   3.666   1.970   5.227
 8259SOL    HW125676   3.752   1.949   5.180
 8259SOL    HW225677   3.664   1.921   5.314
 8260SOL     OW25678   2.030   5.896   1.533
 8260SOL    HW125679   1.962   5.914   1.604
 8260SOL    HW225680   2.068   5.983   1.500
 8261SOL     OW25681   5.012   6.893   3.675
 8261SOL    HW125682   4.976   6.802   3.656
 8261SOL    HW225683   5.001   6.914   3.772
 8262SOL     OW25684   0.915   4.482   0.733
 8262SOL    HW125685   0.974   4.500   0.655
 8262SOL    HW225686   0.848   4.412   0.709
 8263SOL     OW25687   6.788   2.944   6.836
 8263SOL    HW125688   6.832   3.004   6.769
 8263SOL    HW225689   6.856   2.916   6.905
 8264SOL     OW25690   1.293   0.088   1.514
 8264SOL    HW125691   1.224   0.074   1.585
 8264SOL    HW225692   1.342   0.174   1.532
 8265SOL     OW25693   5.026   0.557   1.646
 8265SOL    HW125694   4.933   0.580   1.676
 8265SOL    HW225695   5.046   0.606   1.561
 8266SOL     OW25696   3.254   0.175   5.200
 8266SOL    HW125697   3.351   0.185   5.177
 8266SOL    HW225698   3.211   0.115   5.133
 8267SOL     OW25699   1.815   4.959   1.405
 8267SOL    HW125700   1.779   4.941   1.314
 8267SOL    HW225701   1.903   4.913   1.416
 8268SOL     OW25702   2.928   4.586   5.654
 8268SOL    HW125703   2.844   4.633   5.627
 8268SOL    HW225704   3.007   4.643   5.632
 8269SOL     OW25705   4.671   2.175   3.023
 8269SOL    HW125706   4.636   2.081   3.021
 8269SOL    HW225707   4.595   2.239   3.030
 8270SOL     OW25708   3.337   5.501   5.733
 8270SOL    HW125709   3.356   5.411   5.692
 8270SOL    HW225710   3.381   5.572   5.678
 8271SOL     OW25711   6.860   6.531   3.967
 8271SOL    HW125712   6.841   6.526   4.065
 8271SOL    HW225713   6.807   6.605   3.927
 8272SOL     OW25714   0.563   1.241   2.169
 8272SOL    HW125715   0.637   1.239   2.236
 8272SOL    HW225716   0.599   1.222   2.078
 8273SOL     OW25717   2.922   1.334   0.145
 8273SOL    HW125718   2.908   1.317   0.048
 8273SOL    HW225719   2.884   1.424   0.169
 8274SOL     OW25720   4.254   4.362   6.205
 8274SOL    HW125721   4.286   4.318   6.120
 8274SOL    HW225722   4.330   4.412   6.246
 8275SOL     OW25723   5.589   0.232   4.786
 8275SOL    HW125724   5.633   0.224   4.876
 8275SOL    HW225725   5.609   0.322   4.747
 8276SOL     OW25726   6.646   2.034   5.629
 8276SOL    HW125727   6.650   2.052   5.728
 8276SOL    HW225728   6.688   2.110   5.580
 8277SOL     OW25729   2.560   6.120   5.554
 8277SOL    HW125730   2.503   6.194   5.519
 8277SOL    HW225731   2.556   6.042   5.490
 8278SOL     OW25732   2.735   1.475   6.329
 8278SOL    HW125733   2.794   1.461   6.249
 8278SOL    HW225734   2.677   1.555   6.314
 8279SOL     OW25735   5.996   5.598   6.128
 8279SOL    HW125736   6.033   5.657   6.199
 8279SOL    HW225737   6.036   5.506   6.137
 8280SOL     OW25738   4.536   2.308   0.734
 8280SOL    HW125739   4.570   2.337   0.824
 8280SOL    HW225740   4.577   2.364   0.663
 8281SOL     OW25741   2.258   4.708   1.179
 8281SOL    HW125742   2.313   4.779   1.223
 8281SOL    HW225743   2.263   4.624   1.233
 8282SOL     OW25744   2.680   3.176   0.381
 8282SOL    HW125745   2.613   3.249   0.376
 8282SOL    HW225746   2.679   3.123   0.296
 8283SOL     OW25747   0.927   4.394   3.907
 8283SOL    HW125748   0.859   4.328   3.938
 8283SOL    HW225749   0.985   4.352   3.838
 8284SOL     OW25750   1.490   3.850   2.407
 8284SOL    HW125751   1.476   3.904   2.324
 8284SOL    HW225752   1.413   3.787   2.418
 8285SOL     OW25753   3.282   3.296   5.174
 8285SOL    HW125754   3.338   3.267   5.251
 8285SOL    HW225755   3.241   3.215   5.130
 8286SOL     OW25756   5.451   1.861   5.031
 8286SOL    HW125757   5.379   1.895   4.971
 8286SOL    HW225758   5.448   1.761   5.032
 8287SOL     OW25759   1.338   6.382   3.638
 8287SOL    HW125760   1.374   6.467   3.598
 8287SOL    HW225761   1.245   6.397   3.670
 8288SOL     OW25762   1.176   2.367   2.399
 8288SOL    HW125763   1.121   2.302   2.346
 8288SOL    HW225764   1.164   2.349   2.496
 8289SOL     OW25765   5.978   0.617   6.230
 8289SOL    HW125766   5.909   0.655   6.292
 8289SOL    HW225767   5.978   0.517   6.238
 8290SOL     OW25768   4.171   2.330   1.696
 8290SOL    HW125769   4.096   2.278   1.655
 8290SOL    HW225770   4.194   2.407   1.637
 8291SOL     OW25771   5.806   5.935   6.628
 8291SOL    HW125772   5.829   5.955   6.533
 8291SOL    HW225773   5.707   5.941   6.641
 8292SOL     OW25774   2.015   5.579   5.803
 8292SOL    HW125775   1.937   5.519   5.785
 8292SOL    HW225776   2.093   5.549   5.748
 8293SOL     OW25777   1.534   4.044   1.775
 8293SOL    HW125778   1.548   3.974   1.705
 8293SOL    HW225779   1.544   4.135   1.733
 8294SOL     OW25780   5.916   3.489   4.952
 8294SOL    HW125781   5.853   3.564   4.974
 8294SOL    HW225782   5.905   3.416   5.019
 8295SOL     OW25783   5.331   3.556   2.567
 8295SOL    HW125784   5.338   3.642   2.616
 8295SOL    HW225785   5.423   3.516   2.556
 8296SOL     OW25786   3.750   4.805   6.995
 8296SOL    HW125787   3.692   4.760   6.927
 8296SOL    HW225788   3.706   4.801   0.062
 8297SOL     OW25789   6.769   3.403   2.027
 8297SOL    HW125790   6.681   3.384   2.070
 8297SOL    HW225791   6.784   3.338   1.952
 8298SOL     OW25792   0.074   0.227   6.699
 8298SOL    HW125793   0.010   0.232   6.622
 8298SOL    HW225794   0.042   0.286   6.773
 8299SOL     OW25795   0.827   3.048   1.163
 8299SOL    HW125796   0.781   3.089   1.242
 8299SOL    HW225797   0.798   3.094   1.080
 8300SOL     OW25798   6.047   6.994   4.866
 8300SOL    HW125799   6.085   6.964   4.953
 8300SOL    HW225800   5.996   0.056   4.880
 8301SOL     OW25801   4.573   0.196   6.748
 8301SOL    HW125802   4.571   0.096   6.757
 8301SOL    HW225803   4.480   0.230   6.739
 8302SOL     OW25804   4.011   6.874   5.382
 8302SOL    HW125805   3.985   6.931   5.305
 8302SOL    HW225806   4.111   6.877   5.394
 8303SOL     OW25807   6.922   0.196   3.514
 8303SOL    HW125808   6.865   0.137   3.571
 8303SOL    HW225809   6.875   0.215   3.428
 8304SOL     OW25810   5.675   5.239   2.083
 8304SOL    HW125811   5.594   5.286   2.119
 8304SOL    HW225812   5.667   5.141   2.099
 8305SOL     OW25813   3.938   5.218   4.499
 8305SOL    HW125814   3.842   5.192   4.491
 8305SOL    HW225815   3.948   5.317   4.488
 8306SOL     OW25816   6.482   1.275   2.589
 8306SOL    HW125817   6.430   1.326   2.520
 8306SOL    HW225818   6.427   1.199   2.622
 8307SOL     OW25819   3.245   4.874   1.501
 8307SOL    HW125820   3.284   4.804   1.441
 8307SOL    HW225821   3.185   4.934   1.449
 8308SOL     OW25822   2.019   4.242   0.493
 8308SOL    HW125823   1.991   4.231   0.588
 8308SOL    HW225824   2.118   4.258   0.489
 8309SOL     OW25825   6.119   5.052   3.638
 8309SOL    HW125826   6.129   4.954   3.626
 8309SOL    HW225827   6.039   5.085   3.587
 8310SOL     OW25828   1.201   5.515   0.461
 8310SOL    HW125829   1.145   5.542   0.540
 8310SOL    HW225830   1.180   5.574   0.383
 8311SOL     OW25831   5.228   0.384   4.640
 8311SOL    HW125832   5.278   0.315   4.692
 8311SOL    HW225833   5.288   0.426   4.573
 8312SOL     OW25834   5.512   1.102   0.506
 8312SOL    HW125835   5.490   1.199   0.512
 8312SOL    HW225836   5.531   1.078   0.410
 8313SOL     OW25837   4.244   6.861   5.648
 8313SOL    HW125838   4.161   6.897   5.690
 8313SOL    HW225839   4.278   6.926   5.579
 8314SOL     OW25840   5.823   6.726   6.693
 8314SOL    HW125841   5.854   6.760   6.782
 8314SOL    HW225842   5.731   6.760   6.675
 8315SOL     OW25843   3.687   4.055   2.776
 8315SOL    HW125844   3.696   4.055   2.676
 8315SOL    HW225845   3.757   3.996   2.815
 8316SOL     OW25846   1.763   3.339   0.043
 8316SOL    HW125847   1.785   3.271   0.113
 8316SOL    HW225848   1.674   3.381   0.065
 8317SOL     OW25849   2.782   1.927   4.052
 8317SOL    HW125850   2.693   1.974   4.053
 8317SOL    HW225851   2.843   1.972   4.117
 8318SOL     OW25852   4.713   0.880   5.602
 8318SOL    HW125853   4.619   0.910   5.586
 8318SOL    HW225854   4.769   0.957   5.630
 8319SOL     OW25855   2.074   6.848   6.873
 8319SOL    HW125856   2.011   6.832   6.949
 8319SOL    HW225857   2.159   6.887   6.908
 8320SOL     OW25858   3.593   3.605   3.424
 8320SOL    HW125859   3.549   3.618   3.335
 8320SOL    HW225860   3.552   3.667   3.491
 8321SOL     OW25861   0.400   0.169   6.295
 8321SOL    HW125862   0.367   0.076   6.287
 8321SOL    HW225863   0.324   0.233   6.283
 8322SOL     OW25864   0.120   1.433   0.290
 8322SOL    HW125865   0.081   1.360   0.235
 8322SOL    HW225866   0.218   1.418   0.300
 8323SOL     OW25867   3.664   4.529   1.361
 8323SOL    HW125868   3.727   4.594   1.319
 8323SOL    HW225869   3.581   4.523   1.305
 8324SOL     OW25870   5.716   0.567   0.268
 8324SOL    HW125871   5.720   0.598   0.363
 8324SOL    HW225872   5.744   0.642   0.207
 8325SOL     OW25873   1.119   4.211   5.174
 8325SOL    HW125874   1.193   4.187   5.238
 8325SOL    HW225875   1.116   4.145   5.099
 8326SOL     OW25876   4.357   3.277   6.834
 8326SOL    HW125877   4.375   3.217   6.911
 8326SOL    HW225878   4.258   3.280   6.817
 8327SOL     OW25879   0.902   7.005   5.599
 8327SOL    HW125880   0.811   0.003   5.564
 8327SOL    HW225881   0.939   6.926   5.551
 8328SOL     OW25882   1.819   6.468   6.114
 8328SOL    HW125883   1.720   6.457   6.123
 8328SOL    HW225884   1.862   6.377   6.115
 8329SOL     OW25885   7.011   2.603   4.941
 8329SOL    HW125886   6.999   2.596   4.842
 8329SOL    HW225887   0.081   2.577   4.965
 8330SOL     OW25888   3.356   1.367   6.662
 8330SOL    HW125889   3.333   1.415   6.746
 8330SOL    HW225890   3.319   1.274   6.665
 8331SOL     OW25891   2.667   0.926   1.044
 8331SOL    HW125892   2.753   0.965   1.010
 8331SOL    HW225893   2.642   0.970   1.130
 8332SOL     OW25894   5.480   5.454   2.117
 8332SOL    HW125895   5.441   5.510   2.044
 8332SOL    HW225896   5.556   5.503   2.160
 8333SOL     OW25897   2.191   4.792   0.213
 8333SOL    HW125898   2.289   4.779   0.228
 8333SOL    HW225899   2.141   4.756   0.292
 8334SOL     OW25900   2.698   2.530   6.197
 8334SOL    HW125901   2.723   2.460   6.130
 8334SOL    HW225902   2.745   2.511   6.284
 8335SOL     OW25903   4.106   2.622   6.925
 8335SOL    HW125904   4.069   2.689   6.861
 8335SOL    HW225905   4.035   2.597   6.992
 8336SOL     OW25906   1.311   3.710   3.396
 8336SOL    HW125907   1.364   3.720   3.312
 8336SOL    HW225908   1.336   3.784   3.460
 8337SOL     OW25909   0.676   6.932   4.286
 8337SOL    HW125910   0.609   6.863   4.258
 8337SOL    HW225911   0.763   6.888   4.308
 8338SOL     OW25912   3.790   5.703   1.857
 8338SOL    HW125913   3.713   5.755   1.893
 8338SOL    HW225914   3.873   5.758   1.863
 8339SOL     OW25915   0.086   1.054   1.549
 8339SOL    HW125916   0.065   0.981   1.613
 8339SOL    HW225917   0.042   1.139   1.579
 8340SOL     OW25918   5.147   4.106   0.378
 8340SOL    HW125919   5.054   4.073   0.364
 8340SOL    HW225920   5.206   4.070   0.305
 8341SOL     OW25921   3.543   0.449   6.947
 8341SOL    HW125922   3.482   0.509   6.897
 8341SOL    HW225923   3.527   0.460   0.022
 8342SOL     OW25924   4.064   6.913   0.261
 8342SOL    HW125925   4.060   6.930   0.359
 8342SOL    HW225926   3.972   6.903   0.225
 8343SOL     OW25927   6.076   5.657   3.697
 8343SOL    HW125928   6.119   5.630   3.783
 8343SOL    HW225929   6.045   5.752   3.703
 8344SOL     OW25930   6.626   4.598   4.634
 8344SOL    HW125931   6.689   4.659   4.586
 8344SOL    HW225932   6.623   4.510   4.587
 8345SOL     OW25933   4.736   1.938   3.892
 8345SOL    HW125934   4.808   2.006   3.899
 8345SOL    HW225935   4.648   1.980   3.912
 8346SOL     OW25936   3.591   3.002   6.020
 8346SOL    HW125937   3.653   2.971   5.948
 8346SOL    HW225938   3.633   3.078   6.070
 8347SOL     OW25939   3.618   6.323   6.588
 8347SOL    HW125940   3.580   6.367   6.506
 8347SOL    HW225941   3.642   6.229   6.567
 8348SOL     OW25942   2.446   6.848   1.645
 8348SOL    HW125943   2.378   6.921   1.653
 8348SOL    HW225944   2.455   6.822   1.549
 8349SOL     OW25945   1.101   6.208   1.524
 8349SOL    HW125946   1.179   6.211   1.461
 8349SOL    HW225947   1.134   6.199   1.618
 8350SOL     OW25948   2.862   6.182   5.969
 8350SOL    HW125949   2.805   6.101   5.954
 8350SOL    HW225950   2.841   6.222   6.059
 8351SOL     OW25951   5.810   5.636   4.035
 8351SOL    HW125952   5.798   5.581   4.118
 8351SOL    HW225953   5.829   5.576   3.958
 8352SOL     OW25954   1.691   0.122   3.118
 8352SOL    HW125955   1.766   0.162   3.065
 8352SOL    HW225956   1.635   0.065   3.058
 8353SOL     OW25957   1.049   4.343   1.253
 8353SOL    HW125958   1.091   4.337   1.162
 8353SOL    HW225959   0.983   4.417   1.254
 8354SOL     OW25960   3.482   6.493   3.920
 8354SOL    HW125961   3.438   6.580   3.940
 8354SOL    HW225962   3.541   6.502   3.840
 8355SOL     OW25963   2.394   0.795   5.259
 8355SOL    HW125964   2.326   0.783   5.331
 8355SOL    HW225965   2.400   0.711   5.204
 8356SOL     OW25966   0.466   5.444   1.475
 8356SOL    HW125967   0.483   5.538   1.445
 8356SOL    HW225968   0.516   5.427   1.561
 8357SOL     OW25969   3.635   5.780   5.617
 8357SOL    HW125970   3.583   5.850   5.567
 8357SOL    HW225971   3.593   5.691   5.601
 8358SOL     OW25972   0.668   2.987   4.849
 8358SOL    HW125973   0.611   2.919   4.894
 8358SOL    HW225974   0.753   2.945   4.818
 8359SOL     OW25975   2.163   1.452   4.618
 8359SOL    HW125976   2.130   1.447   4.524
 8359SOL    HW225977   2.151   1.544   4.653
 8360SOL     OW25978   4.721   6.999   1.301
 8360SOL    HW125979   4.659   6.983   1.377
 8360SOL    HW225980   4.682   6.960   1.217
 8361SOL     OW25981   3.097   0.727   0.088
 8361SOL    HW125982   3.189   0.695   0.110
 8361SOL    HW225983   3.086   0.732   7.012
 8362SOL     OW25984   5.605   2.249   1.127
 8362SOL    HW125985   5.517   2.219   1.163
 8362SOL    HW225986   5.592   2.291   1.037
 8363SOL     OW25987   4.921   1.276   0.839
 8363SOL    HW125988   4.899   1.252   0.934
 8363SOL    HW225989   4.869   1.217   0.777
 8364SOL     OW25990   0.297   3.290   4.284
 8364SOL    HW125991   0.388   3.312   4.318
 8364SOL    HW225992   0.229   3.329   4.346
 8365SOL     OW25993   1.804   2.471   3.016
 8365SOL    HW125994   1.861   2.392   2.997
 8365SOL    HW225995   1.708   2.444   3.018
 8366SOL     OW25996   3.937   4.910   0.741
 8366SOL    HW125997   3.856   4.854   0.760
 8366SOL    HW225998   3.908   5.000   0.709
 8367SOL     OW25999   3.267   5.204   5.289
 8367SOL    HW126000   3.176   5.163   5.298
 8367SOL    HW226001   3.328   5.139   5.243
 8368SOL     OW26002   1.189   5.953   0.216
 8368SOL    HW126003   1.255   5.890   0.256
 8368SOL    HW226004   1.121   5.901   0.164
 8369SOL     OW26005   0.618   1.050   6.738
 8369SOL    HW126006   0.657   1.140   6.755
 8369SOL    HW226007   0.542   1.059   6.673
 8370SOL     OW26008   2.280   0.472   5.996
 8370SOL    HW126009   2.289   0.442   6.091
 8370SOL    HW226010   2.252   0.568   5.994
 8371SOL     OW26011   1.924   3.280   6.432
 8371SOL    HW126012   1.984   3.349   6.472
 8371SOL    HW226013   1.834   3.320   6.413
 8372SOL     OW26014   1.512   5.686   1.398
 8372SOL    HW126015   1.563   5.702   1.482
 8372SOL    HW226016   1.522   5.591   1.370
 8373SOL     OW26017   1.890   1.023   4.863
 8373SOL    HW126018   1.829   0.957   4.907
 8373SOL    HW226019   1.840   1.108   4.846
 8374SOL     OW26020   0.118   0.626   4.914
 8374SOL    HW126021   0.126   0.693   4.841
 8374SOL    HW226022   0.075   0.669   4.994
 8375SOL     OW26023   3.920   7.023   6.142
 8375SOL    HW126024   3.839   0.043   6.102
 8375SOL    HW226025   3.934   6.934   6.099
 8376SOL     OW26026   1.295   1.498   3.669
 8376SOL    HW126027   1.310   1.477   3.573
 8376SOL    HW226028   1.376   1.474   3.722
 8377SOL     OW26029   5.889   5.907   0.664
 8377SOL    HW126030   5.810   5.963   0.691
 8377SOL    HW226031   5.957   5.966   0.621
 8378SOL     OW26032   3.852   5.102   3.934
 8378SOL    HW126033   3.846   5.192   3.891
 8378SOL    HW226034   3.948   5.076   3.942
 8379SOL     OW26035   4.812   2.705   2.304
 8379SOL    HW126036   4.755   2.626   2.281
 8379SOL    HW226037   4.889   2.676   2.361
 8380SOL     OW26038   7.017   6.893   6.679
 8380SOL    HW126039   7.018   6.927   6.585
 8380SOL    HW226040   6.923   6.879   6.708
 8381SOL     OW26041   7.020   2.491   3.128
 8381SOL    HW126042   0.021   2.554   3.202
 8381SOL    HW226043   0.015   2.397   3.158
 8382SOL     OW26044   2.306   6.699   0.931
 8382SOL    HW126045   2.242   6.646   0.986
 8382SOL    HW226046   2.256   6.766   0.876
 8383SOL     OW26047   2.843   0.208   5.680
 8383SOL    HW126048   2.749   0.177   5.694
 8383SOL    HW226049   2.855   0.238   5.586
 8384SOL     OW26050   0.010   1.494   0.518
 8384SOL    HW126051   0.041   1.464   0.427
 8384SOL    HW226052   0.078   1.469   0.586
 8385SOL     OW26053   4.363   1.942   0.816
 8385SOL    HW126054   4.325   2.024   0.774
 8385SOL    HW226055   4.342   1.862   0.760
 8386SOL     OW26056   2.238   5.412   1.310
 8386SOL    HW126057   2.256   5.332   1.252
 8386SOL    HW226058   2.316   5.474   1.305
 8387SOL     OW26059   1.741   2.052   1.475
 8387SOL    HW126060   1.833   2.054   1.514
 8387SOL    HW226061   1.725   1.964   1.430
 8388SOL     OW26062   1.357   6.943   0.643
 8388SOL    HW126063   1.263   6.920   0.668
 8388SOL    HW226064   1.412   6.859   0.640
 8389SOL     OW26065   0.323   3.535   4.474
 8389SOL    HW126066   0.274   3.563   4.556
 8389SOL    HW226067   0.332   3.614   4.412
 8390SOL     OW26068   4.057   6.796   6.917
 8390SOL    HW126069   4.108   6.711   6.931
 8390SOL    HW226070   4.118   6.874   6.933
 8391SOL     OW26071   4.778   5.103   1.545
 8391SOL    HW126072   4.865   5.120   1.590
 8391SOL    HW226073   4.722   5.186   1.546
 8392SOL     OW26074   6.814   5.534   5.656
 8392SOL    HW126075   6.729   5.483   5.642
 8392SOL    HW226076   6.796   5.612   5.717
 8393SOL     OW26077   0.086   6.621   4.140
 8393SOL    HW126078   0.000   6.602   4.188
 8393SOL    HW226079   0.071   6.692   4.072
 8394SOL     OW26080   6.794   2.801   1.483
 8394SOL    HW126081   6.758   2.890   1.511
 8394SOL    HW226082   6.830   2.752   1.562
 8395SOL     OW26083   1.656   6.200   4.421
 8395SOL    HW126084   1.648   6.154   4.332
 8395SOL    HW226085   1.753   6.211   4.445
 8396SOL     OW26086   4.524   4.539   2.204
 8396SOL    HW126087   4.585   4.507   2.277
 8396SOL    HW226088   4.531   4.478   2.125
 8397SOL     OW26089   2.395   0.689   3.630
 8397SOL    HW126090   2.407   0.754   3.705
 8397SOL    HW226091   2.485   0.656   3.600
 8398SOL     OW26092   4.285   1.483   6.390
 8398SOL    HW126093   4.242   1.477   6.480
 8398SOL    HW226094   4.380   1.452   6.397
 8399SOL     OW26095   6.423   0.257   0.085
 8399SOL    HW126096   6.441   0.327   0.154
 8399SOL    HW226097   6.333   0.273   0.044
 8400SOL     OW26098   1.010   6.954   3.734
 8400SOL    HW126099   0.915   6.968   3.763
 8400SOL    HW226100   1.070   6.962   3.814
 8401SOL     OW26101   3.396   2.327   6.487
 8401SOL    HW126102   3.469   2.379   6.444
 8401SOL    HW226103   3.314   2.385   6.495
 8402SOL     OW26104   4.052   1.780   5.862
 8402SOL    HW126105   3.964   1.794   5.908
 8402SOL    HW226106   4.068   1.682   5.849
 8403SOL     OW26107   0.699   1.757   3.278
 8403SOL    HW126108   0.692   1.694   3.200
 8403SOL    HW226109   0.794   1.759   3.311
 8404SOL     OW26110   5.315   5.637   6.994
 8404SOL    HW126111   5.226   5.618   0.011
 8404SOL    HW226112   5.320   5.596   6.903
 8405SOL     OW26113   1.845   1.105   6.697
 8405SOL    HW126114   1.834   1.112   6.796
 8405SOL    HW226115   1.789   1.030   6.662
 8406SOL     OW26116   4.140   0.209   0.980
 8406SOL    HW126117   4.169   0.161   1.062
 8406SOL    HW226118   4.142   0.147   0.901
 8407SOL     OW26119   4.962   6.541   3.552
 8407SOL    HW126120   5.053   6.567   3.517
 8407SOL    HW226121   4.894   6.607   3.518
 8408SOL     OW26122   5.015   2.598   2.787
 8408SOL    HW126123   4.933   2.652   2.805
 8408SOL    HW226124   5.041   2.550   2.871
 8409SOL     OW26125   6.020   3.133   3.028
 8409SOL    HW126126   6.075   3.083   2.961
 8409SOL    HW226127   5.969   3.067   3.084
 8410SOL     OW26128   4.486   0.645   1.382
 8410SOL    HW126129   4.428   0.566   1.363
 8410SOL    HW226130   4.431   0.728   1.381
 8411SOL     OW26131   1.033   5.793   5.146
 8411SOL    HW126132   1.028   5.713   5.206
 8411SOL    HW226133   1.105   5.855   5.179
 8412SOL     OW26134   4.299   1.884   1.958
 8412SOL    HW126135   4.263   1.946   1.888
 8412SOL    HW226136   4.365   1.932   2.015
 8413SOL     OW26137   4.952   4.816   0.848
 8413SOL    HW126138   5.029   4.759   0.820
 8413SOL    HW226139   4.905   4.775   0.926
 8414SOL     OW26140   4.609   6.243   2.434
 8414SOL    HW126141   4.588   6.203   2.345
 8414SOL    HW226142   4.542   6.315   2.455
 8415SOL     OW26143   6.804   5.506   3.982
 8415SOL    HW126144   6.893   5.539   3.950
 8415SOL    HW226145   6.801   5.407   3.973
 8416SOL     OW26146   5.645   4.202   3.415
 8416SOL    HW126147   5.586   4.130   3.453
 8416SOL    HW226148   5.739   4.188   3.447
 8417SOL     OW26149   1.041   5.335   5.871
 8417SOL    HW126150   1.137   5.313   5.857
 8417SOL    HW226151   0.987   5.251   5.875
 8418SOL     OW26152   6.293   5.476   1.849
 8418SOL    HW126153   6.352   5.396   1.859
 8418SOL    HW226154   6.345   5.552   1.810
 8419SOL     OW26155   5.066   1.427   2.720
 8419SOL    HW126156   4.999   1.451   2.650
 8419SOL    HW226157   5.158   1.436   2.683
 8420SOL     OW26158   4.123   0.117   0.730
 8420SOL    HW126159   4.129   0.034   0.675
 8420SOL    HW226160   4.161   0.194   0.678
 8421SOL     OW26161   2.656   6.015   1.192
 8421SOL    HW126162   2.735   6.061   1.152
 8421SOL    HW226163   2.643   5.926   1.147
 8422SOL     OW26164   4.643   0.332   1.549
 8422SOL    HW126165   4.625   0.429   1.562
 8422SOL    HW226166   4.638   0.285   1.638
 8423SOL     OW26167   4.047   3.922   6.245
 8423SOL    HW126168   3.999   4.010   6.245
 8423SOL    HW226169   4.145   3.937   6.257
 8424SOL     OW26170   2.440   2.617   3.022
 8424SOL    HW126171   2.535   2.646   3.008
 8424SOL    HW226172   2.404   2.577   2.938
 8425SOL     OW26173   5.637   5.933   1.454
 8425SOL    HW126174   5.612   5.840   1.426
 8425SOL    HW226175   5.653   5.934   1.553
 8426SOL     OW26176   3.331   2.920   4.239
 8426SOL    HW126177   3.293   2.938   4.329
 8426SOL    HW226178   3.265   2.947   4.168
 8427SOL     OW26179   2.791   3.819   5.739
 8427SOL    HW126180   2.826   3.760   5.666
 8427SOL    HW226181   2.739   3.764   5.804
 8428SOL     OW26182   6.894   4.343   1.631
 8428SOL    HW126183   6.860   4.257   1.667
 8428SOL    HW226184   6.830   4.417   1.652
 8429SOL     OW26185   2.067   4.336   3.887
 8429SOL    HW126186   2.098   4.241   3.886
 8429SOL    HW226187   2.086   4.378   3.798
 8430SOL     OW26188   3.948   5.730   3.631
 8430SOL    HW126189   3.951   5.828   3.650
 8430SOL    HW226190   4.012   5.709   3.557
 8431SOL     OW26191   2.981   5.427   0.680
 8431SOL    HW126192   3.022   5.372   0.753
 8431SOL    HW226193   2.914   5.371   0.630
 8432SOL     OW26194   5.534   6.747   5.854
 8432SOL    HW126195   5.530   6.808   5.775
 8432SOL    HW226196   5.462   6.772   5.919
 8433SOL     OW26197   6.495   2.589   6.908
 8433SOL    HW126198   6.567   2.540   6.958
 8433SOL    HW226199   6.537   2.660   6.850
 8434SOL     OW26200   2.915   6.544   5.607
 8434SOL    HW126201   2.933   6.451   5.638
 8434SOL    HW226202   2.853   6.542   5.529
 8435SOL     OW26203   5.131   0.608   0.826
 8435SOL    HW126204   5.120   0.554   0.909
 8435SOL    HW226205   5.226   0.639   0.819
 8436SOL     OW26206   3.249   6.495   4.639
 8436SOL    HW126207   3.346   6.482   4.616
 8436SOL    HW226208   3.203   6.406   4.641
 8437SOL     OW26209   1.443   0.216   3.226
 8437SOL    HW126210   1.433   0.315   3.217
 8437SOL    HW226211   1.539   0.191   3.212
 8438SOL     OW26212   2.884   4.969   2.171
 8438SOL    HW126213   2.804   5.027   2.156
 8438SOL    HW226214   2.857   4.873   2.173
 8439SOL     OW26215   6.468   5.498   1.366
 8439SOL    HW126216   6.544   5.483   1.430
 8439SOL    HW226217   6.403   5.562   1.407
 8440SOL     OW26218   0.461   1.868   4.081
 8440SOL    HW126219   0.469   1.916   4.169
 8440SOL    HW226220   0.486   1.772   4.093
 8441SOL     OW26221   6.212   6.933   6.928
 8441SOL    HW126222   6.245   0.004   6.937
 8441SOL    HW226223   6.262   6.874   6.992
 8442SOL     OW26224   3.325   2.438   6.108
 8442SOL    HW126225   3.346   2.516   6.167
 8442SOL    HW226226   3.402   2.375   6.108
 8443SOL     OW26227   1.172   6.378   3.298
 8443SOL    HW126228   1.096   6.315   3.311
 8443SOL    HW226229   1.151   6.466   3.341
 8444SOL     OW26230   3.338   6.051   3.654
 8444SOL    HW126231   3.263   6.105   3.616
 8444SOL    HW226232   3.322   5.954   3.638
 8445SOL     OW26233   3.539   5.212   1.617
 8445SOL    HW126234   3.592   5.136   1.654
 8445SOL    HW226235   3.491   5.258   1.691
 8446SOL     OW26236   4.531   4.999   0.979
 8446SOL    HW126237   4.460   4.957   1.035
 8446SOL    HW226238   4.577   4.928   0.925
 8447SOL     OW26239   5.881   2.328   2.310
 8447SOL    HW126240   5.899   2.364   2.401
 8447SOL    HW226241   5.790   2.356   2.280
 8448SOL     OW26242   5.704   4.782   4.633
 8448SOL    HW126243   5.767   4.858   4.650
 8448SOL    HW226244   5.691   4.730   4.718
 8449SOL     OW26245   6.560   3.119   4.079
 8449SOL    HW126246   6.639   3.160   4.034
 8449SOL    HW226247   6.517   3.053   4.019
 8450SOL     OW26248   1.837   5.619   2.046
 8450SOL    HW126249   1.876   5.527   2.038
 8450SOL    HW226250   1.819   5.639   2.142
 8451SOL     OW26251   5.076   2.923   0.359
 8451SOL    HW126252   4.978   2.908   0.369
 8451SOL    HW226253   5.092   3.000   0.297
 8452SOL     OW26254   0.298   0.872   2.020
 8452SOL    HW126255   0.383   0.921   1.999
 8452SOL    HW226256   0.219   0.929   1.997
 8453SOL     OW26257   6.624   4.226   6.999
 8453SOL    HW126258   6.609   4.324   7.008
 8453SOL    HW226259   6.544   4.176   0.010
 8454SOL     OW26260   0.519   6.445   0.595
 8454SOL    HW126261   0.474   6.411   0.677
 8454SOL    HW226262   0.600   6.498   0.620
 8455SOL     OW26263   5.283   1.966   1.176
 8455SOL    HW126264   5.332   2.053   1.190
 8455SOL    HW226265   5.197   1.983   1.128
 8456SOL     OW26266   4.724   4.194   3.115
 8456SOL    HW126267   4.739   4.192   3.016
 8456SOL    HW226268   4.696   4.287   3.142
 8457SOL     OW26269   0.038   6.464   4.910
 8457SOL    HW126270   0.060   6.451   5.007
 8457SOL    HW226271   7.000   6.543   4.900
 8458SOL     OW26272   2.114   1.489   6.693
 8458SOL    HW126273   2.213   1.493   6.700
 8458SOL    HW226274   2.078   1.579   6.668
 8459SOL     OW26275   3.173   6.493   1.793
 8459SOL    HW126276   3.266   6.478   1.759
 8459SOL    HW226277   3.116   6.530   1.719
 8460SOL     OW26278   4.196   2.436   5.629
 8460SOL    HW126279   4.164   2.472   5.717
 8460SOL    HW226280   4.144   2.477   5.555
 8461SOL     OW26281   0.610   3.759   2.478
 8461SOL    HW126282   0.601   3.678   2.537
 8461SOL    HW226283   0.551   3.749   2.398
 8462SOL     OW26284   3.585   2.503   0.584
 8462SOL    HW126285   3.600   2.570   0.657
 8462SOL    HW226286   3.486   2.489   0.572
 8463SOL     OW26287   6.319   0.340   0.418
 8463SOL    HW126288   6.249   0.406   0.445
 8463SOL    HW226289   6.280   0.277   0.351
 8464SOL     OW26290   5.885   3.957   5.862
 8464SOL    HW126291   5.917   3.878   5.810
 8464SOL    HW226292   5.962   4.004   5.904
 8465SOL     OW26293   2.445   2.376   0.644
 8465SOL    HW126294   2.374   2.379   0.574
 8465SOL    HW226295   2.463   2.281   0.669
 8466SOL     OW26296   6.726   6.961   5.582
 8466SOL    HW126297   6.816   6.926   5.553
 8466SOL    HW226298   6.699   6.915   5.667
 8467SOL     OW26299   3.731   0.794   1.406
 8467SOL    HW126300   3.693   0.793   1.498
 8467SOL    HW226301   3.676   0.853   1.348
 8468SOL     OW26302   4.949   2.573   0.376
 8468SOL    HW126303   4.899   2.524   0.448
 8468SOL    HW226304   5.030   2.520   0.350
 8469SOL     OW26305   2.624   1.709   5.372
 8469SOL    HW126306   2.659   1.694   5.280
 8469SOL    HW226307   2.667   1.790   5.411
 8470SOL     OW26308   0.778   4.652   0.372
 8470SOL    HW126309   0.787   4.675   0.275
 8470SOL    HW226310   0.813   4.727   0.427
 8471SOL     OW26311   4.223   0.207   5.029
 8471SOL    HW126312   4.160   0.284   5.036
 8471SOL    HW226313   4.301   0.233   4.971
 8472SOL     OW26314   6.199   0.611   5.842
 8472SOL    HW126315   6.264   0.664   5.789
 8472SOL    HW226316   6.240   0.586   5.930
 8473SOL     OW26317   6.586   5.542   1.092
 8473SOL    HW126318   6.549   5.483   1.164
 8473SOL    HW226319   6.664   5.496   1.049
 8474SOL     OW26320   3.672   3.544   1.928
 8474SOL    HW126321   3.706   3.568   2.019
 8474SOL    HW226322   3.575   3.520   1.934
 8475SOL     OW26323   0.227   2.808   2.842
 8475SOL    HW126324   0.253   2.821   2.938
 8475SOL    HW226325   0.230   2.710   2.820
 8476SOL     OW26326   6.029   1.065   1.172
 8476SOL    HW126327   5.967   1.141   1.155
 8476SOL    HW226328   6.124   1.096   1.161
 8477SOL     OW26329   4.412   6.757   2.893
 8477SOL    HW126330   4.363   6.838   2.925
 8477SOL    HW226331   4.510   6.776   2.891
 8478SOL     OW26332   1.590   6.840   5.726
 8478SOL    HW126333   1.609   6.817   5.630
 8478SOL    HW226334   1.667   6.892   5.764
 8479SOL     OW26335   1.241   2.950   1.096
 8479SOL    HW126336   1.218   2.874   1.035
 8479SOL    HW226337   1.221   3.037   1.050
 8480SOL     OW26338   5.182   2.731   0.162
 8480SOL    HW126339   5.222   2.663   0.224
 8480SOL    HW226340   5.123   2.793   0.215
 8481SOL     OW26341   4.469   2.614   5.190
 8481SOL    HW126342   4.475   2.683   5.117
 8481SOL    HW226343   4.560   2.603   5.231
 8482SOL     OW26344   4.642   6.940   2.624
 8482SOL    HW126345   4.720   6.988   2.583
 8482SOL    HW226346   4.557   6.989   2.602
 8483SOL     OW26347   3.559   5.661   2.163
 8483SOL    HW126348   3.546   5.715   2.080
 8483SOL    HW226349   3.556   5.721   2.243
 8484SOL     OW26350   6.725   6.150   3.766
 8484SOL    HW126351   6.740   6.182   3.859
 8484SOL    HW226352   6.724   6.050   3.765
 8485SOL     OW26353   3.721   2.540   0.357
 8485SOL    HW126354   3.673   2.527   0.444
 8485SOL    HW226355   3.729   2.453   0.309
 8486SOL     OW26356   2.366   1.367   2.160
 8486SOL    HW126357   2.306   1.445   2.143
 8486SOL    HW226358   2.318   1.282   2.139
 8487SOL     OW26359   6.039   1.802   5.470
 8487SOL    HW126360   5.947   1.764   5.480
 8487SOL    HW226361   6.087   1.755   5.396
 8488SOL     OW26362   5.444   6.747   1.863
 8488SOL    HW126363   5.395   6.673   1.817
 8488SOL    HW226364   5.403   6.835   1.837
 8489SOL     OW26365   6.500   1.664   1.626
 8489SOL    HW126366   6.401   1.675   1.617
 8489SOL    HW226367   6.546   1.720   1.558
 8490SOL     OW26368   3.525   6.418   5.274
 8490SOL    HW126369   3.445   6.439   5.329
 8490SOL    HW226370   3.496   6.376   5.188
 8491SOL     OW26371   2.270   6.187   1.940
 8491SOL    HW126372   2.180   6.144   1.942
 8491SOL    HW226373   2.275   6.250   1.863
 8492SOL     OW26374   5.215   4.248   5.667
 8492SOL    HW126375   5.249   4.154   5.659
 8492SOL    HW226376   5.258   4.304   5.596
 8493SOL     OW26377   2.340   2.198   5.563
 8493SOL    HW126378   2.357   2.296   5.564
 8493SOL    HW226379   2.289   2.171   5.645
 8494SOL     OW26380   4.131   5.052   0.910
 8494SOL    HW126381   4.137   5.147   0.880
 8494SOL    HW226382   4.062   5.004   0.855
 8495SOL     OW26383   6.850   5.076   2.034
 8495SOL    HW126384   6.943   5.062   2.070
 8495SOL    HW226385   6.824   4.997   1.977
 8496SOL     OW26386   1.361   1.597   2.694
 8496SOL    HW126387   1.281   1.538   2.702
 8496SOL    HW226388   1.443   1.541   2.682
 8497SOL     OW26389   6.863   0.973   3.749
 8497SOL    HW126390   6.773   0.945   3.783
 8497SOL    HW226391   6.901   0.900   3.693
 8498SOL     OW26392   6.188   6.456   3.286
 8498SOL    HW126393   6.127   6.498   3.219
 8498SOL    HW226394   6.276   6.504   3.286
 8499SOL     OW26395   1.908   4.110   6.393
 8499SOL    HW126396   2.003   4.078   6.387
 8499SOL    HW226397   1.879   4.108   6.489
 8500SOL     OW26398   1.382   6.037   5.478
 8500SOL    HW126399   1.470   6.008   5.440
 8500SOL    HW226400   1.372   6.136   5.467
 8501SOL     OW26401   0.036   2.938   5.857
 8501SOL    HW126402   7.014   3.000   5.922
 8501SOL    HW226403   0.040   2.981   5.767
 8502SOL     OW26404   0.485   3.332   1.682
 8502SOL    HW126405   0.574   3.325   1.638
 8502SOL    HW226406   0.429   3.252   1.657
 8503SOL     OW26407   0.374   5.373   4.758
 8503SOL    HW126408   0.295   5.422   4.795
 8503SOL    HW226409   0.352   5.276   4.750
 8504SOL     OW26410   2.254   5.146   2.283
 8504SOL    HW126411   2.339   5.096   2.263
 8504SOL    HW226412   2.263   5.240   2.250
 8505SOL     OW26413   6.565   3.708   3.039
 8505SOL    HW126414   6.598   3.721   2.946
 8505SOL    HW226415   6.473   3.670   3.037
 8506SOL     OW26416   1.133   1.291   0.392
 8506SOL    HW126417   1.183   1.366   0.434
 8506SOL    HW226418   1.188   1.207   0.398
 8507SOL     OW26419   3.433   6.733   4.773
 8507SOL    HW126420   3.347   6.704   4.730
 8507SOL    HW226421   3.413   6.776   4.861
 8508SOL     OW26422   4.917   1.874   4.467
 8508SOL    HW126423   4.837   1.851   4.410
 8508SOL    HW226424   4.997   1.825   4.432
 8509SOL     OW26425   4.753   1.495   3.334
 8509SOL    HW126426   4.702   1.546   3.403
 8509SOL    HW226427   4.777   1.405   3.370
 8510SOL     OW26428   5.875   4.463   2.779
 8510SOL    HW126429   5.865   4.381   2.835
 8510SOL    HW226430   5.866   4.544   2.836
 8511SOL     OW26431   6.106   3.948   2.517
 8511SOL    HW126432   6.199   3.984   2.527
 8511SOL    HW226433   6.053   4.010   2.460
 8512SOL     OW26434   2.638   1.035   2.874
 8512SOL    HW126435   2.581   1.017   2.793
 8512SOL    HW226436   2.719   0.976   2.871
 8513SOL     OW26437   6.720   5.486   0.635
 8513SOL    HW126438   6.691   5.428   0.712
 8513SOL    HW226439   6.800   5.540   0.662
 8514SOL     OW26440   1.881   1.508   3.536
 8514SOL    HW126441   1.848   1.414   3.532
 8514SOL    HW226442   1.804   1.571   3.520
 8515SOL     OW26443   4.752   2.687   1.298
 8515SOL    HW126444   4.747   2.676   1.199
 8515SOL    HW226445   4.703   2.612   1.343
 8516SOL     OW26446   0.490   1.852   2.267
 8516SOL    HW126447   0.498   1.780   2.199
 8516SOL    HW226448   0.406   1.903   2.253
 8517SOL     OW26449   0.823   3.088   5.249
 8517SOL    HW126450   0.919   3.061   5.233
 8517SOL    HW226451   0.815   3.131   5.339
 8518SOL     OW26452   4.799   3.685   0.264
 8518SOL    HW126453   4.895   3.659   0.275
 8518SOL    HW226454   4.764   3.722   0.350
 8519SOL     OW26455   1.838   5.096   1.870
 8519SOL    HW126456   1.876   5.118   1.959
 8519SOL    HW226457   1.909   5.105   1.800
 8520SOL     OW26458   3.586   1.570   0.929
 8520SOL    HW126459   3.635   1.656   0.916
 8520SOL    HW226460   3.630   1.516   1.001
 8521SOL     OW26461   1.799   5.033   5.964
 8521SOL    HW126462   1.808   4.988   5.875
 8521SOL    HW226463   1.890   5.055   5.999
 8522SOL     OW26464   1.461   5.920   1.955
 8522SOL    HW126465   1.425   6.011   1.935
 8522SOL    HW226466   1.560   5.920   1.943
 8523SOL     OW26467   3.488   6.464   6.395
 8523SOL    HW126468   3.506   6.546   6.341
 8523SOL    HW226469   3.395   6.431   6.375
 8524SOL     OW26470   1.039   1.967   4.863
 8524SOL    HW126471   0.972   1.912   4.913
 8524SOL    HW226472   1.029   1.950   4.765
 8525SOL     OW26473   6.123   4.304   2.905
 8525SOL    HW126474   6.113   4.347   2.815
 8525SOL    HW226475   6.156   4.373   2.970
 8526SOL     OW26476   3.182   4.257   0.787
 8526SOL    HW126477   3.110   4.190   0.805
 8526SOL    HW226478   3.259   4.241   0.850
 8527SOL     OW26479   3.139   7.011   5.014
 8527SOL    HW126480   3.062   6.992   5.074
 8527SOL    HW226481   3.106   7.021   4.920
 8528SOL     OW26482   5.144   2.829   5.948
 8528SOL    HW126483   5.164   2.778   6.031
 8528SOL    HW226484   5.138   2.766   5.871
 8529SOL     OW26485   0.719   6.932   6.882
 8529SOL    HW126486   0.723   6.915   6.783
 8529SOL    HW226487   0.696   6.847   6.929
 8530SOL     OW26488   1.871   4.096   5.577
 8530SOL    HW126489   1.946   4.099   5.643
 8530SOL    HW226490   1.907   4.072   5.487
 8531SOL     OW26491   5.682   4.256   2.430
 8531SOL    HW126492   5.663   4.262   2.332
 8531SOL    HW226493   5.616   4.194   2.473
 8532SOL     OW26494   4.037   4.936   4.431
 8532SOL    HW126495   4.048   4.842   4.399
 8532SOL    HW226496   3.988   4.990   4.363
 8533SOL     OW26497   2.053   0.019   5.934
 8533SOL    HW126498   2.106   6.964   5.900
 8533SOL    HW226499   2.040   0.011   6.032
 8534SOL     OW26500   0.045   3.700   3.746
 8534SOL    HW126501   0.010   3.788   3.778
 8534SOL    HW226502   7.007   3.627   3.776
 8535SOL     OW26503   0.404   1.792   5.167
 8535SOL    HW126504   0.426   1.702   5.130
 8535SOL    HW226505   0.488   1.839   5.194
 8536SOL     OW26506   5.923   1.806   4.594
 8536SOL    HW126507   5.980   1.882   4.561
 8536SOL    HW226508   5.922   1.733   4.526
 8537SOL     OW26509   5.535   1.238   2.072
 8537SOL    HW126510   5.555   1.215   1.977
 8537SOL    HW226511   5.511   1.155   2.123
 8538SOL     OW26512   0.427   1.275   5.074
 8538SOL    HW126513   0.507   1.246   5.126
 8538SOL    HW226514   0.435   1.242   4.980
 8539SOL     OW26515   6.769   2.095   1.865
 8539SOL    HW126516   6.796   2.001   1.884
 8539SOL    HW226517   6.768   2.147   1.950
 8540SOL     OW26518   3.276   1.588   0.128
 8540SOL    HW126519   3.228   1.507   0.161
 8540SOL    HW226520   3.225   1.670   0.155
 8541SOL     OW26521   2.986   2.056   4.349
 8541SOL    HW126522   2.892   2.048   4.383
 8541SOL    HW226523   3.016   1.967   4.315
 8542SOL     OW26524   2.663   4.729   5.963
 8542SOL    HW126525   2.591   4.789   5.998
 8542SOL    HW226526   2.652   4.637   6.001
 8543SOL     OW26527   2.889   1.446   6.111
 8543SOL    HW126528   2.827   1.457   6.034
 8543SOL    HW226529   2.956   1.375   6.090
 8544SOL     OW26530   5.392   2.781   4.612
 8544SOL    HW126531   5.457   2.742   4.546
 8544SOL    HW226532   5.322   2.714   4.634
 8545SOL     OW26533   3.866   6.899   4.724
 8545SOL    HW126534   3.900   6.971   4.785
 8545SOL    HW226535   3.872   6.811   4.770
 8546SOL     OW26536   6.849   0.025   2.135
 8546SOL    HW126537   6.786   7.005   2.070
 8546SOL    HW226538   6.879   6.980   2.202
 8547SOL     OW26539   1.011   6.951   6.066
 8547SOL    HW126540   1.032   0.025   6.053
 8547SOL    HW226541   0.964   6.916   5.984
 8548SOL     OW26542   6.725   3.801   5.395
 8548SOL    HW126543   6.683   3.733   5.455
 8548SOL    HW226544   6.805   3.762   5.351
 8549SOL     OW26545   0.873   2.824   4.619
 8549SOL    HW126546   0.898   2.801   4.713
 8549SOL    HW226547   0.919   2.762   4.556
 8550SOL     OW26548   1.428   4.698   0.114
 8550SOL    HW126549   1.437   4.722   0.017
 8550SOL    HW226550   1.426   4.781   0.169
 8551SOL     OW26551   2.912   2.936   7.014
 8551SOL    HW126552   2.953   3.027   7.006
 8551SOL    HW226553   2.983   2.870   0.015
 8552SOL     OW26554   1.974   0.676   3.116
 8552SOL    HW126555   1.922   0.748   3.070
 8552SOL    HW226556   1.934   0.658   3.206
 8553SOL     OW26557   4.467   3.984   6.912
 8553SOL    HW126558   4.379   4.031   6.925
 8553SOL    HW226559   4.452   3.898   6.865
 8554SOL     OW26560   0.324   5.667   0.836
 8554SOL    HW126561   0.330   5.652   0.737
 8554SOL    HW226562   0.230   5.655   0.867
 8555SOL     OW26563   3.837   1.499   3.396
 8555SOL    HW126564   3.750   1.509   3.444
 8555SOL    HW226565   3.901   1.448   3.454
 8556SOL     OW26566   2.241   6.426   5.002
 8556SOL    HW126567   2.156   6.373   4.992
 8556SOL    HW226568   2.311   6.387   4.941
 8557SOL     OW26569   6.570   0.235   2.247
 8557SOL    HW126570   6.660   0.279   2.245
 8557SOL    HW226571   6.517   0.265   2.167
 8558SOL     OW26572   2.050   5.408   2.892
 8558SOL    HW126573   2.072   5.391   2.988
 8558SOL    HW226574   2.135   5.418   2.840
 8559SOL     OW26575   2.041   6.568   2.636
 8559SOL    HW126576   2.029   6.554   2.538
 8559SOL    HW226577   2.113   6.635   2.652
 8560SOL     OW26578   1.067   5.455   1.928
 8560SOL    HW126579   1.055   5.551   1.902
 8560SOL    HW226580   1.068   5.447   2.027
 8561SOL     OW26581   3.174   0.096   3.642
 8561SOL    HW126582   3.208   0.068   3.552
 8561SOL    HW226583   3.188   0.195   3.653
 8562SOL     OW26584   3.430   6.347   6.812
 8562SOL    HW126585   3.475   6.423   6.860
 8562SOL    HW226586   3.495   6.302   6.752
 8563SOL     OW26587   0.767   5.043   1.972
 8563SOL    HW126588   0.775   5.130   2.019
 8563SOL    HW226589   0.848   5.029   1.915
 8564SOL     OW26590   3.293   6.618   5.770
 8564SOL    HW126591   3.354   6.566   5.830
 8564SOL    HW226592   3.287   6.712   5.803
 8565SOL     OW26593   3.490   4.810   1.205
 8565SOL    HW126594   3.479   4.794   1.106
 8565SOL    HW226595   3.421   4.757   1.254
 8566SOL     OW26596   1.083   0.475   1.460
 8566SOL    HW126597   1.041   0.416   1.529
 8566SOL    HW226598   1.091   0.568   1.496
 8567SOL     OW26599   0.881   2.064   2.044
 8567SOL    HW126600   0.785   2.083   2.024
 8567SOL    HW226601   0.916   1.994   1.981
 8568SOL     OW26602   5.397   2.239   0.489
 8568SOL    HW126603   5.468   2.180   0.528
 8568SOL    HW226604   5.438   2.325   0.457
 8569SOL     OW26605   5.578   1.915   5.372
 8569SOL    HW126606   5.491   1.957   5.396
 8569SOL    HW226607   5.614   1.958   5.289
 8570SOL     OW26608   0.995   1.371   4.451
 8570SOL    HW126609   0.899   1.358   4.424
 8570SOL    HW226610   1.011   1.326   4.539
 8571SOL     OW26611   0.734   6.327   5.123
 8571SOL    HW126612   0.826   6.286   5.128
 8571SOL    HW226613   0.691   6.323   5.214
 8572SOL     OW26614   1.695   4.327   5.544
 8572SOL    HW126615   1.746   4.245   5.569
 8572SOL    HW226616   1.710   4.398   5.613
 8573SOL     OW26617   3.297   5.755   6.245
 8573SOL    HW126618   3.274   5.827   6.310
 8573SOL    HW226619   3.252   5.774   6.158
 8574SOL     OW26620   5.963   0.316   6.290
 8574SOL    HW126621   5.993   0.324   6.195
 8574SOL    HW226622   5.865   0.292   6.292
 8575SOL     OW26623   2.835   2.084   3.584
 8575SOL    HW126624   2.849   2.140   3.666
 8575SOL    HW226625   2.795   2.140   3.512
 8576SOL     OW26626   1.686   4.736   4.010
 8576SOL    HW126627   1.632   4.660   4.045
 8576SOL    HW226628   1.733   4.782   4.086
 8577SOL     OW26629   1.718   0.318   6.077
 8577SOL    HW126630   1.796   0.301   6.017
 8577SOL    HW226631   1.639   0.345   6.022
 8578SOL     OW26632   6.621   4.936   5.473
 8578SOL    HW126633   6.680   4.972   5.546
 8578SOL    HW226634   6.527   4.927   5.507
 8579SOL     OW26635   1.716   6.386   2.103
 8579SOL    HW126636   1.803   6.409   2.059
 8579SOL    HW226637   1.728   6.303   2.158
 8580SOL     OW26638   1.659   5.931   0.798
 8580SOL    HW126639   1.703   5.906   0.712
 8580SOL    HW226640   1.623   6.024   0.791
 8581SOL     OW26641   3.429   4.429   1.231
 8581SOL    HW126642   3.418   4.359   1.301
 8581SOL    HW226643   3.382   4.400   1.147
 8582SOL     OW26644   4.725   4.585   5.157
 8582SOL    HW126645   4.756   4.566   5.250
 8582SOL    HW226646   4.685   4.502   5.117
 8583SOL     OW26647   3.846   6.902   3.479
 8583SOL    HW126648   3.838   6.896   3.380
 8583SOL    HW226649   3.790   6.977   3.514
 8584SOL     OW26650   1.054   6.252   5.548
 8584SOL    HW126651   1.047   6.351   5.537
 8584SOL    HW226652   1.027   6.207   5.462
 8585SOL     OW26653   6.132   0.975   0.845
 8585SOL    HW126654   6.137   0.901   0.778
 8585SOL    HW226655   6.069   0.950   0.918
 8586SOL     OW26656   3.595   6.967   1.690
 8586SOL    HW126657   3.573   6.998   1.783
 8586SOL    HW226658   3.553   6.878   1.674
 8587SOL     OW26659   0.801   1.327   4.837
 8587SOL    HW126660   0.706   1.324   4.806
 8587SOL    HW226661   0.806   1.294   4.932
 8588SOL     OW26662   4.647   1.067   6.872
 8588SOL    HW126663   4.683   1.027   6.956
 8588SOL    HW226664   4.660   1.166   6.874
 8589SOL     OW26665   6.260   2.808   4.804
 8589SOL    HW126666   6.277   2.802   4.706
 8589SOL    HW226667   6.342   2.841   4.851
 8590SOL     OW26668   0.759   0.401   2.295
 8590SOL    HW126669   0.686   0.427   2.232
 8590SOL    HW226670   0.824   0.475   2.304
 8591SOL     OW26671   0.228   3.998   0.204
 8591SOL    HW126672   0.252   3.923   0.143
 8591SOL    HW226673   0.137   3.980   0.243
 8592SOL     OW26674   5.876   1.950   0.031
 8592SOL    HW126675   5.814   1.940   6.976
 8592SOL    HW226676   5.832   2.006   0.101
 8593SOL     OW26677   3.076   1.063   6.615
 8593SOL    HW126678   3.172   1.058   6.644
 8593SOL    HW226679   3.023   0.993   6.663
 8594SOL     OW26680   5.805   2.032   5.704
 8594SOL    HW126681   5.801   2.100   5.631
 8594SOL    HW226682   5.901   2.013   5.726
 8595SOL     OW26683   6.393   1.237   4.264
 8595SOL    HW126684   6.361   1.294   4.188
 8595SOL    HW226685   6.433   1.153   4.227
 8596SOL     OW26686   1.293   4.920   2.911
 8596SOL    HW126687   1.232   4.923   2.990
 8596SOL    HW226688   1.380   4.879   2.937
 8597SOL     OW26689   5.418   2.469   1.703
 8597SOL    HW126690   5.377   2.556   1.733
 8597SOL    HW226691   5.345   2.406   1.677
 8598SOL     OW26692   5.699   0.281   6.315
 8598SOL    HW126693   5.684   0.289   6.414
 8598SOL    HW226694   5.633   0.218   6.276
 8599SOL     OW26695   1.802   2.708   5.004
 8599SOL    HW126696   1.824   2.663   5.091
 8599SOL    HW226697   1.784   2.638   4.935
 8600SOL     OW26698   5.215   3.736   0.089
 8600SOL    HW126699   5.157   3.802   0.042
 8600SOL    HW226700   5.159   3.680   0.151
 8601SOL     OW26701   0.878   2.036   3.811
 8601SOL    HW126702   0.793   2.078   3.843
 8601SOL    HW226703   0.916   2.090   3.736
 8602SOL     OW26704   2.375   6.981   2.426
 8602SOL    HW126705   2.279   6.969   2.401
 8602SOL    HW226706   2.433   6.928   2.364
 8603SOL     OW26707   5.183   0.054   1.101
 8603SOL    HW126708   5.269   0.050   1.052
 8603SOL    HW226709   5.201   0.052   1.200
 8604SOL     OW26710   1.389   1.884   6.191
 8604SOL    HW126711   1.374   1.982   6.203
 8604SOL    HW226712   1.307   1.834   6.218
 8605SOL     OW26713   2.340   5.219   3.523
 8605SOL    HW126714   2.258   5.173   3.488
 8605SOL    HW226715   2.346   5.207   3.622
 8606SOL     OW26716   2.032   3.010   6.993
 8606SOL    HW126717   1.976   2.952   0.029
 8606SOL    HW226718   2.120   2.967   6.977
 8607SOL     OW26719   2.610   4.675   6.236
 8607SOL    HW126720   2.543   4.749   6.247
 8607SOL    HW226721   2.696   4.702   6.278
 8608SOL     OW26722   2.398   4.843   2.539
 8608SOL    HW126723   2.454   4.779   2.591
 8608SOL    HW226724   2.405   4.934   2.579
 8609SOL     OW26725   4.988   0.905   3.280
 8609SOL    HW126726   4.972   1.000   3.253
 8609SOL    HW226727   5.070   0.872   3.234
 8610SOL     OW26728   0.510   1.182   2.549
 8610SOL    HW126729   0.445   1.244   2.593
 8610SOL    HW226730   0.491   1.088   2.576
 8611SOL     OW26731   2.911   1.370   4.083
 8611SOL    HW126732   2.856   1.409   4.009
 8611SOL    HW226733   2.999   1.417   4.087
 8612SOL     OW26734   3.018   3.241   1.386
 8612SOL    HW126735   3.015   3.281   1.295
 8612SOL    HW226736   2.985   3.308   1.453
 8613SOL     OW26737   2.854   1.809   1.924
 8613SOL    HW126738   2.851   1.885   1.860
 8613SOL    HW226739   2.922   1.827   1.995
 8614SOL     OW26740   0.849   3.099   3.430
 8614SOL    HW126741   0.930   3.156   3.443
 8614SOL    HW226742   0.873   3.019   3.376
 8615SOL     OW26743   4.251   1.878   5.076
 8615SOL    HW126744   4.214   1.916   5.161
 8615SOL    HW226745   4.303   1.949   5.027
 8616SOL     OW26746   3.060   4.838   1.976
 8616SOL    HW126747   2.989   4.905   1.993
 8616SOL    HW226748   3.023   4.746   1.989
 8617SOL     OW26749   6.043   1.309   4.240
 8617SOL    HW126750   6.051   1.285   4.144
 8617SOL    HW226751   6.047   1.226   4.296
 8618SOL     OW26752   6.359   5.060   1.412
 8618SOL    HW126753   6.454   5.027   1.405
 8618SOL    HW226754   6.343   5.130   1.342
 8619SOL     OW26755   4.349   5.270   2.352
 8619SOL    HW126756   4.290   5.350   2.360
 8619SOL    HW226757   4.310   5.193   2.403
 8620SOL     OW26758   2.031   6.053   3.516
 8620SOL    HW126759   2.075   6.052   3.605
 8620SOL    HW226760   2.019   6.148   3.485
 8621SOL     OW26761   5.118   2.815   2.131
 8621SOL    HW126762   5.042   2.864   2.174
 8621SOL    HW226763   5.191   2.800   2.197
 8622SOL     OW26764   4.918   4.239   1.312
 8622SOL    HW126765   4.859   4.293   1.372
 8622SOL    HW226766   4.906   4.269   1.217
 8623SOL     OW26767   1.363   4.214   5.507
 8623SOL    HW126768   1.411   4.273   5.442
 8623SOL    HW226769   1.339   4.128   5.462
 8624SOL     OW26770   2.042   3.805   5.336
 8624SOL    HW126771   2.005   3.750   5.410
 8624SOL    HW226772   2.118   3.860   5.370
 8625SOL     OW26773   5.103   1.003   5.464
 8625SOL    HW126774   5.067   1.091   5.496
 8625SOL    HW226775   5.190   1.018   5.416
 8626SOL     OW26776   3.983   2.065   6.864
 8626SOL    HW126777   3.925   2.133   6.820
 8626SOL    HW226778   3.942   1.974   6.854
 8627SOL     OW26779   2.183   1.552   2.203
 8627SOL    HW126780   2.209   1.597   2.288
 8627SOL    HW226781   2.140   1.618   2.141
 8628SOL     OW26782   6.228   6.375   0.673
 8628SOL    HW126783   6.326   6.356   0.677
 8628SOL    HW226784   6.207   6.423   0.588
 8629SOL     OW26785   1.582   6.472   5.303
 8629SOL    HW126786   1.587   6.373   5.292
 8629SOL    HW226787   1.486   6.500   5.309
 8630SOL     OW26788   5.180   3.059   3.733
 8630SOL    HW126789   5.192   3.003   3.816
 8630SOL    HW226790   5.226   3.147   3.745
 8631SOL     OW26791   1.042   5.461   6.096
 8631SOL    HW126792   0.997   5.407   6.024
 8631SOL    HW226793   1.134   5.424   6.111
 8632SOL     OW26794   4.371   5.005   5.361
 8632SOL    HW126795   4.369   4.933   5.292
 8632SOL    HW226796   4.408   4.969   5.446
 8633SOL     OW26797   5.798   2.822   6.000
 8633SOL    HW126798   5.813   2.912   6.040
 8633SOL    HW226799   5.716   2.781   6.040
 8634SOL     OW26800   4.747   3.939   6.716
 8634SOL    HW126801   4.786   3.870   6.777
 8634SOL    HW226802   4.707   4.013   6.770
 8635SOL     OW26803   5.482   2.992   6.728
 8635SOL    HW126804   5.519   3.071   6.776
 8635SOL    HW226805   5.456   2.922   6.794
 8636SOL     OW26806   5.635   6.355   0.911
 8636SOL    HW126807   5.639   6.370   0.812
 8636SOL    HW226808   5.659   6.440   0.958
 8637SOL     OW26809   1.707   1.766   6.500
 8637SOL    HW126810   1.738   1.672   6.517
 8637SOL    HW226811   1.618   1.780   6.542
 8638SOL     OW26812   3.811   2.104   4.961
 8638SOL    HW126813   3.712   2.118   4.959
 8638SOL    HW226814   3.839   2.047   4.883
 8639SOL     OW26815   5.360   2.867   6.988
 8639SOL    HW126816   5.323   2.819   0.045
 8639SOL    HW226817   5.318   2.829   6.906
 8640SOL     OW26818   3.821   3.116   0.179
 8640SOL    HW126819   3.726   3.100   0.206
 8640SOL    HW226820   3.848   3.209   0.206
 8641SOL     OW26821   4.066   4.758   4.209
 8641SOL    HW126822   4.000   4.833   4.216
 8641SOL    HW226823   4.028   4.685   4.153
 8642SOL     OW26824   1.096   6.479   4.200
 8642SOL    HW126825   1.113   6.395   4.148
 8642SOL    HW226826   1.109   6.461   4.298
 8643SOL     OW26827   1.686   0.855   0.009
 8643SOL    HW126828   1.653   0.840   0.102
 8643SOL    HW226829   1.712   0.768   6.992
 8644SOL     OW26830   5.772   2.336   5.791
 8644SOL    HW126831   5.842   2.273   5.826
 8644SOL    HW226832   5.816   2.411   5.742
 8645SOL     OW26833   4.360   4.712   1.338
 8645SOL    HW126834   4.393   4.714   1.244
 8645SOL    HW226835   4.434   4.683   1.399
 8646SOL     OW26836   0.418   2.196   6.730
 8646SOL    HW126837   0.478   2.122   6.700
 8646SOL    HW226838   0.449   2.231   6.818
 8647SOL     OW26839   2.636   4.590   6.903
 8647SOL    HW126840   2.714   4.650   6.923
 8647SOL    HW226841   2.572   4.638   6.843
 8648SOL     OW26842   6.986   0.167   2.606
 8648SOL    HW126843   0.010   0.243   2.561
 8648SOL    HW226844   0.005   0.081   2.577
 8649SOL     OW26845   5.876   5.658   6.886
 8649SOL    HW126846   5.836   5.749   6.899
 8649SOL    HW226847   5.915   5.651   6.795
 8650SOL     OW26848   1.582   6.197   5.246
 8650SOL    HW126849   1.498   6.173   5.197
 8650SOL    HW226850   1.659   6.197   5.183
 8651SOL     OW26851   4.029   0.536   0.583
 8651SOL    HW126852   3.992   0.616   0.631
 8651SOL    HW226853   3.955   0.471   0.567
 8652SOL     OW26854   1.085   4.912   3.122
 8652SOL    HW126855   1.093   4.961   3.209
 8652SOL    HW226856   0.997   4.867   3.118
 8653SOL     OW26857   0.013   0.958   6.528
 8653SOL    HW126858   6.992   0.990   6.444
 8653SOL    HW226859   0.043   1.037   6.582
 8654SOL     OW26860   0.404   4.874   1.448
 8654SOL    HW126861   0.458   4.804   1.404
 8654SOL    HW226862   0.449   4.963   1.438
 8655SOL     OW26863   5.691   0.305   4.446
 8655SOL    HW126864   5.741   0.222   4.426
 8655SOL    HW226865   5.687   0.363   4.365
 8656SOL     OW26866   6.674   0.794   2.183
 8656SOL    HW126867   6.699   0.865   2.117
 8656SOL    HW226868   6.619   0.834   2.255
 8657SOL     OW26869   5.379   5.911   0.038
 8657SOL    HW126870   5.349   5.816   0.031
 8657SOL    HW226871   5.332   5.966   6.992
 8658SOL     OW26872   6.386   6.464   0.374
 8658SOL    HW126873   6.436   6.454   0.288
 8658SOL    HW226874   6.418   6.396   0.440
 8659SOL     OW26875   5.000   2.618   2.474
 8659SOL    HW126876   5.002   2.583   2.568
 8659SOL    HW226877   5.061   2.562   2.417
 8660SOL     OW26878   6.441   3.739   1.852
 8660SOL    HW126879   6.483   3.818   1.896
 8660SOL    HW226880   6.350   3.763   1.819
 8661SOL     OW26881   6.332   3.867   1.339
 8661SOL    HW126882   6.330   3.767   1.349
 8661SOL    HW226883   6.241   3.900   1.315
 8662SOL     OW26884   4.296   5.564   1.680
 8662SOL    HW126885   4.349   5.487   1.716
 8662SOL    HW226886   4.214   5.529   1.634
 8663SOL     OW26887   2.241   5.421   2.184
 8663SOL    HW126888   2.187   5.436   2.267
 8663SOL    HW226889   2.180   5.422   2.104
 8664SOL     OW26890   2.483   4.841   1.288
 8664SOL    HW126891   2.470   4.837   1.387
 8664SOL    HW226892   2.500   4.936   1.261
 8665SOL     OW26893   5.792   5.447   5.049
 8665SOL    HW126894   5.868   5.431   4.987
 8665SOL    HW226895   5.793   5.378   5.122
 8666SOL     OW26896   5.711   0.982   3.941
 8666SOL    HW126897   5.774   0.973   4.018
 8666SOL    HW226898   5.753   0.944   3.858
 8667SOL     OW26899   4.679   2.139   4.446
 8667SOL    HW126900   4.762   2.186   4.476
 8667SOL    HW226901   4.701   2.045   4.422
 8668SOL     OW26902   5.431   3.790   4.064
 8668SOL    HW126903   5.501   3.785   3.993
 8668SOL    HW226904   5.366   3.862   4.041
 8669SOL     OW26905   0.395   6.265   6.644
 8669SOL    HW126906   0.451   6.241   6.564
 8669SOL    HW226907   0.343   6.348   6.625
 8670SOL     OW26908   4.001   5.315   6.458
 8670SOL    HW126909   4.022   5.383   6.529
 8670SOL    HW226910   4.085   5.292   6.408
 8671SOL     OW26911   0.202   1.534   3.364
 8671SOL    HW126912   0.238   1.494   3.449
 8671SOL    HW226913   0.127   1.596   3.386
 8672SOL     OW26914   0.569   5.890   3.791
 8672SOL    HW126915   0.508   5.869   3.868
 8672SOL    HW226916   0.554   5.984   3.761
 8673SOL     OW26917   5.936   1.536   0.474
 8673SOL    HW126918   5.936   1.453   0.528
 8673SOL    HW226919   5.853   1.540   0.418
 8674SOL     OW26920   5.674   5.331   3.211
 8674SOL    HW126921   5.664   5.252   3.150
 8674SOL    HW226922   5.764   5.328   3.255
 8675SOL     OW26923   4.094   1.388   5.024
 8675SOL    HW126924   4.170   1.387   5.090
 8675SOL    HW226925   4.056   1.480   5.019
 8676SOL     OW26926   5.065   6.714   3.246
 8676SOL    HW126927   4.976   6.724   3.290
 8676SOL    HW226928   5.133   6.685   3.315
 8677SOL     OW26929   1.873   5.790   5.672
 8677SOL    HW126930   1.939   5.740   5.728
 8677SOL    HW226931   1.858   5.740   5.587
 8678SOL     OW26932   1.095   6.915   0.686
 8678SOL    HW126933   1.018   6.947   0.742
 8678SOL    HW226934   1.081   6.943   0.591
 8679SOL     OW26935   1.089   1.438   3.344
 8679SOL    HW126936   1.099   1.349   3.388
 8679SOL    HW226937   1.174   1.488   3.350
 8680SOL     OW26938   6.267   3.757   0.162
 8680SOL    HW126939   6.196   3.698   0.124
 8680SOL    HW226940   6.314   3.710   0.236
 8681SOL     OW26941   4.828   5.572   1.522
 8681SOL    HW126942   4.817   5.651   1.582
 8681SOL    HW226943   4.740   5.552   1.478
 8682SOL     OW26944   5.947   0.160   2.711
 8682SOL    HW126945   5.998   0.109   2.780
 8682SOL    HW226946   5.894   0.096   2.655
 8683SOL     OW26947   1.635   1.954   5.527
 8683SOL    HW126948   1.602   2.048   5.532
 8683SOL    HW226949   1.615   1.916   5.436
 8684SOL     OW26950   5.952   3.321   4.280
 8684SOL    HW126951   5.869   3.296   4.230
 8684SOL    HW226952   5.979   3.414   4.256
 8685SOL     OW26953   6.044   3.079   6.594
 8685SOL    HW126954   5.953   3.104   6.627
 8685SOL    HW226955   6.101   3.050   6.672
 8686SOL     OW26956   6.999   0.769   2.093
 8686SOL    HW126957   0.066   0.806   2.116
 8686SOL    HW226958   6.937   0.782   2.171
 8687SOL     OW26959   5.326   5.363   3.028
 8687SOL    HW126960   5.369   5.388   2.942
 8687SOL    HW226961   5.295   5.446   3.075
 8688SOL     OW26962   1.178   5.222   6.841
 8688SOL    HW126963   1.192   5.124   6.855
 8688SOL    HW226964   1.145   5.264   6.926
 8689SOL     OW26965   4.019   2.523   0.533
 8689SOL    HW126966   3.990   2.552   0.624
 8689SOL    HW226967   4.115   2.495   0.536
 8690SOL     OW26968   1.252   3.643   4.415
 8690SOL    HW126969   1.273   3.546   4.428
 8690SOL    HW226970   1.301   3.697   4.483
 8691SOL     OW26971   4.139   2.025   6.005
 8691SOL    HW126972   4.147   2.120   5.974
 8691SOL    HW226973   4.229   1.981   6.001
 8692SOL     OW26974   3.480   0.777   4.305
 8692SOL    HW126975   3.513   0.690   4.268
 8692SOL    HW226976   3.512   0.786   4.399
 8693SOL     OW26977   5.879   0.339   0.249
 8693SOL    HW126978   5.871   0.320   0.347
 8693SOL    HW226979   5.827   0.422   0.227
 8694SOL     OW26980   5.433   1.483   4.532
 8694SOL    HW126981   5.490   1.452   4.608
 8694SOL    HW226982   5.364   1.546   4.565
 8695SOL     OW26983   4.403   3.137   6.390
 8695SOL    HW126984   4.471   3.094   6.449
 8695SOL    HW226985   4.322   3.160   6.443
 8696SOL     OW26986   3.053   5.537   5.344
 8696SOL    HW126987   3.005   5.625   5.333
 8696SOL    HW226988   2.986   5.463   5.343
 8697SOL     OW26989   0.635   4.312   6.548
 8697SOL    HW126990   0.705   4.315   6.619
 8697SOL    HW226991   0.544   4.313   6.590
 8698SOL     OW26992   4.560   5.702   4.760
 8698SOL    HW126993   4.527   5.638   4.828
 8698SOL    HW226994   4.637   5.754   4.797
 8699SOL     OW26995   1.549   3.156   4.864
 8699SOL    HW126996   1.629   3.210   4.894
 8699SOL    HW226997   1.573   3.059   4.862
 8700SOL     OW26998   0.715   0.752   4.750
 8700SOL    HW126999   0.810   0.725   4.734
 8700SOL    HW227000   0.676   0.696   4.823
 8701SOL     OW27001   1.889   0.967   0.346
 8701SOL    HW127002   1.924   0.873   0.345
 8701SOL    HW227003   1.964   1.031   0.356
 8702SOL     OW27004   5.471   5.194   1.760
 8702SOL    HW127005   5.412   5.145   1.824
 8702SOL    HW227006   5.414   5.241   1.693
 8703SOL     OW27007   2.965   4.525   6.763
 8703SOL    HW127008   2.898   4.451   6.774
 8703SOL    HW227009   2.930   4.608   6.806
 8704SOL     OW27010   0.270   4.508   3.541
 8704SOL    HW127011   0.202   4.437   3.560
 8704SOL    HW227012   0.354   4.488   3.591
 8705SOL     OW27013   4.901   1.899   6.297
 8705SOL    HW127014   4.989   1.933   6.329
 8705SOL    HW227015   4.828   1.935   6.355
 8706SOL     OW27016   4.508   2.105   0.175
 8706SOL    HW127017   4.594   2.054   0.160
 8706SOL    HW227018   4.471   2.082   0.264
 8707SOL     OW27019   0.882   2.330   4.478
 8707SOL    HW127020   0.873   2.279   4.393
 8707SOL    HW227021   0.927   2.417   4.460
 8708SOL     OW27022   3.935   1.894   3.455
 8708SOL    HW127023   3.990   1.939   3.386
 8708SOL    HW227024   3.866   1.836   3.411
 8709SOL     OW27025   6.430   6.747   6.740
 8709SOL    HW127026   6.451   6.766   6.836
 8709SOL    HW227027   6.418   6.833   6.691
 8710SOL     OW27028   1.892   2.694   3.644
 8710SOL    HW127029   1.857   2.684   3.737
 8710SOL    HW227030   1.987   2.661   3.640
 8711SOL     OW27031   2.349   6.428   3.057
 8711SOL    HW127032   2.363   6.351   3.119
 8711SOL    HW227033   2.291   6.497   3.102
 8712SOL     OW27034   3.303   1.401   4.480
 8712SOL    HW127035   3.275   1.308   4.503
 8712SOL    HW227036   3.390   1.398   4.430
 8713SOL     OW27037   6.983   3.394   1.656
 8713SOL    HW127038   6.974   3.344   1.741
 8713SOL    HW227039   6.914   3.467   1.652
 8714SOL     OW27040   1.425   0.614   5.722
 8714SOL    HW127041   1.333   0.575   5.733
 8714SOL    HW227042   1.463   0.637   5.812
 8715SOL     OW27043   3.779   0.797   0.291
 8715SOL    HW127044   3.788   0.771   0.195
 8715SOL    HW227045   3.699   0.856   0.302
 8716SOL     OW27046   0.327   6.329   6.896
 8716SOL    HW127047   0.259   6.402   6.890
 8716SOL    HW227048   0.344   6.291   6.806
 8717SOL     OW27049   2.694   3.434   5.418
 8717SOL    HW127050   2.753   3.505   5.458
 8717SOL    HW227051   2.690   3.356   5.479
 8718SOL     OW27052   1.408   2.145   6.242
 8718SOL    HW127053   1.440   2.115   6.332
 8718SOL    HW227054   1.390   2.243   6.244
 8719SOL     OW27055   3.222   0.031   0.090
 8719SOL    HW127056   3.161   0.041   0.169
 8719SOL    HW227057   3.168   0.032   0.006
 8720SOL     OW27058   1.157   6.601   5.855
 8720SOL    HW127059   1.120   6.668   5.920
 8720SOL    HW227060   1.257   6.610   5.853
 8721SOL     OW27061   6.325   1.443   1.014
 8721SOL    HW127062   6.257   1.514   1.032
 8721SOL    HW227063   6.282   1.353   1.026
 8722SOL     OW27064   3.231   0.746   1.484
 8722SOL    HW127065   3.286   0.822   1.519
 8722SOL    HW227066   3.288   0.687   1.427
 8723SOL     OW27067   5.220   0.188   1.811
 8723SOL    HW127068   5.242   0.279   1.846
 8723SOL    HW227069   5.152   0.197   1.738
 8724SOL     OW27070   5.845   0.078   4.407
 8724SOL    HW127071   5.885   7.011   4.425
 8724SOL    HW227072   5.864   0.104   4.312
 8725SOL     OW27073   1.381   5.660   5.570
 8725SOL    HW127074   1.432   5.716   5.635
 8725SOL    HW227075   1.300   5.622   5.615
 8726SOL     OW27076   0.338   0.594   1.963
 8726SOL    HW127077   0.304   0.687   1.979
 8726SOL    HW227078   0.263   0.529   1.977
 8727SOL     OW27079   6.217   0.245   1.280
 8727SOL    HW127080   6.298   0.187   1.271
 8727SOL    HW227081   6.244   0.341   1.284
 8728SOL     OW27082   5.668   1.025   2.313
 8728SOL    HW127083   5.698   0.929   2.308
 8728SOL    HW227084   5.606   1.036   2.390
 8729SOL     OW27085   3.530   4.765   5.227
 8729SOL    HW127086   3.458   4.702   5.256
 8729SOL    HW227087   3.619   4.728   5.251
 8730SOL     OW27088   5.210   4.074   2.970
 8730SOL    HW127089   5.141   4.069   3.043
 8730SOL    HW227090   5.170   4.046   2.883
 8731SOL     OW27091   0.855   3.739   3.206
 8731SOL    HW127092   0.947   3.752   3.170
 8731SOL    HW227093   0.853   3.658   3.264
 8732SOL     OW27094   6.023   4.793   2.392
 8732SOL    HW127095   5.985   4.702   2.375
 8732SOL    HW227096   6.122   4.790   2.382
 8733SOL     OW27097   1.303   5.805   0.586
 8733SOL    HW127098   1.332   5.761   0.671
 8733SOL    HW227099   1.240   5.880   0.606
 8734SOL     OW27100   0.587   3.185   3.374
 8734SOL    HW127101   0.603   3.266   3.319
 8734SOL    HW227102   0.674   3.143   3.398
 8735SOL     OW27103   0.874   2.838   5.528
 8735SOL    HW127104   0.965   2.867   5.557
 8735SOL    HW227105   0.883   2.769   5.456
 8736SOL     OW27106   6.811   5.548   1.977
 8736SOL    HW127107   6.768   5.636   1.996
 8736SOL    HW227108   6.908   5.551   2.002
 8737SOL     OW27109   2.449   0.176   6.959
 8737SOL    HW127110   2.526   0.151   7.017
 8737SOL    HW227111   2.481   0.184   6.864
 8738SOL     OW27112   2.723   5.599   3.080
 8738SOL    HW127113   2.790   5.673   3.082
 8738SOL    HW227114   2.633   5.635   3.100
 8739SOL     OW27115   5.735   5.597   6.146
 8739SOL    HW127116   5.695   5.653   6.219
 8739SOL    HW227117   5.833   5.614   6.142
 8740SOL     OW27118   4.151   1.551   3.248
 8740SOL    HW127119   4.085   1.624   3.267
 8740SOL    HW227120   4.206   1.534   3.329
 8741SOL     OW27121   2.203   0.711   2.960
 8741SOL    HW127122   2.201   0.625   2.910
 8741SOL    HW227123   2.125   0.716   3.022
 8742SOL     OW27124   4.766   0.599   1.733
 8742SOL    HW127125   4.787   0.566   1.825
 8742SOL    HW227126   4.671   0.575   1.710
 8743SOL     OW27127   1.429   0.197   1.241
 8743SOL    HW127128   1.379   0.276   1.276
 8743SOL    HW227129   1.390   0.113   1.278
 8744SOL     OW27130   4.353   2.822   0.601
 8744SOL    HW127131   4.326   2.801   0.507
 8744SOL    HW227132   4.272   2.834   0.657
 8745SOL     OW27133   5.983   2.320   6.187
 8745SOL    HW127134   5.912   2.309   6.257
 8745SOL    HW227135   6.064   2.361   6.229
 8746SOL     OW27136   5.167   5.776   4.141
 8746SOL    HW127137   5.103   5.853   4.135
 8746SOL    HW227138   5.216   5.779   4.228
 8747SOL     OW27139   0.686   1.344   2.687
 8747SOL    HW127140   0.611   1.308   2.631
 8747SOL    HW227141   0.762   1.372   2.629
 8748SOL     OW27142   0.457   2.410   4.539
 8748SOL    HW127143   0.542   2.367   4.568
 8748SOL    HW227144   0.379   2.357   4.572
 8749SOL     OW27145   1.751   0.181   5.608
 8749SOL    HW127146   1.780   0.135   5.692
 8749SOL    HW227147   1.653   0.200   5.613
 8750SOL     OW27148   3.404   3.586   5.797
 8750SOL    HW127149   3.340   3.642   5.744
 8750SOL    HW227150   3.373   3.491   5.797
 8751SOL     OW27151   6.729   1.275   2.227
 8751SOL    HW127152   6.743   1.370   2.253
 8751SOL    HW227153   6.796   1.217   2.274
 8752SOL     OW27154   3.575   2.694   0.152
 8752SOL    HW127155   3.615   2.699   0.061
 8752SOL    HW227156   3.645   2.666   0.218
 8753SOL     OW27157   2.416   2.297   6.345
 8753SOL    HW127158   2.357   2.374   6.371
 8753SOL    HW227159   2.433   2.301   6.246
 8754SOL     OW27160   2.332   4.690   5.595
 8754SOL    HW127161   2.414   4.742   5.619
 8754SOL    HW227162   2.353   4.625   5.522
 8755SOL     OW27163   2.148   0.404   0.847
 8755SOL    HW127164   2.074   0.340   0.867
 8755SOL    HW227165   2.117   0.498   0.863
 8756SOL     OW27166   1.878   3.106   3.306
 8756SOL    HW127167   1.880   3.194   3.259
 8756SOL    HW227168   1.965   3.091   3.353
 8757SOL     OW27169   4.808   5.784   0.074
 8757SOL    HW127170   4.821   5.872   0.029
 8757SOL    HW227171   4.764   5.720   0.010
 8758SOL     OW27172   4.749   6.231   2.857
 8758SOL    HW127173   4.745   6.208   2.954
 8758SOL    HW227174   4.671   6.289   2.832
 8759SOL     OW27175   5.556   3.208   6.891
 8759SOL    HW127176   5.493   3.232   6.965
 8759SOL    HW227177   5.646   3.188   6.930
 8760SOL     OW27178   2.770   0.023   4.891
 8760SOL    HW127179   2.806   0.074   4.969
 8760SOL    HW227180   2.706   0.080   4.840
 8761SOL     OW27181   5.992   2.009   1.082
 8761SOL    HW127182   5.972   2.032   0.987
 8761SOL    HW227183   6.080   2.049   1.109
 8762SOL     OW27184   0.356   5.348   4.484
 8762SOL    HW127185   0.357   5.415   4.558
 8762SOL    HW227186   0.417   5.273   4.506
 8763SOL     OW27187   6.123   0.166   5.907
 8763SOL    HW127188   6.097   0.235   5.974
 8763SOL    HW227189   6.198   0.112   5.943
 8764SOL     OW27190   4.468   6.859   5.839
 8764SOL    HW127191   4.457   6.951   5.875
 8764SOL    HW227192   4.398   6.840   5.771
 8765SOL     OW27193   4.983   0.957   4.427
 8765SOL    HW127194   4.916   0.893   4.389
 8765SOL    HW227195   5.071   0.910   4.440
 8766SOL     OW27196   4.379   4.273   5.300
 8766SOL    HW127197   4.362   4.343   5.231
 8766SOL    HW227198   4.294   4.227   5.323
 8767SOL     OW27199   4.749   6.405   3.227
 8767SOL    HW127200   4.762   6.314   3.187
 8767SOL    HW227201   4.775   6.474   3.160
 8768SOL     OW27202   0.673   2.741   1.019
 8768SOL    HW127203   0.649   2.831   0.982
 8768SOL    HW227204   0.706   2.752   1.113
 8769SOL     OW27205   0.118   0.990   2.653
 8769SOL    HW127206   0.070   0.906   2.627
 8769SOL    HW227207   0.104   1.008   2.750
 8770SOL     OW27208   4.671   4.404   2.387
 8770SOL    HW127209   4.728   4.395   2.469
 8770SOL    HW227210   4.652   4.313   2.349
 8771SOL     OW27211   1.158   2.235   6.067
 8771SOL    HW127212   1.160   2.333   6.083
 8771SOL    HW227213   1.230   2.210   6.002
 8772SOL     OW27214   4.626   0.387   6.256
 8772SOL    HW127215   4.564   0.324   6.209
 8772SOL    HW227216   4.613   0.379   6.355
 8773SOL     OW27217   5.840   2.557   3.282
 8773SOL    HW127218   5.784   2.636   3.258
 8773SOL    HW227219   5.793   2.501   3.350
 8774SOL     OW27220   1.160   0.272   0.217
 8774SOL    HW127221   1.083   0.211   0.202
 8774SOL    HW227222   1.178   0.325   0.134
 8775SOL     OW27223   5.403   1.191   5.610
 8775SOL    HW127224   5.403   1.194   5.710
 8775SOL    HW227225   5.382   1.281   5.573
 8776SOL     OW27226   4.739   3.622   0.987
 8776SOL    HW127227   4.665   3.572   0.944
 8776SOL    HW227228   4.816   3.561   1.003
 8777SOL     OW27229   6.576   4.245   3.326
 8777SOL    HW127230   6.571   4.213   3.232
 8777SOL    HW227231   6.662   4.216   3.368
 8778SOL     OW27232   5.106   2.711   5.703
 8778SOL    HW127233   5.068   2.743   5.616
 8778SOL    HW227234   5.197   2.674   5.689
 8779SOL     OW27235   2.161   6.022   2.490
 8779SOL    HW127236   2.089   5.952   2.497
 8779SOL    HW227237   2.216   6.005   2.408
 8780SOL     OW27238   0.508   6.961   2.941
 8780SOL    HW127239   0.495   0.017   3.001
 8780SOL    HW227240   0.556   6.990   2.858
 8781SOL     OW27241   5.019   0.634   3.919
 8781SOL    HW127242   5.001   0.699   3.845
 8781SOL    HW227243   5.000   0.541   3.888
 8782SOL     OW27244   6.562   0.587   1.974
 8782SOL    HW127245   6.609   0.500   1.989
 8782SOL    HW227246   6.628   0.656   1.945
 8783SOL     OW27247   6.853   4.160   3.390
 8783SOL    HW127248   6.899   4.075   3.367
 8783SOL    HW227249   6.914   4.238   3.372
 8784SOL     OW27250   6.426   6.771   6.138
 8784SOL    HW127251   6.432   6.798   6.042
 8784SOL    HW227252   6.382   6.844   6.191
 8785SOL     OW27253   6.624   5.173   6.578
 8785SOL    HW127254   6.656   5.261   6.613
 8785SOL    HW227255   6.529   5.159   6.605
 8786SOL     OW27256   3.033   1.412   1.376
 8786SOL    HW127257   2.993   1.503   1.379
 8786SOL    HW227258   3.076   1.391   1.464
 8787SOL     OW27259   3.203   0.539   2.357
 8787SOL    HW127260   3.190   0.567   2.262
 8787SOL    HW227261   3.145   0.595   2.416
 8788SOL     OW27262   0.089   1.174   5.289
 8788SOL    HW127263   0.036   1.106   5.339
 8788SOL    HW227264   0.030   1.249   5.261
 8789SOL     OW27265   6.329   4.965   5.466
 8789SOL    HW127266   6.331   5.060   5.495
 8789SOL    HW227267   6.271   4.957   5.384
 8790SOL     OW27268   6.050   1.145   6.226
 8790SOL    HW127269   6.133   1.200   6.220
 8790SOL    HW227270   6.063   1.072   6.294
 8791SOL     OW27271   4.760   6.813   4.830
 8791SOL    HW127272   4.795   6.907   4.825
 8791SOL    HW227273   4.663   6.812   4.807
 8792SOL     OW27274   3.511   5.387   3.016
 8792SOL    HW127275   3.589   5.436   2.978
 8792SOL    HW227276   3.455   5.350   2.941
 8793SOL     OW27277   0.871   4.855   2.487
 8793SOL    HW127278   0.832   4.882   2.398
 8793SOL    HW227279   0.835   4.766   2.513
 8794SOL     OW27280   5.918   0.747   3.116
 8794SOL    HW127281   5.826   0.740   3.078
 8794SOL    HW227282   5.976   0.801   3.055
 8795SOL     OW27283   1.213   4.502   5.454
 8795SOL    HW127284   1.296   4.550   5.484
 8795SOL    HW227285   1.224   4.404   5.470
 8796SOL     OW27286   5.830   2.837   2.879
 8796SOL    HW127287   5.788   2.747   2.887
 8796SOL    HW227288   5.759   2.905   2.858
 8797SOL     OW27289   0.139   0.162   5.539
 8797SOL    HW127290   0.188   0.239   5.500
 8797SOL    HW227291   0.144   0.084   5.477
 8798SOL     OW27292   4.251   6.227   6.664
 8798SOL    HW127293   4.268   6.322   6.692
 8798SOL    HW227294   4.279   6.165   6.737
 8799SOL     OW27295   2.680   4.916   3.504
 8799SOL    HW127296   2.653   4.993   3.447
 8799SOL    HW227297   2.771   4.884   3.475
 8800SOL     OW27298   5.395   5.323   6.368
 8800SOL    HW127299   5.392   5.420   6.345
 8800SOL    HW227300   5.316   5.277   6.328
 8801SOL     OW27301   5.701   1.817   4.363
 8801SOL    HW127302   5.787   1.847   4.323
 8801SOL    HW227303   5.686   1.720   4.341
 8802SOL     OW27304   1.528   5.783   5.984
 8802SOL    HW127305   1.528   5.835   5.898
 8802SOL    HW227306   1.546   5.686   5.965
 8803SOL     OW27307   0.172   0.012   0.092
 8803SOL    HW127308   0.118   6.991   0.163
 8803SOL    HW227309   0.141   0.106   0.080
 8804SOL     OW27310   2.473   6.173   1.313
 8804SOL    HW127311   2.509   6.228   1.389
 8804SOL    HW227312   2.541   6.104   1.288
 8805SOL     OW27313   4.252   5.424   3.046
 8805SOL    HW127314   4.301   5.510   3.030
 8805SOL    HW227315   4.197   5.431   3.129
 8806SOL     OW27316   2.773   5.025   0.668
 8806SOL    HW127317   2.779   5.117   0.630
 8806SOL    HW227318   2.677   4.997   0.673
 8807SOL     OW27319   4.406   1.420   0.426
 8807SOL    HW127320   4.462   1.338   0.414
 8807SOL    HW227321   4.443   1.494   0.371
 8808SOL     OW27322   6.817   2.180   5.836
 8808SOL    HW127323   6.730   2.149   5.875
 8808SOL    HW227324   6.817   2.280   5.831
 8809SOL     OW27325   2.649   4.620   3.772
 8809SOL    HW127326   2.579   4.612   3.701
 8809SOL    HW227327   2.618   4.576   3.856
 8810SOL     OW27328   5.726   0.724   5.032
 8810SOL    HW127329   5.697   0.814   5.065
 8810SOL    HW227330   5.645   0.668   5.013
 8811SOL     OW27331   2.879   0.324   3.246
 8811SOL    HW127332   2.919   0.353   3.333
 8811SOL    HW227333   2.930   0.246   3.211
 8812SOL     OW27334   2.250   0.598   0.636
 8812SOL    HW127335   2.169   0.651   0.610
 8812SOL    HW227336   2.249   0.581   0.734
 8813SOL     OW27337   1.745   5.052   2.951
 8813SOL    HW127338   1.789   5.124   2.897
 8813SOL    HW227339   1.649   5.077   2.966
 8814SOL     OW27340   5.876   0.036   0.790
 8814SOL    HW127341   5.934   0.052   0.710
 8814SOL    HW227342   5.933   0.017   0.870
 8815SOL     OW27343   5.560   0.098   1.430
 8815SOL    HW127344   5.549   0.104   1.529
 8815SOL    HW227345   5.509   0.019   1.395
 8816SOL     OW27346   0.979   6.487   6.351
 8816SOL    HW127347   1.076   6.463   6.355
 8816SOL    HW227348   0.926   6.409   6.319
 8817SOL     OW27349   0.233   4.032   3.821
 8817SOL    HW127350   0.230   3.959   3.753
 8817SOL    HW227351   0.299   4.101   3.791
 8818SOL     OW27352   1.203   6.007   3.929
 8818SOL    HW127353   1.158   5.918   3.920
 8818SOL    HW227354   1.189   6.060   3.846
 8819SOL     OW27355   6.369   4.702   5.634
 8819SOL    HW127356   6.279   4.660   5.627
 8819SOL    HW227357   6.374   4.782   5.575
 8820SOL     OW27358   3.047   1.283   5.024
 8820SOL    HW127359   2.993   1.231   5.090
 8820SOL    HW227360   2.985   1.334   4.964
 8821SOL     OW27361   1.180   5.994   0.780
 8821SOL    HW127362   1.235   5.935   0.839
 8821SOL    HW227363   1.132   6.062   0.835
 8822SOL     OW27364   0.638   0.731   3.399
 8822SOL    HW127365   0.677   0.648   3.440
 8822SOL    HW227366   0.560   0.761   3.454
 8823SOL     OW27367   2.013   1.329   2.107
 8823SOL    HW127368   2.053   1.240   2.129
 8823SOL    HW227369   2.063   1.401   2.156
 8824SOL     OW27370   1.566   0.796   0.449
 8824SOL    HW127371   1.576   0.874   0.388
 8824SOL    HW227372   1.554   0.713   0.396
 8825SOL     OW27373   1.407   1.250   1.612
 8825SOL    HW127374   1.445   1.180   1.672
 8825SOL    HW227375   1.441   1.237   1.519
 8826SOL     OW27376   0.680   3.801   1.465
 8826SOL    HW127377   0.601   3.807   1.404
 8826SOL    HW227378   0.744   3.733   1.430
 8827SOL     OW27379   4.347   0.299   3.108
 8827SOL    HW127380   4.305   0.354   3.180
 8827SOL    HW227381   4.394   0.220   3.148
 8828SOL     OW27382   3.983   4.726   6.878
 8828SOL    HW127383   3.897   4.762   6.914
 8828SOL    HW227384   3.970   4.632   6.847
 8829SOL     OW27385   5.567   1.677   1.261
 8829SOL    HW127386   5.528   1.671   1.169
 8829SOL    HW227387   5.610   1.589   1.285
 8830SOL     OW27388   2.072   1.319   2.596
 8830SOL    HW127389   2.112   1.410   2.592
 8830SOL    HW227390   2.143   1.252   2.618
 8831SOL     OW27391   5.891   2.443   2.556
 8831SOL    HW127392   5.880   2.539   2.581
 8831SOL    HW227393   5.939   2.395   2.630
 8832SOL     OW27394   6.037   5.917   3.766
 8832SOL    HW127395   6.037   5.939   3.863
 8832SOL    HW227396   6.125   5.941   3.725
 8833SOL     OW27397   3.814   4.441   6.138
 8833SOL    HW127398   3.740   4.487   6.186
 8833SOL    HW227399   3.779   4.397   6.055
 8834SOL     OW27400   5.379   3.824   4.501
 8834SOL    HW127401   5.361   3.892   4.429
 8834SOL    HW227402   5.295   3.806   4.551
 8835SOL     OW27403   5.406   0.911   6.002
 8835SOL    HW127404   5.415   1.009   6.019
 8835SOL    HW227405   5.312   0.891   5.977
 8836SOL     OW27406   4.982   1.777   1.153
 8836SOL    HW127407   4.918   1.794   1.228
 8836SOL    HW227408   5.032   1.692   1.170
 8837SOL     OW27409   0.110   6.950   2.611
 8837SOL    HW127410   0.083   6.864   2.568
 8837SOL    HW227411   0.089   6.947   2.708
 8838SOL     OW27412   1.802   3.973   3.490
 8838SOL    HW127413   1.861   3.917   3.549
 8838SOL    HW227414   1.848   4.060   3.470
 8839SOL     OW27415   4.154   6.584   2.238
 8839SOL    HW127416   4.222   6.510   2.232
 8839SOL    HW227417   4.134   6.618   2.147
 8840SOL     OW27418   0.137   0.386   2.537
 8840SOL    HW127419   0.229   0.395   2.498
 8840SOL    HW227420   0.144   0.374   2.636
 8841SOL     OW27421   6.288   1.602   3.694
 8841SOL    HW127422   6.231   1.523   3.674
 8841SOL    HW227423   6.231   1.677   3.727
 8842SOL     OW27424   3.276   3.709   3.336
 8842SOL    HW127425   3.312   3.723   3.428
 8842SOL    HW227426   3.179   3.729   3.335
 8843SOL     OW27427   1.739   3.478   3.870
 8843SOL    HW127428   1.788   3.561   3.899
 8843SOL    HW227429   1.664   3.503   3.810
 8844SOL     OW27430   6.594   1.297   4.864
 8844SOL    HW127431   6.578   1.239   4.944
 8844SOL    HW227432   6.562   1.390   4.884
 8845SOL     OW27433   2.647   4.153   0.513
 8845SOL    HW127434   2.631   4.094   0.434
 8845SOL    HW227435   2.603   4.113   0.594
 8846SOL     OW27436   3.594   4.991   4.195
 8846SOL    HW127437   3.584   5.090   4.185
 8846SOL    HW227438   3.534   4.959   4.268
 8847SOL     OW27439   2.289   1.311   3.575
 8847SOL    HW127440   2.352   1.255   3.628
 8847SOL    HW227441   2.319   1.314   3.479
 8848SOL     OW27442   3.034   1.885   2.729
 8848SOL    HW127443   2.948   1.835   2.741
 8848SOL    HW227444   3.019   1.960   2.665
 8849SOL     OW27445   3.711   5.034   2.951
 8849SOL    HW127446   3.775   5.075   3.016
 8849SOL    HW227447   3.754   4.953   2.909
 8850SOL     OW27448   2.658   0.940   0.103
 8850SOL    HW127449   2.725   0.889   0.050
 8850SOL    HW227450   2.704   0.987   0.179
 8851SOL     OW27451   0.995   4.983   1.798
 8851SOL    HW127452   1.039   4.910   1.746
 8851SOL    HW227453   1.044   5.069   1.782
 8852SOL     OW27454   4.082   3.578   5.939
 8852SOL    HW127455   4.066   3.593   5.842
 8852SOL    HW227456   4.178   3.554   5.954
 8853SOL     OW27457   3.313   0.215   5.839
 8853SOL    HW127458   3.218   0.246   5.839
 8853SOL    HW227459   3.374   0.294   5.839
 8854SOL     OW27460   3.056   1.480   6.611
 8854SOL    HW127461   3.145   1.455   6.651
 8854SOL    HW227462   3.046   1.579   6.614
 8855SOL     OW27463   6.775   6.183   0.472
 8855SOL    HW127464   6.789   6.282   0.483
 8855SOL    HW227465   6.787   6.158   0.376
 8856SOL     OW27466   6.509   0.904   5.986
 8856SOL    HW127467   6.602   0.883   6.016
 8856SOL    HW227468   6.443   0.855   6.043
 8857SOL     OW27469   6.593   1.993   4.121
 8857SOL    HW127470   6.521   2.060   4.138
 8857SOL    HW227471   6.565   1.932   4.047
 8858SOL     OW27472   1.012   2.168   5.751
 8858SOL    HW127473   1.020   2.114   5.667
 8858SOL    HW227474   1.098   2.165   5.801
 8859SOL     OW27475   6.984   0.703   4.520
 8859SOL    HW127476   6.948   0.762   4.592
 8859SOL    HW227477   6.913   0.638   4.492
 8860SOL     OW27478   1.145   3.601   2.934
 8860SOL    HW127479   1.141   3.662   3.013
 8860SOL    HW227480   1.238   3.565   2.924
 8861SOL     OW27481   3.604   1.818   6.084
 8861SOL    HW127482   3.561   1.889   6.027
 8861SOL    HW227483   3.696   1.848   6.110
 8862SOL     OW27484   6.316   0.567   2.986
 8862SOL    HW127485   6.327   0.579   2.888
 8862SOL    HW227486   6.285   0.653   3.027
 8863SOL     OW27487   1.724   5.493   4.423
 8863SOL    HW127488   1.688   5.583   4.447
 8863SOL    HW227489   1.737   5.487   4.324
 8864SOL     OW27490   2.034   3.076   6.266
 8864SOL    HW127491   1.976   3.123   6.333
 8864SOL    HW227492   2.004   2.981   6.258
 8865SOL     OW27493   3.298   1.570   5.895
 8865SOL    HW127494   3.301   1.596   5.799
 8865SOL    HW227495   3.256   1.480   5.905
 8866SOL     OW27496   5.041   6.811   3.943
 8866SOL    HW127497   5.027   6.713   3.923
 8866SOL    HW227498   5.122   6.822   3.999
 8867SOL     OW27499   5.302   3.769   2.722
 8867SOL    HW127500   5.227   3.831   2.745
 8867SOL    HW227501   5.352   3.745   2.806
 8868SOL     OW27502   6.506   3.533   0.683
 8868SOL    HW127503   6.545   3.524   0.774
 8868SOL    HW227504   6.499   3.629   0.658
 8869SOL     OW27505   4.258   5.820   4.538
 8869SOL    HW127506   4.227   5.832   4.443
 8869SOL    HW227507   4.351   5.784   4.539
 8870SOL     OW27508   4.501   0.155   0.642
 8870SOL    HW127509   4.425   0.178   0.581
 8870SOL    HW227510   4.586   0.150   0.589
 8871SOL     OW27511   1.224   1.010   3.839
 8871SOL    HW127512   1.182   0.933   3.793
 8871SOL    HW227513   1.300   1.044   3.783
 8872SOL     OW27514   1.492   4.599   5.208
 8872SOL    HW127515   1.505   4.509   5.250
 8872SOL    HW227516   1.401   4.602   5.165
 8873SOL     OW27517   0.116   5.262   2.096
 8873SOL    HW127518   0.110   5.163   2.081
 8873SOL    HW227519   0.192   5.282   2.158
 8874SOL     OW27520   2.854   6.401   1.784
 8874SOL    HW127521   2.804   6.330   1.736
 8874SOL    HW227522   2.945   6.368   1.808
 8875SOL     OW27523   5.841   3.416   4.507
 8875SOL    HW127524   5.832   3.509   4.469
 8875SOL    HW227525   5.889   3.358   4.441
 8876SOL     OW27526   1.906   0.360   4.253
 8876SOL    HW127527   1.948   0.282   4.206
 8876SOL    HW227528   1.845   0.408   4.190
 8877SOL     OW27529   2.260   1.677   4.395
 8877SOL    HW127530   2.349   1.661   4.352
 8877SOL    HW227531   2.268   1.749   4.464
 8878SOL     OW27532   6.937   5.592   0.742
 8878SOL    HW127533   7.002   5.566   0.814
 8878SOL    HW227534   6.960   5.684   0.709
 8879SOL     OW27535   4.969   4.649   1.788
 8879SOL    HW127536   4.968   4.605   1.698
 8879SOL    HW227537   4.945   4.746   1.778
 8880SOL     OW27538   6.002   5.456   4.583
 8880SOL    HW127539   6.030   5.401   4.504
 8880SOL    HW227540   5.957   5.539   4.551
 8881SOL     OW27541   6.466   6.544   5.104
 8881SOL    HW127542   6.405   6.612   5.143
 8881SOL    HW227543   6.528   6.587   5.039
 8882SOL     OW27544   5.234   1.698   0.714
 8882SOL    HW127545   5.196   1.664   0.800
 8882SOL    HW227546   5.197   1.644   0.638
 8883SOL     OW27547   1.919   6.757   5.371
 8883SOL    HW127548   1.981   6.827   5.406
 8883SOL    HW227549   1.836   6.757   5.426
 8884SOL     OW27550   5.779   4.630   6.597
 8884SOL    HW127551   5.730   4.670   6.674
 8884SOL    HW227552   5.875   4.658   6.600
 8885SOL     OW27553   0.362   3.096   0.769
 8885SOL    HW127554   0.280   3.064   0.722
 8885SOL    HW227555   0.339   3.125   0.862
 8886SOL     OW27556   3.742   5.991   5.103
 8886SOL    HW127557   3.657   5.967   5.149
 8886SOL    HW227558   3.737   6.087   5.074
 8887SOL     OW27559   2.933   1.628   1.508
 8887SOL    HW127560   2.943   1.726   1.493
 8887SOL    HW227561   2.941   1.608   1.606
 8888SOL     OW27562   1.571   1.604   0.627
 8888SOL    HW127563   1.593   1.701   0.634
 8888SOL    HW227564   1.486   1.586   0.678
 8889SOL     OW27565   5.926   6.951   5.444
 8889SOL    HW127566   5.946   7.010   5.523
 8889SOL    HW227567   6.011   6.928   5.398
 8890SOL     OW27568   6.294   5.365   4.021
 8890SOL    HW127569   6.246   5.452   4.011
 8890SOL    HW227570   6.269   5.304   3.946
 8891SOL     OW27571   5.136   3.690   5.655
 8891SOL    HW127572   5.227   3.730   5.642
 8891SOL    HW227573   5.092   3.732   5.734
 8892SOL     OW27574   4.004   5.797   3.017
 8892SOL    HW127575   3.914   5.816   3.056
 8892SOL    HW227576   4.048   5.723   3.069
 8893SOL     OW27577   0.870   6.862   2.366
 8893SOL    HW127578   0.856   6.814   2.452
 8893SOL    HW227579   0.869   6.961   2.383
 8894SOL     OW27580   4.289   2.176   5.696
 8894SOL    HW127581   4.380   2.180   5.739
 8894SOL    HW227582   4.255   2.269   5.681
 8895SOL     OW27583   6.727   1.511   1.501
 8895SOL    HW127584   6.638   1.521   1.546
 8895SOL    HW227585   6.744   1.592   1.444
 8896SOL     OW27586   1.414   3.186   5.604
 8896SOL    HW127587   1.507   3.153   5.589
 8896SOL    HW227588   1.376   3.142   5.686
 8897SOL     OW27589   1.968   2.808   3.364
 8897SOL    HW127590   1.882   2.797   3.414
 8897SOL    HW227591   1.991   2.905   3.359
 8898SOL     OW27592   5.518   3.664   4.289
 8898SOL    HW127593   5.449   3.678   4.360
 8898SOL    HW227594   5.487   3.704   4.203
 8899SOL     OW27595   2.418   4.799   6.947
 8899SOL    HW127596   2.433   4.744   0.005
 8899SOL    HW227597   2.329   4.777   6.907
 8900SOL     OW27598   5.790   2.733   2.155
 8900SOL    HW127599   5.850   2.811   2.174
 8900SOL    HW227600   5.759   2.693   2.241
 8901SOL     OW27601   1.808   1.457   4.482
 8901SOL    HW127602   1.871   1.381   4.463
 8901SOL    HW227603   1.727   1.422   4.529
 8902SOL     OW27604   3.160   6.722   0.585
 8902SOL    HW127605   3.106   6.746   0.505
 8902SOL    HW227606   3.197   6.630   0.575
 8903SOL     OW27607   0.705   1.454   4.619
 8903SOL    HW127608   0.713   1.416   4.527
 8903SOL    HW227609   0.785   1.430   4.673
 8904SOL     OW27610   5.828   5.644   3.484
 8904SOL    HW127611   5.758   5.617   3.550
 8904SOL    HW227612   5.914   5.661   3.531
 8905SOL     OW27613   1.983   4.243   4.343
 8905SOL    HW127614   2.018   4.333   4.369
 8905SOL    HW227615   2.035   4.172   4.391
 8906SOL     OW27616   6.517   6.846   6.980
 8906SOL    HW127617   6.529   6.921   0.021
 8906SOL    HW227618   6.593   6.782   6.988
 8907SOL     OW27619   3.150   2.172   4.571
 8907SOL    HW127620   3.115   2.262   4.597
 8907SOL    HW227621   3.091   2.132   4.502
 8908SOL     OW27622   1.278   3.535   0.003
 8908SOL    HW127623   1.240   3.503   6.939
 8908SOL    HW227624   1.244   3.478   0.077
 8909SOL     OW27625   1.933   0.497   5.523
 8909SOL    HW127626   1.842   0.475   5.559
 8909SOL    HW227627   1.928   0.581   5.469
 8910SOL     OW27628   1.164   2.680   5.845
 8910SOL    HW127629   1.141   2.746   5.916
 8910SOL    HW227630   1.111   2.596   5.858
 8911SOL     OW27631   4.178   2.237   4.788
 8911SOL    HW127632   4.193   2.301   4.864
 8911SOL    HW227633   4.084   2.203   4.791
 8912SOL     OW27634   4.121   2.343   0.830
 8912SOL    HW127635   4.147   2.357   0.925
 8912SOL    HW227636   4.047   2.276   0.825
 8913SOL     OW27637   4.969   5.161   0.115
 8913SOL    HW127638   4.980   5.153   0.214
 8913SOL    HW227639   4.928   5.077   0.079
 8914SOL     OW27640   4.060   0.954   5.098
 8914SOL    HW127641   4.011   0.983   5.015
 8914SOL    HW227642   4.156   0.939   5.076
 8915SOL     OW27643   0.889   2.850   3.319
 8915SOL    HW127644   0.827   2.775   3.346
 8915SOL    HW227645   0.968   2.812   3.272
 8916SOL     OW27646   0.218   4.164   0.599
 8916SOL    HW127647   0.171   4.103   0.662
 8916SOL    HW227648   0.308   4.187   0.636
 8917SOL     OW27649   6.442   4.574   6.589
 8917SOL    HW127650   6.455   4.574   6.490
 8917SOL    HW227651   6.487   4.493   6.628
 8918SOL     OW27652   6.912   3.898   0.857
 8918SOL    HW127653   6.859   3.911   0.940
 8918SOL    HW227654   6.961   3.811   0.862
 8919SOL     OW27655   4.039   3.459   0.996
 8919SOL    HW127656   3.985   3.508   1.064
 8919SOL    HW227657   3.978   3.400   0.942
 8920SOL     OW27658   0.888   6.566   6.817
 8920SOL    HW127659   0.952   6.561   6.740
 8920SOL    HW227660   0.795   6.576   6.783
 8921SOL     OW27661   2.460   2.142   2.897
 8921SOL    HW127662   2.491   2.166   2.805
 8921SOL    HW227663   2.518   2.186   2.965
 8922SOL     OW27664   3.712   5.126   1.020
 8922SOL    HW127665   3.683   5.173   0.936
 8922SOL    HW227666   3.649   5.148   1.094
 8923SOL     OW27667   1.412   3.251   6.232
 8923SOL    HW127668   1.507   3.220   6.234
 8923SOL    HW227669   1.408   3.349   6.249
 8924SOL     OW27670   3.225   5.837   5.713
 8924SOL    HW127671   3.203   5.824   5.810
 8924SOL    HW227672   3.156   5.792   5.657
 8925SOL     OW27673   0.885   1.023   2.555
 8925SOL    HW127674   0.835   1.097   2.510
 8925SOL    HW227675   0.821   0.949   2.579
 8926SOL     OW27676   5.464   3.947   6.380
 8926SOL    HW127677   5.489   4.035   6.419
 8926SOL    HW227678   5.529   3.877   6.411
 8927SOL     OW27679   1.096   1.623   4.548
 8927SOL    HW127680   1.047   1.624   4.635
 8927SOL    HW227681   1.100   1.530   4.513
 8928SOL     OW27682   6.945   0.853   5.730
 8928SOL    HW127683   6.900   0.793   5.663
 8928SOL    HW227684   6.893   0.938   5.739
 8929SOL     OW27685   6.815   3.565   4.114
 8929SOL    HW127686   6.807   3.664   4.112
 8929SOL    HW227687   6.856   3.536   4.200
 8930SOL     OW27688   1.786   3.987   4.613
 8930SOL    HW127689   1.821   3.912   4.670
 8930SOL    HW227690   1.832   4.072   4.639
 8931SOL     OW27691   2.905   2.996   1.428
 8931SOL    HW127692   2.943   3.077   1.384
 8931SOL    HW227693   2.869   2.934   1.358
 8932SOL     OW27694   5.539   0.378   0.281
 8932SOL    HW127695   5.608   0.448   0.267
 8932SOL    HW227696   5.569   0.292   0.238
 8933SOL     OW27697   1.301   2.487   6.158
 8933SOL    HW127698   1.401   2.479   6.151
 8933SOL    HW227699   1.271   2.571   6.113
 8934SOL     OW27700   3.068   5.224   4.337
 8934SOL    HW127701   3.094   5.180   4.252
 8934SOL    HW227702   2.969   5.243   4.336
 8935SOL     OW27703   5.538   3.678   1.531
 8935SOL    HW127704   5.519   3.776   1.540
 8935SOL    HW227705   5.461   3.634   1.484
 8936SOL     OW27706   1.089   3.714   1.247
 8936SOL    HW127707   1.149   3.779   1.293
 8936SOL    HW227708   1.028   3.671   1.314
 8937SOL     OW27709   0.241   0.539   4.571
 8937SOL    HW127710   0.338   0.561   4.575
 8937SOL    HW227711   0.192   0.590   4.642
 8938SOL     OW27712   6.926   1.096   0.416
 8938SOL    HW127713   6.995   1.132   0.478
 8938SOL    HW227714   6.885   1.013   0.455
 8939SOL     OW27715   6.022   3.592   4.305
 8939SOL    HW127716   6.098   3.579   4.242
 8939SOL    HW227717   5.990   3.687   4.298
 8940SOL     OW27718   5.902   1.669   1.433
 8940SOL    HW127719   5.962   1.749   1.428
 8940SOL    HW227720   5.934   1.608   1.506
 8941SOL     OW27721   6.406   2.443   2.591
 8941SOL    HW127722   6.363   2.377   2.653
 8941SOL    HW227723   6.401   2.409   2.497
 8942SOL     OW27724   0.787   5.828   4.774
 8942SOL    HW127725   0.791   5.854   4.871
 8942SOL    HW227726   0.865   5.769   4.752
 8943SOL     OW27727   3.826   5.107   0.276
 8943SOL    HW127728   3.747   5.052   0.247
 8943SOL    HW227729   3.801   5.162   0.355
 8944SOL     OW27730   4.872   5.635   4.892
 8944SOL    HW127731   4.887   5.546   4.849
 8944SOL    HW227732   4.862   5.624   4.991
 8945SOL     OW27733   0.003   2.490   4.394
 8945SOL    HW127734   6.988   2.530   4.310
 8945SOL    HW227735   0.023   2.394   4.379
 8946SOL     OW27736   3.600   1.138   3.963
 8946SOL    HW127737   3.522   1.131   3.902
 8946SOL    HW227738   3.670   1.071   3.938
 8947SOL     OW27739   1.923   3.120   5.625
 8947SOL    HW127740   1.929   3.153   5.531
 8947SOL    HW227741   1.874   3.187   5.681
 8948SOL     OW27742   5.759   5.935   3.492
 8948SOL    HW127743   5.829   5.996   3.456
 8948SOL    HW227744   5.792   5.841   3.490
 8949SOL     OW27745   4.021   5.940   0.539
 8949SOL    HW127746   3.966   5.909   0.617
 8949SOL    HW227747   4.118   5.942   0.565
 8950SOL     OW27748   4.114   2.964   0.973
 8950SOL    HW127749   4.170   2.899   1.025
 8950SOL    HW227750   4.152   3.056   0.984
 8951SOL     OW27751   2.069   0.901   5.090
 8951SOL    HW127752   2.059   0.803   5.109
 8951SOL    HW227753   2.125   0.913   5.008
 8952SOL     OW27754   0.753   5.047   3.620
 8952SOL    HW127755   0.679   5.013   3.563
 8952SOL    HW227756   0.819   4.974   3.636
 8953SOL     OW27757   0.707   4.821   1.058
 8953SOL    HW127758   0.787   4.791   1.005
 8953SOL    HW227759   0.715   4.787   1.152
 8954SOL     OW27760   0.113   0.258   4.202
 8954SOL    HW127761   0.018   0.275   4.178
 8954SOL    HW227762   0.167   0.247   4.118
 8955SOL     OW27763   6.803   4.648   3.412
 8955SOL    HW127764   6.860   4.664   3.493
 8955SOL    HW227765   6.834   4.708   3.338
 8956SOL     OW27766   1.444   1.165   5.770
 8956SOL    HW127767   1.527   1.121   5.737
 8956SOL    HW227768   1.443   1.261   5.741
 8957SOL     OW27769   2.469   4.616   1.032
 8957SOL    HW127770   2.512   4.677   0.966
 8957SOL    HW227771   2.407   4.668   1.091
 8958SOL     OW27772   0.826   2.182   5.437
 8958SOL    HW127773   0.834   2.182   5.337
 8958SOL    HW227774   0.868   2.100   5.474
 8959SOL     OW27775   1.971   4.160   3.112
 8959SOL    HW127776   1.937   4.070   3.084
 8959SOL    HW227777   2.071   4.158   3.115
 8960SOL     OW27778   5.449   5.427   3.991
 8960SOL    HW127779   5.492   5.359   4.050
 8960SOL    HW227780   5.421   5.384   3.906
 8961SOL     OW27781   3.773   1.246   4.166
 8961SOL    HW127782   3.805   1.173   4.227
 8961SOL    HW227783   3.697   1.212   4.110
 8962SOL     OW27784   6.418   5.241   1.590
 8962SOL    HW127785   6.381   5.158   1.548
 8962SOL    HW227786   6.360   5.318   1.566
 8963SOL     OW27787   3.658   6.221   4.961
 8963SOL    HW127788   3.673   6.288   4.888
 8963SOL    HW227789   3.567   6.180   4.949
 8964SOL     OW27790   6.172   3.016   2.823
 8964SOL    HW127791   6.086   2.966   2.808
 8964SOL    HW227792   6.249   2.956   2.805
 8965SOL     OW27793   2.887   5.188   6.978
 8965SOL    HW127794   2.935   5.273   6.998
 8965SOL    HW227795   2.953   5.114   6.966
 8966SOL     OW27796   6.722   4.340   0.563
 8966SOL    HW127797   6.713   4.413   0.496
 8966SOL    HW227798   6.779   4.267   0.526
 8967SOL     OW27799   4.039   1.414   2.257
 8967SOL    HW127800   4.011   1.374   2.345
 8967SOL    HW227801   4.091   1.347   2.205
 8968SOL     OW27802   4.149   6.307   2.543
 8968SOL    HW127803   4.200   6.314   2.457
 8968SOL    HW227804   4.186   6.231   2.597
 8969SOL     OW27805   0.319   0.384   3.489
 8969SOL    HW127806   0.259   0.462   3.505
 8969SOL    HW227807   0.264   0.303   3.468
 8970SOL     OW27808   1.575   2.085   6.475
 8970SOL    HW127809   1.611   2.042   6.392
 8970SOL    HW227810   1.610   2.178   6.483
 8971SOL     OW27811   5.336   6.537   1.540
 8971SOL    HW127812   5.280   6.585   1.472
 8971SOL    HW227813   5.381   6.459   1.496
 8972SOL     OW27814   5.048   3.581   0.536
 8972SOL    HW127815   4.956   3.619   0.548
 8972SOL    HW227816   5.072   3.527   0.617
 8973SOL     OW27817   6.818   2.665   2.607
 8973SOL    HW127818   6.782   2.695   2.519
 8973SOL    HW227819   6.743   2.649   2.671
 8974SOL     OW27820   1.891   3.283   3.745
 8974SOL    HW127821   1.834   3.355   3.784
 8974SOL    HW227822   1.852   3.253   3.658
 8975SOL     OW27823   0.366   5.757   6.748
 8975SOL    HW127824   0.416   5.802   6.673
 8975SOL    HW227825   0.431   5.725   6.817
 8976SOL     OW27826   0.162   5.371   0.490
 8976SOL    HW127827   0.074   5.412   0.464
 8976SOL    HW227828   0.150   5.273   0.507
 8977SOL     OW27829   6.843   3.767   6.650
 8977SOL    HW127830   6.790   3.819   6.717
 8977SOL    HW227831   6.926   3.818   6.628
 8978SOL     OW27832   6.028   0.283   4.902
 8978SOL    HW127833   5.945   0.318   4.945
 8978SOL    HW227834   6.096   0.356   4.896
 8979SOL     OW27835   1.369   4.933   6.115
 8979SOL    HW127836   1.411   4.867   6.052
 8979SOL    HW227837   1.422   4.937   6.199
 8980SOL     OW27838   5.509   2.705   6.019
 8980SOL    HW127839   5.454   2.660   5.949
 8980SOL    HW227840   5.481   2.801   6.027
 8981SOL     OW27841   4.982   1.831   5.353
 8981SOL    HW127842   4.936   1.903   5.407
 8981SOL    HW227843   5.032   1.873   5.278
 8982SOL     OW27844   0.109   1.823   0.863
 8982SOL    HW127845   0.058   1.786   0.941
 8982SOL    HW227846   0.064   1.796   0.778
 8983SOL     OW27847   0.720   5.594   0.780
 8983SOL    HW127848   0.690   5.682   0.818
 8983SOL    HW227849   0.759   5.538   0.853
 8984SOL     OW27850   6.590   6.227   4.164
 8984SOL    HW127851   6.538   6.144   4.185
 8984SOL    HW227852   6.528   6.306   4.164
 8985SOL     OW27853   2.476   1.624   1.299
 8985SOL    HW127854   2.464   1.701   1.362
 8985SOL    HW227855   2.571   1.620   1.270
 8986SOL     OW27856   4.615   5.030   3.114
 8986SOL    HW127857   4.555   5.104   3.086
 8986SOL    HW227858   4.709   5.051   3.087
 8987SOL     OW27859   2.887   0.493   1.455
 8987SOL    HW127860   2.885   0.521   1.552
 8987SOL    HW227861   2.968   0.438   1.438
 8988SOL     OW27862   2.239   4.569   0.408
 8988SOL    HW127863   2.281   4.583   0.497
 8988SOL    HW227864   2.143   4.598   0.412
 8989SOL     OW27865   5.027   3.846   2.374
 8989SOL    HW127866   5.032   3.805   2.283
 8989SOL    HW227867   5.120   3.861   2.409
 8990SOL     OW27868   2.473   5.305   1.606
 8990SOL    HW127869   2.455   5.226   1.665
 8990SOL    HW227870   2.491   5.385   1.664
 8991SOL     OW27871   2.654   1.292   1.008
 8991SOL    HW127872   2.715   1.371   1.003
 8991SOL    HW227873   2.643   1.265   1.104
 8992SOL     OW27874   6.867   2.673   6.473
 8992SOL    HW127875   6.930   2.696   6.547
 8992SOL    HW227876   6.900   2.592   6.425
 8993SOL     OW27877   4.636   2.557   2.994
 8993SOL    HW127878   4.552   2.507   2.972
 8993SOL    HW227879   4.676   2.593   2.910
 8994SOL     OW27880   1.043   6.056   4.388
 8994SOL    HW127881   1.092   6.020   4.467
 8994SOL    HW227882   0.964   5.997   4.369
 8995SOL     OW27883   1.345   2.445   5.621
 8995SOL    HW127884   1.292   2.497   5.688
 8995SOL    HW227885   1.307   2.353   5.613
 8996SOL     OW27886   0.277   4.537   1.636
 8996SOL    HW127887   0.317   4.476   1.705
 8996SOL    HW227888   0.259   4.626   1.678
 8997SOL     OW27889   4.276   1.183   6.535
 8997SOL    HW127890   4.367   1.219   6.559
 8997SOL    HW227891   4.211   1.259   6.532
 8998SOL     OW27892   0.784   2.461   4.204
 8998SOL    HW127893   0.698   2.444   4.156
 8998SOL    HW227894   0.799   2.389   4.271
 8999SOL     OW27895   3.963   0.451   0.016
 8999SOL    HW127896   3.939   0.359   7.008
 8999SOL    HW227897   3.882   0.494   0.057
 9000SOL     OW27898   2.862   4.127   6.334
 9000SOL    HW127899   2.789   4.065   6.362
 9000SOL    HW227900   2.883   4.189   6.409
 9001SOL     OW27901   1.838   5.273   2.830
 9001SOL    HW127902   1.927   5.319   2.840
 9001SOL    HW227903   1.766   5.331   2.866
 9002SOL     OW27904   0.236   4.868   4.946
 9002SOL    HW127905   0.157   4.926   4.964
 9002SOL    HW227906   0.317   4.908   4.989
 9003SOL     OW27907   5.653   2.961   1.078
 9003SOL    HW127908   5.715   3.031   1.043
 9003SOL    HW227909   5.561   2.977   1.044
 9004SOL     OW27910   4.428   6.741   1.894
 9004SOL    HW127911   4.518   6.755   1.855
 9004SOL    HW227912   4.430   6.761   1.993
 9005SOL     OW27913   5.908   1.933   4.222
 9005SOL    HW127914   5.999   1.953   4.260
 9005SOL    HW227915   5.859   2.018   4.207
 9006SOL     OW27916   1.418   6.190   0.736
 9006SOL    HW127917   1.335   6.142   0.766
 9006SOL    HW227918   1.450   6.151   0.650
 9007SOL     OW27919   3.407   5.674   3.581
 9007SOL    HW127920   3.391   5.695   3.678
 9007SOL    HW227921   3.504   5.681   3.561
 9008SOL     OW27922   6.930   5.450   3.012
 9008SOL    HW127923   6.868   5.507   3.066
 9008SOL    HW227924   6.946   5.493   2.923
 9009SOL     OW27925   2.884   6.394   0.599
 9009SOL    HW127926   2.933   6.320   0.553
 9009SOL    HW227927   2.820   6.355   0.665
 9010SOL     OW27928   1.001   6.872   4.669
 9010SOL    HW127929   1.006   6.779   4.632
 9010SOL    HW227930   0.906   6.892   4.694
 9011SOL     OW27931   4.013   1.846   1.349
 9011SOL    HW127932   4.062   1.928   1.375
 9011SOL    HW227933   3.925   1.843   1.397
 9012SOL     OW27934   2.978   5.024   1.190
 9012SOL    HW127935   2.932   5.112   1.203
 9012SOL    HW227936   3.077   5.039   1.181
 9013SOL     OW27937   6.029   5.818   4.864
 9013SOL    HW127938   5.980   5.813   4.951
 9013SOL    HW227939   6.063   5.727   4.839
 9014SOL     OW27940   0.874   1.394   0.517
 9014SOL    HW127941   0.962   1.356   0.489
 9014SOL    HW227942   0.889   1.465   0.586
 9015SOL     OW27943   6.021   0.565   0.688
 9015SOL    HW127944   5.926   0.540   0.670
 9015SOL    HW227945   6.061   0.500   0.753
 9016SOL     OW27946   6.848   6.387   6.550
 9016SOL    HW127947   6.833   6.441   6.633
 9016SOL    HW227948   6.941   6.349   6.551
 9017SOL     OW27949   5.666   2.617   2.900
 9017SOL    HW127950   5.597   2.607   2.829
 9017SOL    HW227951   5.623   2.607   2.990
 9018SOL     OW27952   4.119   1.707   5.567
 9018SOL    HW127953   4.218   1.712   5.575
 9018SOL    HW227954   4.077   1.774   5.627
 9019SOL     OW27955   0.871   6.919   0.832
 9019SOL    HW127956   0.838   6.836   0.877
 9019SOL    HW227957   0.914   6.979   0.899
 9020SOL     OW27958   1.532   3.596   1.899
 9020SOL    HW127959   1.597   3.576   1.972
 9020SOL    HW227960   1.569   3.565   1.812
 9021SOL     OW27961   6.271   0.105   4.157
 9021SOL    HW127962   6.233   0.015   4.138
 9021SOL    HW227963   6.244   0.135   4.248
 9022SOL     OW27964   2.628   0.428   1.495
 9022SOL    HW127965   2.630   0.402   1.592
 9022SOL    HW227966   2.722   0.432   1.460
 9023SOL     OW27967   4.068   3.152   2.844
 9023SOL    HW127968   4.057   3.093   2.763
 9023SOL    HW227969   4.083   3.246   2.815
 9024SOL     OW27970   1.566   5.698   6.479
 9024SOL    HW127971   1.599   5.737   6.394
 9024SOL    HW227972   1.625   5.621   6.505
 9025SOL     OW27973   6.707   5.767   1.013
 9025SOL    HW127974   6.655   5.691   1.052
 9025SOL    HW227975   6.651   5.814   0.945
 9026SOL     OW27976   4.055   3.450   3.213
 9026SOL    HW127977   4.076   3.445   3.115
 9026SOL    HW227978   4.106   3.525   3.254
 9027SOL     OW27979   2.561   1.722   3.643
 9027SOL    HW127980   2.517   1.767   3.721
 9027SOL    HW227981   2.658   1.747   3.642
 9028SOL     OW27982   2.408   4.062   5.786
 9028SOL    HW127983   2.452   4.147   5.759
 9028SOL    HW227984   2.310   4.077   5.797
 9029SOL     OW27985   3.262   5.459   5.193
 9029SOL    HW127986   3.257   5.364   5.221
 9029SOL    HW227987   3.194   5.513   5.242
 9030SOL     OW27988   2.391   0.768   3.146
 9030SOL    HW127989   2.404   0.867   3.141
 9030SOL    HW227990   2.331   0.738   3.072
 9031SOL     OW27991   4.757   5.289   5.990
 9031SOL    HW127992   4.657   5.296   5.986
 9031SOL    HW227993   4.798   5.357   5.929
 9032SOL     OW27994   4.033   2.591   0.791
 9032SOL    HW127995   4.062   2.495   0.793
 9032SOL    HW227996   4.004   2.619   0.883
 9033SOL     OW27997   1.803   3.764   3.266
 9033SOL    HW127998   1.798   3.845   3.324
 9033SOL    HW227999   1.882   3.709   3.293
 9034SOL     OW28000   2.979   6.736   4.774
 9034SOL    HW128001   2.996   6.712   4.678
 9034SOL    HW228002   2.999   6.833   4.787
 9035SOL     OW28003   1.043   6.314   5.093
 9035SOL    HW128004   1.049   6.238   5.027
 9035SOL    HW228005   1.114   6.381   5.073
 9036SOL     OW28006   1.390   1.489   4.570
 9036SOL    HW128007   1.364   1.452   4.480
 9036SOL    HW228008   1.455   1.565   4.557
 9037SOL     OW28009   1.443   4.595   6.729
 9037SOL    HW128010   1.411   4.679   6.772
 9037SOL    HW228011   1.366   4.547   6.687
 9038SOL     OW28012   4.444   0.335   4.881
 9038SOL    HW128013   4.362   0.381   4.845
 9038SOL    HW228014   4.521   0.350   4.818
 9039SOL     OW28015   1.634   4.663   4.643
 9039SOL    HW128016   1.566   4.646   4.714
 9039SOL    HW228017   1.717   4.612   4.664
 9040SOL     OW28018   2.591   1.229   3.312
 9040SOL    HW128019   2.595   1.327   3.292
 9040SOL    HW228020   2.667   1.205   3.373
 9041SOL     OW28021   0.600   2.073   1.772
 9041SOL    HW128022   0.535   1.999   1.759
 9041SOL    HW228023   0.586   2.114   1.863
 9042SOL     OW28024   3.034   5.933   3.958
 9042SOL    HW128025   3.054   5.883   3.874
 9042SOL    HW228026   2.964   6.002   3.941
 9043SOL     OW28027   2.332   1.081   5.843
 9043SOL    HW128028   2.392   1.033   5.907
 9043SOL    HW228029   2.380   1.160   5.806
 9044SOL     OW28030   6.443   1.228   1.353
 9044SOL    HW128031   6.495   1.145   1.374
 9044SOL    HW228032   6.506   1.301   1.326
 9045SOL     OW28033   3.765   1.781   2.182
 9045SOL    HW128034   3.781   1.877   2.160
 9045SOL    HW228035   3.781   1.767   2.280
 9046SOL     OW28036   3.210   3.575   4.168
 9046SOL    HW128037   3.128   3.544   4.216
 9046SOL    HW228038   3.288   3.520   4.196
 9047SOL     OW28039   1.556   3.086   5.840
 9047SOL    HW128040   1.493   3.163   5.849
 9047SOL    HW228041   1.520   3.007   5.889
 9048SOL     OW28042   6.006   3.372   6.442
 9048SOL    HW128043   6.008   3.310   6.521
 9048SOL    HW228044   5.918   3.366   6.397
 9049SOL     OW28045   4.572   6.661   6.311
 9049SOL    HW128046   4.672   6.664   6.318
 9049SOL    HW228047   4.545   6.640   6.217
 9050SOL     OW28048   0.409   5.313   5.808
 9050SOL    HW128049   0.349   5.292   5.885
 9050SOL    HW228050   0.378   5.263   5.727
 9051SOL     OW28051   4.340   6.476   1.207
 9051SOL    HW128052   4.414   6.526   1.161
 9051SOL    HW228053   4.353   6.378   1.192
 9052SOL     OW28054   2.113   3.502   3.783
 9052SOL    HW128055   2.050   3.429   3.755
 9052SOL    HW228056   2.116   3.507   3.882
 9053SOL     OW28057   2.564   1.534   3.340
 9053SOL    HW128058   2.649   1.543   3.394
 9053SOL    HW228059   2.500   1.605   3.368
 9054SOL     OW28060   1.458   0.348   2.227
 9054SOL    HW128061   1.481   0.440   2.260
 9054SOL    HW228062   1.360   0.344   2.205
 9055SOL     OW28063   0.458   3.828   3.505
 9055SOL    HW128064   0.444   3.858   3.411
 9055SOL    HW228065   0.479   3.907   3.562
 9056SOL     OW28066   5.401   0.236   2.187
 9056SOL    HW128067   5.416   0.137   2.182
 9056SOL    HW228068   5.308   0.254   2.219
 9057SOL     OW28069   5.763   5.314   6.107
 9057SOL    HW128070   5.860   5.311   6.080
 9057SOL    HW228071   5.735   5.409   6.119
 9058SOL     OW28072   1.997   1.450   3.847
 9058SOL    HW128073   2.015   1.477   3.753
 9058SOL    HW228074   1.947   1.523   3.893
 9059SOL     OW28075   0.111   1.238   4.081
 9059SOL    HW128076   0.035   1.217   4.019
 9059SOL    HW228077   0.197   1.227   4.031
 9060SOL     OW28078   0.227   3.818   1.941
 9060SOL    HW128079   0.209   3.744   1.876
 9060SOL    HW228080   0.307   3.795   1.996
 9061SOL     OW28081   3.935   5.922   2.360
 9061SOL    HW128082   3.863   5.861   2.328
 9061SOL    HW228083   3.996   5.874   2.422
 9062SOL     OW28084   1.476   4.838   2.336
 9062SOL    HW128085   1.555   4.777   2.340
 9062SOL    HW228086   1.428   4.836   2.424
 9063SOL     OW28087   2.505   0.483   2.861
 9063SOL    HW128088   2.521   0.573   2.821
 9063SOL    HW228089   2.513   0.489   2.961
 9064SOL     OW28090   5.956   4.105   4.184
 9064SOL    HW128091   6.004   4.184   4.221
 9064SOL    HW228092   5.963   4.106   4.084
 9065SOL     OW28093   3.650   5.351   6.583
 9065SOL    HW128094   3.606   5.423   6.636
 9065SOL    HW228095   3.612   5.262   6.609
 9066SOL     OW28096   5.821   0.763   6.890
 9066SOL    HW128097   5.727   0.772   6.925
 9066SOL    HW228098   5.876   0.709   6.954
 9067SOL     OW28099   5.798   6.504   5.279
 9067SOL    HW128100   5.759   6.509   5.187
 9067SOL    HW228101   5.790   6.592   5.324
 9068SOL     OW28102   3.136   0.435   5.237
 9068SOL    HW128103   3.182   0.351   5.210
 9068SOL    HW228104   3.040   0.431   5.209
 9069SOL     OW28105   3.307   2.182   1.709
 9069SOL    HW128106   3.275   2.137   1.791
 9069SOL    HW228107   3.407   2.190   1.712
 9070SOL     OW28108   0.841   3.307   5.937
 9070SOL    HW128109   0.764   3.371   5.941
 9070SOL    HW228110   0.925   3.357   5.921
 9071SOL     OW28111   4.740   6.433   0.843
 9071SOL    HW128112   4.802   6.412   0.766
 9071SOL    HW228113   4.669   6.495   0.812
 9072SOL     OW28114   5.091   0.814   1.899
 9072SOL    HW128115   5.047   0.878   1.962
 9072SOL    HW228116   5.054   0.722   1.913
 9073SOL     OW28117   3.655   6.731   1.287
 9073SOL    HW128118   3.565   6.703   1.322
 9073SOL    HW228119   3.678   6.822   1.324
 9074SOL     OW28120   1.809   0.815   1.012
 9074SOL    HW128121   1.797   0.791   1.108
 9074SOL    HW228122   1.733   0.872   0.982
 9075SOL     OW28123   0.752   0.147   1.353
 9075SOL    HW128124   0.671   0.112   1.306
 9075SOL    HW228125   0.728   0.174   1.446
 9076SOL     OW28126   5.749   1.521   4.926
 9076SOL    HW128127   5.730   1.492   4.832
 9076SOL    HW228128   5.687   1.595   4.951
 9077SOL     OW28129   5.446   1.321   6.481
 9077SOL    HW128130   5.428   1.311   6.579
 9077SOL    HW228131   5.390   1.256   6.429
 9078SOL     OW28132   5.256   3.349   0.324
 9078SOL    HW128133   5.294   3.347   0.417
 9078SOL    HW228134   5.331   3.346   0.258
 9079SOL     OW28135   1.665   6.204   4.111
 9079SOL    HW128136   1.608   6.222   4.031
 9079SOL    HW228137   1.715   6.287   4.136
 9080SOL     OW28138   5.601   2.822   6.544
 9080SOL    HW128139   5.576   2.793   6.452
 9080SOL    HW228140   5.524   2.869   6.587
 9081SOL     OW28141   3.276   7.015   2.346
 9081SOL    HW128142   3.352   6.952   2.363
 9081SOL    HW228143   3.311   0.084   2.334
 9082SOL     OW28144   2.557   6.259   5.826
 9082SOL    HW128145   2.596   6.192   5.763
 9082SOL    HW228146   2.601   6.348   5.812
 9083SOL     OW28147   3.778   4.272   5.576
 9083SOL    HW128148   3.739   4.324   5.652
 9083SOL    HW228149   3.738   4.180   5.575
 9084SOL     OW28150   2.489   2.877   5.930
 9084SOL    HW128151   2.407   2.933   5.922
 9084SOL    HW228152   2.466   2.781   5.913
 9085SOL     OW28153   1.406   5.326   0.839
 9085SOL    HW128154   1.480   5.273   0.881
 9085SOL    HW228155   1.333   5.264   0.812
 9086SOL     OW28156   6.681   4.178   0.955
 9086SOL    HW128157   6.605   4.121   0.926
 9086SOL    HW228158   6.749   4.182   0.881
 9087SOL     OW28159   4.747   2.892   1.668
 9087SOL    HW128160   4.720   2.954   1.742
 9087SOL    HW228161   4.824   2.836   1.698
 9088SOL     OW28162   6.645   6.265   0.779
 9088SOL    HW128163   6.685   6.198   0.841
 9088SOL    HW228164   6.698   6.350   0.782
 9089SOL     OW28165   4.569   6.017   5.752
 9089SOL    HW128166   4.599   6.102   5.711
 9089SOL    HW228167   4.485   6.033   5.803
 9090SOL     OW28168   6.464   6.941   3.499
 9090SOL    HW128169   6.397   6.965   3.429
 9090SOL    HW228170   6.532   6.879   3.460
 9091SOL     OW28171   2.699   3.602   0.436
 9091SOL    HW128172   2.733   3.675   0.376
 9091SOL    HW228173   2.647   3.536   0.382
 9092SOL     OW28174   0.113   1.173   0.599
 9092SOL    HW128175   0.200   1.210   0.568
 9092SOL    HW228176   0.118   1.151   0.696
 9093SOL     OW28177   1.673   6.023   6.531
 9093SOL    HW128178   1.590   6.019   6.585
 9093SOL    HW228179   1.653   6.063   6.441
 9094SOL     OW28180   7.009   5.014   3.333
 9094SOL    HW128181   0.075   5.027   3.378
 9094SOL    HW228182   6.936   5.023   3.400
 9095SOL     OW28183   4.401   3.460   6.567
 9095SOL    HW128184   4.340   3.539   6.569
 9095SOL    HW228185   4.379   3.399   6.643
 9096SOL     OW28186   5.564   4.218   1.858
 9096SOL    HW128187   5.573   4.136   1.803
 9096SOL    HW228188   5.629   4.287   1.826
 9097SOL     OW28189   1.388   2.788   7.006
 9097SOL    HW128190   1.465   2.728   6.983
 9097SOL    HW228191   1.326   2.792   6.928
 9098SOL     OW28192   3.860   2.330   6.783
 9098SOL    HW128193   3.934   2.366   6.838
 9098SOL    HW228194   3.815   2.405   6.733
 9099SOL     OW28195   3.528   3.310   6.976
 9099SOL    HW128196   3.507   3.363   6.894
 9099SOL    HW228197   3.575   3.368   0.019
 9100SOL     OW28198   0.724   3.165   4.201
 9100SOL    HW128199   0.751   3.182   4.106
 9100SOL    HW228200   0.798   3.193   4.262
 9101SOL     OW28201   2.784   2.340   3.241
 9101SOL    HW128202   2.875   2.302   3.258
 9101SOL    HW228203   2.723   2.314   3.316
 9102SOL     OW28204   2.707   0.064   2.361
 9102SOL    HW128205   2.660   7.007   2.324
 9102SOL    HW228206   2.693   0.142   2.300
 9103SOL     OW28207   6.639   3.420   6.896
 9103SOL    HW128208   6.646   3.344   6.962
 9103SOL    HW228209   6.592   3.388   6.814
 9104SOL     OW28210   5.730   6.401   3.058
 9104SOL    HW128211   5.815   6.401   3.112
 9104SOL    HW228212   5.660   6.452   3.107
 9105SOL     OW28213   1.515   1.418   0.431
 9105SOL    HW128214   1.501   1.324   0.462
 9105SOL    HW228215   1.509   1.480   0.509
 9106SOL     OW28216   6.611   3.837   0.039
 9106SOL    HW128217   6.649   3.886   0.118
 9106SOL    HW228218   6.526   3.882   0.010
 9107SOL     OW28219   3.284   0.604   6.146
 9107SOL    HW128220   3.373   0.646   6.129
 9107SOL    HW228221   3.296   0.507   6.167
 9108SOL     OW28222   4.548   3.873   5.737
 9108SOL    HW128223   4.457   3.852   5.774
 9108SOL    HW228224   4.546   3.866   5.638
 9109SOL     OW28225   0.574   2.704   2.568
 9109SOL    HW128226   0.659   2.756   2.564
 9109SOL    HW228227   0.552   2.669   2.477
 9110SOL     OW28228   1.570   3.854   3.770
 9110SOL    HW128229   1.653   3.900   3.737
 9110SOL    HW228230   1.553   3.879   3.865
 9111SOL     OW28231   4.300   1.556   0.863
 9111SOL    HW128232   4.303   1.562   0.963
 9111SOL    HW228233   4.255   1.471   0.836
 9112SOL     OW28234   0.715   4.944   4.386
 9112SOL    HW128235   0.781   4.937   4.461
 9112SOL    HW228236   0.736   4.875   4.317
 9113SOL     OW28237   5.309   1.263   2.340
 9113SOL    HW128238   5.326   1.272   2.242
 9113SOL    HW228239   5.210   1.255   2.356
 9114SOL     OW28240   0.685   4.442   1.686
 9114SOL    HW128241   0.631   4.526   1.685
 9114SOL    HW228242   0.624   4.362   1.684
 9115SOL     OW28243   6.835   4.649   5.243
 9115SOL    HW128244   6.816   4.713   5.168
 9115SOL    HW228245   6.932   4.629   5.246
 9116SOL     OW28246   6.693   1.330   1.290
 9116SOL    HW128247   6.708   1.372   1.379
 9116SOL    HW228248   6.780   1.294   1.255
 9117SOL     OW28249   6.018   2.463   0.013
 9117SOL    HW128250   6.110   2.464   6.996
 9117SOL    HW228251   5.974   2.551   7.020
 9118SOL     OW28252   6.446   3.981   0.439
 9118SOL    HW128253   6.431   3.883   0.427
 9118SOL    HW228254   6.543   3.998   0.456
 9119SOL     OW28255   4.713   1.096   1.488
 9119SOL    HW128256   4.721   1.019   1.424
 9119SOL    HW228257   4.619   1.101   1.521
 9120SOL     OW28258   6.099   1.700   5.976
 9120SOL    HW128259   6.037   1.737   6.044
 9120SOL    HW228260   6.093   1.755   5.892
 9121SOL     OW28261   2.868   1.573   5.156
 9121SOL    HW128262   2.793   1.522   5.197
 9121SOL    HW228263   2.831   1.643   5.095
 9122SOL     OW28264   1.652   4.122   2.437
 9122SOL    HW128265   1.569   4.121   2.492
 9122SOL    HW228266   1.634   4.168   2.350
 9123SOL     OW28267   1.910   0.789   4.354
 9123SOL    HW128268   1.880   0.775   4.260
 9123SOL    HW228269   1.951   0.705   4.390
 9124SOL     OW28270   5.751   6.503   0.117
 9124SOL    HW128271   5.743   6.404   0.100
 9124SOL    HW228272   5.690   6.552   0.055
 9125SOL     OW28273   4.721   3.880   1.024
 9125SOL    HW128274   4.721   3.783   1.001
 9125SOL    HW228275   4.791   3.898   1.094
 9126SOL     OW28276   5.834   3.246   2.041
 9126SOL    HW128277   5.747   3.288   2.019
 9126SOL    HW228278   5.894   3.248   1.962
 9127SOL     OW28279   6.898   1.453   6.063
 9127SOL    HW128280   6.801   1.443   6.040
 9127SOL    HW228281   6.907   1.505   6.148
 9128SOL     OW28282   5.648   1.473   5.229
 9128SOL    HW128283   5.724   1.422   5.188
 9128SOL    HW228284   5.568   1.469   5.169
 9129SOL     OW28285   0.831   2.278   0.210
 9129SOL    HW128286   0.863   2.299   0.302
 9129SOL    HW228287   0.785   2.190   0.210
 9130SOL     OW28288   6.923   3.537   6.526
 9130SOL    HW128289   6.994   3.578   6.468
 9130SOL    HW228290   6.881   3.608   6.583
 9131SOL     OW28291   6.007   2.587   5.034
 9131SOL    HW128292   6.099   2.550   5.048
 9131SOL    HW228293   6.013   2.668   4.975
 9132SOL     OW28294   0.621   5.404   4.838
 9132SOL    HW128295   0.676   5.377   4.759
 9132SOL    HW228296   0.524   5.400   4.814
 9133SOL     OW28297   3.623   6.295   1.365
 9133SOL    HW128298   3.593   6.319   1.273
 9133SOL    HW228299   3.719   6.267   1.362
 9134SOL     OW28300   4.668   5.459   0.965
 9134SOL    HW128301   4.624   5.386   1.018
 9134SOL    HW228302   4.766   5.457   0.982
 9135SOL     OW28303   6.489   6.848   1.875
 9135SOL    HW128304   6.459   6.866   1.969
 9135SOL    HW228305   6.410   6.839   1.815
 9136SOL     OW28306   5.058   6.181   6.488
 9136SOL    HW128307   5.013   6.098   6.457
 9136SOL    HW228308   5.009   6.261   6.452
 9137SOL     OW28309   5.444   1.413   0.680
 9137SOL    HW128310   5.480   1.485   0.739
 9137SOL    HW228311   5.367   1.368   0.725
 9138SOL     OW28312   6.955   5.543   6.676
 9138SOL    HW128313   6.924   5.619   6.732
 9138SOL    HW228314   0.028   5.556   6.651
 9139SOL     OW28315   2.828   1.788   3.638
 9139SOL    HW128316   2.907   1.741   3.599
 9139SOL    HW228317   2.837   1.886   3.624
 9140SOL     OW28318   6.922   3.533   2.688
 9140SOL    HW128319   6.914   3.451   2.746
 9140SOL    HW228320   6.979   3.511   2.609
 9141SOL     OW28321   5.738   0.806   0.666
 9141SOL    HW128322   5.672   0.779   0.597
 9141SOL    HW228323   5.703   0.883   0.719
 9142SOL     OW28324   0.544   2.474   0.552
 9142SOL    HW128325   0.521   2.540   0.623
 9142SOL    HW228326   0.593   2.521   0.478
 9143SOL     OW28327   5.977   3.647   6.502
 9143SOL    HW128328   5.908   3.628   6.572
 9143SOL    HW228329   5.997   3.564   6.450
 9144SOL     OW28330   2.363   5.034   4.421
 9144SOL    HW128331   2.305   5.078   4.489
 9144SOL    HW228332   2.412   4.958   4.462
 9145SOL     OW28333   0.202   5.854   0.563
 9145SOL    HW128334   0.230   5.922   0.495
 9145SOL    HW228335   0.254   5.770   0.549
 9146SOL     OW28336   5.442   2.988   3.434
 9146SOL    HW128337   5.377   3.034   3.372
 9146SOL    HW228338   5.419   2.891   3.439
 9147SOL     OW28339   6.180   0.519   5.287
 9147SOL    HW128340   6.197   0.561   5.198
 9147SOL    HW228341   6.163   0.591   5.355
 9148SOL     OW28342   4.840   6.194   1.343
 9148SOL    HW128343   4.860   6.284   1.382
 9148SOL    HW228344   4.922   6.160   1.296
 9149SOL     OW28345   5.718   3.880   2.951
 9149SOL    HW128346   5.670   3.968   2.959
 9149SOL    HW228347   5.778   3.882   2.871
 9150SOL     OW28348   3.531   5.558   1.203
 9150SOL    HW128349   3.611   5.590   1.152
 9150SOL    HW228350   3.560   5.501   1.280
 9151SOL     OW28351   1.931   4.194   3.617
 9151SOL    HW128352   2.011   4.142   3.587
 9151SOL    HW228353   1.953   4.291   3.620
 9152SOL     OW28354   2.227   4.040   4.733
 9152SOL    HW128355   2.276   4.016   4.818
 9152SOL    HW228356   2.280   4.108   4.683
 9153SOL     OW28357   0.831   2.993   6.638
 9153SOL    HW128358   0.817   3.089   6.664
 9153SOL    HW228359   0.921   2.963   6.672
 9154SOL     OW28360   4.687   4.617   0.172
 9154SOL    HW128361   4.697   4.577   0.081
 9154SOL    HW228362   4.651   4.710   0.164
 9155SOL     OW28363   1.824   3.576   2.364
 9155SOL    HW128364   1.867   3.538   2.446
 9155SOL    HW228365   1.894   3.619   2.306
 9156SOL     OW28366   1.090   2.517   6.995
 9156SOL    HW128367   1.040   2.561   0.047
 9156SOL    HW228368   1.076   2.418   6.999
 9157SOL     OW28369   1.365   4.209   6.278
 9157SOL    HW128370   1.293   4.148   6.309
 9157SOL    HW228371   1.421   4.237   6.356
 9158SOL     OW28372   5.112   3.386   4.801
 9158SOL    HW128373   5.164   3.456   4.851
 9158SOL    HW228374   5.017   3.387   4.832
 9159SOL     OW28375   1.757   0.950   1.626
 9159SOL    HW128376   1.813   0.991   1.553
 9159SOL    HW228377   1.737   1.020   1.695
 9160SOL     OW28378   6.743   6.211   5.479
 9160SOL    HW128379   6.715   6.121   5.446
 9160SOL    HW228380   6.735   6.278   5.405
 9161SOL     OW28381   5.379   4.582   4.139
 9161SOL    HW128382   5.352   4.602   4.234
 9161SOL    HW228383   5.355   4.659   4.081
 9162SOL     OW28384   4.204   1.230   3.539
 9162SOL    HW128385   4.301   1.251   3.536
 9162SOL    HW228386   4.190   1.139   3.578
 9163SOL     OW28387   1.347   2.468   4.841
 9163SOL    HW128388   1.254   2.501   4.858
 9163SOL    HW228389   1.411   2.521   4.896
 9164SOL     OW28390   2.734   6.790   6.724
 9164SOL    HW128391   2.741   6.771   6.822
 9164SOL    HW228392   2.735   6.889   6.709
 9165SOL     OW28393   6.728   1.236   5.315
 9165SOL    HW128394   6.661   1.288   5.261
 9165SOL    HW228395   6.793   1.191   5.254
 9166SOL     OW28396   3.937   6.072   1.468
 9166SOL    HW128397   3.856   6.019   1.494
 9166SOL    HW228398   4.008   6.009   1.434
 9167SOL     OW28399   2.027   2.145   6.233
 9167SOL    HW128400   2.068   2.071   6.287
 9167SOL    HW228401   1.986   2.107   6.150
 9168SOL     OW28402   0.237   6.436   5.996
 9168SOL    HW128403   0.263   6.527   6.027
 9168SOL    HW228404   0.315   6.374   6.006
 9169SOL     OW28405   6.371   0.350   6.272
 9169SOL    HW128406   6.433   0.419   6.310
 9169SOL    HW228407   6.401   0.259   6.301
 9170SOL     OW28408   1.036   0.000   6.871
 9170SOL    HW128409   0.944   6.985   6.865
 9170SOL    HW228410   1.073   0.012   6.779
 9171SOL     OW28411   4.350   4.982   0.690
 9171SOL    HW128412   4.397   5.021   0.769
 9171SOL    HW228413   4.300   4.900   0.717
 9172SOL     OW28414   4.935   1.028   2.877
 9172SOL    HW128415   4.923   0.929   2.864
 9172SOL    HW228416   4.943   1.048   2.975
 9173SOL     OW28417   5.856   4.174   6.181
 9173SOL    HW128418   5.789   4.192   6.110
 9173SOL    HW228419   5.821   4.205   6.269
 9174SOL     OW28420   6.721   4.047   1.361
 9174SOL    HW128421   6.713   4.145   1.382
 9174SOL    HW228422   6.656   4.023   1.290
 9175SOL     OW28423   1.240   6.407   6.364
 9175SOL    HW128424   1.277   6.456   6.443
 9175SOL    HW228425   1.276   6.313   6.363
 9176SOL     OW28426   2.151   0.988   3.519
 9176SOL    HW128427   2.244   1.017   3.494
 9176SOL    HW228428   2.131   0.901   3.475
 9177SOL     OW28429   0.955   4.687   4.326
 9177SOL    HW128430   1.006   4.683   4.240
 9177SOL    HW228431   0.875   4.628   4.321
 9178SOL     OW28432   1.746   5.371   0.758
 9178SOL    HW128433   1.677   5.330   0.817
 9178SOL    HW228434   1.725   5.468   0.746
 9179SOL     OW28435   1.911   5.124   3.839
 9179SOL    HW128436   1.812   5.133   3.846
 9179SOL    HW228437   1.951   5.213   3.815
 9180SOL     OW28438   6.644   2.999   3.192
 9180SOL    HW128439   6.609   2.913   3.229
 9180SOL    HW228440   6.569   3.052   3.153
 9181SOL     OW28441   6.188   2.623   4.536
 9181SOL    HW128442   6.163   2.553   4.603
 9181SOL    HW228443   6.145   2.603   4.448
 9182SOL     OW28444   2.456   6.854   3.061
 9182SOL    HW128445   2.526   6.906   3.111
 9182SOL    HW228446   2.485   6.759   3.055
 9183SOL     OW28447   4.627   4.411   0.382
 9183SOL    HW128448   4.536   4.368   0.379
 9183SOL    HW228449   4.644   4.458   0.296
 9184SOL     OW28450   4.515   2.177   1.067
 9184SOL    HW128451   4.468   2.237   1.131
 9184SOL    HW228452   4.449   2.119   1.019
 9185SOL     OW28453   4.851   6.801   5.081
 9185SOL    HW128454   4.838   6.702   5.094
 9185SOL    HW228455   4.846   6.823   4.984
 9186SOL     OW28456   6.003   6.720   4.789
 9186SOL    HW128457   5.978   6.679   4.877
 9186SOL    HW228458   5.998   6.819   4.795
 9187SOL     OW28459   3.714   1.590   0.593
 9187SOL    HW128460   3.631   1.603   0.539
 9187SOL    HW228461   3.709   1.505   0.644
 9188SOL     OW28462   1.984   0.224   1.584
 9188SOL    HW128463   1.969   0.320   1.560
 9188SOL    HW228464   1.913   0.168   1.542
 9189SOL     OW28465   3.170   5.598   1.917
 9189SOL    HW128466   3.100   5.533   1.947
 9189SOL    HW228467   3.198   5.655   1.994
 9190SOL     OW28468   1.681   4.238   5.035
 9190SOL    HW128469   1.728   4.153   5.012
 9190SOL    HW228470   1.584   4.218   5.051
 9191SOL     OW28471   5.376   1.359   0.132
 9191SOL    HW128472   5.418   1.268   0.138
 9191SOL    HW228473   5.358   1.393   0.224
 9192SOL     OW28474   0.109   2.369   6.127
 9192SOL    HW128475   0.038   2.376   6.198
 9192SOL    HW228476   0.181   2.435   6.146
 9193SOL     OW28477   3.750   3.656   5.499
 9193SOL    HW128478   3.825   3.698   5.447
 9193SOL    HW228479   3.663   3.699   5.473
 9194SOL     OW28480   3.288   1.187   2.796
 9194SOL    HW128481   3.237   1.197   2.711
 9194SOL    HW228482   3.381   1.157   2.776
 9195SOL     OW28483   0.696   3.701   2.841
 9195SOL    HW128484   0.625   3.700   2.771
 9195SOL    HW228485   0.736   3.610   2.849
 9196SOL     OW28486   6.069   0.408   3.601
 9196SOL    HW128487   6.132   0.470   3.553
 9196SOL    HW228488   6.116   0.323   3.623
 9197SOL     OW28489   2.977   4.910   1.575
 9197SOL    HW128490   2.891   4.923   1.524
 9197SOL    HW228491   3.020   4.824   1.545
 9198SOL     OW28492   6.079   4.623   6.902
 9198SOL    HW128493   6.019   4.562   6.849
 9198SOL    HW228494   6.137   4.674   6.840
 9199SOL     OW28495   6.794   3.185   5.544
 9199SOL    HW128496   6.707   3.198   5.497
 9199SOL    HW228497   6.867   3.174   5.477
 9200SOL     OW28498   3.353   6.111   6.312
 9200SOL    HW128499   3.381   6.095   6.407
 9200SOL    HW228500   3.433   6.108   6.253
 9201SOL     OW28501   6.994   3.798   0.101
 9201SOL    HW128502   0.015   3.798   0.011
 9201SOL    HW228503   6.917   3.734   0.100
 9202SOL     OW28504   1.008   6.120   3.676
 9202SOL    HW128505   1.009   6.064   3.593
 9202SOL    HW228506   0.913   6.147   3.696
 9203SOL     OW28507   6.196   2.762   6.146
 9203SOL    HW128508   6.114   2.709   6.131
 9203SOL    HW228509   6.184   2.820   6.227
 9204SOL     OW28510   4.807   3.062   4.877
 9204SOL    HW128511   4.780   2.993   4.945
 9204SOL    HW228512   4.820   3.150   4.922
 9205SOL     OW28513   5.258   5.674   3.905
 9205SOL    HW128514   5.212   5.722   3.980
 9205SOL    HW228515   5.301   5.591   3.940
 9206SOL     OW28516   3.119   5.132   3.279
 9206SOL    HW128517   3.201   5.172   3.238
 9206SOL    HW228518   3.087   5.190   3.353
 9207SOL     OW28519   4.915   3.991   0.254
 9207SOL    HW128520   4.914   4.043   0.168
 9207SOL    HW228521   4.880   3.899   0.237
 9208SOL     OW28522   5.452   4.614   3.286
 9208SOL    HW128523   5.381   4.679   3.314
 9208SOL    HW228524   5.419   4.520   3.301
 9209SOL     OW28525   4.877   0.975   0.163
 9209SOL    HW128526   4.956   1.030   0.135
 9209SOL    HW228527   4.891   0.880   0.134
 9210SOL     OW28528   1.524   1.722   1.721
 9210SOL    HW128529   1.554   1.713   1.816
 9210SOL    HW228530   1.424   1.716   1.716
 9211SOL     OW28531   6.026   3.107   5.809
 9211SOL    HW128532   6.094   3.043   5.775
 9211SOL    HW228533   5.947   3.108   5.748
 9212SOL     OW28534   4.677   5.627   4.375
 9212SOL    HW128535   4.745   5.578   4.431
 9212SOL    HW228536   4.664   5.579   4.289
 9213SOL     OW28537   5.576   4.623   4.801
 9213SOL    HW128538   5.504   4.677   4.845
 9213SOL    HW228539   5.604   4.549   4.862
 9214SOL     OW28540   6.963   3.359   5.700
 9214SOL    HW128541   0.007   3.287   5.720
 9214SOL    HW228542   6.890   3.321   5.644
 9215SOL     OW28543   1.925   3.288   2.241
 9215SOL    HW128544   1.947   3.319   2.149
 9215SOL    HW228545   1.960   3.354   2.307
 9216SOL     OW28546   2.713   6.722   3.550
 9216SOL    HW128547   2.753   6.688   3.465
 9216SOL    HW228548   2.691   6.645   3.610
 9217SOL     OW28549   6.141   3.523   6.240
 9217SOL    HW128550   6.059   3.568   6.205
 9217SOL    HW228551   6.115   3.449   6.302
 9218SOL     OW28552   2.993   0.677   0.373
 9218SOL    HW128553   2.918   0.628   0.416
 9218SOL    HW228554   2.976   0.685   0.275
 9219SOL     OW28555   5.191   3.793   6.511
 9219SOL    HW128556   5.255   3.868   6.524
 9219SOL    HW228557   5.120   3.820   6.446
 9220SOL     OW28558   0.713   5.938   1.836
 9220SOL    HW128559   0.746   5.989   1.916
 9220SOL    HW228560   0.764   5.968   1.755
 9221SOL     OW28561   1.799   0.738   2.656
 9221SOL    HW128562   1.739   0.785   2.720
 9221SOL    HW228563   1.883   0.791   2.643
 9222SOL     OW28564   2.382   5.837   6.026
 9222SOL    HW128565   2.424   5.879   5.946
 9222SOL    HW228566   2.442   5.849   6.105
 9223SOL     OW28567   1.415   2.127   4.257
 9223SOL    HW128568   1.445   2.117   4.162
 9223SOL    HW228569   1.390   2.222   4.274
 9224SOL     OW28570   1.004   5.155   4.523
 9224SOL    HW128571   0.977   5.157   4.427
 9224SOL    HW228572   0.948   5.088   4.573
 9225SOL     OW28573   3.318   5.760   6.556
 9225SOL    HW128574   3.322   5.855   6.587
 9225SOL    HW228575   3.222   5.732   6.548
 9226SOL     OW28576   0.174   6.571   1.283
 9226SOL    HW128577   0.153   6.500   1.216
 9226SOL    HW228578   0.198   6.656   1.235
 9227SOL     OW28579   2.091   5.665   1.157
 9227SOL    HW128580   2.069   5.661   1.254
 9227SOL    HW228581   2.162   5.599   1.135
 9228SOL     OW28582   3.065   1.247   6.396
 9228SOL    HW128583   3.057   1.340   6.430
 9228SOL    HW228584   3.065   1.183   6.473
 9229SOL     OW28585   1.315   5.269   5.136
 9229SOL    HW128586   1.338   5.244   5.230
 9229SOL    HW228587   1.242   5.337   5.137
 9230SOL     OW28588   5.191   3.084   3.251
 9230SOL    HW128589   5.170   3.047   3.341
 9230SOL    HW228590   5.117   3.144   3.221
 9231SOL     OW28591   0.926   3.373   4.746
 9231SOL    HW128592   0.848   3.325   4.787
 9231SOL    HW228593   0.964   3.438   4.812
 9232SOL     OW28594   3.648   4.907   6.592
 9232SOL    HW128595   3.567   4.965   6.598
 9232SOL    HW228596   3.730   4.965   6.588
 9233SOL     OW28597   5.746   6.249   1.948
 9233SOL    HW128598   5.700   6.213   2.028
 9233SOL    HW228599   5.827   6.302   1.976
 9234SOL     OW28600   3.739   5.056   6.844
 9234SOL    HW128601   3.768   4.968   6.881
 9234SOL    HW228602   3.672   5.098   6.905
 9235SOL     OW28603   1.760   2.609   3.908
 9235SOL    HW128604   1.812   2.653   3.981
 9235SOL    HW228605   1.665   2.642   3.911
 9236SOL     OW28606   1.831   4.533   6.518
 9236SOL    HW128607   1.840   4.442   6.558
 9236SOL    HW228608   1.858   4.602   6.586
 9237SOL     OW28609   0.230   6.338   3.713
 9237SOL    HW128610   0.237   6.384   3.624
 9237SOL    HW228611   0.140   6.297   3.722
 9238SOL     OW28612   1.806   2.500   6.667
 9238SOL    HW128613   1.904   2.488   6.686
 9238SOL    HW228614   1.762   2.410   6.666
 9239SOL     OW28615   0.026   3.802   6.852
 9239SOL    HW128616   6.957   3.801   6.813
 9239SOL    HW228617   0.063   3.895   6.848
 9240SOL     OW28618   5.367   2.747   2.317
 9240SOL    HW128619   5.386   2.717   2.411
 9240SOL    HW228620   5.379   2.669   2.255
 9241SOL     OW28621   0.819   5.363   5.601
 9241SOL    HW128622   0.835   5.280   5.547
 9241SOL    HW228623   0.872   5.358   5.686
 9242SOL     OW28624   1.507   5.165   0.354
 9242SOL    HW128625   1.447   5.085   0.346
 9242SOL    HW228626   1.586   5.142   0.410
 9243SOL     OW28627   0.510   0.049   1.607
 9243SOL    HW128628   0.541   6.984   1.643
 9243SOL    HW228629   0.410   0.055   1.614
 9244SOL     OW28630   3.700   4.916   6.239
 9244SOL    HW128631   3.720   4.967   6.323
 9244SOL    HW228632   3.785   4.879   6.201
 9245SOL     OW28633   0.996   5.333   4.142
 9245SOL    HW128634   1.030   5.296   4.056
 9245SOL    HW228635   0.936   5.267   4.185
 9246SOL     OW28636   6.451   6.814   2.134
 9246SOL    HW128637   6.544   6.780   2.151
 9246SOL    HW228638   6.385   6.742   2.152
 9247SOL     OW28639   2.016   6.268   3.347
 9247SOL    HW128640   1.939   6.308   3.396
 9247SOL    HW228641   1.983   6.225   3.263
 9248SOL     OW28642   2.510   2.109   4.811
 9248SOL    HW128643   2.483   2.187   4.867
 9248SOL    HW228644   2.610   2.106   4.804
 9249SOL     OW28645   3.708   4.233   1.172
 9249SOL    HW128646   3.730   4.138   1.153
 9249SOL    HW228647   3.609   4.247   1.163
 9250SOL     OW28648   6.021   2.981   3.767
 9250SOL    HW128649   6.031   3.040   3.847
 9250SOL    HW228650   6.099   2.993   3.706
 9251SOL     OW28651   3.622   1.621   2.748
 9251SOL    HW128652   3.638   1.710   2.790
 9251SOL    HW228653   3.571   1.634   2.663
 9252SOL     OW28654   5.293   0.877   3.909
 9252SOL    HW128655   5.273   0.916   3.999
 9252SOL    HW228656   5.206   0.858   3.862
 9253SOL     OW28657   5.528   5.625   5.961
 9253SOL    HW128658   5.476   5.700   6.003
 9253SOL    HW228659   5.612   5.610   6.012
 9254SOL     OW28660   5.834   5.129   3.583
 9254SOL    HW128661   5.787   5.052   3.541
 9254SOL    HW228662   5.818   5.129   3.682
 9255SOL     OW28663   4.428   4.222   0.396
 9255SOL    HW128664   4.375   4.190   0.475
 9255SOL    HW228665   4.514   4.170   0.391
 9256SOL     OW28666   2.861   0.484   2.967
 9256SOL    HW128667   2.808   0.424   2.907
 9256SOL    HW228668   2.875   0.439   3.055
 9257SOL     OW28669   0.657   4.340   3.384
 9257SOL    HW128670   0.589   4.337   3.311
 9257SOL    HW228671   0.620   4.388   3.463
 9258SOL     OW28672   2.977   3.333   3.033
 9258SOL    HW128673   2.927   3.330   3.120
 9258SOL    HW228674   3.055   3.395   3.042
 9259SOL     OW28675   0.677   2.855   6.861
 9259SOL    HW128676   0.750   2.827   6.924
 9259SOL    HW228677   0.672   2.955   6.858
 9260SOL     OW28678   6.074   1.637   4.779
 9260SOL    HW128679   6.144   1.698   4.816
 9260SOL    HW228680   6.010   1.689   4.724
 9261SOL     OW28681   2.528   1.378   0.247
 9261SOL    HW128682   2.502   1.320   0.324
 9261SOL    HW228683   2.626   1.396   0.250
 9262SOL     OW28684   6.553   5.059   5.233
 9262SOL    HW128685   6.491   5.004   5.177
 9262SOL    HW228686   6.567   5.014   5.321
 9263SOL     OW28687   5.013   6.982   1.559
 9263SOL    HW128688   4.975   7.018   1.474
 9263SOL    HW228689   4.957   7.012   1.636
 9264SOL     OW28690   4.906   5.010   0.353
 9264SOL    HW128691   4.877   4.923   0.393
 9264SOL    HW228692   4.828   5.055   0.311
 9265SOL     OW28693   3.647   2.115   0.686
 9265SOL    HW128694   3.642   2.185   0.615
 9265SOL    HW228695   3.634   2.024   0.645
 9266SOL     OW28696   1.618   6.495   0.983
 9266SOL    HW128697   1.596   6.546   1.066
 9266SOL    HW228698   1.534   6.465   0.939
 9267SOL     OW28699   6.820   2.885   4.665
 9267SOL    HW128700   6.765   2.968   4.670
 9267SOL    HW228701   6.873   2.874   4.750
 9268SOL     OW28702   1.360   5.398   2.694
 9268SOL    HW128703   1.345   5.304   2.726
 9268SOL    HW228704   1.355   5.400   2.594
 9269SOL     OW28705   3.700   1.434   6.663
 9269SOL    HW128706   3.704   1.345   6.617
 9269SOL    HW228707   3.634   1.430   6.738
 9270SOL     OW28708   4.453   0.097   5.933
 9270SOL    HW128709   4.396   0.178   5.920
 9270SOL    HW228710   4.549   0.122   5.920
 9271SOL     OW28711   5.517   0.350   0.663
 9271SOL    HW128712   5.448   0.293   0.618
 9271SOL    HW228713   5.474   0.434   0.696
 9272SOL     OW28714   1.135   5.897   4.599
 9272SOL    HW128715   1.100   5.854   4.683
 9272SOL    HW228716   1.232   5.915   4.610
 9273SOL     OW28717   5.483   6.764   2.983
 9273SOL    HW128718   5.450   6.680   3.025
 9273SOL    HW228719   5.552   6.742   2.914
 9274SOL     OW28720   6.199   1.675   6.723
 9274SOL    HW128721   6.234   1.629   6.805
 9274SOL    HW228722   6.216   1.773   6.731
 9275SOL     OW28723   6.152   0.793   0.632
 9275SOL    HW128724   6.095   0.713   0.649
 9275SOL    HW228725   6.095   0.869   0.601
 9276SOL     OW28726   1.681   3.360   1.370
 9276SOL    HW128727   1.705   3.393   1.462
 9276SOL    HW228728   1.583   3.374   1.354
 9277SOL     OW28729   4.710   3.299   0.657
 9277SOL    HW128730   4.672   3.343   0.576
 9277SOL    HW228731   4.651   3.318   0.736
 9278SOL     OW28732   1.922   0.554   6.039
 9278SOL    HW128733   1.939   0.476   5.978
 9278SOL    HW228734   1.832   0.593   6.019
 9279SOL     OW28735   3.801   1.080   2.165
 9279SOL    HW128736   3.856   1.159   2.137
 9279SOL    HW228737   3.755   1.100   2.251
 9280SOL     OW28738   2.182   1.802   2.779
 9280SOL    HW128739   2.208   1.806   2.875
 9280SOL    HW228740   2.085   1.782   2.771
 9281SOL     OW28741   2.293   3.628   6.659
 9281SOL    HW128742   2.312   3.569   6.738
 9281SOL    HW228743   2.339   3.591   6.578
 9282SOL     OW28744   4.989   0.276   3.873
 9282SOL    HW128745   5.037   0.193   3.903
 9282SOL    HW228746   5.018   0.299   3.780
 9283SOL     OW28747   5.316   0.409   3.625
 9283SOL    HW128748   5.240   0.344   3.637
 9283SOL    HW228749   5.300   0.463   3.543
 9284SOL     OW28750   2.830   3.368   5.173
 9284SOL    HW128751   2.755   3.377   5.239
 9284SOL    HW228752   2.894   3.298   5.204
 9285SOL     OW28753   4.672   2.407   0.988
 9285SOL    HW128754   4.580   2.396   1.026
 9285SOL    HW228755   4.699   2.503   0.997
 9286SOL     OW28756   5.016   5.839   1.095
 9286SOL    HW128757   4.993   5.760   1.153
 9286SOL    HW228758   5.113   5.859   1.104
 9287SOL     OW28759   3.152   4.820   0.345
 9287SOL    HW128760   3.091   4.875   0.288
 9287SOL    HW228761   3.098   4.761   0.405
 9288SOL     OW28762   4.612   1.891   2.983
 9288SOL    HW128763   4.653   1.811   3.027
 9288SOL    HW228764   4.548   1.862   2.913
 9289SOL     OW28765   3.487   0.894   2.198
 9289SOL    HW128766   3.460   0.841   2.278
 9289SOL    HW228767   3.418   0.884   2.126
 9290SOL     OW28768   5.930   1.120   2.902
 9290SOL    HW128769   5.834   1.121   2.928
 9290SOL    HW228770   5.941   1.162   2.812
 9291SOL     OW28771   1.066   6.107   4.907
 9291SOL    HW128772   1.069   6.012   4.875
 9291SOL    HW228773   1.129   6.162   4.853
 9292SOL     OW28774   1.672   2.873   6.396
 9292SOL    HW128775   1.739   2.803   6.421
 9292SOL    HW228776   1.651   2.865   6.298
 9293SOL     OW28777   5.314   2.917   6.490
 9293SOL    HW128778   5.303   2.959   6.580
 9293SOL    HW228779   5.284   2.821   6.495
 9294SOL     OW28780   4.317   0.700   5.603
 9294SOL    HW128781   4.388   0.668   5.666
 9294SOL    HW228782   4.314   0.800   5.606
 9295SOL     OW28783   5.346   1.424   4.821
 9295SOL    HW128784   5.302   1.360   4.758
 9295SOL    HW228785   5.305   1.514   4.810
 9296SOL     OW28786   1.414   5.864   6.923
 9296SOL    HW128787   1.494   5.846   6.865
 9296SOL    HW228788   1.439   5.931   6.994
 9297SOL     OW28789   0.290   0.110   2.197
 9297SOL    HW128790   0.299   0.095   2.098
 9297SOL    HW228791   0.334   0.196   2.221
 9298SOL     OW28792   1.029   6.260   6.086
 9298SOL    HW128793   1.096   6.333   6.092
 9298SOL    HW228794   0.937   6.299   6.075
 9299SOL     OW28795   0.578   2.516   4.898
 9299SOL    HW128796   0.483   2.518   4.867
 9299SOL    HW228797   0.637   2.552   4.825
 9300SOL     OW28798   0.093   4.578   5.700
 9300SOL    HW128799   0.171   4.639   5.714
 9300SOL    HW228800   0.056   4.549   5.788
 9301SOL     OW28801   5.450   5.105   4.341
 9301SOL    HW128802   5.466   5.195   4.381
 9301SOL    HW228803   5.449   5.036   4.413
 9302SOL     OW28804   2.246   2.480   4.232
 9302SOL    HW128805   2.159   2.443   4.199
 9302SOL    HW228806   2.291   2.531   4.159
 9303SOL     OW28807   2.533   3.999   0.706
 9303SOL    HW128808   2.589   3.918   0.722
 9303SOL    HW228809   2.436   3.974   0.710
 9304SOL     OW28810   4.027   4.670   1.854
 9304SOL    HW128811   4.090   4.622   1.915
 9304SOL    HW228812   4.056   4.766   1.846
 9305SOL     OW28813   3.471   1.257   0.819
 9305SOL    HW128814   3.451   1.167   0.858
 9305SOL    HW228815   3.400   1.281   0.753
 9306SOL     OW28816   0.161   5.702   5.087
 9306SOL    HW128817   0.253   5.727   5.116
 9306SOL    HW228818   0.110   5.784   5.062
 9307SOL     OW28819   1.437   3.496   1.590
 9307SOL    HW128820   1.409   3.425   1.525
 9307SOL    HW228821   1.366   3.507   1.659
 9308SOL     OW28822   2.328   3.203   0.253
 9308SOL    HW128823   2.254   3.250   0.206
 9308SOL    HW228824   2.300   3.179   0.346
 9309SOL     OW28825   3.788   4.592   5.848
 9309SOL    HW128826   3.882   4.567   5.826
 9309SOL    HW228827   3.776   4.691   5.840
 9310SOL     OW28828   5.163   5.218   6.264
 9310SOL    HW128829   5.098   5.248   6.194
 9310SOL    HW228830   5.130   5.134   6.307
 9311SOL     OW28831   4.658   4.680   1.379
 9311SOL    HW128832   4.622   4.660   1.470
 9311SOL    HW228833   4.750   4.642   1.371
 9312SOL     OW28834   1.062   3.779   0.991
 9312SOL    HW128835   1.089   3.722   0.913
 9312SOL    HW228836   1.090   3.735   1.076
 9313SOL     OW28837   0.535   0.700   0.715
 9313SOL    HW128838   0.594   0.647   0.654
 9313SOL    HW228839   0.571   0.696   0.808
 9314SOL     OW28840   5.637   4.470   6.893
 9314SOL    HW128841   5.661   4.373   6.897
 9314SOL    HW228842   5.539   4.479   6.876
 9315SOL     OW28843   6.193   0.142   5.233
 9315SOL    HW128844   6.131   0.203   5.282
 9315SOL    HW228845   6.237   0.192   5.158
 9316SOL     OW28846   5.673   6.738   6.112
 9316SOL    HW128847   5.767   6.770   6.099
 9316SOL    HW228848   5.632   6.717   6.024
 9317SOL     OW28849   5.528   5.003   3.703
 9317SOL    HW128850   5.470   5.059   3.762
 9317SOL    HW228851   5.499   5.014   3.607
 9318SOL     OW28852   5.669   1.167   5.992
 9318SOL    HW128853   5.754   1.207   5.957
 9318SOL    HW228854   5.668   1.173   6.091
 9319SOL     OW28855   2.731   2.650   6.681
 9319SOL    HW128856   2.680   2.605   6.754
 9319SOL    HW228857   2.669   2.675   6.607
 9320SOL     OW28858   3.493   0.495   5.024
 9320SOL    HW128859   3.512   0.521   5.118
 9320SOL    HW228860   3.482   0.578   4.968
 9321SOL     OW28861   0.738   0.525   4.378
 9321SOL    HW128862   0.660   0.547   4.320
 9321SOL    HW228863   0.822   0.529   4.325
 9322SOL     OW28864   6.937   3.830   5.688
 9322SOL    HW128865   6.849   3.866   5.716
 9322SOL    HW228866   7.009   3.869   5.746
 9323SOL     OW28867   1.389   0.693   5.459
 9323SOL    HW128868   1.399   0.653   5.550
 9323SOL    HW228869   1.478   0.693   5.413
 9324SOL     OW28870   1.328   4.432   1.387
 9324SOL    HW128871   1.382   4.364   1.338
 9324SOL    HW228872   1.339   4.521   1.344
 9325SOL     OW28873   5.522   1.132   0.203
 9325SOL    HW128874   5.610   1.177   0.219
 9325SOL    HW228875   5.538   1.036   0.180
 9326SOL     OW28876   2.496   4.830   0.477
 9326SOL    HW128877   2.476   4.900   0.545
 9326SOL    HW228878   2.499   4.740   0.521
 9327SOL     OW28879   4.970   0.246   2.660
 9327SOL    HW128880   4.956   0.334   2.615
 9327SOL    HW228881   5.067   0.234   2.680
 9328SOL     OW28882   2.691   1.198   5.078
 9328SOL    HW128883   2.760   1.125   5.080
 9328SOL    HW228884   2.737   1.287   5.084
 9329SOL     OW28885   6.018   3.735   0.743
 9329SOL    HW128886   5.992   3.650   0.696
 9329SOL    HW228887   5.936   3.780   0.777
 9330SOL     OW28888   6.456   0.419   5.643
 9330SOL    HW128889   6.426   0.502   5.691
 9330SOL    HW228890   6.458   0.437   5.544
 9331SOL     OW28891   2.240   1.087   0.007
 9331SOL    HW128892   2.242   0.997   6.986
 9331SOL    HW228893   2.147   1.107   0.038
 9332SOL     OW28894   4.210   4.503   0.913
 9332SOL    HW128895   4.149   4.466   0.843
 9332SOL    HW228896   4.266   4.576   0.873
 9333SOL     OW28897   4.081   3.899   6.804
 9333SOL    HW128898   4.161   3.957   6.824
 9333SOL    HW228899   3.998   3.947   6.833
 9334SOL     OW28900   5.310   6.350   3.428
 9334SOL    HW128901   5.251   6.297   3.490
 9334SOL    HW228902   5.396   6.301   3.415
 9335SOL     OW28903   1.157   0.683   6.933
 9335SOL    HW128904   1.069   0.641   6.915
 9335SOL    HW228905   1.171   0.760   6.871
 9336SOL     OW28906   3.445   6.270   5.551
 9336SOL    HW128907   3.353   6.304   5.572
 9336SOL    HW228908   3.493   6.249   5.637
 9337SOL     OW28909   4.100   1.530   4.594
 9337SOL    HW128910   4.147   1.612   4.625
 9337SOL    HW228911   4.116   1.456   4.658
 9338SOL     OW28912   6.163   0.337   1.555
 9338SOL    HW128913   6.074   0.376   1.579
 9338SOL    HW228914   6.153   0.277   1.476
 9339SOL     OW28915   5.858   6.043   1.052
 9339SOL    HW128916   5.892   5.963   1.003
 9339SOL    HW228917   5.920   6.120   1.037
 9340SOL     OW28918   4.874   4.635   3.333
 9340SOL    HW128919   4.902   4.671   3.244
 9340SOL    HW228920   4.948   4.647   3.399
 9341SOL     OW28921   6.963   5.133   1.249
 9341SOL    HW128922   6.905   5.079   1.310
 9341SOL    HW228923   6.952   5.100   1.155
 9342SOL     OW28924   3.061   6.432   3.733
 9342SOL    HW128925   2.966   6.405   3.743
 9342SOL    HW228926   3.073   6.526   3.765
 9343SOL     OW28927   5.163   4.229   1.464
 9343SOL    HW128928   5.076   4.243   1.418
 9343SOL    HW228929   5.166   4.285   1.547
 9344SOL     OW28930   5.255   6.672   2.154
 9344SOL    HW128931   5.176   6.647   2.209
 9344SOL    HW228932   5.226   6.692   2.060
 9345SOL     OW28933   6.909   5.848   1.943
 9345SOL    HW128934   6.809   5.844   1.944
 9345SOL    HW228935   6.940   5.861   1.849
 9346SOL     OW28936   5.477   0.964   1.357
 9346SOL    HW128937   5.546   1.035   1.371
 9346SOL    HW228938   5.401   0.979   1.421
 9347SOL     OW28939   3.608   3.937   0.426
 9347SOL    HW128940   3.661   3.865   0.382
 9347SOL    HW228941   3.521   3.899   0.459
 9348SOL     OW28942   2.221   6.075   3.010
 9348SOL    HW128943   2.260   5.995   3.055
 9348SOL    HW228944   2.207   6.056   2.913
 9349SOL     OW28945   6.718   5.045   2.331
 9349SOL    HW128946   6.680   5.137   2.341
 9349SOL    HW228947   6.675   4.999   2.253
 9350SOL     OW28948   6.672   2.639   5.356
 9350SOL    HW128949   6.701   2.729   5.388
 9350SOL    HW228950   6.645   2.645   5.260
 9351SOL     OW28951   3.561   6.649   6.235
 9351SOL    HW128952   3.623   6.719   6.270
 9351SOL    HW228953   3.563   6.650   6.135
 9352SOL     OW28954   3.681   1.191   6.520
 9352SOL    HW128955   3.606   1.210   6.457
 9352SOL    HW228956   3.743   1.124   6.479
 9353SOL     OW28957   0.909   4.251   0.945
 9353SOL    HW128958   0.888   4.345   0.918
 9353SOL    HW228959   0.952   4.203   0.870
 9354SOL     OW28960   6.842   2.084   6.204
 9354SOL    HW128961   6.900   2.055   6.280
 9354SOL    HW228962   6.891   2.069   6.118
 9355SOL     OW28963   0.261   2.241   4.619
 9355SOL    HW128964   0.246   2.156   4.569
 9355SOL    HW228965   0.182   2.259   4.678
 9356SOL     OW28966   4.525   6.481   2.075
 9356SOL    HW128967   4.530   6.382   2.063
 9356SOL    HW228968   4.498   6.524   1.989
 9357SOL     OW28969   1.696   3.618   6.331
 9357SOL    HW128970   1.772   3.572   6.286
 9357SOL    HW228971   1.689   3.584   6.425
 9358SOL     OW28972   0.280   3.130   1.993
 9358SOL    HW128973   0.373   3.133   2.031
 9358SOL    HW228974   0.234   3.217   2.012
 9359SOL     OW28975   1.793   3.385   5.672
 9359SOL    HW128976   1.733   3.389   5.592
 9359SOL    HW228977   1.870   3.447   5.659
 9360SOL     OW28978   1.102   5.593   6.941
 9360SOL    HW128979   1.011   5.587   6.982
 9360SOL    HW228980   1.130   5.688   6.935
 9361SOL     OW28981   1.590   5.207   2.575
 9361SOL    HW128982   1.517   5.246   2.520
 9361SOL    HW228983   1.576   5.231   2.671
 9362SOL     OW28984   2.102   2.777   3.006
 9362SOL    HW128985   2.102   2.686   2.964
 9362SOL    HW228986   2.160   2.776   3.087
 9363SOL     OW28987   3.665   6.533   2.065
 9363SOL    HW128988   3.707   6.478   2.138
 9363SOL    HW228989   3.602   6.599   2.106
 9364SOL     OW28990   3.541   2.773   6.189
 9364SOL    HW128991   3.556   2.834   6.111
 9364SOL    HW228992   3.628   2.753   6.233
 9365SOL     OW28993   2.185   2.114   3.924
 9365SOL    HW128994   2.219   2.135   4.015
 9365SOL    HW228995   2.115   2.181   3.898
 9366SOL     OW28996   3.485   5.842   5.993
 9366SOL    HW128997   3.445   5.880   5.910
 9366SOL    HW228998   3.579   5.874   6.003
 9367SOL     OW28999   0.136   6.620   3.293
 9367SOL    HW129000   0.187   6.666   3.221
 9367SOL    HW229001   0.108   6.686   3.362
 9368SOL     OW29002   2.850   0.935   2.441
 9368SOL    HW129003   2.816   0.929   2.346
 9368SOL    HW229004   2.937   0.886   2.448
 9369SOL     OW29005   6.446   6.065   4.338
 9369SOL    HW129006   6.353   6.095   4.318
 9369SOL    HW229007   6.471   6.090   4.431
 9370SOL     OW29008   5.606   0.422   3.637
 9370SOL    HW129009   5.512   0.400   3.664
 9370SOL    HW229010   5.638   0.502   3.688
 9371SOL     OW29011   3.102   5.270   0.893
 9371SOL    HW129012   3.060   5.182   0.918
 9371SOL    HW229013   3.202   5.261   0.895
 9372SOL     OW29014   4.845   0.894   1.777
 9372SOL    HW129015   4.861   0.820   1.712
 9372SOL    HW229016   4.928   0.909   1.830
 9373SOL     OW29017   5.146   1.946   2.099
 9373SOL    HW129018   5.214   1.957   2.027
 9373SOL    HW229019   5.087   2.027   2.102
 9374SOL     OW29020   0.173   3.616   0.231
 9374SOL    HW129021   0.096   3.673   0.199
 9374SOL    HW229022   0.259   3.656   0.199
 9375SOL     OW29023   0.965   1.460   1.418
 9375SOL    HW129024   0.911   1.476   1.336
 9375SOL    HW229025   0.990   1.363   1.423
 9376SOL     OW29026   2.406   4.093   1.101
 9376SOL    HW129027   2.442   4.094   1.008
 9376SOL    HW229028   2.449   4.166   1.155
 9377SOL     OW29029   1.800   5.316   3.159
 9377SOL    HW129030   1.822   5.222   3.132
 9377SOL    HW229031   1.884   5.369   3.169
 9378SOL     OW29032   1.737   1.081   3.759
 9378SOL    HW129033   1.747   1.137   3.677
 9378SOL    HW229034   1.800   1.114   3.829
 9379SOL     OW29035   4.909   0.077   5.373
 9379SOL    HW129036   4.836   0.077   5.304
 9379SOL    HW229037   4.907   7.014   5.424
 9380SOL     OW29038   4.285   5.766   5.940
 9380SOL    HW129039   4.257   5.671   5.925
 9380SOL    HW229040   4.289   5.785   6.038
 9381SOL     OW29041   4.530   3.094   5.887
 9381SOL    HW129042   4.558   3.128   5.977
 9381SOL    HW229043   4.587   3.017   5.861
 9382SOL     OW29044   3.261   0.862   4.176
 9382SOL    HW129045   3.348   0.864   4.225
 9382SOL    HW229046   3.211   0.779   4.199
 9383SOL     OW29047   5.829   5.655   4.521
 9383SOL    HW129048   5.808   5.736   4.576
 9383SOL    HW229049   5.744   5.611   4.493
 9384SOL     OW29050   4.434   0.481   1.985
 9384SOL    HW129051   4.448   0.493   1.887
 9384SOL    HW229052   4.500   0.414   2.020
 9385SOL     OW29053   3.961   1.353   3.580
 9385SOL    HW129054   4.043   1.299   3.562
 9385SOL    HW229055   3.884   1.292   3.602
 9386SOL     OW29056   3.254   5.586   4.931
 9386SOL    HW129057   3.163   5.627   4.933
 9386SOL    HW229058   3.264   5.525   5.009
 9387SOL     OW29059   2.614   2.073   0.239
 9387SOL    HW129060   2.663   2.158   0.221
 9387SOL    HW229061   2.520   2.081   0.207
 9388SOL     OW29062   2.727   5.859   3.203
 9388SOL    HW129063   2.809   5.863   3.145
 9388SOL    HW229064   2.753   5.826   3.294
 9389SOL     OW29065   1.928   0.218   3.346
 9389SOL    HW129066   1.951   0.282   3.273
 9389SOL    HW229067   1.957   0.126   3.319
 9390SOL     OW29068   5.384   4.703   6.656
 9390SOL    HW129069   5.293   4.724   6.693
 9390SOL    HW229070   5.417   4.782   6.603
 9391SOL     OW29071   1.737   1.039   5.379
 9391SOL    HW129072   1.730   1.020   5.477
 9391SOL    HW229073   1.667   1.104   5.351
 9392SOL     OW29074   5.567   5.377   5.635
 9392SOL    HW129075   5.504   5.304   5.608
 9392SOL    HW229076   5.555   5.397   5.732
 9393SOL     OW29077   3.345   6.746   6.384
 9393SOL    HW129078   3.418   6.716   6.323
 9393SOL    HW229079   3.256   6.725   6.342
 9394SOL     OW29080   6.794   0.753   1.901
 9394SOL    HW129081   6.872   0.757   1.965
 9394SOL    HW229082   6.798   0.831   1.839
 9395SOL     OW29083   3.224   1.113   1.373
 9395SOL    HW129084   3.178   1.185   1.424
 9395SOL    HW229085   3.158   1.063   1.317
 9396SOL     OW29086   2.318   4.216   4.001
 9396SOL    HW129087   2.318   4.152   4.077
 9396SOL    HW229088   2.281   4.171   3.920
 9397SOL     OW29089   3.704   6.345   6.182
 9397SOL    HW129090   3.626   6.387   6.230
 9397SOL    HW229091   3.713   6.250   6.212
 9398SOL     OW29092   6.209   0.969   5.114
 9398SOL    HW129093   6.294   0.971   5.168
 9398SOL    HW229094   6.154   1.049   5.137
 9399SOL     OW29095   1.220   2.742   5.209
 9399SOL    HW129096   1.177   2.831   5.224
 9399SOL    HW229097   1.316   2.755   5.183
 9400SOL     OW29098   5.187   1.281   0.831
 9400SOL    HW129099   5.192   1.181   0.829
 9400SOL    HW229100   5.092   1.309   0.843
 9401SOL     OW29101   6.404   1.201   2.927
 9401SOL    HW129102   6.426   1.124   2.867
 9401SOL    HW229103   6.421   1.287   2.878
 9402SOL     OW29104   1.484   5.155   2.962
 9402SOL    HW129105   1.404   5.094   2.969
 9402SOL    HW229106   1.453   5.250   2.967
 9403SOL     OW29107   6.296   1.427   1.794
 9403SOL    HW129108   6.291   1.349   1.731
 9403SOL    HW229109   6.311   1.393   1.887
 9404SOL     OW29110   1.192   2.017   0.310
 9404SOL    HW129111   1.247   2.009   0.393
 9404SOL    HW229112   1.128   1.940   0.305
 9405SOL     OW29113   2.151   4.083   3.812
 9405SOL    HW129114   2.109   4.009   3.864
 9405SOL    HW229115   2.171   4.051   3.720
 9406SOL     OW29116   0.523   2.673   6.739
 9406SOL    HW129117   0.585   2.736   6.786
 9406SOL    HW229118   0.576   2.612   6.680
 9407SOL     OW29119   2.544   4.689   3.422
 9407SOL    HW129120   2.445   4.689   3.429
 9407SOL    HW229121   2.582   4.763   3.478
 9408SOL     OW29122   6.771   2.702   5.985
 9408SOL    HW129123   6.868   2.695   5.964
 9408SOL    HW229124   6.733   2.783   5.939
 9409SOL     OW29125   6.349   5.698   0.799
 9409SOL    HW129126   6.380   5.628   0.735
 9409SOL    HW229127   6.422   5.766   0.812
 9410SOL     OW29128   2.175   0.619   2.399
 9410SOL    HW129129   2.083   0.597   2.431
 9410SOL    HW229130   2.189   0.718   2.402
 9411SOL     OW29131   3.838   3.904   3.123
 9411SOL    HW129132   3.749   3.883   3.081
 9411SOL    HW229133   3.826   3.920   3.221
 9412SOL     OW29134   1.738   1.455   2.296
 9412SOL    HW129135   1.799   1.411   2.230
 9412SOL    HW229136   1.663   1.499   2.248
 9413SOL     OW29137   4.171   5.307   3.742
 9413SOL    HW129138   4.076   5.316   3.773
 9413SOL    HW229139   4.206   5.216   3.766
 9414SOL     OW29140   2.864   1.050   3.175
 9414SOL    HW129141   2.862   1.130   3.235
 9414SOL    HW229142   2.836   1.076   3.083
 9415SOL     OW29143   2.048   0.000   2.850
 9415SOL    HW129144   2.143   0.004   2.880
 9415SOL    HW229145   2.003   0.086   2.874
 9416SOL     OW29146   0.030   1.109   6.251
 9416SOL    HW129147   0.111   1.058   6.280
 9416SOL    HW229148   0.047   1.152   6.162
 9417SOL     OW29149   3.546   0.487   0.809
 9417SOL    HW129150   3.471   0.548   0.836
 9417SOL    HW229151   3.633   0.527   0.838
 9418SOL     OW29152   2.875   0.843   1.347
 9418SOL    HW129153   2.787   0.798   1.362
 9418SOL    HW229154   2.922   0.854   1.435
 9419SOL     OW29155   2.248   3.962   6.357
 9419SOL    HW129156   2.235   3.913   6.443
 9419SOL    HW229157   2.273   3.898   6.285
 9420SOL     OW29158   5.537   4.983   1.139
 9420SOL    HW129159   5.602   4.975   1.064
 9420SOL    HW229160   5.504   4.892   1.164
 9421SOL     OW29161   3.034   6.046   4.848
 9421SOL    HW129162   3.044   6.063   4.946
 9421SOL    HW229163   3.023   6.133   4.800
 9422SOL     OW29164   2.883   5.609   2.686
 9422SOL    HW129165   2.950   5.679   2.660
 9422SOL    HW229166   2.923   5.518   2.672
 9423SOL     OW29167   3.440   6.336   3.510
 9423SOL    HW129168   3.386   6.262   3.549
 9423SOL    HW229169   3.406   6.424   3.545
 9424SOL     OW29170   4.576   2.374   4.354
 9424SOL    HW129171   4.482   2.373   4.388
 9424SOL    HW229172   4.623   2.291   4.382
 9425SOL     OW29173   5.357   4.258   1.281
 9425SOL    HW129174   5.312   4.296   1.200
 9425SOL    HW229175   5.289   4.225   1.345
 9426SOL     OW29176   3.293   1.922   6.307
 9426SOL    HW129177   3.334   1.849   6.361
 9426SOL    HW229178   3.242   1.883   6.230
 9427SOL     OW29179   2.792   5.354   2.988
 9427SOL    HW129180   2.784   5.446   3.025
 9427SOL    HW229181   2.848   5.298   3.049
 9428SOL     OW29182   0.250   0.019   1.031
 9428SOL    HW129183   0.330   0.028   0.972
 9428SOL    HW229184   0.174   0.073   0.994
 9429SOL     OW29185   1.819   3.516   3.482
 9429SOL    HW129186   1.780   3.445   3.539
 9429SOL    HW229187   1.785   3.606   3.512
 9430SOL     OW29188   0.225   2.657   5.061
 9430SOL    HW129189   0.247   2.727   4.994
 9430SOL    HW229190   0.263   2.682   5.150
 9431SOL     OW29191   6.526   4.450   0.969
 9431SOL    HW129192   6.427   4.454   0.956
 9431SOL    HW229193   6.554   4.520   1.034
 9432SOL     OW29194   6.317   0.653   4.077
 9432SOL    HW129195   6.279   0.561   4.083
 9432SOL    HW229196   6.278   0.710   4.149
 9433SOL     OW29197   2.960   6.348   2.771
 9433SOL    HW129198   2.969   6.271   2.834
 9433SOL    HW229199   2.930   6.315   2.682
 9434SOL     OW29200   5.835   5.965   1.959
 9434SOL    HW129201   5.824   5.889   1.896
 9434SOL    HW229202   5.799   6.049   1.917
 9435SOL     OW29203   0.012   2.181   3.433
 9435SOL    HW129204   6.945   2.221   3.452
 9435SOL    HW229205   0.012   2.144   3.340
 9436SOL     OW29206   1.525   2.447   1.891
 9436SOL    HW129207   1.427   2.443   1.871
 9436SOL    HW229208   1.573   2.493   1.816
 9437SOL     OW29209   0.561   6.070   2.968
 9437SOL    HW129210   0.570   6.111   2.878
 9437SOL    HW229211   0.465   6.073   2.996
 9438SOL     OW29212   0.963   0.285   1.623
 9438SOL    HW129213   0.868   0.280   1.654
 9438SOL    HW229214   1.019   0.222   1.678
 9439SOL     OW29215   0.591   3.207   0.634
 9439SOL    HW129216   0.546   3.237   0.549
 9439SOL    HW229217   0.524   3.164   0.694
 9440SOL     OW29218   3.644   4.946   3.346
 9440SOL    HW129219   3.617   5.033   3.305
 9440SOL    HW229220   3.664   4.960   3.443
 9441SOL     OW29221   5.950   4.592   5.837
 9441SOL    HW129222   5.999   4.574   5.751
 9441SOL    HW229223   5.916   4.506   5.875
 9442SOL     OW29224   5.682   3.990   1.688
 9442SOL    HW129225   5.745   3.981   1.611
 9442SOL    HW229226   5.677   3.903   1.737
 9443SOL     OW29227   2.731   5.555   0.406
 9443SOL    HW129228   2.721   5.533   0.309
 9443SOL    HW229229   2.641   5.555   0.450
 9444SOL     OW29230   2.257   3.909   0.681
 9444SOL    HW129231   2.182   3.909   0.747
 9444SOL    HW229232   2.237   3.844   0.608
 9445SOL     OW29233   6.313   3.567   3.285
 9445SOL    HW129234   6.284   3.476   3.253
 9445SOL    HW229235   6.378   3.556   3.360
 9446SOL     OW29236   6.190   5.435   5.169
 9446SOL    HW129237   6.154   5.521   5.206
 9446SOL    HW229238   6.196   5.442   5.070
 9447SOL     OW29239   5.465   4.394   3.713
 9447SOL    HW129240   5.506   4.467   3.659
 9447SOL    HW229241   5.537   4.333   3.746
 9448SOL     OW29242   6.680   0.474   5.796
 9448SOL    HW129243   6.717   0.423   5.873
 9448SOL    HW229244   6.683   0.418   5.713
 9449SOL     OW29245   5.637   6.888   0.363
 9449SOL    HW129246   5.542   6.887   0.333
 9449SOL    HW229247   5.663   6.797   0.394
 9450SOL     OW29248   2.398   5.895   3.205
 9450SOL    HW129249   2.339   5.943   3.270
 9450SOL    HW229250   2.493   5.924   3.219
 9451SOL     OW29251   4.962   5.968   5.929
 9451SOL    HW129252   4.865   5.954   5.911
 9451SOL    HW229253   5.010   5.988   5.843
 9452SOL     OW29254   1.386   4.280   0.337
 9452SOL    HW129255   1.468   4.294   0.392
 9452SOL    HW229256   1.312   4.245   0.395
 9453SOL     OW29257   2.981   5.193   2.790
 9453SOL    HW129258   2.940   5.214   2.879
 9453SOL    HW229259   3.067   5.243   2.780
 9454SOL     OW29260   3.490   3.454   6.727
 9454SOL    HW129261   3.585   3.471   6.703
 9454SOL    HW229262   3.431   3.480   6.650
 9455SOL     OW29263   3.100   1.998   3.647
 9455SOL    HW129264   3.007   2.016   3.616
 9455SOL    HW229265   3.098   1.935   3.724
 9456SOL     OW29266   6.816   3.440   0.833
 9456SOL    HW129267   6.745   3.460   0.901
 9456SOL    HW229268   6.775   3.438   0.742
 9457SOL     OW29269   1.211   4.383   4.055
 9457SOL    HW129270   1.235   4.400   4.150
 9457SOL    HW229271   1.116   4.410   4.039
 9458SOL     OW29272   0.486   3.541   6.213
 9458SOL    HW129273   0.529   3.505   6.295
 9458SOL    HW229274   0.458   3.635   6.227
 9459SOL     OW29275   5.379   4.795   3.940
 9459SOL    HW129276   5.350   4.890   3.927
 9459SOL    HW229277   5.464   4.779   3.889
 9460SOL     OW29278   2.131   3.716   4.842
 9460SOL    HW129279   2.186   3.774   4.902
 9460SOL    HW229280   2.120   3.626   4.884
 9461SOL     OW29281   0.794   1.859   1.232
 9461SOL    HW129282   0.769   1.789   1.299
 9461SOL    HW229283   0.798   1.817   1.141
 9462SOL     OW29284   1.334   2.918   3.338
 9462SOL    HW129285   1.406   2.850   3.351
 9462SOL    HW229286   1.351   2.997   3.397
 9463SOL     OW29287   5.872   0.463   1.503
 9463SOL    HW129288   5.921   0.549   1.519
 9463SOL    HW229289   5.799   0.453   1.570
 9464SOL     OW29290   5.568   0.613   0.798
 9464SOL    HW129291   5.590   0.572   0.886
 9464SOL    HW229292   5.652   0.629   0.746
 9465SOL     OW29293   0.030   3.933   1.556
 9465SOL    HW129294   0.087   3.859   1.520
 9465SOL    HW229295   6.976   3.894   1.607
 9466SOL     OW29296   3.094   4.636   5.324
 9466SOL    HW129297   3.075   4.734   5.333
 9466SOL    HW229298   3.013   4.590   5.288
 9467SOL     OW29299   1.131   3.246   1.277
 9467SOL    HW129300   1.183   3.313   1.225
 9467SOL    HW229301   1.060   3.207   1.219
 9468SOL     OW29302   5.297   4.058   6.624
 9468SOL    HW129303   5.241   4.112   6.687
 9468SOL    HW229304   5.333   4.117   6.552
 9469SOL     OW29305   0.600   5.725   1.715
 9469SOL    HW129306   0.631   5.796   1.778
 9469SOL    HW229307   0.568   5.646   1.768
 9470SOL     OW29308   5.419   3.316   0.087
 9470SOL    HW129309   5.472   3.396   0.114
 9470SOL    HW229310   5.324   3.344   0.069
 9471SOL     OW29311   6.590   2.633   4.383
 9471SOL    HW129312   6.573   2.546   4.429
 9471SOL    HW229313   6.686   2.639   4.357
 9472SOL     OW29314   6.824   2.892   5.347
 9472SOL    HW129315   6.866   2.838   5.274
 9472SOL    HW229316   6.857   2.986   5.343
 9473SOL     OW29317   3.054   4.526   0.219
 9473SOL    HW129318   3.019   4.544   0.311
 9473SOL    HW229319   3.129   4.460   0.224
 9474SOL     OW29320   6.879   3.650   1.109
 9474SOL    HW129321   6.911   3.633   1.016
 9474SOL    HW229322   6.852   3.746   1.118
 9475SOL     OW29323   3.787   3.330   0.556
 9475SOL    HW129324   3.703   3.301   0.602
 9475SOL    HW229325   3.866   3.300   0.609
 9476SOL     OW29326   4.063   3.820   4.400
 9476SOL    HW129327   4.096   3.750   4.336
 9476SOL    HW229328   4.104   3.908   4.376
 9477SOL     OW29329   0.435   2.802   1.136
 9477SOL    HW129330   0.526   2.773   1.106
 9477SOL    HW229331   0.441   2.838   1.229
 9478SOL     OW29332   5.215   3.538   1.247
 9478SOL    HW129333   5.228   3.636   1.231
 9478SOL    HW229334   5.129   3.508   1.205
 9479SOL     OW29335   4.324   6.506   0.241
 9479SOL    HW129336   4.418   6.496   0.274
 9479SOL    HW229337   4.302   6.603   0.235
 9480SOL     OW29338   5.516   5.222   0.462
 9480SOL    HW129339   5.422   5.247   0.438
 9480SOL    HW229340   5.572   5.304   0.466
 9481SOL     OW29341   4.781   2.996   2.726
 9481SOL    HW129342   4.866   2.997   2.674
 9481SOL    HW229343   4.778   3.076   2.786
 9482SOL     OW29344   0.694   0.818   2.653
 9482SOL    HW129345   0.720   0.833   2.748
 9482SOL    HW229346   0.629   0.742   2.648
 9483SOL     OW29347   1.149   0.255   0.586
 9483SOL    HW129348   1.121   0.175   0.533
 9483SOL    HW229349   1.204   0.316   0.529
 9484SOL     OW29350   3.940   0.143   4.511
 9484SOL    HW129351   3.855   0.173   4.553
 9484SOL    HW229352   3.921   0.094   4.425
 9485SOL     OW29353   0.355   1.036   0.891
 9485SOL    HW129354   0.408   0.995   0.965
 9485SOL    HW229355   0.403   1.023   0.804
 9486SOL     OW29356   4.340   6.360   0.876
 9486SOL    HW129357   4.303   6.267   0.880
 9486SOL    HW229358   4.274   6.423   0.917
 9487SOL     OW29359   3.202   4.011   3.875
 9487SOL    HW129360   3.233   3.938   3.936
 9487SOL    HW229361   3.145   3.971   3.802
 9488SOL     OW29362   2.901   6.827   1.343
 9488SOL    HW129363   2.894   6.923   1.318
 9488SOL    HW229364   2.964   6.780   1.281
 9489SOL     OW29365   4.960   4.558   1.533
 9489SOL    HW129366   4.900   4.482   1.509
 9489SOL    HW229367   5.051   4.523   1.555
 9490SOL     OW29368   6.447   5.534   3.082
 9490SOL    HW129369   6.451   5.458   3.017
 9490SOL    HW229370   6.383   5.603   3.049
 9491SOL     OW29371   4.896   4.867   3.881
 9491SOL    HW129372   4.985   4.908   3.903
 9491SOL    HW229373   4.846   4.848   3.966
 9492SOL     OW29374   3.828   3.379   4.667
 9492SOL    HW129375   3.764   3.450   4.695
 9492SOL    HW229376   3.830   3.372   4.567
 9493SOL     OW29377   2.727   5.719   4.281
 9493SOL    HW129378   2.703   5.778   4.357
 9493SOL    HW229379   2.735   5.624   4.313
 9494SOL     OW29380   5.524   2.944   3.117
 9494SOL    HW129381   5.569   3.017   3.065
 9494SOL    HW229382   5.440   2.918   3.070
 9495SOL     OW29383   0.054   2.021   3.199
 9495SOL    HW129384   0.088   1.990   3.288
 9495SOL    HW229385   6.981   1.994   3.189
 9496SOL     OW29386   6.386   3.484   1.749
 9496SOL    HW129387   6.326   3.406   1.767
 9496SOL    HW229388   6.389   3.542   1.830
 9497SOL     OW29389   5.409   6.461   5.412
 9497SOL    HW129390   5.479   6.440   5.480
 9497SOL    HW229391   5.446   6.525   5.344
 9498SOL     OW29392   5.714   5.594   4.801
 9498SOL    HW129393   5.657   5.664   4.844
 9498SOL    HW229394   5.805   5.632   4.783
 9499SOL     OW29395   1.814   5.308   6.202
 9499SOL    HW129396   1.900   5.258   6.194
 9499SOL    HW229397   1.749   5.253   6.254
 9500SOL     OW29398   4.701   6.963   0.337
 9500SOL    HW129399   4.684   0.038   0.339
 9500SOL    HW229400   4.657   6.920   0.416
 9501SOL     OW29401   2.808   1.391   4.879
 9501SOL    HW129402   2.840   1.484   4.896
 9501SOL    HW229403   2.710   1.384   4.897
 9502SOL     OW29404   6.010   2.777   4.872
 9502SOL    HW129405   6.108   2.793   4.858
 9502SOL    HW229406   5.966   2.762   4.783
 9503SOL     OW29407   0.420   1.447   0.231
 9503SOL    HW129408   0.475   1.372   0.196
 9503SOL    HW229409   0.408   1.517   0.160
 9504SOL     OW29410   0.015   3.314   0.996
 9504SOL    HW129411   0.003   3.214   0.991
 9504SOL    HW229412   6.965   3.358   0.945
 9505SOL     OW29413   5.556   4.895   4.963
 9505SOL    HW129414   5.579   4.813   5.016
 9505SOL    HW229415   5.628   4.963   4.975
 9506SOL     OW29416   2.018   2.682   0.327
 9506SOL    HW129417   2.086   2.634   0.271
 9506SOL    HW229418   2.063   2.723   0.406
 9507SOL     OW29419   0.775   1.300   1.959
 9507SOL    HW129420   0.700   1.346   1.912
 9507SOL    HW229421   0.852   1.290   1.896
 9508SOL     OW29422   6.042   2.461   2.101
 9508SOL    HW129423   6.002   2.504   2.020
 9508SOL    HW229424   5.971   2.411   2.151
 9509SOL     OW29425   0.500   0.737   4.060
 9509SOL    HW129426   0.405   0.757   4.037
 9509SOL    HW229427   0.558   0.813   4.030
 9510SOL     OW29428   1.379   3.944   3.529
 9510SOL    HW129429   1.415   4.031   3.496
 9510SOL    HW229430   1.412   3.928   3.622
 9511SOL     OW29431   2.251   0.308   1.549
 9511SOL    HW129432   2.293   0.339   1.464
 9511SOL    HW229433   2.152   0.301   1.537
 9512SOL     OW29434   6.303   1.820   1.172
 9512SOL    HW129435   6.223   1.764   1.151
 9512SOL    HW229436   6.281   1.916   1.154
 9513SOL     OW29437   2.144   4.163   5.717
 9513SOL    HW129438   2.144   4.230   5.643
 9513SOL    HW229439   2.100   4.203   5.798
 9514SOL     OW29440   2.462   5.279   5.964
 9514SOL    HW129441   2.384   5.304   6.021
 9514SOL    HW229442   2.532   5.350   5.971
 9515SOL     OW29443   1.771   5.594   1.184
 9515SOL    HW129444   1.730   5.675   1.142
 9515SOL    HW229445   1.831   5.621   1.259
 9516SOL     OW29446   5.817   5.268   6.682
 9516SOL    HW129447   5.912   5.236   6.678
 9516SOL    HW229448   5.802   5.336   6.611
 9517SOL     OW29449   1.270   3.867   1.423
 9517SOL    HW129450   1.345   3.829   1.369
 9517SOL    HW229451   1.288   3.964   1.442
 9518SOL     OW29452   1.576   1.947   0.278
 9518SOL    HW129453   1.532   1.986   0.359
 9518SOL    HW229454   1.658   1.897   0.305
 9519SOL     OW29455   3.655   2.878   5.142
 9519SOL    HW129456   3.686   2.909   5.232
 9519SOL    HW229457   3.727   2.892   5.075
 9520SOL     OW29458   2.486   1.690   2.879
 9520SOL    HW129459   2.544   1.662   2.956
 9520SOL    HW229460   2.422   1.616   2.857
 9521SOL     OW29461   5.053   5.914   2.555
 9521SOL    HW129462   4.974   5.945   2.607
 9521SOL    HW229463   5.039   5.933   2.457
 9522SOL     OW29464   2.791   5.514   1.028
 9522SOL    HW129465   2.744   5.471   0.951
 9522SOL    HW229466   2.818   5.444   1.094
 9523SOL     OW29467   3.574   5.053   4.937
 9523SOL    HW129468   3.576   5.150   4.912
 9523SOL    HW229469   3.585   5.044   5.036
 9524SOL     OW29470   3.531   2.192   1.246
 9524SOL    HW129471   3.474   2.227   1.172
 9524SOL    HW229472   3.562   2.100   1.224
 9525SOL     OW29473   2.444   2.602   5.916
 9525SOL    HW129474   2.438   2.609   6.015
 9525SOL    HW229475   2.530   2.559   5.891
 9526SOL     OW29476   4.919   5.522   1.834
 9526SOL    HW129477   4.877   5.439   1.797
 9526SOL    HW229478   4.848   5.583   1.869
 9527SOL     OW29479   0.920   0.527   2.721
 9527SOL    HW129480   0.934   0.578   2.806
 9527SOL    HW229481   0.976   0.567   2.649
 9528SOL     OW29482   6.817   0.842   0.509
 9528SOL    HW129483   6.750   0.799   0.569
 9528SOL    HW229484   6.896   0.782   0.499
 9529SOL     OW29485   6.352   3.067   5.642
 9529SOL    HW129486   6.377   2.971   5.656
 9529SOL    HW229487   6.360   3.117   5.729
 9530SOL     OW29488   1.880   3.091   2.634
 9530SOL    HW129489   1.948   3.019   2.647
 9530SOL    HW229490   1.803   3.075   2.696
 9531SOL     OW29491   4.395   6.166   2.646
 9531SOL    HW129492   4.457   6.137   2.573
 9531SOL    HW229493   4.449   6.207   2.720
 9532SOL     OW29494   6.922   6.526   2.200
 9532SOL    HW129495   6.967   6.616   2.198
 9532SOL    HW229496   6.968   6.465   2.135
 9533SOL     OW29497   6.767   0.545   5.259
 9533SOL    HW129498   6.709   0.469   5.228
 9533SOL    HW229499   6.859   0.533   5.223
 9534SOL     OW29500   5.922   3.273   5.152
 9534SOL    HW129501   5.957   3.192   5.105
 9534SOL    HW229502   5.931   3.260   5.251
 9535SOL     OW29503   2.369   1.382   5.693
 9535SOL    HW129504   2.467   1.389   5.710
 9535SOL    HW229505   2.353   1.351   5.600
 9536SOL     OW29506   2.993   4.912   5.145
 9536SOL    HW129507   3.068   4.935   5.082
 9536SOL    HW229508   2.940   4.836   5.107
 9537SOL     OW29509   2.512   6.619   2.746
 9537SOL    HW129510   2.500   6.530   2.704
 9537SOL    HW229511   2.547   6.608   2.839
 9538SOL     OW29512   6.640   2.129   3.862
 9538SOL    HW129513   6.653   2.109   3.959
 9538SOL    HW229514   6.592   2.217   3.852
 9539SOL     OW29515   1.666   3.342   5.433
 9539SOL    HW129516   1.584   3.312   5.383
 9539SOL    HW229517   1.715   3.411   5.378
 9540SOL     OW29518   4.880   3.614   4.316
 9540SOL    HW129519   4.921   3.527   4.288
 9540SOL    HW229520   4.903   3.631   4.412
 9541SOL     OW29521   2.798   1.707   5.834
 9541SOL    HW129522   2.770   1.728   5.928
 9541SOL    HW229523   2.817   1.609   5.826
 9542SOL     OW29524   4.946   3.653   4.589
 9542SOL    HW129525   4.953   3.556   4.614
 9542SOL    HW229526   4.921   3.707   4.670
 9543SOL     OW29527   3.265   0.931   4.466
 9543SOL    HW129528   3.353   0.901   4.502
 9543SOL    HW229529   3.250   0.889   4.376
 9544SOL     OW29530   0.044   1.353   2.970
 9544SOL    HW129531   6.990   1.356   2.906
 9544SOL    HW229532   0.074   1.446   2.990
 9545SOL     OW29533   6.529   4.743   3.515
 9545SOL    HW129534   6.478   4.660   3.539
 9545SOL    HW229535   6.613   4.718   3.467
 9546SOL     OW29536   2.726   2.376   5.582
 9546SOL    HW129537   2.800   2.318   5.547
 9546SOL    HW229538   2.708   2.449   5.516
 9547SOL     OW29539   2.350   5.714   3.792
 9547SOL    HW129540   2.293   5.722   3.873
 9547SOL    HW229541   2.325   5.631   3.741
 9548SOL     OW29542   5.831   6.234   4.783
 9548SOL    HW129543   5.907   6.179   4.748
 9548SOL    HW229544   5.832   6.324   4.739
 9549SOL     OW29545   2.766   3.589   1.325
 9549SOL    HW129546   2.793   3.523   1.255
 9549SOL    HW229547   2.783   3.550   1.415
 9550SOL     OW29548   7.014   1.219   0.172
 9550SOL    HW129549   6.941   1.211   0.103
 9550SOL    HW229550   7.000   1.151   0.244
 9551SOL     OW29551   6.639   0.771   4.325
 9551SOL    HW129552   6.674   0.806   4.238
 9551SOL    HW229553   6.697   0.698   4.358
 9552SOL     OW29554   1.140   5.909   2.378
 9552SOL    HW129555   1.143   6.008   2.365
 9552SOL    HW229556   1.229   5.877   2.411
 9553SOL     OW29557   6.132   3.809   6.655
 9553SOL    HW129558   6.070   3.750   6.603
 9553SOL    HW229559   6.147   3.894   6.605
 9554SOL     OW29560   2.876   0.082   1.405
 9554SOL    HW129561   2.972   0.104   1.420
 9554SOL    HW229562   2.823   0.103   1.487
 9555SOL     OW29563   0.562   0.911   1.078
 9555SOL    HW129564   0.534   0.816   1.093
 9555SOL    HW229565   0.652   0.913   1.036
 9556SOL     OW29566   2.945   2.449   1.043
 9556SOL    HW129567   3.002   2.367   1.041
 9556SOL    HW229568   2.851   2.425   1.017
 9557SOL     OW29569   6.496   0.973   2.792
 9557SOL    HW129570   6.546   0.896   2.832
 9557SOL    HW229571   6.408   0.942   2.756
 9558SOL     OW29572   5.728   5.482   4.295
 9558SOL    HW129573   5.644   5.535   4.307
 9558SOL    HW229574   5.712   5.411   4.226
 9559SOL     OW29575   0.206   3.709   1.489
 9559SOL    HW129576   0.131   3.673   1.434
 9559SOL    HW229577   0.288   3.653   1.477
 9560SOL     OW29578   1.374   1.756   2.455
 9560SOL    HW129579   1.439   1.744   2.531
 9560SOL    HW229580   1.284   1.725   2.484
 9561SOL     OW29581   1.689   6.821   0.519
 9561SOL    HW129582   1.634   6.761   0.461
 9561SOL    HW229583   1.697   6.911   0.477
 9562SOL     OW29584   3.118   6.564   4.922
 9562SOL    HW129585   3.052   6.624   4.877
 9562SOL    HW229586   3.131   6.594   5.016
 9563SOL     OW29587   6.240   6.635   0.525
 9563SOL    HW129588   6.308   6.589   0.469
 9563SOL    HW229589   6.154   6.643   0.473
 9564SOL     OW29590   3.006   6.957   6.501
 9564SOL    HW129591   2.983   6.935   6.406
 9564SOL    HW229592   3.045   6.877   6.546
 9565SOL     OW29593   3.987   6.114   5.493
 9565SOL    HW129594   4.074   6.151   5.461
 9565SOL    HW229595   3.982   6.122   5.592
 9566SOL     OW29596   3.703   4.165   0.323
 9566SOL    HW129597   3.654   4.088   0.365
 9566SOL    HW229598   3.711   4.150   0.225
 9567SOL     OW29599   6.802   5.151   6.372
 9567SOL    HW129600   6.766   5.148   6.465
 9567SOL    HW229601   6.727   5.144   6.306
 9568SOL     OW29602   4.714   2.671   6.932
 9568SOL    HW129603   4.659   2.590   6.912
 9568SOL    HW229604   4.760   2.659   7.020
 9569SOL     OW29605   0.114   0.456   1.972
 9569SOL    HW129606   0.055   0.380   1.945
 9569SOL    HW229607   0.058   0.532   2.004
 9570SOL     OW29608   0.821   2.130   1.629
 9570SOL    HW129609   0.740   2.081   1.659
 9570SOL    HW229610   0.798   2.226   1.613
 9571SOL     OW29611   2.412   3.543   0.074
 9571SOL    HW129612   2.372   3.493   7.020
 9571SOL    HW229613   2.447   3.631   0.043
 9572SOL     OW29614   1.968   5.363   1.005
 9572SOL    HW129615   1.913   5.351   0.922
 9572SOL    HW229616   1.922   5.426   1.067
 9573SOL     OW29617   0.557   1.932   6.660
 9573SOL    HW129618   0.497   1.888   6.727
 9573SOL    HW229619   0.652   1.926   6.693
 9574SOL     OW29620   3.995   3.097   4.518
 9574SOL    HW129621   4.093   3.095   4.500
 9574SOL    HW229622   3.980   3.109   4.616
 9575SOL     OW29623   5.346   0.671   0.587
 9575SOL    HW129624   5.279   0.603   0.557
 9575SOL    HW229625   5.417   0.681   0.517
 9576SOL     OW29626   2.930   0.940   2.871
 9576SOL    HW129627   2.929   1.040   2.863
 9576SOL    HW229628   3.006   0.903   2.818
 9577SOL     OW29629   1.302   0.768   3.167
 9577SOL    HW129630   1.329   0.740   3.259
 9577SOL    HW229631   1.214   0.817   3.171
 9578SOL     OW29632   0.229   3.997   3.081
 9578SOL    HW129633   0.304   4.002   3.148
 9578SOL    HW229634   0.207   3.902   3.062
 9579SOL     OW29635   1.344   6.081   2.977
 9579SOL    HW129636   1.330   6.126   3.065
 9579SOL    HW229637   1.408   6.135   2.921
 9580SOL     OW29638   5.394   3.006   0.517
 9580SOL    HW129639   5.391   3.045   0.424
 9580SOL    HW229640   5.327   2.931   0.523
 9581SOL     OW29641   1.363   5.092   6.415
 9581SOL    HW129642   1.277   5.111   6.369
 9581SOL    HW229643   1.388   4.996   6.400
 9582SOL     OW29644   4.492   4.688   4.874
 9582SOL    HW129645   4.477   4.605   4.928
 9582SOL    HW229646   4.414   4.750   4.884
 9583SOL     OW29647   2.931   3.404   1.562
 9583SOL    HW129648   2.999   3.464   1.605
 9583SOL    HW229649   2.855   3.389   1.626
 9584SOL     OW29650   6.066   5.847   6.713
 9584SOL    HW129651   5.985   5.902   6.735
 9584SOL    HW229652   6.036   5.755   6.685
 9585SOL     OW29653   6.756   1.047   2.911
 9585SOL    HW129654   6.680   1.058   2.847
 9585SOL    HW229655   6.739   1.102   2.993
 9586SOL     OW29656   5.902   4.148   1.902
 9586SOL    HW129657   5.858   4.238   1.893
 9586SOL    HW229658   5.855   4.082   1.844
 9587SOL     OW29659   6.228   0.340   2.416
 9587SOL    HW129660   6.326   0.318   2.416
 9587SOL    HW229661   6.200   0.368   2.507
 9588SOL     OW29662   0.528   1.456   1.847
 9588SOL    HW129663   0.512   1.526   1.777
 9588SOL    HW229664   0.443   1.440   1.898
 9589SOL     OW29665   2.993   5.732   6.539
 9589SOL    HW129666   2.978   5.641   6.502
 9589SOL    HW229667   2.951   5.800   6.479
 9590SOL     OW29668   0.315   4.664   2.513
 9590SOL    HW129669   0.294   4.573   2.476
 9590SOL    HW229670   0.413   4.681   2.505
 9591SOL     OW29671   3.161   5.750   0.081
 9591SOL    HW129672   3.249   5.775   0.040
 9591SOL    HW229673   3.119   5.831   0.120
 9592SOL     OW29674   3.717   5.166   1.983
 9592SOL    HW129675   3.655   5.117   2.044
 9592SOL    HW229676   3.671   5.245   1.944
 9593SOL     OW29677   5.260   1.182   4.658
 9593SOL    HW129678   5.297   1.177   4.565
 9593SOL    HW229679   5.180   1.122   4.664
 9594SOL     OW29680   6.833   5.636   3.673
 9594SOL    HW129681   6.870   5.566   3.734
 9594SOL    HW229682   6.741   5.610   3.644
 9595SOL     OW29683   1.807   4.501   4.181
 9595SOL    HW129684   1.733   4.441   4.210
 9595SOL    HW229685   1.815   4.501   4.081
 9596SOL     OW29686   0.131   5.100   7.022
 9596SOL    HW129687   0.062   5.172   7.015
 9596SOL    HW229688   0.212   5.127   6.970
 9597SOL     OW29689   0.208   4.230   1.163
 9597SOL    HW129690   0.170   4.160   1.102
 9597SOL    HW229691   0.134   4.275   1.213
 9598SOL     OW29692   0.397   4.073   5.129
 9598SOL    HW129693   0.479   4.051   5.076
 9598SOL    HW229694   0.349   3.988   5.152
 9599SOL     OW29695   3.233   0.456   4.898
 9599SOL    HW129696   3.306   0.459   4.967
 9599SOL    HW229697   3.166   0.528   4.917
 9600SOL     OW29698   2.569   6.799   6.060
 9600SOL    HW129699   2.603   6.714   6.100
 9600SOL    HW229700   2.481   6.782   6.016
 9601SOL     OW29701   6.199   4.445   5.967
 9601SOL    HW129702   6.230   4.532   5.927
 9601SOL    HW229703   6.146   4.463   6.050
 9602SOL     OW29704   6.976   4.834   6.606
 9602SOL    HW129705   6.989   4.927   6.571
 9602SOL    HW229706   0.000   4.825   6.694
 9603SOL     OW29707   2.443   0.020   4.219
 9603SOL    HW129708   2.497   6.979   4.273
 9603SOL    HW229709   2.503   0.092   4.183
 9604SOL     OW29710   5.231   0.850   0.439
 9604SOL    HW129711   5.298   0.804   0.498
 9604SOL    HW229712   5.146   0.798   0.438
 9605SOL     OW29713   0.358   5.049   5.930
 9605SOL    HW129714   0.346   4.969   5.989
 9605SOL    HW229715   0.290   5.048   5.857
 9606SOL     OW29716   0.970   6.858   4.092
 9606SOL    HW129717   0.924   6.780   4.051
 9606SOL    HW229718   0.971   6.849   4.191
 9607SOL     OW29719   1.273   2.126   1.468
 9607SOL    HW129720   1.217   2.208   1.478
 9607SOL    HW229721   1.231   2.051   1.519
 9608SOL     OW29722   0.515   6.674   2.590
 9608SOL    HW129723   0.428   6.625   2.588
 9608SOL    HW229724   0.588   6.615   2.556
 9609SOL     OW29725   1.422   3.503   5.271
 9609SOL    HW129726   1.335   3.536   5.308
 9609SOL    HW229727   1.415   3.405   5.254
 9610SOL     OW29728   1.163   3.547   5.390
 9610SOL    HW129729   1.065   3.567   5.398
 9610SOL    HW229730   1.202   3.535   5.481
 9611SOL     OW29731   0.130   6.864   1.203
 9611SOL    HW129732   0.188   6.903   1.132
 9611SOL    HW229733   0.065   6.800   1.161
 9612SOL     OW29734   6.358   2.522   0.318
 9612SOL    HW129735   6.314   2.461   0.252
 9612SOL    HW229736   6.296   2.598   0.339
 9613SOL     OW29737   5.185   6.126   4.593
 9613SOL    HW129738   5.165   6.189   4.668
 9613SOL    HW229739   5.213   6.038   4.630
 9614SOL     OW29740   4.177   3.691   1.421
 9614SOL    HW129741   4.242   3.696   1.345
 9614SOL    HW229742   4.141   3.782   1.440
 9615SOL     OW29743   1.838   5.971   2.831
 9615SOL    HW129744   1.867   5.884   2.870
 9615SOL    HW229745   1.889   6.046   2.873
 9616SOL     OW29746   4.591   3.341   0.995
 9616SOL    HW129747   4.553   3.385   0.914
 9616SOL    HW229748   4.535   3.262   1.019
 9617SOL     OW29749   1.322   3.748   4.168
 9617SOL    HW129750   1.274   3.704   4.244
 9617SOL    HW229751   1.336   3.681   4.095
 9618SOL     OW29752   3.158   0.444   6.754
 9618SOL    HW129753   3.218   0.458   6.675
 9618SOL    HW229754   3.076   0.394   6.724
 9619SOL     OW29755   0.887   0.138   1.009
 9619SOL    HW129756   0.828   0.174   0.935
 9619SOL    HW229757   0.983   0.150   0.984
 9620SOL     OW29758   4.401   1.899   6.958
 9620SOL    HW129759   4.442   1.942   0.015
 9620SOL    HW229760   4.471   1.846   6.909
 9621SOL     OW29761   1.450   1.040   1.774
 9621SOL    HW129762   1.500   1.080   1.851
 9621SOL    HW229763   1.370   0.991   1.808
 9622SOL     OW29764   6.004   1.376   6.667
 9622SOL    HW129765   6.087   1.352   6.718
 9622SOL    HW229766   5.958   1.452   6.712
 9623SOL     OW29767   4.839   5.004   6.794
 9623SOL    HW129768   4.746   5.035   6.773
 9623SOL    HW229769   4.904   5.072   6.761
 9624SOL     OW29770   5.516   4.693   5.337
 9624SOL    HW129771   5.480   4.787   5.340
 9624SOL    HW229772   5.483   4.647   5.255
 9625SOL     OW29773   4.649   4.261   6.942
 9625SOL    HW129774   4.740   4.287   6.976
 9625SOL    HW229775   4.630   4.166   6.969
 9626SOL     OW29776   2.406   5.435   4.328
 9626SOL    HW129777   2.361   5.451   4.416
 9626SOL    HW229778   2.414   5.521   4.279
 9627SOL     OW29779   0.657   4.387   4.496
 9627SOL    HW129780   0.732   4.330   4.531
 9627SOL    HW229781   0.611   4.431   4.573
 9628SOL     OW29782   5.815   3.893   0.848
 9628SOL    HW129783   5.716   3.893   0.860
 9628SOL    HW229784   5.853   3.981   0.876
 9629SOL     OW29785   6.501   6.404   3.155
 9629SOL    HW129786   6.416   6.354   3.136
 9629SOL    HW229787   6.571   6.375   3.091
 9630SOL     OW29788   6.008   6.143   5.277
 9630SOL    HW129789   5.934   6.165   5.341
 9630SOL    HW229790   6.008   6.208   5.201
 9631SOL     OW29791   4.441   1.818   1.180
 9631SOL    HW129792   4.382   1.899   1.187
 9631SOL    HW229793   4.506   1.818   1.256
 9632SOL     OW29794   2.232   5.152   1.179
 9632SOL    HW129795   2.297   5.098   1.126
 9632SOL    HW229796   2.139   5.128   1.150
 9633SOL     OW29797   3.765   3.456   0.890
 9633SOL    HW129798   3.774   3.547   0.850
 9633SOL    HW229799   3.743   3.465   0.988
 9634SOL     OW29800   5.900   5.332   3.398
 9634SOL    HW129801   5.879   5.250   3.452
 9634SOL    HW229802   5.979   5.378   3.439
 9635SOL     OW29803   0.439   4.494   5.101
 9635SOL    HW129804   0.370   4.565   5.087
 9635SOL    HW229805   0.400   4.418   5.153
 9636SOL     OW29806   3.324   1.500   6.247
 9636SOL    HW129807   3.345   1.429   6.314
 9636SOL    HW229808   3.328   1.461   6.155
 9637SOL     OW29809   3.361   3.444   1.342
 9637SOL    HW129810   3.310   3.453   1.257
 9637SOL    HW229811   3.340   3.520   1.403
 9638SOL     OW29812   0.137   3.654   6.392
 9638SOL    HW129813   0.137   3.728   6.325
 9638SOL    HW229814   0.153   3.567   6.346
 9639SOL     OW29815   4.531   2.738   1.607
 9639SOL    HW129816   4.593   2.815   1.596
 9639SOL    HW229817   4.548   2.693   1.695
 9640SOL     OW29818   3.607   1.089   2.384
 9640SOL    HW129819   3.579   1.021   2.316
 9640SOL    HW229820   3.527   1.122   2.434
 9641SOL     OW29821   5.273   6.179   2.412
 9641SOL    HW129822   5.349   6.241   2.433
 9641SOL    HW229823   5.231   6.206   2.326
 9642SOL     OW29824   1.179   6.938   3.963
 9642SOL    HW129825   1.243   6.994   4.015
 9642SOL    HW229826   1.104   6.909   4.024
 9643SOL     OW29827   5.143   3.682   4.013
 9643SOL    HW129828   5.235   3.658   3.980
 9643SOL    HW229829   5.117   3.620   4.086
 9644SOL     OW29830   1.787   6.128   5.074
 9644SOL    HW129831   1.787   6.123   4.974
 9644SOL    HW229832   1.797   6.036   5.112
 9645SOL     OW29833   2.162   4.588   5.252
 9645SOL    HW129834   2.089   4.520   5.261
 9645SOL    HW229835   2.248   4.550   5.286
 9646SOL     OW29836   3.094   5.776   2.628
 9646SOL    HW129837   3.191   5.753   2.638
 9646SOL    HW229838   3.062   5.747   2.538
 9647SOL     OW29839   0.107   0.175   3.364
 9647SOL    HW129840   0.089   0.193   3.267
 9647SOL    HW229841   0.031   0.209   3.419
 9648SOL     OW29842   4.940   2.990   1.269
 9648SOL    HW129843   4.855   3.019   1.312
 9648SOL    HW229844   4.967   2.900   1.305
 9649SOL     OW29845   2.422   3.978   6.811
 9649SOL    HW129846   2.481   3.977   6.730
 9649SOL    HW229847   2.416   4.071   6.847
 9650SOL     OW29848   5.212   4.287   3.594
 9650SOL    HW129849   5.301   4.329   3.579
 9650SOL    HW229850   5.190   4.228   3.516
 9651SOL     OW29851   3.964   0.797   0.981
 9651SOL    HW129852   3.961   0.726   1.052
 9651SOL    HW229853   3.906   0.874   1.009
 9652SOL     OW29854   0.621   5.071   1.044
 9652SOL    HW129855   0.654   4.977   1.047
 9652SOL    HW229856   0.621   5.110   1.136
 9653SOL     OW29857   4.547   4.675   5.780
 9653SOL    HW129858   4.633   4.623   5.778
 9653SOL    HW229859   4.538   4.722   5.867
 9654SOL     OW29860   3.122   3.136   3.122
 9654SOL    HW129861   3.053   3.191   3.075
 9654SOL    HW229862   3.155   3.065   3.060
 9655SOL     OW29863   0.152   1.740   0.060
 9655SOL    HW129864   0.237   1.733   0.112
 9655SOL    HW229865   0.097   1.815   0.097
 9656SOL     OW29866   4.743   2.099   0.883
 9656SOL    HW129867   4.692   2.014   0.901
 9656SOL    HW229868   4.711   2.170   0.945
 9657SOL     OW29869   6.091   4.405   2.640
 9657SOL    HW129870   6.153   4.483   2.652
 9657SOL    HW229871   6.006   4.422   2.690
 9658SOL     OW29872   6.076   2.112   2.652
 9658SOL    HW129873   6.033   2.191   2.695
 9658SOL    HW229874   6.045   2.105   2.557
 9659SOL     OW29875   1.306   2.628   0.231
 9659SOL    HW129876   1.346   2.637   0.140
 9659SOL    HW229877   1.297   2.531   0.254
 9660SOL     OW29878   0.732   0.035   2.000
 9660SOL    HW129879   0.698   0.001   2.088
 9660SOL    HW229880   0.742   0.135   2.005
 9661SOL     OW29881   4.161   5.959   1.170
 9661SOL    HW129882   4.076   5.999   1.134
 9661SOL    HW229883   4.239   5.995   1.118
 9662SOL     OW29884   5.065   3.581   0.259
 9662SOL    HW129885   5.087   3.557   0.354
 9662SOL    HW229886   5.026   3.501   0.213
 9663SOL     OW29887   0.005   5.991   2.712
 9663SOL    HW129888   7.010   5.953   2.620
 9663SOL    HW229889   0.023   6.089   2.705
 9664SOL     OW29890   5.271   4.499   4.605
 9664SOL    HW129891   5.214   4.567   4.652
 9664SOL    HW229892   5.213   4.423   4.575
 9665SOL     OW29893   5.937   6.074   5.690
 9665SOL    HW129894   6.022   6.119   5.666
 9665SOL    HW229895   5.899   6.115   5.773
 9666SOL     OW29896   6.333   3.489   2.030
 9666SOL    HW129897   6.359   3.572   2.079
 9666SOL    HW229898   6.360   3.409   2.084
 9667SOL     OW29899   3.833   3.779   0.867
 9667SOL    HW129900   3.845   3.723   0.785
 9667SOL    HW229901   3.908   3.845   0.873
 9668SOL     OW29902   1.179   0.830   6.671
 9668SOL    HW129903   1.119   0.902   6.635
 9668SOL    HW229904   1.178   0.752   6.609
 9669SOL     OW29905   2.092   6.849   1.471
 9669SOL    HW129906   2.147   6.767   1.459
 9669SOL    HW229907   2.119   6.918   1.403
 9670SOL     OW29908   0.085   5.481   5.303
 9670SOL    HW129909   0.072   5.498   5.401
 9670SOL    HW229910   0.179   5.504   5.277
 9671SOL     OW29911   6.630   4.084   0.666
 9671SOL    HW129912   6.549   4.128   0.705
 9671SOL    HW229913   6.700   4.153   0.651
 9672SOL     OW29914   1.304   5.028   3.295
 9672SOL    HW129915   1.386   5.086   3.301
 9672SOL    HW229916   1.230   5.070   3.347
 9673SOL     OW29917   3.568   3.766   1.477
 9673SOL    HW129918   3.490   3.704   1.482
 9673SOL    HW229919   3.567   3.815   1.390
 9674SOL     OW29920   3.776   6.580   3.364
 9674SOL    HW129921   3.816   6.645   3.300
 9674SOL    HW229922   3.798   6.486   3.335
 9675SOL     OW29923   4.909   2.342   6.800
 9675SOL    HW129924   4.871   2.263   6.848
 9675SOL    HW229925   4.941   2.409   6.867
 9676SOL     OW29926   1.473   3.706   5.980
 9676SOL    HW129927   1.501   3.621   6.024
 9676SOL    HW229928   1.416   3.759   6.043
 9677SOL     OW29929   6.793   4.994   5.684
 9677SOL    HW129930   6.831   5.074   5.636
 9677SOL    HW229931   6.731   5.024   5.756
 9678SOL     OW29932   2.888   3.704   4.174
 9678SOL    HW129933   2.927   3.622   4.216
 9678SOL    HW229934   2.878   3.775   4.244
 9679SOL     OW29935   2.566   0.090   3.807
 9679SOL    HW129936   2.502   0.035   3.861
 9679SOL    HW229937   2.527   0.107   3.716
 9680SOL     OW29938   4.462   0.469   5.246
 9680SOL    HW129939   4.542   0.424   5.208
 9680SOL    HW229940   4.419   0.410   5.314
 9681SOL     OW29941   3.139   2.192   0.686
 9681SOL    HW129942   3.222   2.155   0.643
 9681SOL    HW229943   3.064   2.190   0.620
 9682SOL     OW29944   4.848   4.089   3.617
 9682SOL    HW129945   4.875   4.140   3.535
 9682SOL    HW229946   4.756   4.053   3.605
 9683SOL     OW29947   3.412   6.501   1.227
 9683SOL    HW129948   3.325   6.467   1.191
 9683SOL    HW229949   3.486   6.470   1.168
 9684SOL     OW29950   0.810   4.112   5.012
 9684SOL    HW129951   0.901   4.074   5.002
 9684SOL    HW229952   0.813   4.192   5.072
 9685SOL     OW29953   4.623   4.115   0.984
 9685SOL    HW129954   4.594   4.156   1.071
 9685SOL    HW229955   4.648   4.020   0.999
 9686SOL     OW29956   0.541   2.998   6.416
 9686SOL    HW129957   0.510   2.943   6.338
 9686SOL    HW229958   0.612   2.947   6.465
 9687SOL     OW29959   0.023   1.129   3.371
 9687SOL    HW129960   7.010   1.038   3.388
 9687SOL    HW229961   0.032   1.179   3.457
 9688SOL     OW29962   0.955   3.256   0.573
 9688SOL    HW129963   1.030   3.243   0.508
 9688SOL    HW229964   0.909   3.168   0.587
 9689SOL     OW29965   0.684   4.675   6.529
 9689SOL    HW129966   0.748   4.752   6.537
 9689SOL    HW229967   0.733   4.597   6.490
 9690SOL     OW29968   5.841   6.957   5.809
 9690SOL    HW129969   5.890   6.870   5.804
 9690SOL    HW229970   5.759   6.952   5.752
 9691SOL     OW29971   2.836   3.806   1.625
 9691SOL    HW129972   2.840   3.879   1.693
 9691SOL    HW229973   2.795   3.841   1.541
 9692SOL     OW29974   4.629   5.810   0.931
 9692SOL    HW129975   4.698   5.863   0.980
 9692SOL    HW229976   4.671   5.761   0.855
 9693SOL     OW29977   6.269   4.047   2.977
 9693SOL    HW129978   6.223   4.129   2.943
 9693SOL    HW229979   6.227   4.018   3.062
 9694SOL     OW29980   2.897   0.937   2.133
 9694SOL    HW129981   2.936   1.024   2.162
 9694SOL    HW229982   2.815   0.954   2.079
 9695SOL     OW29983   6.839   2.354   2.815
 9695SOL    HW129984   6.790   2.427   2.863
 9695SOL    HW229985   6.934   2.382   2.802
 9696SOL     OW29986   5.869   2.935   1.257
 9696SOL    HW129987   5.885   3.032   1.274
 9696SOL    HW229988   5.785   2.924   1.203
 9697SOL     OW29989   0.450   6.330   0.382
 9697SOL    HW129990   0.525   6.352   0.319
 9697SOL    HW229991   0.472   6.365   0.473
 9698SOL     OW29992   5.617   2.439   6.054
 9698SOL    HW129993   5.666   2.423   5.968
 9698SOL    HW229994   5.585   2.534   6.057
 9699SOL     OW29995   6.943   5.803   0.349
 9699SOL    HW129996   6.849   5.815   0.319
 9699SOL    HW229997   7.001   5.780   0.271
 9700SOL     OW29998   5.911   4.818   4.916
 9700SOL    HW129999   5.934   4.726   4.883
 9700SOL    HW230000   5.835   4.812   4.981
 9701SOL     OW30001   4.805   4.359   5.986
 9701SOL    HW130002   4.883   4.307   6.021
 9701SOL    HW230003   4.735   4.365   6.057
 9702SOL     OW30004   3.770   2.341   0.168
 9702SOL    HW130005   3.746   2.261   0.114
 9702SOL    HW230006   3.858   2.327   0.212
 9703SOL     OW30007   4.886   3.443   3.775
 9703SOL    HW130008   4.905   3.495   3.691
 9703SOL    HW230009   4.861   3.349   3.751
 9704SOL     OW30010   3.557   6.030   1.729
 9704SOL    HW130011   3.480   5.996   1.674
 9704SOL    HW230012   3.642   5.995   1.690
 9705SOL     OW30013   5.131   4.414   6.338
 9705SOL    HW130014   5.220   4.461   6.337
 9705SOL    HW230015   5.103   4.399   6.433
 9706SOL     OW30016   2.905   2.180   0.831
 9706SOL    HW130017   2.898   2.241   0.752
 9706SOL    HW230018   2.987   2.202   0.883
 9707SOL     OW30019   6.453   5.022   2.527
 9707SOL    HW130020   6.516   4.951   2.495
 9707SOL    HW230021   6.485   5.058   2.614
 9708SOL     OW30022   0.593   1.554   3.668
 9708SOL    HW130023   0.633   1.624   3.726
 9708SOL    HW230024   0.664   1.515   3.609
 9709SOL     OW30025   5.421   5.222   2.727
 9709SOL    HW130026   5.487   5.164   2.680
 9709SOL    HW230027   5.332   5.176   2.729
 9710SOL     OW30028   0.127   1.503   1.386
 9710SOL    HW130029   0.057   1.489   1.456
 9710SOL    HW230030   0.083   1.519   1.298
 9711SOL     OW30031   4.676   5.137   6.429
 9711SOL    HW130032   4.761   5.098   6.391
 9711SOL    HW230033   4.679   5.133   6.529
 9712SOL     OW30034   5.751   3.791   0.055
 9712SOL    HW130035   5.839   3.834   0.078
 9712SOL    HW230036   5.681   3.823   0.117
 9713SOL     OW30037   2.079   4.423   3.641
 9713SOL    HW130038   2.162   4.399   3.590
 9713SOL    HW230039   2.063   4.522   3.632
 9714SOL     OW30040   4.467   6.370   6.363
 9714SOL    HW130041   4.392   6.335   6.308
 9714SOL    HW230042   4.467   6.470   6.360
 9715SOL     OW30043   5.996   3.934   0.033
 9715SOL    HW130044   6.030   3.988   6.979
 9715SOL    HW230045   6.037   3.967   0.118
 9716SOL     OW30046   3.232   4.329   6.445
 9716SOL    HW130047   3.269   4.271   6.372
 9716SOL    HW230048   3.266   4.297   6.533
 9717SOL     OW30049   5.350   6.880   6.002
 9717SOL    HW130050   5.278   6.860   6.069
 9717SOL    HW230051   5.377   6.975   6.010
 9718SOL     OW30052   5.011   3.338   1.301
 9718SOL    HW130053   5.096   3.323   1.251
 9718SOL    HW230054   5.032   3.375   1.391
 9719SOL     OW30055   5.838   0.505   5.883
 9719SOL    HW130056   5.810   0.497   5.787
 9719SOL    HW230057   5.833   0.600   5.912
 9720SOL     OW30058   1.118   4.372   2.336
 9720SOL    HW130059   1.018   4.362   2.330
 9720SOL    HW230060   1.146   4.379   2.431
 9721SOL     OW30061   0.500   1.198   0.102
 9721SOL    HW130062   0.431   1.161   0.164
 9721SOL    HW230063   0.463   1.198   0.009
 9722SOL     OW30064   3.400   1.192   4.747
 9722SOL    HW130065   3.317   1.159   4.703
 9722SOL    HW230066   3.377   1.246   4.828
 9723SOL     OW30067   3.960   6.101   3.486
 9723SOL    HW130068   3.860   6.095   3.486
 9723SOL    HW230069   3.995   6.064   3.572
 9724SOL     OW30070   1.335   4.970   0.264
 9724SOL    HW130071   1.362   4.979   0.168
 9724SOL    HW230072   1.271   5.043   0.288
 9725SOL     OW30073   4.375   6.130   6.230
 9725SOL    HW130074   4.299   6.161   6.173
 9725SOL    HW230075   4.340   6.091   6.315
 9726SOL     OW30076   4.294   1.610   3.496
 9726SOL    HW130077   4.297   1.704   3.530
 9726SOL    HW230078   4.317   1.547   3.571
 9727SOL     OW30079   0.781   2.508   6.675
 9727SOL    HW130080   0.783   2.481   6.579
 9727SOL    HW230081   0.860   2.566   6.695
 9728SOL     OW30082   0.622   1.141   5.299
 9728SOL    HW130083   0.615   1.215   5.366
 9728SOL    HW230084   0.638   1.055   5.347
 9729SOL     OW30085   1.404   4.580   3.927
 9729SOL    HW130086   1.336   4.514   3.958
 9729SOL    HW230087   1.407   4.580   3.827
 9730SOL     OW30088   1.294   4.630   3.075
 9730SOL    HW130089   1.365   4.701   3.079
 9730SOL    HW230090   1.242   4.632   3.160
 9731SOL     OW30091   4.786   5.311   1.776
 9731SOL    HW130092   4.698   5.300   1.730
 9731SOL    HW230093   4.805   5.229   1.831
 9732SOL     OW30094   1.198   4.014   2.454
 9732SOL    HW130095   1.109   4.030   2.413
 9732SOL    HW230096   1.268   4.008   2.383
 9733SOL     OW30097   5.047   5.654   0.073
 9733SOL    HW130098   5.017   5.571   0.121
 9733SOL    HW230099   4.968   5.713   0.057
 9734SOL     OW30100   6.786   0.360   0.184
 9734SOL    HW130101   6.742   0.343   0.273
 9734SOL    HW230102   6.748   0.443   0.144
 9735SOL     OW30103   2.118   3.088   3.448
 9735SOL    HW130104   2.144   3.028   3.523
 9735SOL    HW230105   2.127   3.183   3.476
 9736SOL     OW30106   5.054   1.284   5.612
 9736SOL    HW130107   5.147   1.321   5.604
 9736SOL    HW230108   4.989   1.360   5.616
 9737SOL     OW30109   5.146   2.765   3.206
 9737SOL    HW130110   5.207   2.836   3.171
 9737SOL    HW230111   5.140   2.690   3.140
 9738SOL     OW30112   2.705   6.566   0.444
 9738SOL    HW130113   2.773   6.506   0.486
 9738SOL    HW230114   2.630   6.581   0.509
 9739SOL     OW30115   5.065   5.921   0.731
 9739SOL    HW130116   4.991   5.909   0.665
 9739SOL    HW230117   5.094   5.831   0.765
 9740SOL     OW30118   0.429   1.072   3.423
 9740SOL    HW130119   0.517   1.033   3.397
 9740SOL    HW230120   0.366   1.067   3.345
 9741SOL     OW30121   2.625   1.019   2.596
 9741SOL    HW130122   2.706   0.993   2.543
 9741SOL    HW230123   2.616   1.119   2.595
 9742SOL     OW30124   3.545   1.083   0.548
 9742SOL    HW130125   3.642   1.064   0.529
 9742SOL    HW230126   3.502   1.001   0.585
 9743SOL     OW30127   6.649   4.038   3.551
 9743SOL    HW130128   6.730   4.063   3.497
 9743SOL    HW230129   6.586   3.985   3.494
 9744SOL     OW30130   1.113   6.750   1.622
 9744SOL    HW130131   1.050   6.827   1.607
 9744SOL    HW230132   1.102   6.716   1.716
 9745SOL     OW30133   4.425   2.681   6.759
 9745SOL    HW130134   4.465   2.599   6.799
 9745SOL    HW230135   4.450   2.687   6.663
 9746SOL     OW30136   5.703   0.559   5.658
 9746SOL    HW130137   5.739   0.644   5.621
 9746SOL    HW230138   5.715   0.485   5.591
 9747SOL     OW30139   2.719   2.239   1.876
 9747SOL    HW130140   2.702   2.332   1.844
 9747SOL    HW230141   2.798   2.239   1.939
 9748SOL     OW30142   6.019   0.086   3.723
 9748SOL    HW130143   5.965   0.047   3.648
 9748SOL    HW230144   6.048   0.012   3.785
 9749SOL     OW30145   1.191   0.639   4.122
 9749SOL    HW130146   1.286   0.627   4.092
 9749SOL    HW230147   1.178   0.734   4.150
 9750SOL     OW30148   6.203   5.222   3.210
 9750SOL    HW130149   6.148   5.161   3.267
 9750SOL    HW230150   6.265   5.168   3.153
 9751SOL     OW30151   2.721   0.141   1.183
 9751SOL    HW130152   2.750   0.104   1.271
 9751SOL    HW230153   2.621   0.149   1.182
 9752SOL     OW30154   3.922   1.654   5.342
 9752SOL    HW130155   3.996   1.672   5.407
 9752SOL    HW230156   3.958   1.662   5.249
 9753SOL     OW30157   0.055   5.506   5.581
 9753SOL    HW130158   6.984   5.500   5.615
 9753SOL    HW230159   0.118   5.469   5.649
 9754SOL     OW30160   1.942   0.212   0.858
 9754SOL    HW130161   1.842   0.215   0.868
 9754SOL    HW230162   1.980   0.145   0.921
 9755SOL     OW30163   3.659   3.470   4.251
 9755SOL    HW130164   3.722   3.452   4.176
 9755SOL    HW230165   3.684   3.415   4.330
 9756SOL     OW30166   5.553   1.970   5.751
 9756SOL    HW130167   5.646   1.994   5.722
 9756SOL    HW230168   5.514   2.046   5.802
 9757SOL     OW30169   5.752   4.495   4.422
 9757SOL    HW130170   5.801   4.425   4.473
 9757SOL    HW230171   5.658   4.501   4.456
 9758SOL     OW30172   2.063   0.610   0.090
 9758SOL    HW130173   1.998   0.603   0.015
 9758SOL    HW230174   2.025   0.567   0.172
 9759SOL     OW30175   0.930   0.766   0.316
 9759SOL    HW130176   0.902   0.736   0.225
 9759SOL    HW230177   0.897   0.859   0.332
 9760SOL     OW30178   4.615   3.389   5.866
 9760SOL    HW130179   4.671   3.327   5.811
 9760SOL    HW230180   4.584   3.342   5.949
 9761SOL     OW30181   0.452   2.179   1.567
 9761SOL    HW130182   0.426   2.275   1.579
 9761SOL    HW230183   0.534   2.160   1.621
 9762SOL     OW30184   3.549   2.089   4.888
 9762SOL    HW130185   3.476   2.137   4.839
 9762SOL    HW230186   3.509   2.034   4.962
 9763SOL     OW30187   5.040   1.822   3.144
 9763SOL    HW130188   5.012   1.744   3.087
 9763SOL    HW230189   4.961   1.879   3.163
 9764SOL     OW30190   6.563   2.592   2.738
 9764SOL    HW130191   6.509   2.541   2.671
 9764SOL    HW230192   6.538   2.562   2.830
 9765SOL     OW30193   6.630   6.750   3.387
 9765SOL    HW130194   6.722   6.719   3.413
 9765SOL    HW230195   6.569   6.672   3.381
 9766SOL     OW30196   2.364   6.489   2.102
 9766SOL    HW130197   2.365   6.585   2.074
 9766SOL    HW230198   2.454   6.449   2.088
 9767SOL     OW30199   2.929   1.470   5.727
 9767SOL    HW130200   2.986   1.389   5.743
 9767SOL    HW230201   2.932   1.494   5.630
 9768SOL     OW30202   5.402   1.205   1.689
 9768SOL    HW130203   5.332   1.264   1.729
 9768SOL    HW230204   5.431   1.136   1.756
 9769SOL     OW30205   4.368   0.566   4.536
 9769SOL    HW130206   4.330   0.519   4.615
 9769SOL    HW230207   4.451   0.615   4.563
 9770SOL     OW30208   3.744   0.992   6.025
 9770SOL    HW130209   3.701   0.975   6.114
 9770SOL    HW230210   3.675   0.990   5.954
 9771SOL     OW30211   2.641   5.325   0.794
 9771SOL    HW130212   2.595   5.411   0.774
 9771SOL    HW230213   2.706   5.304   0.721
 9772SOL     OW30214   1.263   5.943   1.570
 9772SOL    HW130215   1.230   6.022   1.622
 9772SOL    HW230216   1.265   5.863   1.629
 9773SOL     OW30217   5.475   5.587   4.249
 9773SOL    HW130218   5.478   5.559   4.153
 9773SOL    HW230219   5.433   5.514   4.303
 9774SOL     OW30220   6.663   5.284   2.002
 9774SOL    HW130221   6.721   5.210   2.034
 9774SOL    HW230222   6.712   5.371   2.010
 9775SOL     OW30223   2.821   0.301   3.674
 9775SOL    HW130224   2.854   0.212   3.706
 9775SOL    HW230225   2.729   0.292   3.638
 9776SOL     OW30226   7.011   4.931   5.340
 9776SOL    HW130227   7.016   4.898   5.435
 9776SOL    HW230228   6.918   4.963   5.321
 9777SOL     OW30229   6.047   4.890   0.629
 9777SOL    HW130230   6.100   4.971   0.605
 9777SOL    HW230231   5.958   4.918   0.665
 9778SOL     OW30232   0.484   2.075   4.287
 9778SOL    HW130233   0.457   2.167   4.259
 9778SOL    HW230234   0.550   2.081   4.362
 9779SOL     OW30235   0.277   2.332   4.284
 9779SOL    HW130236   0.355   2.369   4.335
 9779SOL    HW230237   0.209   2.296   4.349
 9780SOL     OW30238   2.626   2.784   0.299
 9780SOL    HW130239   2.630   2.875   0.257
 9780SOL    HW230240   2.630   2.793   0.399
 9781SOL     OW30241   2.382   2.303   4.935
 9781SOL    HW130242   2.372   2.380   4.873
 9781SOL    HW230243   2.395   2.337   5.028
 9782SOL     OW30244   0.647   1.777   0.683
 9782SOL    HW130245   0.648   1.871   0.648
 9782SOL    HW230246   0.560   1.734   0.662
 9783SOL     OW30247   4.803   2.884   3.646
 9783SOL    HW130248   4.763   2.870   3.555
 9783SOL    HW230249   4.834   2.978   3.655
 9784SOL     OW30250   3.053   1.189   6.104
 9784SOL    HW130251   3.063   1.231   6.194
 9784SOL    HW230252   3.103   1.103   6.101
 9785SOL     OW30253   0.318   1.938   5.793
 9785SOL    HW130254   0.270   1.852   5.812
 9785SOL    HW230255   0.355   1.974   5.878
 9786SOL     OW30256   2.753   3.832   0.309
 9786SOL    HW130257   2.711   3.915   0.272
 9786SOL    HW230258   2.842   3.817   0.265
 9787SOL     OW30259   3.252   2.905   2.612
 9787SOL    HW130260   3.314   2.981   2.592
 9787SOL    HW230261   3.157   2.935   2.598
 9788SOL     OW30262   0.918   0.209   3.112
 9788SOL    HW130263   0.844   0.231   3.048
 9788SOL    HW230264   0.978   0.140   3.070
 9789SOL     OW30265   1.693   5.371   0.451
 9789SOL    HW130266   1.726   5.347   0.542
 9789SOL    HW230267   1.597   5.342   0.442
 9790SOL     OW30268   6.385   5.078   6.672
 9790SOL    HW130269   6.366   5.011   6.600
 9790SOL    HW230270   6.303   5.132   6.689
 9791SOL     OW30271   0.607   6.636   6.831
 9791SOL    HW130272   0.566   6.574   6.898
 9791SOL    HW230273   0.537   6.697   6.795
 9792SOL     OW30274   3.285   3.982   0.947
 9792SOL    HW130275   3.377   3.979   0.986
 9792SOL    HW230276   3.257   3.889   0.921
 9793SOL     OW30277   4.583   0.451   2.494
 9793SOL    HW130278   4.628   0.511   2.560
 9793SOL    HW230279   4.638   0.370   2.479
 9794SOL     OW30280   0.195   4.179   6.582
 9794SOL    HW130281   0.244   4.174   6.495
 9794SOL    HW230282   0.113   4.234   6.570
 9795SOL     OW30283   1.079   1.909   4.577
 9795SOL    HW130284   1.099   1.811   4.576
 9795SOL    HW230285   1.152   1.959   4.530
 9796SOL     OW30286   4.078   3.246   2.273
 9796SOL    HW130287   4.030   3.158   2.271
 9796SOL    HW230288   4.078   3.285   2.181
 9797SOL     OW30289   2.169   5.655   0.456
 9797SOL    HW130290   2.152   5.663   0.357
 9797SOL    HW230291   2.096   5.600   0.497
 9798SOL     OW30292   3.431   0.734   2.400
 9798SOL    HW130293   3.503   0.669   2.375
 9798SOL    HW230294   3.344   0.686   2.412
 9799SOL     OW30295   2.547   4.273   5.658
 9799SOL    HW130296   2.548   4.327   5.742
 9799SOL    HW230297   2.635   4.228   5.646
 9800SOL     OW30298   5.046   5.058   5.432
 9800SOL    HW130299   5.124   5.102   5.388
 9800SOL    HW230300   4.975   5.126   5.451
 9801SOL     OW30301   4.687   3.950   0.038
 9801SOL    HW130302   4.601   3.983   0.001
 9801SOL    HW230303   4.719   3.872   7.007
 9802SOL     OW30304   6.232   4.417   2.046
 9802SOL    HW130305   6.138   4.453   2.053
 9802SOL    HW230306   6.229   4.323   2.013
 9803SOL     OW30307   1.883   2.375   6.246
 9803SOL    HW130308   1.952   2.304   6.261
 9803SOL    HW230309   1.914   2.461   6.288
 9804SOL     OW30310   0.805   6.303   2.972
 9804SOL    HW130311   0.794   6.230   3.040
 9804SOL    HW230312   0.873   6.275   2.904
 9805SOL     OW30313   1.038   0.020   2.952
 9805SOL    HW130314   0.999   6.953   2.971
 9805SOL    HW230315   1.123   0.010   2.901
 9806SOL     OW30316   1.345   1.054   6.893
 9806SOL    HW130317   1.261   1.096   6.859
 9806SOL    HW230318   1.421   1.119   6.886
 9807SOL     OW30319   3.275   3.776   1.784
 9807SOL    HW130320   3.255   3.871   1.808
 9807SOL    HW230321   3.374   3.764   1.776
 9808SOL     OW30322   3.731   6.581   5.158
 9808SOL    HW130323   3.658   6.522   5.192
 9808SOL    HW230324   3.801   6.591   5.229
 9809SOL     OW30325   0.903   3.673   6.760
 9809SOL    HW130326   0.942   3.648   6.671
 9809SOL    HW230327   0.858   3.762   6.753
 9810SOL     OW30328   2.526   2.339   3.974
 9810SOL    HW130329   2.591   2.294   4.035
 9810SOL    HW230330   2.472   2.405   4.026
 9811SOL     OW30331   5.598   4.868   3.197
 9811SOL    HW130332   5.520   4.925   3.170
 9811SOL    HW230333   5.565   4.777   3.223
 9812SOL     OW30334   3.736   1.819   5.795
 9812SOL    HW130335   3.785   1.859   5.872
 9812SOL    HW230336   3.779   1.732   5.770
 9813SOL     OW30337   4.530   1.303   0.752
 9813SOL    HW130338   4.582   1.260   0.677
 9813SOL    HW230339   4.432   1.295   0.733
 9814SOL     OW30340   6.856   0.244   6.564
 9814SOL    HW130341   6.799   0.326   6.558
 9814SOL    HW230342   6.804   0.171   6.609
 9815SOL     OW30343   4.930   3.376   4.579
 9815SOL    HW130344   4.864   3.333   4.518
 9815SOL    HW230345   5.020   3.335   4.564
 9816SOL     OW30346   1.152   0.957   6.338
 9816SOL    HW130347   1.097   0.915   6.266
 9816SOL    HW230348   1.092   0.990   6.410
 9817SOL     OW30349   2.747   6.204   3.073
 9817SOL    HW130350   2.770   6.300   3.083
 9817SOL    HW230351   2.823   6.155   3.030
 9818SOL     OW30352   0.591   0.501   3.869
 9818SOL    HW130353   0.677   0.450   3.874
 9818SOL    HW230354   0.601   0.588   3.917
 9819SOL     OW30355   4.885   3.726   3.480
 9819SOL    HW130356   4.958   3.742   3.546
 9819SOL    HW230357   4.798   3.752   3.520
 9820SOL     OW30358   3.980   2.694   6.549
 9820SOL    HW130359   4.056   2.758   6.536
 9820SOL    HW230360   3.989   2.618   6.485
 9821SOL     OW30361   5.177   1.758   7.005
 9821SOL    HW130362   5.213   1.822   6.937
 9821SOL    HW230363   5.230   1.673   7.001
 9822SOL     OW30364   2.042   7.004   3.297
 9822SOL    HW130365   2.128   6.954   3.301
 9822SOL    HW230366   1.975   6.950   3.246
 9823SOL     OW30367   2.478   0.685   6.930
 9823SOL    HW130368   2.411   0.751   6.965
 9823SOL    HW230369   2.515   0.632   7.006
 9824SOL     OW30370   1.973   5.125   4.466
 9824SOL    HW130371   1.884   5.121   4.419
 9824SOL    HW230372   1.959   5.150   4.562
 9825SOL     OW30373   4.834   5.723   5.731
 9825SOL    HW130374   4.738   5.698   5.717
 9825SOL    HW230375   4.864   5.782   5.657
 9826SOL     OW30376   5.138   4.837   6.720
 9826SOL    HW130377   5.105   4.928   6.746
 9826SOL    HW230378   5.095   4.809   6.635
 9827SOL     OW30379   2.173   3.754   3.122
 9827SOL    HW130380   2.102   3.710   3.068
 9827SOL    HW230381   2.193   3.845   3.084
 9828SOL     OW30382   2.397   2.472   5.518
 9828SOL    HW130383   2.366   2.531   5.593
 9828SOL    HW230384   2.486   2.505   5.485
 9829SOL     OW30385   4.134   4.846   0.357
 9829SOL    HW130386   4.168   4.813   0.269
 9829SOL    HW230387   4.129   4.946   0.355
 9830SOL     OW30388   5.986   3.022   1.675
 9830SOL    HW130389   5.931   3.105   1.666
 9830SOL    HW230390   5.938   2.945   1.633
 9831SOL     OW30391   2.549   5.084   1.225
 9831SOL    HW130392   2.597   5.087   1.138
 9831SOL    HW230393   2.514   5.175   1.248
 9832SOL     OW30394   4.771   5.404   3.114
 9832SOL    HW130395   4.837   5.479   3.107
 9832SOL    HW230396   4.785   5.340   3.038
 9833SOL     OW30397   3.704   3.951   5.263
 9833SOL    HW130398   3.726   4.048   5.261
 9833SOL    HW230399   3.605   3.939   5.260
 9834SOL     OW30400   2.699   4.693   5.258
 9834SOL    HW130401   2.781   4.638   5.246
 9834SOL    HW230402   2.689   4.757   5.182
 9835SOL     OW30403   3.620   3.269   5.229
 9835SOL    HW130404   3.569   3.353   5.246
 9835SOL    HW230405   3.558   3.191   5.235
 9836SOL     OW30406   6.581   4.842   3.840
 9836SOL    HW130407   6.659   4.897   3.873
 9836SOL    HW230408   6.521   4.901   3.786
 9837SOL     OW30409   3.147   0.346   3.738
 9837SOL    HW130410   3.224   0.401   3.770
 9837SOL    HW230411   3.064   0.402   3.735
 9838SOL     OW30412   2.034   6.760   6.622
 9838SOL    HW130413   2.107   6.693   6.611
 9838SOL    HW230414   2.050   6.815   6.704
 9839SOL     OW30415   5.885   0.696   3.511
 9839SOL    HW130416   5.951   0.733   3.445
 9839SOL    HW230417   5.865   0.600   3.488
 9840SOL     OW30418   5.858   1.267   1.041
 9840SOL    HW130419   5.788   1.274   0.970
 9840SOL    HW230420   5.860   1.351   1.094
 9841SOL     OW30421   2.077   4.647   5.002
 9841SOL    HW130422   2.000   4.586   5.019
 9841SOL    HW230423   2.128   4.662   5.086
 9842SOL     OW30424   3.715   3.264   2.188
 9842SOL    HW130425   3.701   3.178   2.238
 9842SOL    HW230426   3.765   3.244   2.103
 9843SOL     OW30427   6.092   0.799   1.491
 9843SOL    HW130428   6.141   0.723   1.533
 9843SOL    HW230429   6.069   0.776   1.396
 9844SOL     OW30430   6.268   0.402   2.112
 9844SOL    HW130431   6.336   0.346   2.066
 9844SOL    HW230432   6.182   0.352   2.119
 9845SOL     OW30433   2.240   2.720   3.580
 9845SOL    HW130434   2.176   2.643   3.580
 9845SOL    HW230435   2.333   2.686   3.564
 9846SOL     OW30436   3.845   3.682   1.466
 9846SOL    HW130437   3.748   3.701   1.479
 9846SOL    HW230438   3.889   3.762   1.424
 9847SOL     OW30439   3.397   2.875   3.934
 9847SOL    HW130440   3.483   2.883   3.883
 9847SOL    HW230441   3.412   2.821   4.017
 9848SOL     OW30442   3.477   3.479   5.399
 9848SOL    HW130443   3.410   3.538   5.354
 9848SOL    HW230444   3.563   3.529   5.411
 9849SOL     OW30445   0.125   6.655   6.406
 9849SOL    HW130446   0.204   6.607   6.366
 9849SOL    HW230447   0.041   6.623   6.363
 9850SOL     OW30448   5.900   0.095   4.125
 9850SOL    HW130449   5.953   0.157   4.067
 9850SOL    HW230450   5.833   0.046   4.069
 9851SOL     OW30451   5.725   0.773   4.649
 9851SOL    HW130452   5.817   0.810   4.634
 9851SOL    HW230453   5.672   0.836   4.705
 9852SOL     OW30454   4.211   2.212   3.553
 9852SOL    HW130455   4.196   2.271   3.473
 9852SOL    HW230456   4.294   2.158   3.539
 9853SOL     OW30457   5.199   3.818   4.976
 9853SOL    HW130458   5.104   3.825   4.948
 9853SOL    HW230459   5.230   3.906   5.012
 9854SOL     OW30460   6.909   5.632   5.128
 9854SOL    HW130461   7.006   5.614   5.148
 9854SOL    HW230462   6.888   5.601   5.035
 9855SOL     OW30463   1.953   3.131   1.069
 9855SOL    HW130464   1.914   3.207   1.122
 9855SOL    HW230465   2.037   3.100   1.113
 9856SOL     OW30466   5.162   4.744   5.363
 9856SOL    HW130467   5.091   4.688   5.406
 9856SOL    HW230468   5.140   4.758   5.266
 9857SOL     OW30469   4.714   2.844   3.400
 9857SOL    HW130470   4.767   2.916   3.356
 9857SOL    HW230471   4.628   2.831   3.350
 9858SOL     OW30472   0.438   0.674   1.079
 9858SOL    HW130473   0.455   0.611   1.003
 9858SOL    HW230474   0.344   0.706   1.076
 9859SOL     OW30475   6.122   6.982   2.354
 9859SOL    HW130476   6.121   6.891   2.395
 9859SOL    HW230477   6.158   0.025   2.421
 9860SOL     OW30478   1.024   1.463   3.699
 9860SOL    HW130479   1.005   1.392   3.767
 9860SOL    HW230480   1.122   1.481   3.696
 9861SOL     OW30481   2.902   0.055   3.702
 9861SOL    HW130482   2.997   0.062   3.672
 9861SOL    HW230483   2.897   0.000   3.785
 9862SOL     OW30484   3.876   2.885   6.988
 9862SOL    HW130485   3.856   2.941   0.045
 9862SOL    HW230486   3.836   2.794   7.000
 9863SOL     OW30487   3.103   6.935   3.094
 9863SOL    HW130488   3.193   6.921   3.053
 9863SOL    HW230489   3.093   6.876   3.174
 9864SOL     OW30490   4.032   0.046   3.796
 9864SOL    HW130491   4.070   0.064   3.705
 9864SOL    HW230492   4.047   6.974   3.821
 9865SOL     OW30493   1.533   0.893   4.287
 9865SOL    HW130494   1.618   0.940   4.262
 9865SOL    HW230495   1.490   0.940   4.363
 9866SOL     OW30496   5.476   4.838   6.394
 9866SOL    HW130497   5.486   4.801   6.301
 9866SOL    HW230498   5.560   4.885   6.420
 9867SOL     OW30499   6.389   0.714   1.218
 9867SOL    HW130500   6.452   0.703   1.295
 9867SOL    HW230501   6.395   0.808   1.183
 9868SOL     OW30502   0.295   3.733   5.907
 9868SOL    HW130503   0.258   3.694   5.992
 9868SOL    HW230504   0.361   3.804   5.930
 9869SOL     OW30505   1.471   3.242   1.987
 9869SOL    HW130506   1.469   3.281   2.079
 9869SOL    HW230507   1.561   3.256   1.946
 9870SOL     OW30508   3.704   5.605   2.957
 9870SOL    HW130509   3.724   5.655   3.041
 9870SOL    HW230510   3.663   5.667   2.890
 9871SOL     OW30511   0.436   5.987   5.934
 9871SOL    HW130512   0.461   5.966   5.839
 9871SOL    HW230513   0.514   5.965   5.993
 9872SOL     OW30514   2.548   5.257   3.975
 9872SOL    HW130515   2.512   5.208   4.055
 9872SOL    HW230516   2.526   5.205   3.892
 9873SOL     OW30517   2.835   2.527   0.087
 9873SOL    HW130518   2.932   2.511   0.069
 9873SOL    HW230519   2.803   2.604   0.031
 9874SOL     OW30520   5.932   3.076   4.647
 9874SOL    HW130521   6.024   3.063   4.610
 9874SOL    HW230522   5.931   3.154   4.709
 9875SOL     OW30523   6.007   6.325   2.103
 9875SOL    HW130524   6.052   6.263   2.167
 9875SOL    HW230525   5.962   6.399   2.154
 9876SOL     OW30526   6.565   0.178   3.315
 9876SOL    HW130527   6.517   0.256   3.353
 9876SOL    HW230528   6.523   0.093   3.348
 9877SOL     OW30529   6.770   5.996   4.250
 9877SOL    HW130530   6.715   6.028   4.174
 9877SOL    HW230531   6.791   5.899   4.238
 9878SOL     OW30532   2.643   4.799   5.009
 9878SOL    HW130533   2.600   4.828   4.924
 9878SOL    HW230534   2.734   4.763   4.990
 9879SOL     OW30535   5.797   5.210   5.195
 9879SOL    HW130536   5.845   5.281   5.247
 9879SOL    HW230537   5.743   5.155   5.257
 9880SOL     OW30538   3.585   0.869   6.960
 9880SOL    HW130539   3.601   0.967   6.945
 9880SOL    HW230540   3.660   0.817   6.920
 9881SOL     OW30541   0.954   1.302   5.284
 9881SOL    HW130542   0.946   1.305   5.184
 9881SOL    HW230543   0.942   1.208   5.315
 9882SOL     OW30544   1.386   3.650   4.750
 9882SOL    HW130545   1.378   3.551   4.762
 9882SOL    HW230546   1.451   3.669   4.677
 9883SOL     OW30547   1.303   6.346   0.523
 9883SOL    HW130548   1.342   6.304   0.605
 9883SOL    HW230549   1.306   6.446   0.533
 9884SOL     OW30550   5.301   2.705   1.702
 9884SOL    HW130551   5.369   2.741   1.638
 9884SOL    HW230552   5.277   2.775   1.769
 9885SOL     OW30553   6.733   2.090   4.886
 9885SOL    HW130554   6.755   2.120   4.979
 9885SOL    HW230555   6.704   1.995   4.887
 9886SOL     OW30556   1.348   4.938   1.832
 9886SOL    HW130557   1.294   4.981   1.904
 9886SOL    HW230558   1.296   4.864   1.790
 9887SOL     OW30559   4.164   0.245   6.118
 9887SOL    HW130560   4.259   0.225   6.141
 9887SOL    HW230561   4.109   0.162   6.129
 9888SOL     OW30562   5.789   4.952   2.424
 9888SOL    HW130563   5.870   4.895   2.438
 9888SOL    HW230564   5.808   5.045   2.457
 9889SOL     OW30565   6.466   4.888   1.057
 9889SOL    HW130566   6.459   4.857   0.962
 9889SOL    HW230567   6.560   4.917   1.076
 9890SOL     OW30568   1.193   2.713   1.294
 9890SOL    HW130569   1.257   2.655   1.344
 9890SOL    HW230570   1.207   2.702   1.196
 9891SOL     OW30571   5.588   3.362   1.967
 9891SOL    HW130572   5.524   3.410   1.907
 9891SOL    HW230573   5.598   3.267   1.935
 9892SOL     OW30574   0.612   5.045   1.606
 9892SOL    HW130575   0.676   5.040   1.529
 9892SOL    HW230576   0.641   5.116   1.669
 9893SOL     OW30577   0.410   1.099   1.535
 9893SOL    HW130578   0.491   1.153   1.511
 9893SOL    HW230579   0.337   1.160   1.566
 9894SOL     OW30580   3.056   2.188   0.399
 9894SOL    HW130581   3.071   2.257   0.328
 9894SOL    HW230582   2.959   2.168   0.407
 9895SOL     OW30583   5.666   4.259   5.242
 9895SOL    HW130584   5.637   4.228   5.332
 9895SOL    HW230585   5.590   4.253   5.178
 9896SOL     OW30586   6.393   0.942   0.604
 9896SOL    HW130587   6.318   0.882   0.579
 9896SOL    HW230588   6.404   0.944   0.703
 9897SOL     OW30589   5.663   6.722   2.771
 9897SOL    HW130590   5.656   6.765   2.681
 9897SOL    HW230591   5.646   6.624   2.762
 9898SOL     OW30592   0.882   5.083   5.540
 9898SOL    HW130593   0.941   5.044   5.611
 9898SOL    HW230594   0.936   5.103   5.459
 9899SOL     OW30595   1.659   5.360   1.108
 9899SOL    HW130596   1.701   5.446   1.138
 9899SOL    HW230597   1.560   5.368   1.111
 9900SOL     OW30598   1.428   2.716   2.889
 9900SOL    HW130599   1.355   2.648   2.879
 9900SOL    HW230600   1.397   2.804   2.853
 9901SOL     OW30601   2.792   0.912   6.739
 9901SOL    HW130602   2.821   0.841   6.675
 9901SOL    HW230603   2.702   0.946   6.712
 9902SOL     OW30604   3.005   4.773   1.321
 9902SOL    HW130605   3.011   4.867   1.286
 9902SOL    HW230606   2.914   4.736   1.301
 9903SOL     OW30607   5.591   1.943   1.855
 9903SOL    HW130608   5.631   1.851   1.863
 9903SOL    HW230609   5.656   2.011   1.889
 9904SOL     OW30610   0.852   4.198   6.976
 9904SOL    HW130611   0.754   4.184   6.962
 9904SOL    HW230612   0.897   4.109   6.984
 9905SOL     OW30613   2.370   0.222   5.900
 9905SOL    HW130614   2.314   0.303   5.921
 9905SOL    HW230615   2.425   0.199   5.980
 9906SOL     OW30616   1.643   3.326   0.580
 9906SOL    HW130617   1.636   3.336   0.679
 9906SOL    HW230618   1.655   3.416   0.538
 9907SOL     OW30619   0.928   0.547   1.096
 9907SOL    HW130620   1.006   0.492   1.125
 9907SOL    HW230621   0.954   0.644   1.098
 9908SOL     OW30622   6.377   1.977   4.827
 9908SOL    HW130623   6.387   1.903   4.760
 9908SOL    HW230624   6.465   2.020   4.843
 9909SOL     OW30625   3.959   1.190   2.627
 9909SOL    HW130626   3.905   1.107   2.614
 9909SOL    HW230627   3.898   1.267   2.649
 9910SOL     OW30628   1.310   5.068   1.547
 9910SOL    HW130629   1.310   5.166   1.527
 9910SOL    HW230630   1.325   5.054   1.645
 9911SOL     OW30631   2.844   6.228   2.539
 9911SOL    HW130632   2.822   6.305   2.479
 9911SOL    HW230633   2.910   6.168   2.493
 9912SOL     OW30634   3.750   0.972   1.054
 9912SOL    HW130635   3.714   1.059   1.019
 9912SOL    HW230636   3.687   0.898   1.033
 9913SOL     OW30637   6.417   3.720   0.476
 9913SOL    HW130638   6.488   3.659   0.442
 9913SOL    HW230639   6.343   3.667   0.517
 9914SOL     OW30640   6.185   0.950   4.835
 9914SOL    HW130641   6.194   0.973   4.932
 9914SOL    HW230642   6.235   0.865   4.817
 9915SOL     OW30643   6.147   1.083   3.403
 9915SOL    HW130644   6.189   1.131   3.480
 9915SOL    HW230645   6.165   1.132   3.318
 9916SOL     OW30646   2.212   2.297   3.042
 9916SOL    HW130647   2.114   2.276   3.035
 9916SOL    HW230648   2.264   2.230   2.989
 9917SOL     OW30649   4.309   3.959   6.294
 9917SOL    HW130650   4.351   4.036   6.343
 9917SOL    HW230651   4.369   3.929   6.221
 9918SOL     OW30652   1.440   2.251   2.461
 9918SOL    HW130653   1.459   2.180   2.529
 9918SOL    HW230654   1.441   2.340   2.506
 9919SOL     OW30655   1.291   5.892   1.010
 9919SOL    HW130656   1.335   5.804   0.990
 9919SOL    HW230657   1.219   5.878   1.078
 9920SOL     OW30658   5.485   0.442   2.352
 9920SOL    HW130659   5.487   0.355   2.303
 9920SOL    HW230660   5.487   0.518   2.286
 9921SOL     OW30661   4.201   6.176   4.366
 9921SOL    HW130662   4.188   6.257   4.309
 9921SOL    HW230663   4.145   6.184   4.449
 9922SOL     OW30664   3.807   3.993   1.081
 9922SOL    HW130665   3.720   3.948   1.065
 9922SOL    HW230666   3.843   4.028   0.995
 9923SOL     OW30667   5.969   4.459   6.735
 9923SOL    HW130668   5.877   4.491   6.714
 9923SOL    HW230669   5.965   4.366   6.771
 9924SOL     OW30670   6.184   1.738   3.210
 9924SOL    HW130671   6.133   1.753   3.125
 9924SOL    HW230672   6.254   1.668   3.195
 9925SOL     OW30673   0.255   5.176   4.110
 9925SOL    HW130674   0.279   5.128   4.026
 9925SOL    HW230675   0.164   5.148   4.139
 9926SOL     OW30676   4.124   2.387   1.128
 9926SOL    HW130677   4.095   2.376   1.223
 9926SOL    HW230678   4.065   2.453   1.082
 9927SOL     OW30679   1.317   0.460   0.926
 9927SOL    HW130680   1.341   0.364   0.944
 9927SOL    HW230681   1.399   0.516   0.933
 9928SOL     OW30682   4.745   4.843   3.670
 9928SOL    HW130683   4.789   4.852   3.760
 9928SOL    HW230684   4.734   4.933   3.629
 9929SOL     OW30685   3.525   3.943   4.512
 9929SOL    HW130686   3.546   3.859   4.462
 9929SOL    HW230687   3.501   3.920   4.606
 9930SOL     OW30688   0.197   6.691   5.280
 9930SOL    HW130689   0.282   6.682   5.228
 9930SOL    HW230690   0.151   6.603   5.284
 9931SOL     OW30691   6.986   5.110   4.730
 9931SOL    HW130692   6.979   5.193   4.786
 9931SOL    HW230693   0.055   5.102   4.692
 9932SOL     OW30694   2.660   3.077   5.813
 9932SOL    HW130695   2.587   3.013   5.837
 9932SOL    HW230696   2.743   3.054   5.864
 9933SOL     OW30697   1.785   6.932   4.241
 9933SOL    HW130698   1.762   6.839   4.267
 9933SOL    HW230699   1.805   6.936   4.143
 9934SOL     OW30700   0.078   2.100   6.057
 9934SOL    HW130701   0.056   2.116   5.960
 9934SOL    HW230702   0.094   2.188   6.102
 9935SOL     OW30703   2.774   6.891   0.947
 9935SOL    HW130704   2.775   6.955   1.024
 9935SOL    HW230705   2.866   6.855   0.932
 9936SOL     OW30706   6.176   4.388   0.794
 9936SOL    HW130707   6.146   4.479   0.765
 9936SOL    HW230708   6.104   4.321   0.774
 9937SOL     OW30709   0.343   2.035   1.356
 9937SOL    HW130710   0.277   2.092   1.307
 9937SOL    HW230711   0.393   2.091   1.422
 9938SOL     OW30712   5.605   4.747   3.789
 9938SOL    HW130713   5.679   4.756   3.855
 9938SOL    HW230714   5.598   4.832   3.736
 9939SOL     OW30715   4.527   2.889   1.248
 9939SOL    HW130716   4.582   2.825   1.301
 9939SOL    HW230717   4.587   2.953   1.200
 9940SOL     OW30718   1.071   0.532   1.798
 9940SOL    HW130719   1.068   0.596   1.721
 9940SOL    HW230720   1.050   0.440   1.766
 9941SOL     OW30721   3.204   3.075   5.052
 9941SOL    HW130722   3.128   3.011   5.069
 9941SOL    HW230723   3.291   3.028   5.065
 9942SOL     OW30724   3.209   5.223   2.407
 9942SOL    HW130725   3.252   5.239   2.495
 9942SOL    HW230726   3.162   5.135   2.408
 9943SOL     OW30727   0.922   4.900   6.679
 9943SOL    HW130728   0.940   4.866   6.771
 9943SOL    HW230729   0.987   4.859   6.615
 9944SOL     OW30730   0.493   4.789   6.379
 9944SOL    HW130731   0.571   4.756   6.433
 9944SOL    HW230732   0.442   4.856   6.433
 9945SOL     OW30733   4.309   6.038   0.141
 9945SOL    HW130734   4.396   6.016   0.186
 9945SOL    HW230735   4.265   5.954   0.110
 9946SOL     OW30736   6.221   0.604   3.473
 9946SOL    HW130737   6.166   0.680   3.439
 9946SOL    HW230738   6.291   0.640   3.535
 9947SOL     OW30739   2.896   2.268   4.658
 9947SOL    HW130740   2.885   2.177   4.698
 9947SOL    HW230741   2.830   2.331   4.699
 9948SOL     OW30742   6.919   4.933   6.234
 9948SOL    HW130743   6.952   4.972   6.148
 9948SOL    HW230744   6.886   5.006   6.294
 9949SOL     OW30745   6.556   4.662   4.159
 9949SOL    HW130746   6.529   4.751   4.122
 9949SOL    HW230747   6.648   4.668   4.198
 9950SOL     OW30748   5.644   6.182   6.276
 9950SOL    HW130749   5.666   6.273   6.239
 9950SOL    HW230750   5.725   6.144   6.321
 9951SOL     OW30751   1.662   2.229   3.359
 9951SOL    HW130752   1.697   2.179   3.439
 9951SOL    HW230753   1.612   2.165   3.299
 9952SOL     OW30754   1.253   4.763   0.481
 9952SOL    HW130755   1.329   4.801   0.533
 9952SOL    HW230756   1.260   4.793   0.386
 9953SOL     OW30757   6.485   2.362   3.872
 9953SOL    HW130758   6.400   2.359   3.925
 9953SOL    HW230759   6.550   2.423   3.918
 9954SOL     OW30760   1.043   0.703   5.589
 9954SOL    HW130761   1.071   0.781   5.534
 9954SOL    HW230762   1.063   0.721   5.685
 9955SOL     OW30763   4.789   4.173   6.397
 9955SOL    HW130764   4.853   4.164   6.473
 9955SOL    HW230765   4.732   4.091   6.392
 9956SOL     OW30766   0.743   5.507   3.711
 9956SOL    HW130767   0.795   5.570   3.653
 9956SOL    HW230768   0.715   5.554   3.795
 9957SOL     OW30769   5.592   0.052   1.894
 9957SOL    HW130770   5.518   0.048   1.827
 9957SOL    HW230771   5.611   0.147   1.917
 9958SOL     OW30772   2.282   5.688   6.788
 9958SOL    HW130773   2.256   5.638   6.705
 9958SOL    HW230774   2.233   5.775   6.792
 9959SOL     OW30775   4.128   3.623   3.947
 9959SOL    HW130776   4.227   3.633   3.951
 9959SOL    HW230777   4.100   3.613   3.851
 9960SOL     OW30778   6.882   0.305   2.063
 9960SOL    HW130779   6.846   0.298   1.970
 9960SOL    HW230780   6.866   0.219   2.111
 9961SOL     OW30781   1.321   4.900   4.532
 9961SOL    HW130782   1.235   4.882   4.580
 9961SOL    HW230783   1.395   4.910   4.598
 9962SOL     OW30784   4.507   0.846   2.369
 9962SOL    HW130785   4.459   0.839   2.456
 9962SOL    HW230786   4.554   0.760   2.350
 9963SOL     OW30787   2.505   2.303   6.081
 9963SOL    HW130788   2.414   2.342   6.069
 9963SOL    HW230789   2.530   2.249   6.001
 9964SOL     OW30790   4.282   3.816   5.768
 9964SOL    HW130791   4.218   3.791   5.695
 9964SOL    HW230792   4.231   3.854   5.845
 9965SOL     OW30793   3.938   4.795   6.179
 9965SOL    HW130794   3.988   4.718   6.218
 9965SOL    HW230795   3.979   4.823   6.093
 9966SOL     OW30796   2.291   5.977   2.255
 9966SOL    HW130797   2.344   5.907   2.302
 9966SOL    HW230798   2.352   6.049   2.222
 9967SOL     OW30799   6.033   6.394   1.779
 9967SOL    HW130800   5.937   6.415   1.759
 9967SOL    HW230801   6.046   6.392   1.878
 9968SOL     OW30802   3.188   3.700   6.569
 9968SOL    HW130803   3.136   3.729   6.649
 9968SOL    HW230804   3.151   3.613   6.535
 9969SOL     OW30805   1.212   2.915   4.053
 9969SOL    HW130806   1.157   2.958   3.982
 9969SOL    HW230807   1.275   2.982   4.092
 9970SOL     OW30808   5.688   4.500   2.578
 9970SOL    HW130809   5.675   4.411   2.534
 9970SOL    HW230810   5.754   4.489   2.653
 9971SOL     OW30811   2.940   3.452   0.422
 9971SOL    HW130812   2.861   3.509   0.445
 9971SOL    HW230813   2.927   3.412   0.331
 9972SOL     OW30814   3.886   4.208   0.517
 9972SOL    HW130815   3.825   4.183   0.442
 9972SOL    HW230816   3.870   4.304   0.542
 9973SOL     OW30817   4.004   1.552   3.787
 9973SOL    HW130818   3.950   1.508   3.858
 9973SOL    HW230819   4.020   1.486   3.713
 9974SOL     OW30820   6.494   3.831   3.325
 9974SOL    HW130821   6.501   3.732   3.338
 9974SOL    HW230822   6.555   3.859   3.250
 9975SOL     OW30823   6.429   4.596   0.427
 9975SOL    HW130824   6.376   4.657   0.369
 9975SOL    HW230825   6.523   4.589   0.393
 9976SOL     OW30826   0.388   5.783   5.334
 9976SOL    HW130827   0.340   5.868   5.358
 9976SOL    HW230828   0.421   5.789   5.239
 9977SOL     OW30829   0.189   5.373   6.251
 9977SOL    HW130830   0.090   5.386   6.249
 9977SOL    HW230831   0.210   5.276   6.237
 9978SOL     OW30832   6.439   3.120   3.091
 9978SOL    HW130833   6.461   3.104   2.995
 9978SOL    HW230834   6.369   3.191   3.097
 9979SOL     OW30835   6.172   5.037   5.706
 9979SOL    HW130836   6.218   4.989   5.631
 9979SOL    HW230837   6.223   5.024   5.791
 9980SOL     OW30838   1.483   1.302   6.247
 9980SOL    HW130839   1.572   1.293   6.292
 9980SOL    HW230840   1.482   1.385   6.191
 9981SOL     OW30841   2.014   1.890   1.335
 9981SOL    HW130842   2.023   1.819   1.266
 9981SOL    HW230843   1.976   1.852   1.419
 9982SOL     OW30844   0.595   1.245   3.868
 9982SOL    HW130845   0.536   1.192   3.807
 9982SOL    HW230846   0.691   1.219   3.853
 9983SOL     OW30847   0.860   2.309   2.259
 9983SOL    HW130848   0.830   2.319   2.354
 9983SOL    HW230849   0.917   2.227   2.251
 9984SOL     OW30850   1.411   0.172   0.679
 9984SOL    HW130851   1.383   0.076   0.684
 9984SOL    HW230852   1.330   0.231   0.683
 9985SOL     OW30853   2.234   0.931   1.890
 9985SOL    HW130854   2.179   0.908   1.810
 9985SOL    HW230855   2.323   0.885   1.884
 9986SOL     OW30856   5.060   4.093   7.004
 9986SOL    HW130857   5.042   3.998   6.978
 9986SOL    HW230858   5.100   4.142   6.926
 9987SOL     OW30859   6.376   1.953   3.011
 9987SOL    HW130860   6.382   2.013   3.091
 9987SOL    HW230861   6.295   1.979   2.957
 9988SOL     OW30862   0.288   5.727   4.704
 9988SOL    HW130863   0.284   5.797   4.633
 9988SOL    HW230864   0.369   5.742   4.762
 9989SOL     OW30865   6.040   4.593   3.378
 9989SOL    HW130866   6.137   4.581   3.399
 9989SOL    HW230867   5.987   4.584   3.462
 9990SOL     OW30868   2.416   0.087   2.651
 9990SOL    HW130869   2.415   0.035   2.565
 9990SOL    HW230870   2.459   0.176   2.635
 9991SOL     OW30871   2.124   3.227   4.133
 9991SOL    HW130872   2.096   3.191   4.044
 9991SOL    HW230873   2.115   3.156   4.202
 9992SOL     OW30874   4.615   3.491   0.478
 9992SOL    HW130875   4.521   3.457   0.469
 9992SOL    HW230876   4.670   3.457   0.402
 9993SOL     OW30877   3.707   0.401   2.025
 9993SOL    HW130878   3.787   0.400   1.965
 9993SOL    HW230879   3.689   0.309   2.059
 9994SOL     OW30880   0.055   4.565   3.858
 9994SOL    HW130881   0.060   4.557   3.957
 9994SOL    HW230882   7.010   4.501   3.823
 9995SOL     OW30883   3.119   0.579   2.971
 9995SOL    HW130884   3.027   0.571   2.933
 9995SOL    HW230885   3.186   0.585   2.896
 9996SOL     OW30886   3.072   3.091   1.878
 9996SOL    HW130887   3.022   3.086   1.965
 9996SOL    HW230888   3.021   3.043   1.807
 9997SOL     OW30889   3.929   1.509   1.064
 9997SOL    HW130890   3.943   1.572   0.987
 9997SOL    HW230891   3.990   1.534   1.139
 9998SOL     OW30892   6.066   4.184   1.440
 9998SOL    HW130893   6.019   4.109   1.487
 9998SOL    HW230894   6.146   4.211   1.493
 9999SOL     OW30895   6.113   3.473   5.283
 9999SOL    HW130896   6.207   3.444   5.263
 9999SOL    HW230897   6.051   3.435   5.214
10000SOL     OW30898   5.826   3.579   6.710
10000SOL    HW130899   5.836   3.615   6.803
10000SOL    HW230900   5.766   3.499   6.711
10001SOL     OW30901   5.244   1.095   2.029
10001SOL    HW130902   5.317   1.035   1.998
10001SOL    HW230903   5.226   1.164   1.959
10002SOL     OW30904   1.822   0.521   0.927
10002SOL    HW130905   1.843   0.615   0.957
10002SOL    HW230906   1.803   0.521   0.829
10003SOL     OW30907   3.583   1.599   4.002
10003SOL    HW130908   3.561   1.667   4.073
10003SOL    HW230909   3.677   1.613   3.971
10004SOL     OW30910   4.483   2.192   4.628
10004SOL    HW130911   4.417   2.254   4.585
10004SOL    HW230912   4.534   2.143   4.558
10005SOL     OW30913   4.672   0.138   4.001
10005SOL    HW130914   4.718   0.226   4.007
10005SOL    HW230915   4.738   0.068   3.973
10006SOL     OW30916   5.271   0.883   3.588
10006SOL    HW130917   5.334   0.844   3.655
10006SOL    HW230918   5.306   0.867   3.496
10007SOL     OW30919   0.640   5.133   4.980
10007SOL    HW130920   0.628   5.066   4.906
10007SOL    HW230921   0.640   5.225   4.942
10008SOL     OW30922   4.401   1.162   4.508
10008SOL    HW130923   4.342   1.115   4.573
10008SOL    HW230924   4.407   1.259   4.533
10009SOL     OW30925   2.068   4.160   1.577
10009SOL    HW130926   2.033   4.116   1.495
10009SOL    HW230927   2.025   4.250   1.588
10010SOL     OW30928   1.910   6.488   6.605
10010SOL    HW130929   1.921   6.547   6.525
10010SOL    HW230930   1.983   6.509   6.671
10011SOL     OW30931   5.636   1.757   4.691
10011SOL    HW130932   5.543   1.782   4.666
10011SOL    HW230933   5.700   1.796   4.625
10012SOL     OW30934   4.675   1.121   3.076
10012SOL    HW130935   4.678   1.201   3.016
10012SOL    HW230936   4.595   1.127   3.136
10013SOL     OW30937   1.261   1.719   3.826
10013SOL    HW130938   1.276   1.634   3.776
10013SOL    HW230939   1.210   1.783   3.769
10014SOL     OW30940   6.413   3.120   6.665
10014SOL    HW130941   6.473   3.197   6.689
10014SOL    HW230942   6.465   3.053   6.612
10015SOL     OW30943   2.622   4.089   0.251
10015SOL    HW130944   2.532   4.081   0.208
10015SOL    HW230945   2.644   4.185   0.267
10016SOL     OW30946   2.045   0.263   5.424
10016SOL    HW130947   2.025   0.353   5.462
10016SOL    HW230948   2.137   0.262   5.386
10017SOL     OW30949   2.588   2.418   2.792
10017SOL    HW130950   2.498   2.461   2.782
10017SOL    HW230951   2.645   2.441   2.712
10018SOL     OW30952   4.806   0.133   5.705
10018SOL    HW130953   4.822   0.035   5.711
10018SOL    HW230954   4.783   0.169   5.795
10019SOL     OW30955   0.932   1.723   2.711
10019SOL    HW130956   0.990   1.671   2.648
10019SOL    HW230957   0.870   1.781   2.659
10020SOL     OW30958   0.664   2.753   1.509
10020SOL    HW130959   0.764   2.755   1.516
10020SOL    HW230960   0.628   2.845   1.525
10021SOL     OW30961   0.204   2.675   0.750
10021SOL    HW130962   0.145   2.750   0.719
10021SOL    HW230963   0.182   2.592   0.698
10022SOL     OW30964   2.962   0.166   6.877
10022SOL    HW130965   2.941   0.097   6.947
10022SOL    HW230966   3.054   0.151   6.841
10023SOL     OW30967   1.215   5.159   6.073
10023SOL    HW130968   1.278   5.081   6.072
10023SOL    HW230969   1.260   5.238   6.032
10024SOL     OW30970   2.015   6.813   1.722
10024SOL    HW130971   2.028   6.814   1.623
10024SOL    HW230972   2.030   6.905   1.758
10025SOL     OW30973   1.539   1.561   1.298
10025SOL    HW130974   1.446   1.571   1.334
10025SOL    HW230975   1.552   1.468   1.266
10026SOL     OW30976   5.309   6.610   3.770
10026SOL    HW130977   5.396   6.656   3.787
10026SOL    HW230978   5.291   6.544   3.843
10027SOL     OW30979   6.850   4.037   5.451
10027SOL    HW130980   6.924   4.060   5.388
10027SOL    HW230981   6.808   3.950   5.422
10028SOL     OW30982   1.775   1.487   0.884
10028SOL    HW130983   1.850   1.553   0.883
10028SOL    HW230984   1.690   1.534   0.907
10029SOL     OW30985   3.665   2.112   4.519
10029SOL    HW130986   3.661   2.054   4.600
10029SOL    HW230987   3.573   2.121   4.480
10030SOL     OW30988   2.291   6.547   3.651
10030SOL    HW130989   2.261   6.490   3.575
10030SOL    HW230990   2.249   6.638   3.642
10031SOL     OW30991   6.121   4.847   4.372
10031SOL    HW130992   6.136   4.912   4.447
10031SOL    HW230993   6.196   4.782   4.369
10032SOL     OW30994   2.637   2.113   5.096
10032SOL    HW130995   2.631   2.083   5.001
10032SOL    HW230996   2.691   2.197   5.101
10033SOL     OW30997   5.743   1.987   3.961
10033SOL    HW130998   5.754   1.948   3.869
10033SOL    HW230999   5.790   1.930   4.028
10034SOL     OW31000   2.846   6.990   4.150
10034SOL    HW131001   2.789   0.039   4.111
10034SOL    HW231002   2.791   6.934   4.212
10035SOL     OW31003   6.624   4.330   1.986
10035SOL    HW131004   6.606   4.265   1.911
10035SOL    HW231005   6.692   4.291   2.048
10036SOL     OW31006   6.195   2.321   1.557
10036SOL    HW131007   6.161   2.260   1.629
10036SOL    HW231008   6.160   2.292   1.469
10037SOL     OW31009   6.501   0.945   0.866
10037SOL    HW131010   6.508   0.899   0.954
10037SOL    HW231011   6.557   1.028   0.867
10038SOL     OW31012   5.226   0.830   0.168
10038SOL    HW131013   5.166   0.751   0.155
10038SOL    HW231014   5.250   0.838   0.265
10039SOL     OW31015   3.490   0.481   3.229
10039SOL    HW131016   3.491   0.571   3.273
10039SOL    HW231017   3.424   0.422   3.276
10040SOL     OW31018   4.914   5.026   6.380
10040SOL    HW131019   4.868   4.947   6.339
10040SOL    HW231020   4.999   4.996   6.424
10041SOL     OW31021   3.842   6.135   6.849
10041SOL    HW131022   3.797   6.110   6.934
10041SOL    HW231023   3.888   6.223   6.861
10042SOL     OW31024   0.958   1.705   4.287
10042SOL    HW131025   1.027   1.656   4.342
10042SOL    HW231026   0.922   1.781   4.340
10043SOL     OW31027   6.389   1.389   5.151
10043SOL    HW131028   6.390   1.420   5.246
10043SOL    HW231029   6.296   1.362   5.126
10044SOL     OW31030   1.976   1.861   4.577
10044SOL    HW131031   1.899   1.804   4.549
10044SOL    HW231032   1.984   1.940   4.516
10045SOL     OW31033   3.957   0.423   3.204
10045SOL    HW131034   4.020   0.391   3.133
10045SOL    HW231035   3.988   0.512   3.239
10046SOL     OW31036   2.284   3.620   1.076
10046SOL    HW131037   2.320   3.694   1.132
10046SOL    HW231038   2.209   3.575   1.124
10047SOL     OW31039   0.558   3.386   4.740
10047SOL    HW131040   0.538   3.480   4.769
10047SOL    HW231041   0.542   3.377   4.642
10048SOL     OW31042   0.049   0.178   2.287
10048SOL    HW131043   0.147   0.168   2.268
10048SOL    HW231044   7.022   0.107   2.238
10049SOL     OW31045   1.319   1.483   5.762
10049SOL    HW131046   1.400   1.472   5.703
10049SOL    HW231047   1.236   1.471   5.707
10050SOL     OW31048   5.435   3.753   5.557
10050SOL    HW131049   5.522   3.800   5.548
10050SOL    HW231050   5.437   3.667   5.505
10051SOL     OW31051   0.021   4.135   5.274
10051SOL    HW131052   0.009   4.082   5.190
10051SOL    HW231053   0.072   4.218   5.254
10052SOL     OW31054   2.197   1.181   3.105
10052SOL    HW131055   2.227   1.262   3.156
10052SOL    HW231056   2.265   1.108   3.117
10053SOL     OW31057   4.532   5.888   4.029
10053SOL    HW131058   4.453   5.907   4.088
10053SOL    HW231059   4.505   5.893   3.933
10054SOL     OW31060   5.486   6.094   5.514
10054SOL    HW131061   5.548   6.112   5.437
10054SOL    HW231062   5.486   5.996   5.534
10055SOL     OW31063   6.360   1.530   5.403
10055SOL    HW131064   6.332   1.505   5.496
10055SOL    HW231065   6.421   1.609   5.406
10056SOL     OW31066   5.417   4.333   3.310
10056SOL    HW131067   5.494   4.279   3.343
10056SOL    HW231068   5.400   4.312   3.214
10057SOL     OW31069   4.855   3.310   5.488
10057SOL    HW131070   4.924   3.382   5.481
10057SOL    HW231071   4.772   3.339   5.440
10058SOL     OW31072   6.324   3.640   5.042
10058SOL    HW131073   6.368   3.560   5.083
10058SOL    HW231074   6.253   3.675   5.104
10059SOL     OW31075   0.360   1.781   6.791
10059SOL    HW131076   0.313   1.839   6.858
10059SOL    HW231077   0.362   1.687   6.824
10060SOL     OW31078   2.342   2.660   2.519
10060SOL    HW131079   2.413   2.617   2.463
10060SOL    HW231080   2.277   2.707   2.460
10061SOL     OW31081   4.578   1.209   3.661
10061SOL    HW131082   4.566   1.145   3.737
10061SOL    HW231083   4.612   1.296   3.695
10062SOL     OW31084   6.791   0.522   4.407
10062SOL    HW131085   6.796   0.495   4.311
10062SOL    HW231086   6.750   0.447   4.460
10063SOL     OW31087   3.416   1.174   4.349
10063SOL    HW131088   3.372   1.086   4.334
10063SOL    HW231089   3.416   1.226   4.263
10064SOL     OW31090   5.105   6.644   6.888
10064SOL    HW131091   5.071   6.635   6.795
10064SOL    HW231092   5.137   6.555   6.921
10065SOL     OW31093   2.167   0.841   2.141
10065SOL    HW131094   2.176   0.887   2.053
10065SOL    HW231095   2.231   0.764   2.144
10066SOL     OW31096   0.246   3.249   4.611
10066SOL    HW131097   0.337   3.209   4.625
10066SOL    HW231098   0.255   3.344   4.583
10067SOL     OW31099   0.151   3.598   6.100
10067SOL    HW131100   0.080   3.604   6.030
10067SOL    HW231101   0.145   3.509   6.146
10068SOL     OW31102   1.120   3.256   3.132
10068SOL    HW131103   1.020   3.253   3.134
10068SOL    HW231104   1.151   3.350   3.149
10069SOL     OW31105   3.107   5.094   1.834
10069SOL    HW131106   3.034   5.137   1.781
10069SOL    HW231107   3.137   5.157   1.906
10070SOL     OW31108   7.014   5.958   5.299
10070SOL    HW131109   6.925   5.918   5.278
10070SOL    HW231110   0.024   5.920   5.385
10071SOL     OW31111   0.914   6.811   4.353
10071SOL    HW131112   0.887   6.728   4.403
10071SOL    HW231113   0.998   6.848   4.394
10072SOL     OW31114   0.224   1.019   3.836
10072SOL    HW131115   0.197   0.925   3.859
10072SOL    HW231116   0.143   1.072   3.812
10073SOL     OW31117   0.408   4.201   3.726
10073SOL    HW131118   0.482   4.137   3.705
10073SOL    HW231119   0.444   4.294   3.725
10074SOL     OW31120   2.541   6.391   6.545
10074SOL    HW131121   2.485   6.339   6.480
10074SOL    HW231122   2.590   6.328   6.605
10075SOL     OW31123   1.370   1.438   1.898
10075SOL    HW131124   1.407   1.529   1.916
10075SOL    HW231125   1.420   1.396   1.822
10076SOL     OW31126   4.751   6.147   3.113
10076SOL    HW131127   4.706   6.065   3.147
10076SOL    HW231128   4.844   6.124   3.085
10077SOL     OW31129   4.114   2.843   0.710
10077SOL    HW131130   4.086   2.747   0.720
10077SOL    HW231131   4.104   2.890   0.797
10078SOL     OW31132   6.594   6.060   4.704
10078SOL    HW131133   6.671   6.004   4.736
10078SOL    HW231134   6.628   6.134   4.646
10079SOL     OW31135   6.314   2.992   2.436
10079SOL    HW131136   6.313   2.895   2.460
10079SOL    HW231137   6.237   3.038   2.480
10080SOL     OW31138   4.961   1.708   6.065
10080SOL    HW131139   4.923   1.792   6.104
10080SOL    HW231140   5.007   1.656   6.137
10081SOL     OW31141   1.234   1.733   6.904
10081SOL    HW131142   1.324   1.694   6.920
10081SOL    HW231143   1.168   1.659   6.890
10082SOL     OW31144   0.955   5.444   2.922
10082SOL    HW131145   0.865   5.408   2.946
10082SOL    HW231146   0.961   5.540   2.951
10083SOL     OW31147   3.361   0.072   3.845
10083SOL    HW131148   3.402   0.009   3.779
10083SOL    HW231149   3.269   0.097   3.815
10084SOL     OW31150   0.636   6.951   5.243
10084SOL    HW131151   0.692   7.010   5.301
10084SOL    HW231152   0.674   6.858   5.244
10085SOL     OW31153   3.851   0.153   0.772
10085SOL    HW131154   3.938   0.115   0.741
10085SOL    HW231155   3.789   0.161   0.693
10086SOL     OW31156   6.212   6.763   3.183
10086SOL    HW131157   6.184   6.739   3.091
10086SOL    HW231158   6.140   6.738   3.248
10087SOL     OW31159   6.321   6.050   3.790
10087SOL    HW131160   6.307   6.109   3.869
10087SOL    HW231161   6.346   5.958   3.821
10088SOL     OW31162   6.918   0.310   1.608
10088SOL    HW131163   6.935   0.260   1.524
10088SOL    HW231164   6.973   0.271   1.682
10089SOL     OW31165   3.194   1.527   3.044
10089SOL    HW131166   3.236   1.603   3.093
10089SOL    HW231167   3.207   1.539   2.945
10090SOL     OW31168   0.375   4.989   2.315
10090SOL    HW131169   0.319   5.029   2.388
10090SOL    HW231170   0.381   4.890   2.328
10091SOL     OW31171   6.868   5.817   6.832
10091SOL    HW131172   6.930   5.839   6.757
10091SOL    HW231173   6.780   5.861   6.817
10092SOL     OW31174   0.965   3.112   5.772
10092SOL    HW131175   1.046   3.075   5.816
10092SOL    HW231176   0.939   3.198   5.816
10093SOL     OW31177   5.030   3.591   5.198
10093SOL    HW131178   5.105   3.577   5.135
10093SOL    HW231179   4.948   3.617   5.147
10094SOL     OW31180   2.656   6.425   0.896
10094SOL    HW131181   2.630   6.331   0.919
10094SOL    HW231182   2.699   6.467   0.976
10095SOL     OW31183   5.401   1.776   4.250
10095SOL    HW131184   5.438   1.814   4.165
10095SOL    HW231185   5.457   1.698   4.278
10096SOL     OW31186   4.809   0.554   3.030
10096SOL    HW131187   4.816   0.488   2.955
10096SOL    HW231188   4.731   0.530   3.088
10097SOL     OW31189   2.169   2.088   6.665
10097SOL    HW131190   2.214   2.062   6.580
10097SOL    HW231191   2.076   2.120   6.645
10098SOL     OW31192   2.744   6.804   5.112
10098SOL    HW131193   2.749   6.731   5.180
10098SOL    HW231194   2.823   6.866   5.123
10099SOL     OW31195   6.861   4.561   1.930
10099SOL    HW131196   6.803   4.511   1.994
10099SOL    HW231197   6.956   4.560   1.963
10100SOL     OW31198   5.446   6.201   5.801
10100SOL    HW131199   5.352   6.229   5.779
10100SOL    HW231200   5.489   6.163   5.720
10101SOL     OW31201   6.330   3.270   1.431
10101SOL    HW131202   6.309   3.236   1.340
10101SOL    HW231203   6.325   3.195   1.497
10102SOL     OW31204   0.004   0.456   1.248
10102SOL    HW131205   7.002   0.374   1.298
10102SOL    HW231206   0.103   0.457   1.234
10103SOL     OW31207   1.439   0.311   5.182
10103SOL    HW131208   1.496   0.232   5.162
10103SOL    HW231209   1.466   0.351   5.270
10104SOL     OW31210   1.553   1.001   6.058
10104SOL    HW131211   1.566   1.087   6.008
10104SOL    HW231212   1.508   1.018   6.145
10105SOL     OW31213   1.886   0.888   5.862
10105SOL    HW131214   1.972   0.845   5.834
10105SOL    HW231215   1.902   0.949   5.939
10106SOL     OW31216   4.044   6.615   0.711
10106SOL    HW131217   4.049   6.538   0.647
10106SOL    HW231218   4.096   6.593   0.793
10107SOL     OW31219   5.499   1.809   6.065
10107SOL    HW131220   5.546   1.722   6.052
10107SOL    HW231221   5.433   1.822   5.990
10108SOL     OW31222   0.868   2.559   0.108
10108SOL    HW131223   0.865   2.459   0.120
10108SOL    HW231224   0.780   2.598   0.135
10109SOL     OW31225   0.737   1.152   0.589
10109SOL    HW131226   0.763   1.248   0.579
10109SOL    HW231227   0.763   1.102   0.506
10110SOL     OW31228   4.458   4.924   3.670
10110SOL    HW131229   4.553   4.894   3.673
10110SOL    HW231230   4.454   5.024   3.678
10111SOL     OW31231   0.265   3.470   3.234
10111SOL    HW131232   0.244   3.464   3.332
10111SOL    HW231233   0.359   3.501   3.223
10112SOL     OW31234   5.653   3.550   3.226
10112SOL    HW131235   5.703   3.596   3.152
10112SOL    HW231236   5.717   3.525   3.298
10113SOL     OW31237   4.169   6.899   0.551
10113SOL    HW131238   4.209   6.822   0.601
10113SOL    HW231239   4.238   6.940   0.492
10114SOL     OW31240   3.953   1.892   3.083
10114SOL    HW131241   3.958   1.955   3.005
10114SOL    HW231242   3.979   1.940   3.166
10115SOL     OW31243   3.584   1.719   4.950
10115SOL    HW131244   3.553   1.674   4.867
10115SOL    HW231245   3.513   1.780   4.984
10116SOL     OW31246   6.915   0.519   6.042
10116SOL    HW131247   6.915   0.619   6.039
10116SOL    HW231248   7.006   0.485   6.019
10117SOL     OW31249   6.718   6.252   5.830
10117SOL    HW131250   6.693   6.178   5.768
10117SOL    HW231251   6.635   6.298   5.862
10118SOL     OW31252   2.781   4.687   4.135
10118SOL    HW131253   2.863   4.690   4.078
10118SOL    HW231254   2.712   4.630   4.091
10119SOL     OW31255   6.393   5.052   4.403
10119SOL    HW131256   6.390   5.140   4.355
10119SOL    HW231257   6.319   5.049   4.471
10120SOL     OW31258   1.401   3.285   3.673
10120SOL    HW131259   1.364   3.365   3.626
10120SOL    HW231260   1.493   3.266   3.640
10121SOL     OW31261   5.730   4.550   1.101
10121SOL    HW131262   5.685   4.517   1.018
10121SOL    HW231263   5.815   4.597   1.076
10122SOL     OW31264   6.347   2.515   3.700
10122SOL    HW131265   6.386   2.442   3.757
10122SOL    HW231266   6.317   2.590   3.758
10123SOL     OW31267   5.729   6.596   0.966
10123SOL    HW131268   5.725   6.599   0.867
10123SOL    HW231269   5.802   6.655   0.999
10124SOL     OW31270   1.142   5.187   1.255
10124SOL    HW131271   1.063   5.187   1.193
10124SOL    HW231272   1.142   5.103   1.309
10125SOL     OW31273   2.748   1.618   1.273
10125SOL    HW131274   2.774   1.637   1.368
10125SOL    HW231275   2.808   1.549   1.235
10126SOL     OW31276   6.688   0.350   6.068
10126SOL    HW131277   6.754   0.422   6.047
10126SOL    HW231278   6.738   0.265   6.087
10127SOL     OW31279   1.847   4.320   6.663
10127SOL    HW131280   1.784   4.340   6.739
10127SOL    HW231281   1.857   4.221   6.654
10128SOL     OW31282   2.954   0.598   6.400
10128SOL    HW131283   2.907   0.641   6.323
10128SOL    HW231284   2.887   0.554   6.460
10129SOL     OW31285   0.497   1.720   1.951
10129SOL    HW131286   0.497   1.771   1.865
10129SOL    HW231287   0.512   1.623   1.932
10130SOL     OW31288   0.980   3.242   1.792
10130SOL    HW131289   1.075   3.239   1.823
10130SOL    HW231290   0.936   3.154   1.811
10131SOL     OW31291   1.649   0.607   4.284
10131SOL    HW131292   1.747   0.627   4.277
10131SOL    HW231293   1.598   0.693   4.290
10132SOL     OW31294   1.468   0.193   2.603
10132SOL    HW131295   1.458   0.292   2.597
10132SOL    HW231296   1.565   0.169   2.599
10133SOL     OW31297   4.558   6.569   1.061
10133SOL    HW131298   4.614   6.486   1.069
10133SOL    HW231299   4.601   6.631   0.995
10134SOL     OW31300   6.733   1.946   3.185
10134SOL    HW131301   6.751   1.848   3.196
10134SOL    HW231302   6.700   1.963   3.092
10135SOL     OW31303   5.318   1.816   3.200
10135SOL    HW131304   5.232   1.833   3.153
10135SOL    HW231305   5.310   1.733   3.255
10136SOL     OW31306   5.100   2.213   2.655
10136SOL    HW131307   5.193   2.178   2.643
10136SOL    HW231308   5.079   2.222   2.752
10137SOL     OW31309   0.416   4.850   6.115
10137SOL    HW131310   0.439   4.836   6.212
10137SOL    HW231311   0.417   4.762   6.068
10138SOL     OW31312   5.250   1.999   0.475
10138SOL    HW131313   5.290   2.090   0.490
10138SOL    HW231314   5.255   1.976   0.378
10139SOL     OW31315   3.573   3.575   4.937
10139SOL    HW131316   3.624   3.489   4.946
10139SOL    HW231317   3.552   3.592   4.841
10140SOL     OW31318   6.897   6.538   6.308
10140SOL    HW131319   6.923   6.467   6.243
10140SOL    HW231320   6.889   6.498   6.399
10141SOL     OW31321   4.405   0.912   3.554
10141SOL    HW131322   4.428   1.001   3.516
10141SOL    HW231323   4.315   0.917   3.598
10142SOL     OW31324   6.351   6.651   5.479
10142SOL    HW131325   6.450   6.645   5.462
10142SOL    HW231326   6.318   6.742   5.455
10143SOL     OW31327   5.783   3.102   0.201
10143SOL    HW131328   5.714   3.044   0.158
10143SOL    HW231329   5.860   3.045   0.230
10144SOL     OW31330   4.255   0.032   5.437
10144SOL    HW131331   4.260   0.131   5.453
10144SOL    HW231332   4.316   0.008   5.362
10145SOL     OW31333   4.225   6.036   2.817
10145SOL    HW131334   4.277   6.082   2.745
10145SOL    HW231335   4.282   6.027   2.899
10146SOL     OW31336   6.872   4.283   4.471
10146SOL    HW131337   6.877   4.213   4.542
10146SOL    HW231338   6.807   4.355   4.499
10147SOL     OW31339   5.083   4.740   0.179
10147SOL    HW131340   5.162   4.800   0.191
10147SOL    HW231341   5.006   4.792   0.143
10148SOL     OW31342   5.743   4.153   1.277
10148SOL    HW131343   5.672   4.191   1.336
10148SOL    HW231344   5.706   4.140   1.185
10149SOL     OW31345   5.063   5.117   1.637
10149SOL    HW131346   5.141   5.091   1.580
10149SOL    HW231347   5.089   5.111   1.734
10150SOL     OW31348   5.365   3.459   1.783
10150SOL    HW131349   5.308   3.382   1.810
10150SOL    HW231350   5.358   3.474   1.685
10151SOL     OW31351   0.798   6.566   5.686
10151SOL    HW131352   0.799   6.561   5.586
10151SOL    HW231353   0.835   6.481   5.724
10152SOL     OW31354   6.324   5.838   3.284
10152SOL    HW131355   6.408   5.840   3.230
10152SOL    HW231356   6.299   5.931   3.310
10153SOL     OW31357   4.334   6.174   3.914
10153SOL    HW131358   4.235   6.183   3.917
10153SOL    HW231359   4.376   6.237   3.979
10154SOL     OW31360   3.813   5.670   6.159
10154SOL    HW131361   3.785   5.708   6.071
10154SOL    HW231362   3.754   5.592   6.182
10155SOL     OW31363   5.436   2.377   5.609
10155SOL    HW131364   5.464   2.471   5.630
10155SOL    HW231365   5.464   2.317   5.683
10156SOL     OW31366   4.586   0.440   1.049
10156SOL    HW131367   4.648   0.508   1.087
10156SOL    HW231368   4.624   0.403   0.964
10157SOL     OW31369   0.212   2.084   0.257
10157SOL    HW131370   0.268   2.077   0.174
10157SOL    HW231371   0.150   2.162   0.249
10158SOL     OW31372   5.912   6.481   2.638
10158SOL    HW131373   5.832   6.483   2.698
10158SOL    HW231374   5.984   6.426   2.680
10159SOL     OW31375   4.081   3.774   3.115
10159SOL    HW131376   4.105   3.747   3.208
10159SOL    HW231377   3.995   3.825   3.117
10160SOL     OW31378   1.926   4.421   3.219
10160SOL    HW131379   1.884   4.407   3.309
10160SOL    HW231380   1.925   4.335   3.168
10161SOL     OW31381   3.599   4.708   6.788
10161SOL    HW131382   3.637   4.787   6.740
10161SOL    HW231383   3.502   4.724   6.807
10162SOL     OW31384   2.668   4.474   1.158
10162SOL    HW131385   2.587   4.524   1.127
10162SOL    HW231386   2.720   4.442   1.079
10163SOL     OW31387   0.808   5.585   6.297
10163SOL    HW131388   0.821   5.683   6.313
10163SOL    HW231389   0.893   5.536   6.315
10164SOL     OW31390   6.243   3.516   3.710
10164SOL    HW131391   6.334   3.488   3.739
10164SOL    HW231392   6.240   3.616   3.704
10165SOL     OW31393   6.212   2.173   3.697
10165SOL    HW131394   6.186   2.206   3.788
10165SOL    HW231395   6.248   2.249   3.643
10166SOL     OW31396   1.215   3.185   0.932
10166SOL    HW131397   1.122   3.204   0.901
10166SOL    HW231398   1.273   3.163   0.854
10167SOL     OW31399   0.114   5.159   0.259
10167SOL    HW131400   0.124   5.259   0.262
10167SOL    HW231401   0.116   5.128   0.164
10168SOL     OW31402   6.371   1.350   5.900
10168SOL    HW131403   6.331   1.403   5.974
10168SOL    HW231404   6.425   1.275   5.937
10169SOL     OW31405   6.675   3.929   3.161
10169SOL    HW131406   6.764   3.925   3.205
10169SOL    HW231407   6.660   3.845   3.108
10170SOL     OW31408   6.120   5.234   6.645
10170SOL    HW131409   6.148   5.326   6.675
10170SOL    HW231410   6.128   5.228   6.546
10171SOL     OW31411   1.003   2.441   5.779
10171SOL    HW131412   1.005   2.341   5.787
10171SOL    HW231413   1.015   2.467   5.683
10172SOL     OW31414   0.303   0.124   4.600
10172SOL    HW131415   0.351   0.092   4.682
10172SOL    HW231416   0.370   0.160   4.535
10173SOL     OW31417   2.757   3.816   6.880
10173SOL    HW131418   2.818   3.871   6.937
10173SOL    HW231419   2.670   3.803   6.927
10174SOL     OW31420   4.495   5.197   3.738
10174SOL    HW131421   4.506   5.293   3.715
10174SOL    HW231422   4.580   5.161   3.775
10175SOL     OW31423   6.718   1.679   3.363
10175SOL    HW131424   6.638   1.717   3.315
10175SOL    HW231425   6.714   1.579   3.359
10176SOL     OW31426   6.130   3.962   5.505
10176SOL    HW131427   6.219   3.960   5.551
10176SOL    HW231428   6.136   4.017   5.422
10177SOL     OW31429   1.931   7.019   1.061
10177SOL    HW131430   1.899   6.931   1.027
10177SOL    HW231431   1.858   0.040   1.113
10178SOL     OW31432   1.516   1.171   0.494
10178SOL    HW131433   1.592   1.124   0.538
10178SOL    HW231434   1.432   1.117   0.507
10179SOL     OW31435   0.119   4.065   6.816
10179SOL    HW131436   0.026   4.101   6.827
10179SOL    HW231437   0.147   4.076   6.720
10180SOL     OW31438   4.411   0.273   0.373
10180SOL    HW131439   4.329   0.302   0.325
10180SOL    HW231440   4.460   0.353   0.407
10181SOL     OW31441   0.117   3.062   1.506
10181SOL    HW131442   0.172   3.083   1.587
10181SOL    HW231443   0.095   3.147   1.458
10182SOL     OW31444   4.926   1.270   6.898
10182SOL    HW131445   5.009   1.273   6.843
10182SOL    HW231446   4.891   1.363   6.910
10183SOL     OW31447   5.886   3.117   6.122
10183SOL    HW131448   5.966   3.059   6.108
10183SOL    HW231449   5.856   3.108   6.217
10184SOL     OW31450   5.650   3.343   6.497
10184SOL    HW131451   5.631   3.269   6.433
10184SOL    HW231452   5.732   3.321   6.550
10185SOL     OW31453   5.081   6.280   2.580
10185SOL    HW131454   5.101   6.225   2.661
10185SOL    HW231455   5.146   6.258   2.507
10186SOL     OW31456   4.946   3.823   4.855
10186SOL    HW131457   4.908   3.745   4.904
10186SOL    HW231458   4.876   3.892   4.843
10187SOL     OW31459   1.924   4.083   5.315
10187SOL    HW131460   1.969   4.129   5.238
10187SOL    HW231461   1.877   4.002   5.281
10188SOL     OW31462   3.227   5.463   6.851
10188SOL    HW131463   3.262   5.436   6.941
10188SOL    HW231464   3.301   5.457   6.784
10189SOL     OW31465   1.679   0.860   6.593
10189SOL    HW131466   1.652   0.849   6.497
10189SOL    HW231467   1.603   0.835   6.652
10190SOL     OW31468   3.402   2.894   1.245
10190SOL    HW131469   3.345   2.954   1.188
10190SOL    HW231470   3.462   2.950   1.302
10191SOL     OW31471   5.887   5.999   1.334
10191SOL    HW131472   5.878   6.026   1.238
10191SOL    HW231473   5.797   5.978   1.372
10192SOL     OW31474   2.786   1.820   4.665
10192SOL    HW131475   2.845   1.760   4.720
10192SOL    HW231476   2.696   1.780   4.656
10193SOL     OW31477   2.894   3.794   2.425
10193SOL    HW131478   2.863   3.769   2.333
10193SOL    HW231479   2.892   3.714   2.484
10194SOL     OW31480   4.007   0.052   4.867
10194SOL    HW131481   4.086   0.072   4.808
10194SOL    HW231482   3.989   0.130   4.926
10195SOL     OW31483   6.827   6.844   1.489
10195SOL    HW131484   6.871   6.855   1.578
10195SOL    HW231485   6.853   6.756   1.449
10196SOL     OW31486   5.718   2.074   3.623
10196SOL    HW131487   5.729   1.991   3.678
10196SOL    HW231488   5.722   2.050   3.526
10197SOL     OW31489   5.561   1.112   4.128
10197SOL    HW131490   5.605   1.054   4.060
10197SOL    HW231491   5.466   1.130   4.102
10198SOL     OW31492   3.346   6.537   0.761
10198SOL    HW131493   3.313   6.452   0.802
10198SOL    HW231494   3.302   6.615   0.806
10199SOL     OW31495   0.732   1.513   6.486
10199SOL    HW131496   0.820   1.507   6.534
10199SOL    HW231497   0.716   1.608   6.458
10200SOL     OW31498   4.951   3.247   5.231
10200SOL    HW131499   4.920   3.305   5.306
10200SOL    HW231500   4.975   3.157   5.267
10201SOL     OW31501   0.803   6.325   1.264
10201SOL    HW131502   0.735   6.280   1.323
10201SOL    HW231503   0.759   6.357   1.181
10202SOL     OW31504   1.403   3.672   0.404
10202SOL    HW131505   1.321   3.639   0.358
10202SOL    HW231506   1.400   3.772   0.410
10203SOL     OW31507   1.474   2.955   1.707
10203SOL    HW131508   1.503   3.045   1.737
10203SOL    HW231509   1.433   2.906   1.784
10204SOL     OW31510   3.969   4.884   6.522
10204SOL    HW131511   3.918   4.806   6.559
10204SOL    HW231512   3.913   4.966   6.531
10205SOL     OW31513   3.583   1.197   2.751
10205SOL    HW131514   3.574   1.143   2.835
10205SOL    HW231515   3.590   1.294   2.774
10206SOL     OW31516   4.963   6.345   6.186
10206SOL    HW131517   4.908   6.375   6.264
10206SOL    HW231518   5.053   6.316   6.218
10207SOL     OW31519   1.950   0.663   0.578
10207SOL    HW131520   1.996   0.706   0.500
10207SOL    HW231521   1.954   0.724   0.656
10208SOL     OW31522   6.617   4.891   4.387
10208SOL    HW131523   6.686   4.962   4.404
10208SOL    HW231524   6.526   4.928   4.407
10209SOL     OW31525   0.638   0.916   5.451
10209SOL    HW131526   0.577   0.929   5.528
10209SOL    HW231527   0.683   0.826   5.459
10210SOL     OW31528   5.055   0.292   1.575
10210SOL    HW131529   5.034   0.389   1.592
10210SOL    HW231530   4.971   0.245   1.548
10211SOL     OW31531   4.675   6.290   5.838
10211SOL    HW131532   4.771   6.289   5.866
10211SOL    HW231533   4.620   6.240   5.905
10212SOL     OW31534   0.341   1.394   4.469
10212SOL    HW131535   0.255   1.346   4.449
10212SOL    HW231536   0.408   1.328   4.504
10213SOL     OW31537   6.683   1.941   2.364
10213SOL    HW131538   6.781   1.960   2.362
10213SOL    HW231539   6.650   1.952   2.458
10214SOL     OW31540   1.085   1.689   2.261
10214SOL    HW131541   1.151   1.749   2.217
10214SOL    HW231542   1.046   1.627   2.193
10215SOL     OW31543   3.155   3.157   4.735
10215SOL    HW131544   3.195   3.159   4.827
10215SOL    HW231545   3.091   3.234   4.726
10216SOL     OW31546   6.962   0.238   0.541
10216SOL    HW131547   7.005   0.258   0.453
10216SOL    HW231548   6.862   0.243   0.531
10217SOL     OW31549   2.414   1.153   3.814
10217SOL    HW131550   2.463   1.066   3.816
10217SOL    HW231551   2.335   1.149   3.875
10218SOL     OW31552   1.370   0.714   1.116
10218SOL    HW131553   1.357   0.644   1.187
10218SOL    HW231554   1.411   0.671   1.035
10219SOL     OW31555   0.539   3.224   2.089
10219SOL    HW131556   0.590   3.279   2.022
10219SOL    HW231557   0.599   3.199   2.165
10220SOL     OW31558   4.151   1.634   2.149
10220SOL    HW131559   4.201   1.702   2.202
10220SOL    HW231560   4.096   1.578   2.211
10221SOL     OW31561   1.522   1.974   3.285
10221SOL    HW131562   1.455   1.967   3.211
10221SOL    HW231563   1.475   1.964   3.373
10222SOL     OW31564   1.406   3.357   5.915
10222SOL    HW131565   1.446   3.414   5.843
10222SOL    HW231566   1.443   3.385   6.004
10223SOL     OW31567   1.689   6.093   6.808
10223SOL    HW131568   1.765   6.070   6.868
10223SOL    HW231569   1.722   6.103   6.714
10224SOL     OW31570   0.016   1.158   4.864
10224SOL    HW131571   6.964   1.158   4.798
10224SOL    HW231572   0.070   1.241   4.852
10225SOL     OW31573   1.501   6.300   5.658
10225SOL    HW131574   1.457   6.288   5.569
10225SOL    HW231575   1.431   6.317   5.727
10226SOL     OW31576   2.577   0.175   6.714
10226SOL    HW131577   2.594   0.272   6.701
10226SOL    HW231578   2.619   0.123   6.640
10227SOL     OW31579   4.667   4.860   0.801
10227SOL    HW131580   4.643   4.864   0.704
10227SOL    HW231581   4.766   4.856   0.811
10228SOL     OW31582   1.295   5.570   2.258
10228SOL    HW131583   1.341   5.644   2.208
10228SOL    HW231584   1.200   5.563   2.226
10229SOL     OW31585   0.915   1.284   4.102
10229SOL    HW131586   0.869   1.198   4.122
10229SOL    HW231587   0.989   1.268   4.036
10230SOL     OW31588   6.526   6.739   3.985
10230SOL    HW131589   6.619   6.758   3.952
10230SOL    HW231590   6.460   6.784   3.926
10231SOL     OW31591   7.000   6.163   5.666
10231SOL    HW131592   0.024   6.241   5.706
10231SOL    HW231593   6.901   6.176   5.673
10232SOL     OW31594   2.460   0.648   4.121
10232SOL    HW131595   2.372   0.644   4.168
10232SOL    HW231596   2.535   0.642   4.188
10233SOL     OW31597   5.280   3.384   5.254
10233SOL    HW131598   5.189   3.413   5.282
10233SOL    HW231599   5.289   3.285   5.268
10234SOL     OW31600   5.280   1.050   1.165
10234SOL    HW131601   5.294   1.032   1.262
10234SOL    HW231602   5.332   1.131   1.138
10235SOL     OW31603   4.652   2.018   0.600
10235SOL    HW131604   4.609   2.084   0.661
10235SOL    HW231605   4.749   2.010   0.623
10236SOL     OW31606   1.724   6.736   2.208
10236SOL    HW131607   1.713   6.660   2.271
10236SOL    HW231608   1.636   6.780   2.192
10237SOL     OW31609   5.602   3.651   1.241
10237SOL    HW131610   5.535   3.724   1.228
10237SOL    HW231611   5.695   3.688   1.232
10238SOL     OW31612   3.437   4.170   3.898
10238SOL    HW131613   3.359   4.109   3.907
10238SOL    HW231614   3.461   4.207   3.987
10239SOL     OW31615   1.407   4.234   5.060
10239SOL    HW131616   1.338   4.270   4.999
10239SOL    HW231617   1.419   4.136   5.043
10240SOL     OW31618   1.928   5.046   3.147
10240SOL    HW131619   1.842   5.044   3.095
10240SOL    HW231620   2.005   5.043   3.083
10241SOL     OW31621   0.385   0.316   1.807
10241SOL    HW131622   0.406   0.311   1.709
10241SOL    HW231623   0.287   0.334   1.819
10242SOL     OW31624   6.524   1.405   6.849
10242SOL    HW131625   6.552   1.501   6.852
10242SOL    HW231626   6.580   1.351   6.913
10243SOL     OW31627   0.510   5.564   1.074
10243SOL    HW131628   0.609   5.548   1.079
10243SOL    HW231629   0.487   5.601   0.985
10244SOL     OW31630   1.936   5.194   0.258
10244SOL    HW131631   1.859   5.150   0.211
10244SOL    HW231632   1.999   5.231   0.190
10245SOL     OW31633   3.140   4.432   6.963
10245SOL    HW131634   3.104   4.463   6.875
10245SOL    HW231635   3.164   4.511   7.019
10246SOL     OW31636   2.943   3.730   3.914
10246SOL    HW131637   2.906   3.744   4.006
10246SOL    HW231638   3.010   3.655   3.916
10247SOL     OW31639   0.171   5.525   4.874
10247SOL    HW131640   0.141   5.578   4.953
10247SOL    HW231641   0.191   5.587   4.798
10248SOL     OW31642   3.439   6.662   2.176
10248SOL    HW131643   3.428   6.568   2.211
10248SOL    HW231644   3.390   6.671   2.090
10249SOL     OW31645   3.251   0.763   5.879
10249SOL    HW131646   3.343   0.800   5.887
10249SOL    HW231647   3.255   0.674   5.833
10250SOL     OW31648   6.553   1.851   1.318
10250SOL    HW131649   6.612   1.919   1.274
10250SOL    HW231650   6.468   1.842   1.267
10251SOL     OW31651   2.767   2.377   5.070
10251SOL    HW131652   2.697   2.440   5.104
10251SOL    HW231653   2.847   2.428   5.039
10252SOL     OW31654   6.471   6.265   0.526
10252SOL    HW131655   6.530   6.216   0.462
10252SOL    HW231656   6.527   6.302   0.601
10253SOL     OW31657   5.654   5.989   0.789
10253SOL    HW131658   5.646   6.086   0.810
10253SOL    HW231659   5.566   5.944   0.805
10254SOL     OW31660   4.000   1.664   5.053
10254SOL    HW131661   4.100   1.666   5.045
10254SOL    HW231662   3.960   1.722   4.982
10255SOL     OW31663   2.271   5.127   1.464
10255SOL    HW131664   2.250   5.137   1.366
10255SOL    HW231665   2.321   5.208   1.495
10256SOL     OW31666   5.615   0.740   1.703
10256SOL    HW131667   5.593   0.726   1.607
10256SOL    HW231668   5.531   0.747   1.756
10257SOL     OW31669   2.141   5.206   4.073
10257SOL    HW131670   2.208   5.163   4.134
10257SOL    HW231671   2.054   5.215   4.120
10258SOL     OW31672   4.686   0.114   4.306
10258SOL    HW131673   4.668   0.132   4.209
10258SOL    HW231674   4.628   0.040   4.338
10259SOL     OW31675   1.025   5.108   3.341
10259SOL    HW131676   1.013   5.113   3.440
10259SOL    HW231677   0.937   5.116   3.296
10260SOL     OW31678   0.441   0.157   3.092
10260SOL    HW131679   0.488   0.129   3.176
10260SOL    HW231680   0.361   0.212   3.115
10261SOL     OW31681   6.908   6.115   2.955
10261SOL    HW131682   6.941   6.130   3.049
10261SOL    HW231683   6.939   6.026   2.923
10262SOL     OW31684   2.481   6.376   4.478
10262SOL    HW131685   2.550   6.417   4.418
10262SOL    HW231686   2.413   6.329   4.422
10263SOL     OW31687   4.826   1.384   6.337
10263SOL    HW131688   4.862   1.304   6.385
10263SOL    HW231689   4.840   1.373   6.238
10264SOL     OW31690   5.358   1.899   6.823
10264SOL    HW131691   5.367   1.957   6.742
10264SOL    HW231692   5.442   1.903   6.876
10265SOL     OW31693   3.228   2.129   3.081
10265SOL    HW131694   3.175   2.177   3.151
10265SOL    HW231695   3.171   2.115   3.000
10266SOL     OW31696   3.300   2.721   5.285
10266SOL    HW131697   3.385   2.718   5.336
10266SOL    HW231698   3.236   2.654   5.322
10267SOL     OW31699   5.812   2.234   6.403
10267SOL    HW131700   5.721   2.205   6.433
10267SOL    HW231701   5.881   2.194   6.463
10268SOL     OW31702   4.013   5.867   1.950
10268SOL    HW131703   4.032   5.963   1.931
10268SOL    HW231704   3.950   5.860   2.026
10269SOL     OW31705   1.507   2.010   5.260
10269SOL    HW131706   1.490   2.102   5.224
10269SOL    HW231707   1.547   1.954   5.187
10270SOL     OW31708   2.359   5.232   2.932
10270SOL    HW131709   2.382   5.329   2.921
10270SOL    HW231710   2.416   5.193   3.004
10271SOL     OW31711   4.227   2.868   0.342
10271SOL    HW131712   4.220   2.933   0.266
10271SOL    HW231713   4.136   2.832   0.364
10272SOL     OW31714   0.530   0.078   4.441
10272SOL    HW131715   0.577   0.165   4.457
10272SOL    HW231716   0.582   0.024   4.375
10273SOL     OW31717   4.597   5.148   3.361
10273SOL    HW131718   4.628   5.112   3.272
10273SOL    HW231719   4.504   5.182   3.352
10274SOL     OW31720   0.965   4.465   4.757
10274SOL    HW131721   0.906   4.526   4.810
10274SOL    HW231722   1.032   4.422   4.818
10275SOL     OW31723   0.553   6.232   2.063
10275SOL    HW131724   0.626   6.300   2.064
10275SOL    HW231725   0.528   6.212   1.969
10276SOL     OW31726   5.862   5.624   5.816
10276SOL    HW131727   5.893   5.558   5.884
10276SOL    HW231728   5.812   5.698   5.860
10277SOL     OW31729   3.097   5.567   3.992
10277SOL    HW131730   3.055   5.622   4.064
10277SOL    HW231731   3.034   5.557   3.916
10278SOL     OW31732   6.007   1.080   4.406
10278SOL    HW131733   5.984   0.986   4.429
10278SOL    HW231734   6.020   1.133   4.491
10279SOL     OW31735   1.925   6.137   4.304
10279SOL    HW131736   2.008   6.084   4.286
10279SOL    HW231737   1.890   6.174   4.218
10280SOL     OW31738   2.157   3.837   1.351
10280SOL    HW131739   2.061   3.861   1.369
10280SOL    HW231740   2.217   3.900   1.399
10281SOL     OW31741   6.777   2.291   2.137
10281SOL    HW131742   6.863   2.272   2.185
10281SOL    HW231743   6.758   2.389   2.141
10282SOL     OW31744   6.398   4.353   4.326
10282SOL    HW131745   6.397   4.379   4.230
10282SOL    HW231746   6.356   4.263   4.337
10283SOL     OW31747   0.647   3.476   0.771
10283SOL    HW131748   0.622   3.405   0.704
10283SOL    HW231749   0.598   3.459   0.857
10284SOL     OW31750   4.875   3.920   5.641
10284SOL    HW131751   4.923   3.893   5.725
10284SOL    HW231752   4.835   3.839   5.598
10285SOL     OW31753   4.395   0.583   0.520
10285SOL    HW131754   4.452   0.664   0.537
10285SOL    HW231755   4.314   0.610   0.468
10286SOL     OW31756   3.075   2.187   4.111
10286SOL    HW131757   3.028   2.154   4.192
10286SOL    HW231758   3.173   2.173   4.121
10287SOL     OW31759   1.949   6.456   1.973
10287SOL    HW131760   1.999   6.433   1.890
10287SOL    HW231761   1.992   6.413   2.052
10288SOL     OW31762   5.175   6.253   2.153
10288SOL    HW131763   5.081   6.223   2.137
10288SOL    HW231764   5.227   6.245   2.068
10289SOL     OW31765   3.279   0.664   2.766
10289SOL    HW131766   3.337   0.599   2.717
10289SOL    HW231767   3.259   0.742   2.706
10290SOL     OW31768   3.572   4.069   2.275
10290SOL    HW131769   3.606   4.091   2.183
10290SOL    HW231770   3.473   4.060   2.273
10291SOL     OW31771   4.154   1.449   4.099
10291SOL    HW131772   4.070   1.472   4.051
10291SOL    HW231773   4.133   1.410   4.189
10292SOL     OW31774   0.991   1.191   4.680
10292SOL    HW131775   0.921   1.121   4.668
10292SOL    HW231776   0.956   1.263   4.741
10293SOL     OW31777   2.070   5.766   3.633
10293SOL    HW131778   1.983   5.811   3.654
10293SOL    HW231779   2.144   5.814   3.679
10294SOL     OW31780   4.818   3.906   2.718
10294SOL    HW131781   4.804   3.927   2.621
10294SOL    HW231782   4.821   3.807   2.730
10295SOL     OW31783   6.242   5.441   6.043
10295SOL    HW131784   6.320   5.502   6.059
10295SOL    HW231785   6.233   5.424   5.945
10296SOL     OW31786   4.956   2.798   6.506
10296SOL    HW131787   4.968   2.882   6.453
10296SOL    HW231788   4.869   2.802   6.555
10297SOL     OW31789   1.980   6.329   4.931
10297SOL    HW131790   1.937   6.249   4.890
10297SOL    HW231791   1.908   6.393   4.961
10298SOL     OW31792   4.072   4.745   2.383
10298SOL    HW131793   4.014   4.779   2.309
10298SOL    HW231794   4.165   4.731   2.349
10299SOL     OW31795   4.826   4.423   2.597
10299SOL    HW131796   4.883   4.341   2.605
10299SOL    HW231797   4.822   4.469   2.685
10300SOL     OW31798   1.950   4.759   2.687
10300SOL    HW131799   1.866   4.808   2.662
10300SOL    HW231800   1.927   4.681   2.745
10301SOL     OW31801   6.270   2.269   2.792
10301SOL    HW131802   6.178   2.299   2.820
10301SOL    HW231803   6.329   2.264   2.873
10302SOL     OW31804   0.552   6.137   3.952
10302SOL    HW131805   0.494   6.113   3.874
10302SOL    HW231806   0.514   6.097   4.035
10303SOL     OW31807   3.137   5.421   1.124
10303SOL    HW131808   3.206   5.474   1.074
10303SOL    HW231809   3.089   5.360   1.060
10304SOL     OW31810   5.524   0.807   2.816
10304SOL    HW131811   5.486   0.715   2.828
10304SOL    HW231812   5.558   0.816   2.722
10305SOL     OW31813   0.393   5.122   6.913
10305SOL    HW131814   0.405   5.062   6.834
10305SOL    HW231815   0.481   5.167   6.934
10306SOL     OW31816   4.605   6.289   6.774
10306SOL    HW131817   4.673   6.227   6.735
10306SOL    HW231818   4.564   6.249   6.856
10307SOL     OW31819   1.784   2.195   4.225
10307SOL    HW131820   1.739   2.168   4.310
10307SOL    HW231821   1.721   2.183   4.148
10308SOL     OW31822   2.814   5.086   3.723
10308SOL    HW131823   2.800   5.007   3.663
10308SOL    HW231824   2.818   5.056   3.818
10309SOL     OW31825   6.523   0.343   3.706
10309SOL    HW131826   6.463   0.359   3.784
10309SOL    HW231827   6.471   0.356   3.621
10310SOL     OW31828   3.750   2.795   1.743
10310SOL    HW131829   3.736   2.713   1.688
10310SOL    HW231830   3.688   2.794   1.821
10311SOL     OW31831   0.660   5.927   1.231
10311SOL    HW131832   0.691   5.953   1.322
10311SOL    HW231833   0.570   5.967   1.213
10312SOL     OW31834   2.999   5.720   0.972
10312SOL    HW131835   2.944   5.644   1.004
10312SOL    HW231836   3.036   5.771   1.050
10313SOL     OW31837   3.851   0.120   1.900
10313SOL    HW131838   3.757   0.087   1.905
10313SOL    HW231839   3.850   0.219   1.885
10314SOL     OW31840   6.336   0.542   1.835
10314SOL    HW131841   6.259   0.514   1.892
10314SOL    HW231842   6.415   0.561   1.893
10315SOL     OW31843   6.158   5.583   4.814
10315SOL    HW131844   6.105   5.520   4.756
10315SOL    HW231845   6.228   5.531   4.863
10316SOL     OW31846   6.355   3.130   5.146
10316SOL    HW131847   6.312   3.108   5.059
10316SOL    HW231848   6.406   3.051   5.180
10317SOL     OW31849   3.579   4.560   6.242
10317SOL    HW131850   3.493   4.567   6.191
10317SOL    HW231851   3.622   4.650   6.247
10318SOL     OW31852   5.890   5.584   0.908
10318SOL    HW131853   5.895   5.658   0.841
10318SOL    HW231854   5.979   5.540   0.917
10319SOL     OW31855   1.299   3.495   5.667
10319SOL    HW131856   1.370   3.544   5.716
10319SOL    HW231857   1.340   3.420   5.614
10320SOL     OW31858   0.951   0.576   0.691
10320SOL    HW131859   0.908   0.608   0.776
10320SOL    HW231860   1.050   0.586   0.698
10321SOL     OW31861   4.070   0.485   4.999
10321SOL    HW131862   4.057   0.565   5.058
10321SOL    HW231863   3.984   0.466   4.951
10322SOL     OW31864   6.381   5.821   0.037
10322SOL    HW131865   6.324   5.761   0.093
10322SOL    HW231866   6.411   5.899   0.092
10323SOL     OW31867   6.110   4.124   6.254
10323SOL    HW131868   6.179   4.178   6.205
10323SOL    HW231869   6.020   4.142   6.215
10324SOL     OW31870   3.457   2.914   3.231
10324SOL    HW131871   3.533   2.894   3.293
10324SOL    HW231872   3.421   3.005   3.251
10325SOL     OW31873   6.888   4.834   3.177
10325SOL    HW131874   6.946   4.901   3.225
10325SOL    HW231875   6.804   4.879   3.146
10326SOL     OW31876   4.489   2.432   0.342
10326SOL    HW131877   4.578   2.414   0.301
10326SOL    HW231878   4.419   2.375   0.299
10327SOL     OW31879   3.029   1.694   2.348
10327SOL    HW131880   3.004   1.623   2.414
10327SOL    HW231881   3.117   1.733   2.373
10328SOL     OW31882   5.978   3.640   1.519
10328SOL    HW131883   6.026   3.554   1.540
10328SOL    HW231884   5.951   3.685   1.604
10329SOL     OW31885   3.587   6.953   4.696
10329SOL    HW131886   3.685   6.941   4.706
10329SOL    HW231887   3.540   6.872   4.733
10330SOL     OW31888   3.342   5.880   2.953
10330SOL    HW131889   3.249   5.845   2.961
10330SOL    HW231890   3.405   5.804   2.935
10331SOL     OW31891   6.268   0.851   3.133
10331SOL    HW131892   6.231   0.933   3.091
10331SOL    HW231893   6.279   0.866   3.232
10332SOL     OW31894   5.952   1.358   0.676
10332SOL    HW131895   5.884   1.402   0.734
10332SOL    HW231896   6.028   1.324   0.732
10333SOL     OW31897   6.067   4.303   4.684
10333SOL    HW131898   6.115   4.380   4.644
10333SOL    HW231899   6.124   4.221   4.677
10334SOL     OW31900   2.465   5.640   3.169
10334SOL    HW131901   2.407   5.603   3.240
10334SOL    HW231902   2.462   5.740   3.172
10335SOL     OW31903   2.185   4.410   6.926
10335SOL    HW131904   2.159   4.470   7.003
10335SOL    HW231905   2.133   4.325   6.931
10336SOL     OW31906   5.226   6.608   3.463
10336SOL    HW131907   5.257   6.518   3.436
10336SOL    HW231908   5.249   6.624   3.559
10337SOL     OW31909   6.533   6.478   5.663
10337SOL    HW131910   6.470   6.428   5.604
10337SOL    HW231911   6.566   6.559   5.616
10338SOL     OW31912   3.398   6.686   1.414
10338SOL    HW131913   3.303   6.715   1.421
10338SOL    HW231914   3.407   6.617   1.343
10339SOL     OW31915   3.696   4.364   0.918
10339SOL    HW131916   3.771   4.356   0.853
10339SOL    HW231917   3.728   4.339   1.010
10340SOL     OW31918   1.364   5.672   0.092
10340SOL    HW131919   1.391   5.727   0.013
10340SOL    HW231920   1.440   5.667   0.157
10341SOL     OW31921   2.416   3.179   1.669
10341SOL    HW131922   2.515   3.182   1.683
10341SOL    HW231923   2.386   3.267   1.631
10342SOL     OW31924   2.757   5.687   5.583
10342SOL    HW131925   2.813   5.765   5.557
10342SOL    HW231926   2.773   5.666   5.680
10343SOL     OW31927   2.427   3.738   0.387
10343SOL    HW131928   2.395   3.826   0.351
10343SOL    HW231929   2.526   3.740   0.397
10344SOL     OW31930   3.892   3.945   3.424
10344SOL    HW131931   3.959   3.990   3.365
10344SOL    HW231932   3.812   4.004   3.435
10345SOL     OW31933   1.686   0.303   6.364
10345SOL    HW131934   1.696   0.308   6.264
10345SOL    HW231935   1.616   0.368   6.393
10346SOL     OW31936   6.255   0.610   1.576
10346SOL    HW131937   6.236   0.515   1.554
10346SOL    HW231938   6.284   0.618   1.671
10347SOL     OW31939   4.926   2.711   1.786
10347SOL    HW131940   4.853   2.695   1.852
10347SOL    HW231941   4.986   2.784   1.820
10348SOL     OW31942   6.827   1.371   6.597
10348SOL    HW131943   6.787   1.435   6.531
10348SOL    HW231944   6.916   1.339   6.562
10349SOL     OW31945   6.644   0.709   0.694
10349SOL    HW131946   6.585   0.767   0.751
10349SOL    HW231947   6.700   0.650   0.753
10350SOL     OW31948   3.069   6.061   5.107
10350SOL    HW131949   3.157   6.071   5.153
10350SOL    HW231950   2.995   6.076   5.173
10351SOL     OW31951   6.260   5.059   5.977
10351SOL    HW131952   6.291   4.968   6.004
10351SOL    HW231953   6.160   5.062   5.978
10352SOL     OW31954   5.546   2.173   6.447
10352SOL    HW131955   5.504   2.172   6.537
10352SOL    HW231956   5.501   2.241   6.389
10353SOL     OW31957   6.531   3.538   3.988
10353SOL    HW131958   6.615   3.503   4.031
10353SOL    HW231959   6.506   3.479   3.911
10354SOL     OW31960   0.515   3.212   1.114
10354SOL    HW131961   0.533   3.303   1.075
10354SOL    HW231962   0.569   3.200   1.197
10355SOL     OW31963   0.763   0.833   0.549
10355SOL    HW131964   0.807   0.923   0.556
10355SOL    HW231965   0.828   0.767   0.510
10356SOL     OW31966   6.980   3.606   5.872
10356SOL    HW131967   6.914   3.534   5.850
10356SOL    HW231968   6.975   3.678   5.803
10357SOL     OW31969   3.567   2.080   5.892
10357SOL    HW131970   3.519   1.997   5.862
10357SOL    HW231971   3.581   2.140   5.813
10358SOL     OW31972   1.143   2.799   3.190
10358SOL    HW131973   1.123   2.882   3.139
10358SOL    HW231974   1.242   2.782   3.189
10359SOL     OW31975   4.966   2.162   2.131
10359SOL    HW131976   4.965   2.259   2.105
10359SOL    HW231977   4.980   2.155   2.230
10360SOL     OW31978   5.000   5.411   2.732
10360SOL    HW131979   5.057   5.490   2.710
10360SOL    HW231980   4.909   5.422   2.690
10361SOL     OW31981   2.791   0.747   2.989
10361SOL    HW131982   2.820   0.654   2.966
10361SOL    HW231983   2.855   0.812   2.948
10362SOL     OW31984   0.613   5.019   2.593
10362SOL    HW131985   0.626   5.033   2.495
10362SOL    HW231986   0.525   5.058   2.622
10363SOL     OW31987   4.743   2.678   1.026
10363SOL    HW131988   4.682   2.734   0.969
10363SOL    HW231989   4.834   2.676   0.985
10364SOL     OW31990   4.901   4.477   1.982
10364SOL    HW131991   4.920   4.519   2.071
10364SOL    HW231992   4.912   4.545   1.909
10365SOL     OW31993   5.684   4.647   0.396
10365SOL    HW131994   5.646   4.556   0.412
10365SOL    HW231995   5.643   4.686   0.313
10366SOL     OW31996   3.790   6.702   3.671
10366SOL    HW131997   3.731   6.629   3.636
10366SOL    HW231998   3.823   6.758   3.595
10367SOL     OW31999   6.769   1.546   2.232
10367SOL    HW132000   6.736   1.617   2.169
10367SOL    HW232001   6.869   1.547   2.234
10368SOL     OW32002   1.979   0.928   2.602
10368SOL    HW132003   1.933   1.014   2.579
10368SOL    HW232004   2.043   0.905   2.529
10369SOL     OW32005   2.349   6.249   6.353
10369SOL    HW132006   2.262   6.296   6.346
10369SOL    HW232007   2.370   6.203   6.266
10370SOL     OW32008   6.553   1.532   5.003
10370SOL    HW132009   6.498   1.607   4.967
10370SOL    HW232010   6.498   1.478   5.067
10371SOL     OW32011   2.185   6.640   4.077
10371SOL    HW132012   2.239   6.573   4.027
10371SOL    HW232013   2.140   6.702   4.013
10372SOL     OW32014   2.919   1.134   1.023
10372SOL    HW132015   2.832   1.181   1.012
10372SOL    HW232016   2.991   1.185   0.976
10373SOL     OW32017   0.438   6.506   4.922
10373SOL    HW132018   0.495   6.450   4.861
10373SOL    HW232019   0.427   6.597   4.883
10374SOL     OW32020   2.982   0.217   3.957
10374SOL    HW132021   2.978   0.118   3.939
10374SOL    HW232022   3.051   0.258   3.897
10375SOL     OW32023   2.797   1.981   5.777
10375SOL    HW132024   2.873   2.037   5.810
10375SOL    HW232025   2.815   1.885   5.798
10376SOL     OW32026   0.833   6.172   4.180
10376SOL    HW132027   0.898   6.101   4.206
10376SOL    HW232028   0.876   6.234   4.114
10377SOL     OW32029   0.183   1.629   1.825
10377SOL    HW132030   0.237   1.630   1.741
10377SOL    HW232031   0.141   1.719   1.839
10378SOL     OW32032   6.078   5.985   6.131
10378SOL    HW132033   6.067   5.929   6.213
10378SOL    HW232034   6.112   5.928   6.056
10379SOL     OW32035   3.319   5.690   3.860
10379SOL    HW132036   3.399   5.678   3.919
10379SOL    HW232037   3.238   5.655   3.907
10380SOL     OW32038   0.552   2.789   4.984
10380SOL    HW132039   0.462   2.785   4.940
10380SOL    HW232040   0.604   2.707   4.960
10381SOL     OW32041   4.579   3.802   0.722
10381SOL    HW132042   4.481   3.820   0.707
10381SOL    HW232043   4.628   3.889   0.726
10382SOL     OW32044   3.124   6.008   1.620
10382SOL    HW132045   3.031   5.976   1.641
10382SOL    HW232046   3.150   6.078   1.687
10383SOL     OW32047   1.367   3.934   0.465
10383SOL    HW132048   1.454   3.949   0.510
10383SOL    HW232049   1.296   3.920   0.534
10384SOL     OW32050   6.772   6.778   0.295
10384SOL    HW132051   6.775   6.695   0.350
10384SOL    HW232052   6.684   6.824   0.308
10385SOL     OW32053   4.063   5.948   6.837
10385SOL    HW132054   4.158   5.972   6.856
10385SOL    HW232055   4.003   6.018   6.875
10386SOL     OW32056   0.776   0.666   5.498
10386SOL    HW132057   0.867   0.704   5.519
10386SOL    HW232058   0.760   0.585   5.554
10387SOL     OW32059   5.221   2.763   2.741
10387SOL    HW132060   5.183   2.850   2.708
10387SOL    HW232061   5.147   2.696   2.750
10388SOL     OW32062   1.387   6.432   0.838
10388SOL    HW132063   1.291   6.436   0.866
10388SOL    HW232064   1.409   6.340   0.807
10389SOL     OW32065   5.431   3.872   1.254
10389SOL    HW132066   5.439   3.903   1.349
10389SOL    HW232067   5.335   3.876   1.225
10390SOL     OW32068   1.886   2.882   0.158
10390SOL    HW132069   1.909   2.820   0.233
10390SOL    HW232070   1.820   2.838   0.097
10391SOL     OW32071   0.600   5.966   4.321
10391SOL    HW132072   0.565   5.940   4.410
10391SOL    HW232073   0.527   5.963   4.253
10392SOL     OW32074   5.786   5.134   5.474
10392SOL    HW132075   5.884   5.118   5.476
10392SOL    HW232076   5.759   5.190   5.552
10393SOL     OW32077   2.153   3.731   3.613
10393SOL    HW132078   2.129   3.713   3.518
10393SOL    HW232079   2.177   3.645   3.658
10394SOL     OW32080   2.526   5.507   4.957
10394SOL    HW132081   2.592   5.437   4.928
10394SOL    HW232082   2.433   5.472   4.945
10395SOL     OW32083   0.206   0.204   1.291
10395SOL    HW132084   0.262   0.284   1.269
10395SOL    HW232085   0.250   0.121   1.255
10396SOL     OW32086   3.377   1.921   3.810
10396SOL    HW132087   3.362   2.000   3.752
10396SOL    HW232088   3.476   1.903   3.817
10397SOL     OW32089   3.187   1.629   4.543
10397SOL    HW132090   3.213   1.538   4.511
10397SOL    HW232091   3.122   1.669   4.479
10398SOL     OW32092   6.052   2.355   0.283
10398SOL    HW132093   6.012   2.421   0.346
10398SOL    HW232094   6.064   2.399   0.193
10399SOL     OW32095   5.191   2.562   3.375
10399SOL    HW132096   5.212   2.486   3.313
10399SOL    HW232097   5.159   2.640   3.321
10400SOL     OW32098   4.332   5.642   6.825
10400SOL    HW132099   4.316   5.726   6.877
10400SOL    HW232100   4.335   5.664   6.727
10401SOL     OW32101   0.066   6.567   2.766
10401SOL    HW132102   6.990   6.571   2.753
10401SOL    HW232103   0.087   6.570   2.864
10402SOL     OW32104   6.389   1.808   5.390
10402SOL    HW132105   6.303   1.781   5.347
10402SOL    HW232106   6.371   1.873   5.465
10403SOL     OW32107   4.541   2.605   3.465
10403SOL    HW132108   4.607   2.661   3.515
10403SOL    HW232109   4.510   2.530   3.525
10404SOL     OW32110   5.779   6.497   4.762
10404SOL    HW132111   5.788   6.579   4.706
10404SOL    HW232112   5.845   6.500   4.836
10405SOL     OW32113   1.375   6.779   4.258
10405SOL    HW132114   1.391   6.733   4.345
10405SOL    HW232115   1.284   6.820   4.258
10406SOL     OW32116   2.115   4.009   3.555
10406SOL    HW132117   2.175   4.062   3.496
10406SOL    HW232118   2.123   3.912   3.532
10407SOL     OW32119   2.774   6.485   6.412
10407SOL    HW132120   2.701   6.448   6.470
10407SOL    HW232121   2.825   6.555   6.463
10408SOL     OW32122   4.482   0.278   1.269
10408SOL    HW132123   4.559   0.273   1.333
10408SOL    HW232124   4.503   0.344   1.197
10409SOL     OW32125   0.127   5.354   1.529
10409SOL    HW132126   0.170   5.309   1.607
10409SOL    HW232127   0.033   5.322   1.519
10410SOL     OW32128   4.938   2.196   1.693
10410SOL    HW132129   4.866   2.127   1.689
10410SOL    HW232130   5.027   2.151   1.694
10411SOL     OW32131   3.272   6.775   3.547
10411SOL    HW132132   3.179   6.795   3.578
10411SOL    HW232133   3.337   6.798   3.619
10412SOL     OW32134   0.232   1.226   6.963
10412SOL    HW132135   0.155   1.228   0.004
10412SOL    HW232136   0.198   1.225   6.869
10413SOL     OW32137   0.264   2.882   0.116
10413SOL    HW132138   0.306   2.792   0.121
10413SOL    HW232139   0.333   2.951   0.094
10414SOL     OW32140   4.169   5.512   5.934
10414SOL    HW132141   4.236   5.441   5.953
10414SOL    HW232142   4.102   5.478   5.868
10415SOL     OW32143   1.706   3.896   5.262
10415SOL    HW132144   1.660   3.932   5.343
10415SOL    HW232145   1.708   3.796   5.267
10416SOL     OW32146   5.898   0.669   5.250
10416SOL    HW132147   5.933   0.575   5.250
10416SOL    HW232148   5.830   0.680   5.177
10417SOL     OW32149   3.246   4.916   3.885
10417SOL    HW132150   3.235   4.878   3.793
10417SOL    HW232151   3.300   5.000   3.881
10418SOL     OW32152   6.498   4.163   6.304
10418SOL    HW132153   6.448   4.173   6.218
10418SOL    HW232154   6.520   4.067   6.319
10419SOL     OW32155   2.902   6.719   5.808
10419SOL    HW132156   2.928   6.803   5.759
10419SOL    HW232157   2.917   6.640   5.748
10420SOL     OW32158   0.567   3.707   3.796
10420SOL    HW132159   0.581   3.608   3.791
10420SOL    HW232160   0.470   3.727   3.811
10421SOL     OW32161   1.009   2.446   3.521
10421SOL    HW132162   0.980   2.448   3.425
10421SOL    HW232163   1.064   2.527   3.541
10422SOL     OW32164   5.738   3.473   5.263
10422SOL    HW132165   5.780   3.475   5.353
10422SOL    HW232166   5.760   3.387   5.217
10423SOL     OW32167   5.659   4.956   5.301
10423SOL    HW132168   5.559   4.956   5.307
10423SOL    HW232169   5.697   4.995   5.385
10424SOL     OW32170   4.567   2.556   0.633
10424SOL    HW132171   4.543   2.564   0.536
10424SOL    HW232172   4.657   2.598   0.649
10425SOL     OW32173   0.865   6.564   1.908
10425SOL    HW132174   0.850   6.551   1.810
10425SOL    HW232175   0.956   6.605   1.922
10426SOL     OW32176   5.237   5.286   0.523
10426SOL    HW132177   5.213   5.208   0.466
10426SOL    HW232178   5.208   5.270   0.618
10427SOL     OW32179   3.611   0.927   6.658
10427SOL    HW132180   3.674   0.997   6.691
10427SOL    HW232181   3.621   0.844   6.713
10428SOL     OW32182   3.718   0.756   3.756
10428SOL    HW132183   3.671   0.749   3.668
10428SOL    HW232184   3.653   0.782   3.827
10429SOL     OW32185   6.893   4.166   0.787
10429SOL    HW132186   6.940   4.093   0.736
10429SOL    HW232187   6.957   4.207   0.852
10430SOL     OW32188   4.998   0.219   4.947
10430SOL    HW132189   4.999   0.319   4.947
10430SOL    HW232190   5.017   0.186   5.039
10431SOL     OW32191   2.567   5.860   4.456
10431SOL    HW132192   2.570   5.808   4.541
10431SOL    HW232193   2.575   5.957   4.475
10432SOL     OW32194   5.201   6.797   4.881
10432SOL    HW132195   5.192   6.897   4.884
10432SOL    HW232196   5.142   6.761   4.808
10433SOL     OW32197   1.062   5.735   1.867
10433SOL    HW132198   1.155   5.733   1.831
10433SOL    HW232199   0.996   5.724   1.793
10434SOL     OW32200   4.151   6.157   3.275
10434SOL    HW132201   4.087   6.125   3.346
10434SOL    HW232202   4.240   6.175   3.317
10435SOL     OW32203   0.292   0.996   5.296
10435SOL    HW132204   0.211   1.052   5.282
10435SOL    HW232205   0.303   0.977   5.394
10436SOL     OW32206   6.996   4.845   5.586
10436SOL    HW132207   6.968   4.749   5.592
10436SOL    HW232208   6.934   4.901   5.640
10437SOL     OW32209   4.823   3.894   6.127
10437SOL    HW132210   4.838   3.818   6.063
10437SOL    HW232211   4.894   3.893   6.197
10438SOL     OW32212   6.145   6.356   0.280
10438SOL    HW132213   6.227   6.402   0.315
10438SOL    HW232214   6.118   6.398   0.194
10439SOL     OW32215   3.860   1.079   5.234
10439SOL    HW132216   3.841   1.164   5.185
10439SOL    HW232217   3.927   1.025   5.183
10440SOL     OW32218   1.614   6.577   0.390
10440SOL    HW132219   1.619   6.505   0.459
10440SOL    HW232220   1.521   6.584   0.355
10441SOL     OW32221   3.679   1.332   1.386
10441SOL    HW132222   3.593   1.290   1.357
10441SOL    HW232223   3.746   1.261   1.406
10442SOL     OW32224   4.003   5.935   6.416
10442SOL    HW132225   3.954   5.983   6.343
10442SOL    HW232226   3.956   5.849   6.436
10443SOL     OW32227   4.826   3.934   3.865
10443SOL    HW132228   4.885   3.874   3.810
10443SOL    HW232229   4.785   3.881   3.939
10444SOL     OW32230   4.141   5.924   4.304
10444SOL    HW132231   4.176   5.894   4.215
10444SOL    HW232232   4.137   6.024   4.306
10445SOL     OW32233   0.602   4.994   4.754
10445SOL    HW132234   0.688   4.948   4.727
10445SOL    HW232235   0.554   5.024   4.672
10446SOL     OW32236   1.118   3.178   5.524
10446SOL    HW132237   1.217   3.177   5.535
10446SOL    HW232238   1.077   3.116   5.590
10447SOL     OW32239   0.636   1.268   1.555
10447SOL    HW132240   0.723   1.312   1.533
10447SOL    HW232241   0.601   1.305   1.641
10448SOL     OW32242   4.835   0.709   2.512
10448SOL    HW132243   4.778   0.681   2.590
10448SOL    HW232244   4.896   0.783   2.540
10449SOL     OW32245   2.870   5.149   4.850
10449SOL    HW132246   2.926   5.215   4.899
10449SOL    HW232247   2.904   5.057   4.869
10450SOL     OW32248   1.067   1.844   0.588
10450SOL    HW132249   1.058   1.844   0.489
10450SOL    HW232250   1.025   1.926   0.626
10451SOL     OW32251   1.368   5.376   2.426
10451SOL    HW132252   1.351   5.461   2.376
10451SOL    HW232253   1.320   5.301   2.381
10452SOL     OW32254   6.284   3.066   1.983
10452SOL    HW132255   6.218   2.994   1.960
10452SOL    HW232256   6.258   3.109   2.069
10453SOL     OW32257   3.941   6.917   1.500
10453SOL    HW132258   3.916   6.850   1.570
10453SOL    HW232259   3.859   6.952   1.455
10454SOL     OW32260   4.378   3.287   0.487
10454SOL    HW132261   4.400   3.240   0.401
10454SOL    HW232262   4.302   3.240   0.532
10455SOL     OW32263   6.493   6.490   3.406
10455SOL    HW132264   6.496   6.438   3.320
10455SOL    HW232265   6.518   6.430   3.482
10456SOL     OW32266   2.976   6.436   1.006
10456SOL    HW132267   3.000   6.491   0.926
10456SOL    HW232268   2.922   6.491   1.069
10457SOL     OW32269   2.978   3.075   2.138
10457SOL    HW132270   3.034   3.048   2.215
10457SOL    HW232271   2.897   3.017   2.133
10458SOL     OW32272   6.893   1.943   6.441
10458SOL    HW132273   6.874   1.848   6.417
10458SOL    HW232274   6.808   1.987   6.471
10459SOL     OW32275   4.759   6.014   1.525
10459SOL    HW132276   4.758   6.089   1.460
10459SOL    HW232277   4.824   6.035   1.599
10460SOL     OW32278   0.958   4.305   1.988
10460SOL    HW132279   0.979   4.275   2.081
10460SOL    HW232280   0.875   4.361   1.989
10461SOL     OW32281   0.634   5.036   5.454
10461SOL    HW132282   0.724   5.050   5.495
10461SOL    HW232283   0.601   5.121   5.414
10462SOL     OW32284   5.958   1.378   3.422
10462SOL    HW132285   5.875   1.434   3.428
10462SOL    HW232286   5.937   1.284   3.449
10463SOL     OW32287   4.104   3.057   5.579
10463SOL    HW132288   4.042   3.119   5.626
10463SOL    HW232289   4.051   2.988   5.530
10464SOL     OW32290   6.311   0.026   0.895
10464SOL    HW132291   6.378   0.009   0.967
10464SOL    HW232292   6.319   6.980   0.824
10465SOL     OW32293   6.378   5.742   1.458
10465SOL    HW132294   6.459   5.794   1.431
10465SOL    HW232295   6.304   5.760   1.392
10466SOL     OW32296   4.573   5.063   6.714
10466SOL    HW132297   4.537   5.032   6.802
10466SOL    HW232298   4.542   5.001   6.642
10467SOL     OW32299   1.975   1.853   6.080
10467SOL    HW132300   2.048   1.868   6.146
10467SOL    HW232301   1.908   1.789   6.117
10468SOL     OW32302   3.920   5.121   3.092
10468SOL    HW132303   4.009   5.144   3.055
10468SOL    HW232304   3.931   5.071   3.178
10469SOL     OW32305   4.043   3.711   5.660
10469SOL    HW132306   4.092   3.761   5.588
10469SOL    HW232307   3.974   3.771   5.702
10470SOL     OW32308   2.594   2.242   3.714
10470SOL    HW132309   2.526   2.181   3.755
10470SOL    HW232310   2.673   2.250   3.775
10471SOL     OW32311   2.659   2.019   1.282
10471SOL    HW132312   2.639   2.115   1.265
10471SOL    HW232313   2.634   1.965   1.202
10472SOL     OW32314   3.955   5.439   0.256
10472SOL    HW132315   4.045   5.445   0.212
10472SOL    HW232316   3.891   5.393   0.195
10473SOL     OW32317   6.869   0.646   6.706
10473SOL    HW132318   6.942   0.705   6.672
10473SOL    HW232319   6.824   0.601   6.629
10474SOL     OW32320   4.597   1.776   4.533
10474SOL    HW132321   4.652   1.733   4.604
10474SOL    HW232322   4.500   1.762   4.554
10475SOL     OW32323   4.710   6.938   2.269
10475SOL    HW132324   4.776   6.875   2.227
10475SOL    HW232325   4.759   7.006   2.323
10476SOL     OW32326   6.932   6.262   6.839
10476SOL    HW132327   6.937   6.242   6.741
10476SOL    HW232328   6.956   6.358   6.854
10477SOL     OW32329   6.853   1.966   4.146
10477SOL    HW132330   6.754   1.967   4.130
10477SOL    HW232331   6.871   1.941   4.241
10478SOL     OW32332   0.317   0.281   0.836
10478SOL    HW132333   0.363   0.210   0.782
10478SOL    HW232334   0.272   0.345   0.774
10479SOL     OW32335   0.413   2.349   1.137
10479SOL    HW132336   0.501   2.353   1.184
10479SOL    HW232337   0.388   2.441   1.106
10480SOL     OW32338   6.408   0.209   1.986
10480SOL    HW132339   6.347   0.135   2.012
10480SOL    HW232340   6.390   0.236   1.892
10481SOL     OW32341   2.723   6.646   4.605
10481SOL    HW132342   2.790   6.704   4.650
10481SOL    HW232343   2.631   6.669   4.638
10482SOL     OW32344   6.553   5.640   5.021
10482SOL    HW132345   6.535   5.710   4.952
10482SOL    HW232346   6.627   5.581   4.989
10483SOL     OW32347   6.964   5.459   0.367
10483SOL    HW132348   6.887   5.397   0.381
10483SOL    HW232349   6.940   5.551   0.399
10484SOL     OW32350   6.029   1.228   1.651
10484SOL    HW132351   6.003   1.173   1.572
10484SOL    HW232352   6.116   1.195   1.688
10485SOL     OW32353   3.404   4.053   1.985
10485SOL    HW132354   3.502   4.075   1.979
10485SOL    HW232355   3.365   4.099   2.065
10486SOL     OW32356   6.842   0.629   5.525
10486SOL    HW132357   6.819   0.597   5.433
10486SOL    HW232358   6.764   0.614   5.585
10487SOL     OW32359   4.459   2.027   2.164
10487SOL    HW132360   4.554   1.996   2.164
10487SOL    HW232361   4.451   2.112   2.215
10488SOL     OW32362   2.239   1.674   5.670
10488SOL    HW132363   2.303   1.751   5.676
10488SOL    HW232364   2.289   1.588   5.679
10489SOL     OW32365   6.380   6.955   4.482
10489SOL    HW132366   6.368   6.888   4.410
10489SOL    HW232367   6.298   6.958   4.539
10490SOL     OW32368   6.011   1.601   0.806
10490SOL    HW132369   6.031   1.522   0.748
10490SOL    HW232370   5.948   1.662   0.758
10491SOL     OW32371   2.569   2.050   5.356
10491SOL    HW132372   2.471   2.066   5.353
10491SOL    HW232373   2.608   2.063   5.265
10492SOL     OW32374   4.882   6.435   1.472
10492SOL    HW132375   4.930   6.447   1.385
10492SOL    HW232376   4.871   6.524   1.517
10493SOL     OW32377   2.839   6.439   2.162
10493SOL    HW132378   2.910   6.373   2.188
10493SOL    HW232379   2.871   6.532   2.179
10494SOL     OW32380   5.545   4.200   6.495
10494SOL    HW132381   5.555   4.289   6.450
10494SOL    HW232382   5.633   4.173   6.533
10495SOL     OW32383   0.369   0.202   0.529
10495SOL    HW132384   0.332   0.295   0.532
10495SOL    HW232385   0.469   0.206   0.521
10496SOL     OW32386   6.177   4.383   6.511
10496SOL    HW132387   6.267   4.418   6.537
10496SOL    HW232388   6.107   4.420   6.573
10497SOL     OW32389   1.459   6.656   1.985
10497SOL    HW132390   1.476   6.737   1.929
10497SOL    HW232391   1.385   6.674   2.049
10498SOL     OW32392   5.636   5.488   0.931
10498SOL    HW132393   5.715   5.547   0.914
10498SOL    HW232394   5.667   5.395   0.951
10499SOL     OW32395   4.922   0.765   2.139
10499SOL    HW132396   4.826   0.737   2.133
10499SOL    HW232397   4.927   0.865   2.130
10500SOL     OW32398   5.692   1.509   5.505
10500SOL    HW132399   5.645   1.496   5.418
10500SOL    HW232400   5.693   1.607   5.529
10501SOL     OW32401   2.457   5.062   1.763
10501SOL    HW132402   2.360   5.069   1.784
10501SOL    HW232403   2.507   5.030   1.843
10502SOL     OW32404   2.955   3.429   1.205
10502SOL    HW132405   3.038   3.466   1.164
10502SOL    HW232406   2.925   3.348   1.154
10503SOL     OW32407   5.396   3.370   0.560
10503SOL    HW132408   5.349   3.388   0.647
10503SOL    HW232409   5.484   3.417   0.560
10504SOL     OW32410   6.987   3.110   5.358
10504SOL    HW132411   0.021   3.192   5.349
10504SOL    HW232412   0.021   3.028   5.352
10505SOL     OW32413   6.107   5.259   1.199
10505SOL    HW132414   6.068   5.191   1.261
10505SOL    HW232415   6.035   5.323   1.171
10506SOL     OW32416   0.949   3.962   0.274
10506SOL    HW132417   0.860   4.004   0.291
10506SOL    HW232418   0.938   3.886   0.209
10507SOL     OW32419   2.298   5.199   0.643
10507SOL    HW132420   2.235   5.211   0.566
10507SOL    HW232421   2.260   5.243   0.725
10508SOL     OW32422   7.004   5.777   4.812
10508SOL    HW132423   7.000   5.685   4.773
10508SOL    HW232424   0.065   5.823   4.781
10509SOL     OW32425   6.708   5.282   5.199
10509SOL    HW132426   6.642   5.206   5.200
10509SOL    HW232427   6.701   5.333   5.285
10510SOL     OW32428   4.643   6.448   0.101
10510SOL    HW132429   4.616   6.544   0.107
10510SOL    HW232430   4.740   6.442   0.076
10511SOL     OW32431   2.963   1.208   2.236
10511SOL    HW132432   2.872   1.238   2.264
10511SOL    HW232433   3.016   1.288   2.206
10512SOL     OW32434   3.649   0.956   6.292
10512SOL    HW132435   3.589   0.986   6.366
10512SOL    HW232436   3.614   0.871   6.253
10513SOL     OW32437   6.851   3.057   3.050
10513SOL    HW132438   6.828   3.152   3.033
10513SOL    HW232439   6.782   3.015   3.109
10514SOL     OW32440   0.637   2.615   1.262
10514SOL    HW132441   0.649   2.671   1.344
10514SOL    HW232442   0.599   2.526   1.288
10515SOL     OW32443   1.555   3.700   4.574
10515SOL    HW132444   1.647   3.663   4.590
10515SOL    HW232445   1.559   3.766   4.498
10516SOL     OW32446   2.955   1.766   0.364
10516SOL    HW132447   3.035   1.809   0.322
10516SOL    HW232448   2.956   1.783   0.463
10517SOL     OW32449   0.924   3.637   1.465
10517SOL    HW132450   0.967   3.547   1.455
10517SOL    HW232451   0.976   3.693   1.529
10518SOL     OW32452   7.009   6.394   1.641
10518SOL    HW132453   0.009   6.470   1.581
10518SOL    HW232454   0.037   6.313   1.613
10519SOL     OW32455   3.108   3.648   0.739
10519SOL    HW132456   3.129   3.630   0.643
10519SOL    HW232457   3.030   3.591   0.767
10520SOL     OW32458   0.521   2.760   5.708
10520SOL    HW132459   0.450   2.822   5.676
10520SOL    HW232460   0.504   2.668   5.673
10521SOL     OW32461   0.078   5.383   1.135
10521SOL    HW132462   0.014   5.347   1.203
10521SOL    HW232463   0.161   5.414   1.181
10522SOL     OW32464   0.034   2.221   4.337
10522SOL    HW132465   0.074   2.147   4.283
10522SOL    HW232466   0.018   2.188   4.430
10523SOL     OW32467   0.882   4.929   2.846
10523SOL    HW132468   0.835   4.901   2.930
10523SOL    HW232469   0.845   4.878   2.768
10524SOL     OW32470   6.627   6.296   4.538
10524SOL    HW132471   6.555   6.360   4.511
10524SOL    HW232472   6.697   6.292   4.466
10525SOL     OW32473   3.425   0.741   4.831
10525SOL    HW132474   3.358   0.803   4.792
10525SOL    HW232475   3.466   0.782   4.913
10526SOL     OW32476   1.086   0.080   1.747
10526SOL    HW132477   1.022   0.005   1.737
10526SOL    HW232478   1.123   0.081   1.841
10527SOL     OW32479   1.260   0.926   5.477
10527SOL    HW132480   1.273   0.929   5.576
10527SOL    HW232481   1.318   0.854   5.438
10528SOL     OW32482   1.568   4.323   6.449
10528SOL    HW132483   1.622   4.301   6.368
10528SOL    HW232484   1.516   4.407   6.433
10529SOL     OW32485   2.263   6.118   4.318
10529SOL    HW132486   2.274   6.190   4.249
10529SOL    HW232487   2.262   6.159   4.409
10530SOL     OW32488   1.186   6.742   6.131
10530SOL    HW132489   1.127   6.822   6.114
10530SOL    HW232490   1.216   6.743   6.226
10531SOL     OW32491   1.839   2.475   4.536
10531SOL    HW132492   1.930   2.442   4.563
10531SOL    HW232493   1.773   2.400   4.541
10532SOL     OW32494   0.515   6.585   6.508
10532SOL    HW132495   0.524   6.684   6.522
10532SOL    HW232496   0.430   6.553   6.550
10533SOL     OW32497   2.881   6.210   3.369
10533SOL    HW132498   2.850   6.184   3.278
10533SOL    HW232499   2.895   6.128   3.425
10534SOL     OW32500   6.291   5.029   1.963
10534SOL    HW132501   6.336   5.115   1.938
10534SOL    HW232502   6.217   5.047   2.027
10535SOL     OW32503   2.242   1.554   2.612
10535SOL    HW132504   2.321   1.546   2.551
10535SOL    HW232505   2.272   1.539   2.707
10536SOL     OW32506   4.500   1.031   4.300
10536SOL    HW132507   4.524   1.100   4.231
10536SOL    HW232508   4.472   1.077   4.384
10537SOL     OW32509   4.576   6.646   4.222
10537SOL    HW132510   4.664   6.644   4.175
10537SOL    HW232511   4.564   6.562   4.276
10538SOL     OW32512   6.787   3.362   0.521
10538SOL    HW132513   6.741   3.274   0.533
10538SOL    HW232514   6.731   3.422   0.463
10539SOL     OW32515   6.333   5.587   1.048
10539SOL    HW132516   6.426   5.562   1.074
10539SOL    HW232517   6.331   5.611   0.951
10540SOL     OW32518   1.738   2.923   5.556
10540SOL    HW132519   1.684   2.877   5.626
10540SOL    HW232520   1.795   2.994   5.599
10541SOL     OW32521   3.938   3.945   2.324
10541SOL    HW132522   3.916   3.970   2.230
10541SOL    HW232523   3.933   3.845   2.334
10542SOL     OW32524   6.902   0.820   5.252
10542SOL    HW132525   6.852   0.733   5.260
10542SOL    HW232526   6.863   0.873   5.176
10543SOL     OW32527   1.284   1.841   4.324
10543SOL    HW132528   1.187   1.866   4.332
10543SOL    HW232529   1.337   1.920   4.295
10544SOL     OW32530   2.604   6.398   2.047
10544SOL    HW132531   2.598   6.334   1.970
10544SOL    HW232532   2.698   6.403   2.079
10545SOL     OW32533   1.020   2.465   1.453
10545SOL    HW132534   1.118   2.473   1.433
10545SOL    HW232535   0.968   2.475   1.369
10546SOL     OW32536   3.008   6.228   0.390
10546SOL    HW132537   2.926   6.211   0.335
10546SOL    HW232538   3.056   6.141   0.407
10547SOL     OW32539   5.202   3.431   3.447
10547SOL    HW132540   5.272   3.360   3.442
10547SOL    HW232541   5.177   3.460   3.355
10548SOL     OW32542   0.216   4.229   4.130
10548SOL    HW132543   0.309   4.262   4.113
10548SOL    HW232544   0.182   4.269   4.215
10549SOL     OW32545   0.760   1.460   0.938
10549SOL    HW132546   0.671   1.489   0.902
10549SOL    HW232547   0.774   1.364   0.916
10550SOL     OW32548   4.691   6.348   3.788
10550SOL    HW132549   4.652   6.355   3.697
10550SOL    HW232550   4.740   6.432   3.810
10551SOL     OW32551   1.843   2.172   6.897
10551SOL    HW132552   1.836   2.083   6.852
10551SOL    HW232553   1.940   2.196   6.907
10552SOL     OW32554   2.190   0.807   5.449
10552SOL    HW132555   2.097   0.793   5.418
10552SOL    HW232556   2.189   0.850   5.540
10553SOL     OW32557   0.618   4.684   1.362
10553SOL    HW132558   0.542   4.624   1.336
10553SOL    HW232559   0.701   4.629   1.374
10554SOL     OW32560   5.037   5.409   1.477
10554SOL    HW132561   5.031   5.318   1.519
10554SOL    HW232562   4.966   5.468   1.514
10555SOL     OW32563   2.457   2.605   0.812
10555SOL    HW132564   2.475   2.523   0.758
10555SOL    HW232565   2.358   2.613   0.827
10556SOL     OW32566   1.445   1.149   3.719
10556SOL    HW132567   1.439   1.249   3.716
10556SOL    HW232568   1.520   1.121   3.779
10557SOL     OW32569   2.144   2.937   3.699
10557SOL    HW132570   2.208   2.867   3.667
10557SOL    HW232571   2.063   2.893   3.737
10558SOL     OW32572   3.900   5.875   5.689
10558SOL    HW132573   3.953   5.805   5.641
10558SOL    HW232574   3.803   5.861   5.668
10559SOL     OW32575   3.999   0.617   1.670
10559SOL    HW132576   4.049   0.670   1.738
10559SOL    HW232577   3.990   0.669   1.586
10560SOL     OW32578   4.694   0.011   3.040
10560SOL    HW132579   4.663   0.079   2.973
10560SOL    HW232580   4.636   0.017   3.122
10561SOL     OW32581   3.577   4.376   1.722
10561SOL    HW132582   3.503   4.316   1.752
10561SOL    HW232583   3.562   4.468   1.759
10562SOL     OW32584   4.497   5.240   0.031
10562SOL    HW132585   4.426   5.207   0.093
10562SOL    HW232586   4.455   5.271   6.969
10563SOL     OW32587   0.704   0.949   2.252
10563SOL    HW132588   0.709   1.042   2.287
10563SOL    HW232589   0.785   0.898   2.280
10564SOL     OW32590   5.743   6.538   3.796
10564SOL    HW132591   5.825   6.589   3.772
10564SOL    HW232592   5.665   6.600   3.802
10565SOL     OW32593   6.868   6.568   5.753
10565SOL    HW132594   6.837   6.475   5.771
10565SOL    HW232595   6.898   6.576   5.658
10566SOL     OW32596   3.621   1.674   6.536
10566SOL    HW132597   3.702   1.699   6.482
10566SOL    HW232598   3.642   1.594   6.592
10567SOL     OW32599   2.052   2.517   5.409
10567SOL    HW132600   2.036   2.599   5.462
10567SOL    HW232601   2.034   2.436   5.465
10568SOL     OW32602   6.534   3.264   0.658
10568SOL    HW132603   6.537   3.223   0.750
10568SOL    HW232604   6.542   3.363   0.666
10569SOL     OW32605   6.089   0.776   2.465
10569SOL    HW132606   6.047   0.686   2.456
10569SOL    HW232607   6.025   0.846   2.433
10570SOL     OW32608   1.766   4.736   3.699
10570SOL    HW132609   1.781   4.714   3.795
10570SOL    HW232610   1.752   4.652   3.646
10571SOL     OW32611   0.215   4.634   5.078
10571SOL    HW132612   0.219   4.715   5.020
10571SOL    HW232613   0.130   4.584   5.060
10572SOL     OW32614   0.030   4.454   2.556
10572SOL    HW132615   7.007   4.413   2.477
10572SOL    HW232616   0.129   4.452   2.540
10573SOL     OW32617   5.366   1.070   4.894
10573SOL    HW132618   5.365   1.144   4.961
10573SOL    HW232619   5.336   1.105   4.805
10574SOL     OW32620   0.786   1.526   4.189
10574SOL    HW132621   0.838   1.606   4.216
10574SOL    HW232622   0.843   1.465   4.134
10575SOL     OW32623   0.181   0.765   3.908
10575SOL    HW132624   0.258   0.728   3.856
10575SOL    HW232625   0.139   0.693   3.963
10576SOL     OW32626   0.852   5.906   4.294
10576SOL    HW132627   0.760   5.941   4.306
10576SOL    HW232628   0.848   5.807   4.278
10577SOL     OW32629   1.806   4.420   0.491
10577SOL    HW132630   1.829   4.492   0.557
10577SOL    HW232631   1.882   4.355   0.484
10578SOL     OW32632   3.742   1.421   3.139
10578SOL    HW132633   3.727   1.514   3.105
10578SOL    HW232634   3.779   1.425   3.232
10579SOL     OW32635   4.017   2.808   1.722
10579SOL    HW132636   4.042   2.711   1.711
10579SOL    HW232637   3.918   2.815   1.734
10580SOL     OW32638   6.544   6.822   6.460
10580SOL    HW132639   6.480   6.876   6.515
10580SOL    HW232640   6.493   6.752   6.410
10581SOL     OW32641   5.771   0.379   3.194
10581SOL    HW132642   5.790   0.282   3.177
10581SOL    HW232643   5.781   0.398   3.292
10582SOL     OW32644   4.607   4.664   6.170
10582SOL    HW132645   4.535   4.636   6.234
10582SOL    HW232646   4.683   4.600   6.176
10583SOL     OW32647   4.529   1.081   3.891
10583SOL    HW132648   4.595   1.006   3.884
10583SOL    HW232649   4.559   1.146   3.962
10584SOL     OW32650   6.595   0.279   0.407
10584SOL    HW132651   6.506   0.321   0.394
10584SOL    HW232652   6.656   0.344   0.453
10585SOL     OW32653   2.815   1.818   5.043
10585SOL    HW132654   2.858   1.888   5.100
10585SOL    HW232655   2.739   1.858   4.992
10586SOL     OW32656   5.317   4.664   5.752
10586SOL    HW132657   5.390   4.615   5.705
10586SOL    HW232658   5.234   4.608   5.751
10587SOL     OW32659   6.944   5.234   6.936
10587SOL    HW132660   6.993   5.254   6.851
10587SOL    HW232661   6.846   5.242   6.920
10588SOL     OW32662   1.560   1.874   5.002
10588SOL    HW132663   1.464   1.858   4.976
10588SOL    HW232664   1.612   1.789   4.992
10589SOL     OW32665   5.677   1.149   4.469
10589SOL    HW132666   5.748   1.163   4.537
10589SOL    HW232667   5.705   1.188   4.381
10590SOL     OW32668   0.341   6.970   0.425
10590SOL    HW132669   0.244   6.949   0.414
10590SOL    HW232670   0.352   0.045   0.439
10591SOL     OW32671   2.105   2.224   6.942
10591SOL    HW132672   2.087   2.220   0.017
10591SOL    HW232673   2.203   2.208   6.926
10592SOL     OW32674   5.499   3.556   3.790
10592SOL    HW132675   5.545   3.633   3.835
10592SOL    HW232676   5.567   3.501   3.742
10593SOL     OW32677   3.060   6.028   1.167
10593SOL    HW132678   3.003   6.058   1.091
10593SOL    HW232679   3.154   6.014   1.135
10594SOL     OW32680   4.829   1.843   2.383
10594SOL    HW132681   4.781   1.801   2.460
10594SOL    HW232682   4.891   1.777   2.341
10595SOL     OW32683   5.829   6.932   0.159
10595SOL    HW132684   5.779   6.973   0.083
10595SOL    HW232685   5.776   6.941   0.243
10596SOL     OW32686   4.089   0.722   0.126
10596SOL    HW132687   4.002   0.673   0.124
10596SOL    HW232688   4.080   0.808   0.076
10597SOL     OW32689   3.451   1.076   5.754
10597SOL    HW132690   3.502   1.161   5.768
10597SOL    HW232691   3.404   1.079   5.666
10598SOL     OW32692   3.247   2.909   0.351
10598SOL    HW132693   3.280   2.910   0.257
10598SOL    HW232694   3.272   2.822   0.394
10599SOL     OW32695   5.293   3.274   6.610
10599SOL    HW132696   5.257   3.364   6.587
10599SOL    HW232697   5.391   3.281   6.627
10600SOL     OW32698   3.351   2.579   1.689
10600SOL    HW132699   3.254   2.557   1.696
10600SOL    HW232700   3.406   2.496   1.696
10601SOL     OW32701   1.383   4.563   5.796
10601SOL    HW132702   1.405   4.563   5.698
10601SOL    HW232703   1.347   4.474   5.822
10602SOL     OW32704   1.413   1.206   0.970
10602SOL    HW132705   1.427   1.231   0.874
10602SOL    HW232706   1.474   1.261   1.027
10603SOL     OW32707   4.099   6.737   3.417
10603SOL    HW132708   4.134   6.702   3.504
10603SOL    HW232709   4.021   6.796   3.434
10604SOL     OW32710   6.036   4.826   5.172
10604SOL    HW132711   6.008   4.915   5.137
10604SOL    HW232712   6.011   4.754   5.106
10605SOL     OW32713   2.245   6.284   7.020
10605SOL    HW132714   2.272   6.254   6.929
10605SOL    HW232715   2.316   6.259   0.063
10606SOL     OW32716   0.257   0.698   0.722
10606SOL    HW132717   0.197   0.773   0.749
10606SOL    HW232718   0.352   0.729   0.724
10607SOL     OW32719   4.119   4.512   6.514
10607SOL    HW132720   4.201   4.536   6.567
10607SOL    HW232721   4.138   4.521   6.417
10608SOL     OW32722   7.021   4.221   3.933
10608SOL    HW132723   0.089   4.231   3.975
10608SOL    HW232724   6.951   4.237   4.003
10609SOL     OW32725   2.966   6.937   0.012
10609SOL    HW132726   2.895   6.870   7.014
10609SOL    HW232727   3.054   6.890   0.025
10610SOL     OW32728   0.563   2.320   4.089
10610SOL    HW132729   0.482   2.372   4.062
10610SOL    HW232730   0.574   2.242   4.027
10611SOL     OW32731   2.690   4.470   6.505
10611SOL    HW132732   2.696   4.569   6.491
10611SOL    HW232733   2.781   4.430   6.494
10612SOL     OW32734   4.245   1.992   4.664
10612SOL    HW132735   4.326   2.031   4.707
10612SOL    HW232736   4.179   2.065   4.646
10613SOL     OW32737   5.769   5.861   5.947
10613SOL    HW132738   5.811   5.949   5.925
10613SOL    HW232739   5.676   5.876   5.981
10614SOL     OW32740   4.917   1.312   4.639
10614SOL    HW132741   4.846   1.263   4.589
10614SOL    HW232742   4.999   1.255   4.647
10615SOL     OW32743   3.442   0.996   6.459
10615SOL    HW132744   3.379   0.923   6.433
10615SOL    HW232745   3.482   0.975   6.548
10616SOL     OW32746   2.280   6.994   6.999
10616SOL    HW132747   2.337   0.046   6.964
10616SOL    HW232748   2.278   6.999   0.076
10617SOL     OW32749   3.144   4.066   1.328
10617SOL    HW132750   3.145   4.132   1.254
10617SOL    HW232751   3.133   3.974   1.290
10618SOL     OW32752   1.292   4.405   6.119
10618SOL    HW132753   1.376   4.458   6.110
10618SOL    HW232754   1.307   4.329   6.182
10619SOL     OW32755   0.265   2.781   3.472
10619SOL    HW132756   0.304   2.689   3.481
10619SOL    HW232757   0.194   2.780   3.401
10620SOL     OW32758   1.221   6.855   4.852
10620SOL    HW132759   1.148   6.861   4.785
10620SOL    HW232760   1.206   6.922   4.925
10621SOL     OW32761   1.075   4.977   1.436
10621SOL    HW132762   1.142   4.980   1.509
10621SOL    HW232763   1.069   4.884   1.400
10622SOL     OW32764   4.830   1.981   2.629
10622SOL    HW132765   4.847   2.012   2.535
10622SOL    HW232766   4.917   1.951   2.670
10623SOL     OW32767   6.938   5.255   5.916
10623SOL    HW132768   6.920   5.187   5.986
10623SOL    HW232769   6.878   5.238   5.837
10624SOL     OW32770   0.420   2.749   5.231
10624SOL    HW132771   0.488   2.750   5.158
10624SOL    HW232772   0.465   2.753   5.320
10625SOL     OW32773   0.842   4.517   1.385
10625SOL    HW132774   0.786   4.467   1.320
10625SOL    HW232775   0.846   4.467   1.472
10626SOL     OW32776   3.500   3.015   0.687
10626SOL    HW132777   3.548   2.984   0.769
10626SOL    HW232778   3.523   2.956   0.610
10627SOL     OW32779   5.789   1.672   0.093
10627SOL    HW132780   5.825   1.758   0.056
10627SOL    HW232781   5.851   1.597   0.070
10628SOL     OW32782   4.707   6.323   1.108
10628SOL    HW132783   4.787   6.337   1.165
10628SOL    HW232784   4.733   6.326   1.011
10629SOL     OW32785   2.608   5.198   4.868
10629SOL    HW132786   2.554   5.114   4.859
10629SOL    HW232787   2.706   5.175   4.865
10630SOL     OW32788   6.638   1.676   2.823
10630SOL    HW132789   6.727   1.722   2.820
10630SOL    HW232790   6.638   1.600   2.759
10631SOL     OW32791   3.918   4.882   5.132
10631SOL    HW132792   3.874   4.811   5.187
10631SOL    HW232793   3.933   4.964   5.188
10632SOL     OW32794   5.519   6.813   3.524
10632SOL    HW132795   5.561   6.727   3.497
10632SOL    HW232796   5.419   6.805   3.522
10633SOL     OW32797   2.725   2.571   1.572
10633SOL    HW132798   2.654   2.603   1.510
10633SOL    HW232799   2.765   2.486   1.537
10634SOL     OW32800   2.305   4.259   0.418
10634SOL    HW132801   2.343   4.237   0.508
10634SOL    HW232802   2.314   4.357   0.401
10635SOL     OW32803   1.972   3.820   6.625
10635SOL    HW132804   2.068   3.848   6.621
10635SOL    HW232805   1.958   3.740   6.567
10636SOL     OW32806   0.386   2.255   0.878
10636SOL    HW132807   0.418   2.291   0.965
10636SOL    HW232808   0.455   2.271   0.808
10637SOL     OW32809   0.952   4.638   6.176
10637SOL    HW132810   0.975   4.558   6.120
10637SOL    HW232811   1.020   4.710   6.161
10638SOL     OW32812   5.539   5.909   2.774
10638SOL    HW132813   5.613   5.963   2.815
10638SOL    HW232814   5.543   5.917   2.675
10639SOL     OW32815   1.118   3.830   3.121
10639SOL    HW132816   1.094   3.855   3.216
10639SOL    HW232817   1.214   3.853   3.104
10640SOL     OW32818   5.272   6.953   4.126
10640SOL    HW132819   5.210   7.001   4.189
10640SOL    HW232820   5.275   6.856   4.150
10641SOL     OW32821   2.784   1.969   2.427
10641SOL    HW132822   2.740   1.972   2.338
10641SOL    HW232823   2.762   1.883   2.473
10642SOL     OW32824   6.306   1.774   0.843
10642SOL    HW132825   6.393   1.759   0.889
10642SOL    HW232826   6.240   1.705   0.872
10643SOL     OW32827   2.215   5.741   4.645
10643SOL    HW132828   2.165   5.791   4.573
10643SOL    HW232829   2.162   5.742   4.729
10644SOL     OW32830   5.981   2.730   1.107
10644SOL    HW132831   5.900   2.701   1.055
10644SOL    HW232832   5.957   2.810   1.163
10645SOL     OW32833   1.489   2.699   4.731
10645SOL    HW132834   1.536   2.625   4.779
10645SOL    HW232835   1.490   2.680   4.632
10646SOL     OW32836   0.237   6.595   5.545
10646SOL    HW132837   0.245   6.580   5.446
10646SOL    HW232838   0.316   6.554   5.591
10647SOL     OW32839   3.044   5.753   4.940
10647SOL    HW132840   3.047   5.847   4.907
10647SOL    HW232841   2.974   5.702   4.890
10648SOL     OW32842   5.823   4.578   6.313
10648SOL    HW132843   5.792   4.663   6.271
10648SOL    HW232844   5.819   4.587   6.413
10649SOL     OW32845   0.845   4.428   3.205
10649SOL    HW132846   0.773   4.405   3.270
10649SOL    HW232847   0.851   4.357   3.135
10650SOL     OW32848   0.757   0.082   3.781
10650SOL    HW132849   0.728   7.023   3.830
10650SOL    HW232850   0.676   0.132   3.751
10651SOL     OW32851   6.027   6.519   0.086
10651SOL    HW132852   5.943   6.568   0.108
10651SOL    HW232853   6.010   6.455   0.011
10652SOL     OW32854   3.338   6.433   6.038
10652SOL    HW132855   3.374   6.340   6.032
10652SOL    HW232856   3.323   6.456   6.134
10653SOL     OW32857   4.517   5.768   4.511
10653SOL    HW132858   4.572   5.727   4.438
10653SOL    HW232859   4.555   5.744   4.600
10654SOL     OW32860   5.036   0.581   6.916
10654SOL    HW132861   5.111   0.626   6.866
10654SOL    HW232862   4.962   0.560   6.853
10655SOL     OW32863   2.516   5.270   0.496
10655SOL    HW132864   2.486   5.361   0.467
10655SOL    HW232865   2.450   5.230   0.559
10656SOL     OW32866   0.378   1.862   2.543
10656SOL    HW132867   0.458   1.830   2.493
10656SOL    HW232868   0.321   1.918   2.482
10657SOL     OW32869   5.628   0.456   5.217
10657SOL    HW132870   5.570   0.537   5.205
10657SOL    HW232871   5.574   0.374   5.200
10658SOL     OW32872   6.815   4.782   4.546
10658SOL    HW132873   6.846   4.822   4.632
10658SOL    HW232874   6.758   4.848   4.497
10659SOL     OW32875   0.484   5.701   1.351
10659SOL    HW132876   0.486   5.648   1.266
10659SOL    HW232877   0.545   5.780   1.343
10660SOL     OW32878   5.040   3.922   6.290
10660SOL    HW132879   5.029   3.976   6.373
10660SOL    HW232880   5.105   3.967   6.229
10661SOL     OW32881   1.449   6.957   1.358
10661SOL    HW132882   1.433   7.017   1.437
10661SOL    HW232883   1.419   6.864   1.381
10662SOL     OW32884   5.180   0.804   2.201
10662SOL    HW132885   5.088   0.777   2.171
10662SOL    HW232886   5.185   0.904   2.207
10663SOL     OW32887   0.661   1.850   2.658
10663SOL    HW132888   0.695   1.869   2.750
10663SOL    HW232889   0.566   1.820   2.663
10664SOL     OW32890   5.868   3.826   5.299
10664SOL    HW132891   5.819   3.788   5.221
10664SOL    HW232892   5.805   3.835   5.376
10665SOL     OW32893   0.775   1.756   0.197
10665SOL    HW132894   0.727   1.695   0.259
10665SOL    HW232895   0.721   1.770   0.114
10666SOL     OW32896   3.530   3.781   1.761
10666SOL    HW132897   3.583   3.708   1.805
10666SOL    HW232898   3.557   3.789   1.665
10667SOL     OW32899   4.663   2.748   4.074
10667SOL    HW132900   4.654   2.663   4.125
10667SOL    HW232901   4.687   2.728   3.979
10668SOL     OW32902   2.472   0.538   5.132
10668SOL    HW132903   2.407   0.462   5.127
10668SOL    HW232904   2.539   0.530   5.058
10669SOL     OW32905   5.542   0.353   1.907
10669SOL    HW132906   5.575   0.352   2.002
10669SOL    HW232907   5.446   0.380   1.905
10670SOL     OW32908   5.744   4.747   5.123
10670SOL    HW132909   5.729   4.811   5.199
10670SOL    HW232910   5.759   4.655   5.159
10671SOL     OW32911   2.095   2.059   3.618
10671SOL    HW132912   2.148   1.979   3.645
10671SOL    HW232913   2.152   2.121   3.565
10672SOL     OW32914   6.825   3.927   1.104
10672SOL    HW132915   6.739   3.976   1.087
10672SOL    HW232916   6.871   3.966   1.183
10673SOL     OW32917   0.859   0.538   6.908
10673SOL    HW132918   0.792   0.579   6.846
10673SOL    HW232919   0.815   0.468   6.964
10674SOL     OW32920   3.713   4.035   2.511
10674SOL    HW132921   3.635   4.028   2.448
10674SOL    HW232922   3.796   4.053   2.458
10675SOL     OW32923   2.058   6.532   6.823
10675SOL    HW132924   2.054   6.471   6.902
10675SOL    HW232925   2.048   6.627   6.854
10676SOL     OW32926   6.243   5.670   5.599
10676SOL    HW132927   6.305   5.745   5.575
10676SOL    HW232928   6.156   5.708   5.630
10677SOL     OW32929   1.814   0.695   1.271
10677SOL    HW132930   1.896   0.736   1.311
10677SOL    HW232931   1.837   0.604   1.234
10678SOL     OW32932   4.573   5.435   4.114
10678SOL    HW132933   4.493   5.481   4.075
10678SOL    HW232934   4.546   5.386   4.196
10679SOL     OW32935   4.498   5.504   6.516
10679SOL    HW132936   4.570   5.573   6.525
10679SOL    HW232937   4.495   5.448   6.599
10680SOL     OW32938   3.709   1.500   4.273
10680SOL    HW132939   3.740   1.433   4.205
10680SOL    HW232940   3.742   1.591   4.246
10681SOL     OW32941   0.821   3.856   1.073
10681SOL    HW132942   0.752   3.798   1.028
10681SOL    HW232943   0.912   3.831   1.039
10682SOL     OW32944   0.673   1.356   5.636
10682SOL    HW132945   0.763   1.318   5.660
10682SOL    HW232946   0.664   1.447   5.676
10683SOL     OW32947   3.578   2.140   4.008
10683SOL    HW132948   3.640   2.217   4.018
10683SOL    HW232949   3.619   2.072   3.947
10684SOL     OW32950   5.266   4.794   3.173
10684SOL    HW132951   5.178   4.766   3.135
10684SOL    HW232952   5.255   4.883   3.218
10685SOL     OW32953   0.784   5.690   2.053
10685SOL    HW132954   0.825   5.732   1.972
10685SOL    HW232955   0.801   5.748   2.133
10686SOL     OW32956   0.477   4.471   6.055
10686SOL    HW132957   0.548   4.541   6.052
10686SOL    HW232958   0.435   4.463   5.965
10687SOL     OW32959   5.488   5.881   3.394
10687SOL    HW132960   5.465   5.790   3.429
10687SOL    HW232961   5.572   5.912   3.438
10688SOL     OW32962   6.343   3.704   2.223
10688SOL    HW132963   6.287   3.661   2.293
10688SOL    HW232964   6.439   3.702   2.252
10689SOL     OW32965   6.862   5.970   3.472
10689SOL    HW132966   6.802   6.046   3.448
10689SOL    HW232967   6.836   5.889   3.421
10690SOL     OW32968   6.539   5.931   4.102
10690SOL    HW132969   6.594   5.848   4.110
10690SOL    HW232970   6.503   5.956   4.191
10691SOL     OW32971   0.711   2.619   2.095
10691SOL    HW132972   0.659   2.545   2.054
10691SOL    HW232973   0.808   2.595   2.097
10692SOL     OW32974   3.012   5.824   3.179
10692SOL    HW132975   3.032   5.797   3.085
10692SOL    HW232976   3.019   5.923   3.187
10693SOL     OW32977   2.022   6.003   0.391
10693SOL    HW132978   2.005   6.013   0.293
10693SOL    HW232979   2.117   6.028   0.410
10694SOL     OW32980   5.256   6.850   1.555
10694SOL    HW132981   5.264   6.839   1.456
10694SOL    HW232982   5.161   6.868   1.579
10695SOL     OW32983   0.217   2.561   2.324
10695SOL    HW132984   0.150   2.579   2.251
10695SOL    HW232985   0.181   2.594   2.411
10696SOL     OW32986   0.607   4.042   3.610
10696SOL    HW132987   0.671   4.089   3.670
10696SOL    HW232988   0.657   4.001   3.533
10697SOL     OW32989   6.546   5.745   5.273
10697SOL    HW132990   6.554   5.703   5.182
10697SOL    HW232991   6.632   5.735   5.322
10698SOL     OW32992   5.060   4.739   6.473
10698SOL    HW132993   4.970   4.735   6.431
10698SOL    HW232994   5.130   4.738   6.402
10699SOL     OW32995   4.157   3.645   1.951
10699SOL    HW132996   4.173   3.724   1.892
10699SOL    HW232997   4.186   3.666   2.044
10700SOL     OW32998   6.997   6.729   1.041
10700SOL    HW132999   6.904   6.716   1.076
10700SOL    HW233000   6.998   6.710   0.943
10701SOL     OW33001   3.457   6.032   0.185
10701SOL    HW133002   3.421   5.982   0.106
10701SOL    HW233003   3.441   5.979   0.268
10702SOL     OW33004   5.972   2.762   1.447
10702SOL    HW133005   5.920   2.734   1.527
10702SOL    HW233006   5.913   2.816   1.387
10703SOL     OW33007   2.896   3.309   4.906
10703SOL    HW133008   2.812   3.257   4.896
10703SOL    HW233009   2.905   3.340   5.000
10704SOL     OW33010   6.091   5.716   2.048
10704SOL    HW133011   6.063   5.766   2.130
10704SOL    HW233012   6.080   5.774   1.968
10705SOL     OW33013   5.936   4.379   2.186
10705SOL    HW133014   5.919   4.450   2.255
10705SOL    HW233015   5.849   4.351   2.146
10706SOL     OW33016   5.115   6.735   1.889
10706SOL    HW133017   5.159   6.648   1.866
10706SOL    HW233018   5.030   6.743   1.836
10707SOL     OW33019   0.357   6.565   4.166
10707SOL    HW133020   0.336   6.468   4.172
10707SOL    HW233021   0.272   6.617   4.151
10708SOL     OW33022   3.930   0.738   2.308
10708SOL    HW133023   3.846   0.743   2.254
10708SOL    HW233024   3.908   0.730   2.405
10709SOL     OW33025   5.789   6.253   5.421
10709SOL    HW133026   5.857   6.277   5.491
10709SOL    HW233027   5.795   6.319   5.346
10710SOL     OW33028   6.858   6.841   4.746
10710SOL    HW133029   6.788   6.873   4.683
10710SOL    HW233030   6.937   6.808   4.693
10711SOL     OW33031   1.701   5.919   4.201
10711SOL    HW133032   1.607   5.887   4.183
10711SOL    HW233033   1.714   6.009   4.159
10712SOL     OW33034   3.020   1.094   1.667
10712SOL    HW133035   2.958   1.098   1.588
10712SOL    HW233036   3.021   1.000   1.703
10713SOL     OW33037   0.754   3.322   1.577
10713SOL    HW133038   0.735   3.413   1.615
10713SOL    HW233039   0.851   3.301   1.588
10714SOL     OW33040   5.940   4.248   5.157
10714SOL    HW133041   5.952   4.347   5.169
10714SOL    HW233042   5.846   4.223   5.180
10715SOL     OW33043   5.470   0.581   2.597
10715SOL    HW133044   5.558   0.627   2.608
10715SOL    HW233045   5.470   0.526   2.514
10716SOL     OW33046   5.801   2.608   4.353
10716SOL    HW133047   5.802   2.529   4.415
10716SOL    HW233048   5.895   2.640   4.339
10717SOL     OW33049   1.113   2.357   0.759
10717SOL    HW133050   1.027   2.347   0.708
10717SOL    HW233051   1.098   2.336   0.855
10718SOL     OW33052   0.723   2.765   6.506
10718SOL    HW133053   0.736   2.835   6.576
10718SOL    HW233054   0.807   2.754   6.453
10719SOL     OW33055   5.917   6.095   1.717
10719SOL    HW133056   6.014   6.119   1.723
10719SOL    HW233057   5.862   6.170   1.755
10720SOL     OW33058   0.102   4.146   4.665
10720SOL    HW133059   0.017   4.104   4.698
10720SOL    HW233060   0.161   4.167   4.743
10721SOL     OW33061   5.758   3.963   4.786
10721SOL    HW133062   5.757   3.936   4.690
10721SOL    HW233063   5.669   3.942   4.827
10722SOL     OW33064   1.201   4.789   0.779
10722SOL    HW133065   1.161   4.873   0.817
10722SOL    HW233066   1.226   4.805   0.683
10723SOL     OW33067   0.761   4.061   6.444
10723SOL    HW133068   0.782   4.019   6.532
10723SOL    HW233069   0.716   4.149   6.459
10724SOL     OW33070   5.671   1.184   6.905
10724SOL    HW133071   5.734   1.209   6.978
10724SOL    HW233072   5.715   1.196   6.816
10725SOL     OW33073   0.987   4.681   5.091
10725SOL    HW133074   0.896   4.650   5.067
10725SOL    HW233075   0.989   4.711   5.186
10726SOL     OW33076   5.188   0.445   5.323
10726SOL    HW133077   5.268   0.504   5.313
10726SOL    HW233078   5.105   0.495   5.298
10727SOL     OW33079   0.276   4.835   4.637
10727SOL    HW133080   0.276   4.816   4.735
10727SOL    HW233081   0.228   4.762   4.588
10728SOL     OW33082   6.842   6.465   0.488
10728SOL    HW133083   6.764   6.527   0.496
10728SOL    HW233084   6.926   6.519   0.476
10729SOL     OW33085   5.783   1.250   2.198
10729SOL    HW133086   5.717   1.287   2.132
10729SOL    HW233087   5.741   1.175   2.248
10730SOL     OW33088   2.115   6.720   2.144
10730SOL    HW133089   2.027   6.740   2.101
10730SOL    HW233090   2.183   6.699   2.074
10731SOL     OW33091   3.203   6.229   0.659
10731SOL    HW133092   3.201   6.250   0.757
10731SOL    HW233093   3.186   6.131   0.645
10732SOL     OW33094   5.280   4.745   3.539
10732SOL    HW133095   5.276   4.822   3.603
10732SOL    HW233096   5.367   4.698   3.549
10733SOL     OW33097   5.524   2.150   0.025
10733SOL    HW133098   5.594   2.186   0.088
10733SOL    HW233099   5.568   2.119   6.964
10734SOL     OW33100   1.074   0.239   6.374
10734SOL    HW133101   1.098   0.325   6.328
10734SOL    HW233102   1.154   0.206   6.425
10735SOL     OW33103   1.581   3.679   2.881
10735SOL    HW133104   1.499   3.624   2.895
10735SOL    HW233105   1.637   3.638   2.809
10736SOL     OW33106   1.045   0.097   3.511
10736SOL    HW133107   1.041   0.052   3.601
10736SOL    HW233108   1.133   0.142   3.500
10737SOL     OW33109   1.437   2.452   6.617
10737SOL    HW133110   1.489   2.388   6.673
10737SOL    HW233111   1.366   2.402   6.567
10738SOL     OW33112   2.279   0.469   3.749
10738SOL    HW133113   2.310   0.547   3.695
10738SOL    HW233114   2.349   0.444   3.815
10739SOL     OW33115   0.533   1.460   0.772
10739SOL    HW133116   0.471   1.415   0.837
10739SOL    HW233117   0.505   1.438   0.679
10740SOL     OW33118   0.367   4.782   5.534
10740SOL    HW133119   0.397   4.688   5.519
10740SOL    HW233120   0.308   4.811   5.459
10741SOL     OW33121   0.425   0.351   2.268
10741SOL    HW133122   0.444   0.439   2.224
10741SOL    HW233123   0.473   0.347   2.356
10742SOL     OW33124   6.009   0.428   1.789
10742SOL    HW133125   6.035   0.522   1.766
10742SOL    HW233126   5.965   0.428   1.879
10743SOL     OW33127   3.173   2.509   5.627
10743SOL    HW133128   3.234   2.444   5.672
10743SOL    HW233129   3.089   2.518   5.680
10744SOL     OW33130   3.121   0.803   2.202
10744SOL    HW133131   3.182   0.775   2.128
10744SOL    HW233132   3.035   0.836   2.165
10745SOL     OW33133   0.915   5.164   0.723
10745SOL    HW133134   0.816   5.170   0.725
10745SOL    HW233135   0.948   5.174   0.629
10746SOL     OW33136   1.945   3.943   1.448
10746SOL    HW133137   1.918   3.904   1.536
10746SOL    HW233138   1.865   3.984   1.404
10747SOL     OW33139   4.455   0.775   3.294
10747SOL    HW133140   4.553   0.764   3.277
10747SOL    HW233141   4.440   0.799   3.390
10748SOL     OW33142   3.577   0.804   1.640
10748SOL    HW133143   3.497   0.857   1.611
10748SOL    HW233144   3.546   0.722   1.689
10749SOL     OW33145   6.885   5.053   3.583
10749SOL    HW133146   6.793   5.060   3.544
10749SOL    HW233147   6.883   5.083   3.678
10750SOL     OW33148   4.455   6.030   4.358
10750SOL    HW133149   4.365   6.059   4.389
10750SOL    HW233150   4.475   5.939   4.395
10751SOL     OW33151   1.519   4.550   4.352
10751SOL    HW133152   1.506   4.464   4.303
10751SOL    HW233153   1.578   4.534   4.431
10752SOL     OW33154   6.164   4.062   6.518
10752SOL    HW133155   6.187   4.151   6.558
10752SOL    HW233156   6.112   4.075   6.433
10753SOL     OW33157   3.866   6.456   4.411
10753SOL    HW133158   3.797   6.409   4.467
10753SOL    HW233159   3.879   6.548   4.447
10754SOL     OW33160   1.376   1.900   3.492
10754SOL    HW133161   1.388   1.893   3.591
10754SOL    HW233162   1.283   1.871   3.468
10755SOL     OW33163   0.640   1.758   6.411
10755SOL    HW133164   0.621   1.821   6.485
10755SOL    HW233165   0.559   1.745   6.355
10756SOL     OW33166   6.727   3.956   0.237
10756SOL    HW133167   6.740   3.909   0.325
10756SOL    HW233168   6.742   4.054   0.249
10757SOL     OW33169   0.940   2.846   0.399
10757SOL    HW133170   0.936   2.931   0.451
10757SOL    HW233171   1.035   2.821   0.383
10758SOL     OW33172   0.769   6.501   4.915
10758SOL    HW133173   0.692   6.483   4.853
10758SOL    HW233174   0.760   6.443   4.996
10759SOL     OW33175   1.639   3.112   6.949
10759SOL    HW133176   1.687   3.199   6.961
10759SOL    HW233177   1.621   3.071   0.016
10760SOL     OW33178   6.123   1.608   1.050
10760SOL    HW133179   6.062   1.567   1.118
10760SOL    HW233180   6.081   1.602   0.960
10761SOL     OW33181   1.001   1.745   6.529
10761SOL    HW133182   0.926   1.749   6.464
10761SOL    HW233183   1.066   1.818   6.509
10762SOL     OW33184   4.036   2.174   5.118
10762SOL    HW133185   4.087   2.260   5.108
10762SOL    HW233186   3.951   2.178   5.065
10763SOL     OW33187   4.389   6.356   1.452
10763SOL    HW133188   4.338   6.437   1.479
10763SOL    HW233189   4.410   6.361   1.354
10764SOL     OW33190   5.536   2.079   6.107
10764SOL    HW133191   5.534   1.981   6.084
10764SOL    HW233192   5.603   2.093   6.180
10765SOL     OW33193   5.859   2.606   0.675
10765SOL    HW133194   5.837   2.515   0.710
10765SOL    HW233195   5.775   2.659   0.663
10766SOL     OW33196   4.703   3.034   1.028
10766SOL    HW133197   4.671   2.978   0.951
10766SOL    HW233198   4.803   3.034   1.029
10767SOL     OW33199   0.877   0.240   0.210
10767SOL    HW133200   0.826   0.286   0.138
10767SOL    HW233201   0.926   0.307   0.266
10768SOL     OW33202   4.567   4.498   0.752
10768SOL    HW133203   4.554   4.547   0.838
10768SOL    HW233204   4.565   4.562   0.675
10769SOL     OW33205   2.507   4.928   4.794
10769SOL    HW133206   2.528   4.909   4.698
10769SOL    HW233207   2.423   4.983   4.800
10770SOL     OW33208   5.529   0.200   5.183
10770SOL    HW133209   5.453   0.148   5.144
10770SOL    HW233210   5.602   0.138   5.209
10771SOL     OW33211   4.939   1.158   3.180
10771SOL    HW133212   4.858   1.162   3.122
10771SOL    HW233213   4.931   1.225   3.254
10772SOL     OW33214   0.048   0.011   4.839
10772SOL    HW133215   0.015   0.097   4.799
10772SOL    HW233216   6.993   6.976   4.861
10773SOL     OW33217   0.103   5.718   0.128
10773SOL    HW133218   0.182   5.700   0.186
10773SOL    HW233219   0.051   5.634   0.115
10774SOL     OW33220   1.503   1.115   6.499
10774SOL    HW133221   1.428   1.161   6.548
10774SOL    HW233222   1.590   1.140   6.541
10775SOL     OW33223   0.685   3.508   1.314
10775SOL    HW133224   0.616   3.500   1.387
10775SOL    HW233225   0.770   3.544   1.353
10776SOL     OW33226   1.307   6.553   6.582
10776SOL    HW133227   1.377   6.591   6.641
10776SOL    HW233228   1.219   6.550   6.630
10777SOL     OW33229   3.733   5.784   3.134
10777SOL    HW133230   3.636   5.763   3.132
10777SOL    HW233231   3.746   5.884   3.133
10778SOL     OW33232   5.473   6.722   4.793
10778SOL    HW133233   5.374   6.731   4.782
10778SOL    HW233234   5.505   6.793   4.856
10779SOL     OW33235   6.411   4.997   3.500
10779SOL    HW133236   6.442   4.904   3.521
10779SOL    HW233237   6.311   5.000   3.504
10780SOL     OW33238   1.583   0.213   3.826
10780SOL    HW133239   1.585   0.240   3.730
10780SOL    HW233240   1.610   0.117   3.835
10781SOL     OW33241   4.215   0.527   3.556
10781SOL    HW133242   4.125   0.568   3.538
10781SOL    HW233243   4.251   0.562   3.642
10782SOL     OW33244   6.387   2.125   2.546
10782SOL    HW133245   6.310   2.149   2.605
10782SOL    HW233246   6.472   2.155   2.589
10783SOL     OW33247   0.639   3.427   3.246
10783SOL    HW133248   0.609   3.446   3.152
10783SOL    HW233249   0.604   3.499   3.307
10784SOL     OW33250   3.180   0.958   3.928
10784SOL    HW133251   3.240   0.992   3.856
10784SOL    HW233252   3.233   0.935   4.009
10785SOL     OW33253   0.083   5.579   1.694
10785SOL    HW133254   0.120   5.502   1.643
10785SOL    HW233255   0.157   5.624   1.745
10786SOL     OW33256   5.081   5.061   2.620
10786SOL    HW133257   5.034   5.133   2.670
10786SOL    HW233258   5.047   5.057   2.526
10787SOL     OW33259   2.562   1.660   4.597
10787SOL    HW133260   2.533   1.572   4.636
10787SOL    HW233261   2.538   1.663   4.500
10788SOL     OW33262   2.281   5.458   6.364
10788SOL    HW133263   2.365   5.406   6.357
10788SOL    HW233264   2.293   5.548   6.323
10789SOL     OW33265   6.346   2.782   6.498
10789SOL    HW133266   6.444   2.762   6.496
10789SOL    HW233267   6.310   2.766   6.590
10790SOL     OW33268   1.589   1.273   2.448
10790SOL    HW133269   1.645   1.350   2.416
10790SOL    HW233270   1.606   1.193   2.389
10791SOL     OW33271   0.617   6.784   0.102
10791SOL    HW133272   0.535   6.837   0.125
10791SOL    HW233273   0.589   6.697   0.062
10792SOL     OW33274   3.175   3.454   3.363
10792SOL    HW133275   3.160   3.470   3.265
10792SOL    HW233276   3.223   3.533   3.402
10793SOL     OW33277   5.549   3.008   4.290
10793SOL    HW133278   5.489   3.039   4.217
10793SOL    HW233279   5.510   3.035   4.379
10794SOL     OW33280   2.970   3.907   3.707
10794SOL    HW133281   2.923   3.982   3.753
10794SOL    HW233282   2.964   3.825   3.762
10795SOL     OW33283   6.983   4.414   2.817
10795SOL    HW133284   7.014   4.412   2.722
10795SOL    HW233285   0.039   4.415   2.878
10796SOL     OW33286   5.615   6.845   0.722
10796SOL    HW133287   5.681   6.784   0.678
10796SOL    HW233288   5.621   6.936   0.681
10797SOL     OW33289   4.155   2.036   1.767
10797SOL    HW133290   4.104   2.120   1.781
10797SOL    HW233291   4.146   2.007   1.671
10798SOL     OW33292   3.095   6.429   0.230
10798SOL    HW133293   3.059   6.351   0.281
10798SOL    HW233294   3.190   6.411   0.204
10799SOL     OW33295   3.822   0.704   2.559
10799SOL    HW133296   3.760   0.630   2.586
10799SOL    HW233297   3.784   0.792   2.587
10800SOL     OW33298   0.658   6.333   6.524
10800SOL    HW133299   0.603   6.416   6.530
10800SOL    HW233300   0.693   6.309   6.614
10801SOL     OW33301   0.575   6.056   6.347
10801SOL    HW133302   0.604   6.021   6.258
10801SOL    HW233303   0.655   6.083   6.401
10802SOL     OW33304   0.677   2.264   3.195
10802SOL    HW133305   0.727   2.329   3.137
10802SOL    HW233306   0.683   2.293   3.291
10803SOL     OW33307   2.995   3.657   5.866
10803SOL    HW133308   2.969   3.731   5.803
10803SOL    HW233309   2.973   3.569   5.825
10804SOL     OW33310   5.952   3.919   2.060
10804SOL    HW133311   5.917   4.000   2.011
10804SOL    HW233312   6.052   3.924   2.063
10805SOL     OW33313   3.936   0.172   6.942
10805SOL    HW133314   3.864   0.102   6.946
10805SOL    HW233315   4.016   0.135   6.893
10806SOL     OW33316   4.593   3.636   6.290
10806SOL    HW133317   4.560   3.544   6.269
10806SOL    HW233318   4.683   3.630   6.333
10807SOL     OW33319   1.316   6.920   1.974
10807SOL    HW133320   1.306   7.015   2.005
10807SOL    HW233321   1.405   6.909   1.931
10808SOL     OW33322   6.683   2.948   6.224
10808SOL    HW133323   6.603   2.892   6.202
10808SOL    HW233324   6.684   3.029   6.167
10809SOL     OW33325   2.910   5.951   3.477
10809SOL    HW133326   2.971   5.900   3.415
10809SOL    HW233327   2.955   5.963   3.565
10810SOL     OW33328   1.920   0.416   4.936
10810SOL    HW133329   2.011   0.373   4.937
10810SOL    HW233330   1.891   0.430   4.842
10811SOL     OW33331   4.032   4.531   5.719
10811SOL    HW133332   4.123   4.545   5.757
10811SOL    HW233333   4.037   4.532   5.619
10812SOL     OW33334   1.047   3.385   1.482
10812SOL    HW133335   1.059   3.323   1.404
10812SOL    HW233336   1.127   3.382   1.541
10813SOL     OW33337   2.234   4.933   6.488
10813SOL    HW133338   2.296   4.945   6.410
10813SOL    HW233339   2.212   5.023   6.527
10814SOL     OW33340   1.655   6.823   6.373
10814SOL    HW133341   1.689   6.914   6.352
10814SOL    HW233342   1.585   6.798   6.306
10815SOL     OW33343   4.069   4.918   3.886
10815SOL    HW133344   4.040   4.859   3.811
10815SOL    HW233345   4.143   4.978   3.855
10816SOL     OW33346   2.802   3.181   1.134
10816SOL    HW133347   2.749   3.137   1.061
10816SOL    HW233348   2.753   3.175   1.220
10817SOL     OW33349   4.797   6.637   3.070
10817SOL    HW133350   4.861   6.669   3.140
10817SOL    HW233351   4.740   6.714   3.039
10818SOL     OW33352   4.188   4.709   5.427
10818SOL    HW133353   4.159   4.614   5.437
10818SOL    HW233354   4.136   4.767   5.490
10819SOL     OW33355   6.816   4.500   0.098
10819SOL    HW133356   6.866   4.578   0.059
10819SOL    HW233357   6.868   4.416   0.083
10820SOL     OW33358   6.183   5.873   4.065
10820SOL    HW133359   6.085   5.857   4.073
10820SOL    HW233360   6.202   5.971   4.074
10821SOL     OW33361   5.656   0.304   2.146
10821SOL    HW133362   5.704   0.274   2.228
10821SOL    HW233363   5.560   0.275   2.151
10822SOL     OW33364   6.917   2.863   2.842
10822SOL    HW133365   6.884   2.935   2.903
10822SOL    HW233366   7.016   2.869   2.834
10823SOL     OW33367   1.830   5.909   1.717
10823SOL    HW133368   1.792   5.971   1.785
10823SOL    HW233369   1.757   5.857   1.674
10824SOL     OW33370   6.868   0.588   3.528
10824SOL    HW133371   6.866   0.533   3.612
10824SOL    HW233372   6.786   0.569   3.474
10825SOL     OW33373   2.492   0.803   6.417
10825SOL    HW133374   2.398   0.821   6.390
10825SOL    HW233375   2.535   0.888   6.447
10826SOL     OW33376   1.466   2.554   3.573
10826SOL    HW133377   1.476   2.653   3.564
10826SOL    HW233378   1.552   2.510   3.545
10827SOL     OW33379   5.727   3.687   4.465
10827SOL    HW133380   5.652   3.696   4.400
10827SOL    HW233381   5.692   3.660   4.554
10828SOL     OW33382   0.893   5.664   1.643
10828SOL    HW133383   0.801   5.698   1.623
10828SOL    HW233384   0.955   5.689   1.568
10829SOL     OW33385   3.972   2.599   1.048
10829SOL    HW133386   3.877   2.579   1.022
10829SOL    HW233387   3.973   2.638   1.140
10830SOL     OW33388   5.554   2.086   2.964
10830SOL    HW133389   5.569   2.140   3.047
10830SOL    HW233390   5.567   1.989   2.984
10831SOL     OW33391   4.043   5.431   2.558
10831SOL    HW133392   4.097   5.347   2.542
10831SOL    HW233393   3.979   5.415   2.633
10832SOL     OW33394   1.239   2.970   0.120
10832SOL    HW133395   1.244   2.938   0.214
10832SOL    HW233396   1.273   2.898   0.059
10833SOL     OW33397   1.896   0.884   2.102
10833SOL    HW133398   1.874   0.803   2.047
10833SOL    HW233399   1.988   0.873   2.141
10834SOL     OW33400   0.933   2.454   6.397
10834SOL    HW133401   0.901   2.370   6.441
10834SOL    HW233402   0.915   2.450   6.299
10835SOL     OW33403   6.308   1.902   6.813
10835SOL    HW133404   6.377   1.901   6.886
10835SOL    HW233405   6.225   1.947   6.846
10836SOL     OW33406   6.752   1.813   4.890
10836SOL    HW133407   6.742   1.765   4.977
10836SOL    HW233408   6.717   1.755   4.816
10837SOL     OW33409   6.772   4.907   0.789
10837SOL    HW133410   6.705   4.833   0.794
10837SOL    HW233411   6.727   4.991   0.759
10838SOL     OW33412   4.861   6.214   4.885
10838SOL    HW133413   4.875   6.143   4.816
10838SOL    HW233414   4.934   6.209   4.953
10839SOL     OW33415   4.436   3.058   1.662
10839SOL    HW133416   4.444   2.962   1.636
10839SOL    HW233417   4.495   3.076   1.741
10840SOL     OW33418   3.023   5.732   2.358
10840SOL    HW133419   3.083   5.740   2.278
10840SOL    HW233420   3.006   5.635   2.377
10841SOL     OW33421   5.587   5.628   0.050
10841SOL    HW133422   5.615   5.723   0.036
10841SOL    HW233423   5.493   5.616   0.018
10842SOL     OW33424   4.776   2.335   1.899
10842SOL    HW133425   4.841   2.296   1.833
10842SOL    HW233426   4.687   2.291   1.887
10843SOL     OW33427   1.478   2.848   1.469
10843SOL    HW133428   1.478   2.910   1.548
10843SOL    HW233429   1.570   2.845   1.428
10844SOL     OW33430   0.098   0.020   3.824
10844SOL    HW133431   0.122   0.033   3.728
10844SOL    HW233432   0.151   0.083   3.880
10845SOL     OW33433   3.468   0.226   4.922
10845SOL    HW133434   3.452   0.265   4.831
10845SOL    HW233435   3.486   0.300   4.987
10846SOL     OW33436   4.741   1.485   0.729
10846SOL    HW133437   4.645   1.457   0.736
10846SOL    HW233438   4.796   1.431   0.793
10847SOL     OW33439   3.571   3.331   6.411
10847SOL    HW133440   3.518   3.252   6.443
10847SOL    HW233441   3.509   3.398   6.371
10848SOL     OW33442   2.960   3.513   6.731
10848SOL    HW133443   2.872   3.499   6.686
10848SOL    HW233444   3.019   3.434   6.713
10849SOL     OW33445   2.465   6.107   2.618
10849SOL    HW133446   2.388   6.091   2.679
10849SOL    HW233447   2.462   6.201   2.584
10850SOL     OW33448   3.261   4.597   6.386
10850SOL    HW133449   3.262   4.506   6.427
10850SOL    HW233450   3.289   4.590   6.290
10851SOL     OW33451   2.002   3.037   6.712
10851SOL    HW133452   1.909   3.051   6.679
10851SOL    HW233453   2.008   3.061   6.809
10852SOL     OW33454   1.145   0.254   6.863
10852SOL    HW133455   1.080   0.185   6.895
10852SOL    HW233456   1.229   0.209   6.834
10853SOL     OW33457   2.515   1.774   5.796
10853SOL    HW133458   2.520   1.851   5.860
10853SOL    HW233459   2.605   1.755   5.759
10854SOL     OW33460   4.259   5.445   5.287
10854SOL    HW133461   4.159   5.448   5.284
10854SOL    HW233462   4.295   5.536   5.308
10855SOL     OW33463   3.050   6.832   0.914
10855SOL    HW133464   3.097   6.900   0.858
10855SOL    HW233465   3.117   6.771   0.956
10856SOL     OW33466   5.888   2.024   0.811
10856SOL    HW133467   5.793   2.017   0.842
10856SOL    HW233468   5.894   2.095   0.742
10857SOL     OW33469   6.476   2.731   2.209
10857SOL    HW133470   6.502   2.660   2.143
10857SOL    HW233471   6.378   2.725   2.228
10858SOL     OW33472   0.477   2.015   6.032
10858SOL    HW133473   0.525   1.931   6.008
10858SOL    HW233474   0.528   2.093   5.996
10859SOL     OW33475   2.115   3.509   4.079
10859SOL    HW133476   2.131   3.410   4.083
10859SOL    HW233477   2.132   3.549   4.170
10860SOL     OW33478   6.588   1.654   5.893
10860SOL    HW133479   6.534   1.715   5.834
10860SOL    HW233480   6.677   1.696   5.910
10861SOL     OW33481   3.709   3.146   2.717
10861SOL    HW133482   3.654   3.121   2.638
10861SOL    HW233483   3.803   3.164   2.688
10862SOL     OW33484   2.182   1.836   6.257
10862SOL    HW133485   2.208   1.898   6.330
10862SOL    HW233486   2.209   1.743   6.281
10863SOL     OW33487   3.888   0.523   3.732
10863SOL    HW133488   3.820   0.595   3.738
10863SOL    HW233489   3.973   0.554   3.774
10864SOL     OW33490   3.128   5.098   0.636
10864SOL    HW133491   3.084   5.134   0.719
10864SOL    HW233492   3.135   4.998   0.643
10865SOL     OW33493   6.726   1.507   2.601
10865SOL    HW133494   6.715   1.413   2.569
10865SOL    HW233495   6.806   1.548   2.556
10866SOL     OW33496   5.560   4.948   6.930
10866SOL    HW133497   5.465   4.921   6.917
10866SOL    HW233498   5.572   5.044   6.904
10867SOL     OW33499   3.351   3.803   0.465
10867SOL    HW133500   3.295   3.724   0.440
10867SOL    HW233501   3.298   3.866   0.520
10868SOL     OW33502   3.328   2.149   3.658
10868SOL    HW133503   3.236   2.109   3.650
10868SOL    HW233504   3.320   2.244   3.689
10869NA      NA33505   0.143   2.087   5.635
10870NA      NA33506   4.330   4.655   5.235
10871NA      NA33507   1.793   3.989   2.591
10872NA      NA33508   4.907   4.238   4.014
10873NA      NA33509   4.357   2.406   5.213
10874NA      NA33510   3.166   4.885   1.731
10875NA      NA33511   0.077   4.622   0.486
10876NA      NA33512   3.174   3.208   3.349
10877NA      NA33513   5.059   5.439   1.233
10878NA      NA33514   3.672   6.367   5.464
10879NA      NA33515   6.088   5.433   1.728
10880NA      NA33516   2.227   0.996   4.695
10881NA      NA33517   3.903   5.112   1.837
10882NA      NA33518   3.889   3.451   1.540
   7.02313   7.02313   7.02313
