Generated by trjconv : CNT in water t= 497.00000
33518
    1C        C    1   2.849   2.768   4.745
    1C        C    2   2.902   2.720   4.866
    1C        C    3   2.848   2.772   4.985
    1C        C    4   2.851   2.773   4.258
    1C        C    5   2.900   2.724   4.381
    1C        C    6   2.848   2.771   4.503
    1C        C    7   3.015   2.635   4.625
    1C        C    8   2.901   2.718   4.623
    1C        C    9   3.078   2.603   4.747
    1C        C   10   3.010   2.629   4.868
    1C        C   11   3.182   2.485   4.976
    1C        C   12   3.065   2.563   4.978
    1C        C   13   2.855   2.774   3.768
    1C        C   14   2.907   2.729   3.891
    1C        C   15   2.855   2.778   4.013
    1C        C   16   3.019   2.644   4.136
    1C        C   17   2.906   2.729   4.136
    1C        C   18   3.081   2.612   4.259
    1C        C   19   3.019   2.647   4.380
    1C        C   20   3.209   2.553   4.503
    1C        C   21   3.078   2.606   4.502
    1C        C   22   3.278   2.533   4.625
    1C        C   23   3.209   2.547   4.748
    1C        C   24   3.414   2.481   4.865
    1C        C   25   3.272   2.500   4.866
    1C        C   26   3.491   2.483   4.982
    1C        C   27   2.858   2.776   3.282
    1C        C   28   2.911   2.729   3.404
    1C        C   29   2.858   2.778   3.526
    1C        C   30   3.022   2.641   3.649
    1C        C   31   2.912   2.729   3.647
    1C        C   32   3.076   2.597   3.772
    1C        C   33   3.016   2.639   3.893
    1C        C   34   3.207   2.546   4.015
    1C        C   35   3.076   2.601   4.015
    1C        C   36   3.276   2.528   4.137
    1C        C   37   3.209   2.552   4.259
    1C        C   38   3.416   2.505   4.380
    1C        C   39   3.277   2.531   4.381
    1C        C   40   3.486   2.498   4.502
    1C        C   41   3.416   2.504   4.625
    1C        C   42   3.630   2.477   4.741
    1C        C   43   3.488   2.479   4.744
    1C        C   44   3.705   2.480   4.860
    1C        C   45   3.630   2.486   4.978
    1C        C   46   2.843   2.757   2.792
    1C        C   47   2.899   2.715   2.915
    1C        C   48   2.851   2.768   3.037
    1C        C   49   3.018   2.639   3.160
    1C        C   50   2.904   2.722   3.160
    1C        C   51   3.081   2.602   3.281
    1C        C   52   3.024   2.644   3.403
    1C        C   53   3.207   2.542   3.525
    1C        C   54   3.081   2.604   3.526
    1C        C   55   3.272   2.518   3.648
    1C        C   56   3.204   2.537   3.770
    1C        C   57   3.413   2.503   3.892
    1C        C   58   3.274   2.524   3.892
    1C        C   59   3.485   2.493   4.013
    1C        C   60   3.414   2.500   4.135
    1C        C   61   3.627   2.491   4.258
    1C        C   62   3.485   2.495   4.257
    1C        C   63   3.699   2.501   4.379
    1C        C   64   3.627   2.497   4.500
    1C        C   65   3.837   2.539   4.619
    1C        C   66   3.701   2.499   4.621
    1C        C   67   3.906   2.555   4.741
    1C        C   68   3.839   2.523   4.862
    1C        C   69   4.052   2.584   4.977
    1C        C   70   3.923   2.529   4.974
    1C        C   71   2.829   2.739   2.307
    1C        C   72   2.886   2.696   2.429
    1C        C   73   2.837   2.748   2.551
    1C        C   74   3.011   2.625   2.670
    1C        C   75   2.895   2.704   2.672
    1C        C   76   3.073   2.593   2.793
    1C        C   77   3.013   2.631   2.915
    1C        C   78   3.203   2.537   3.035
    1C        C   79   3.077   2.601   3.037
    1C        C   80   3.272   2.516   3.156
    1C        C   81   3.210   2.544   3.280
    1C        C   82   3.414   2.493   3.402
    1C        C   83   3.275   2.518   3.403
    1C        C   84   3.483   2.492   3.525
    1C        C   85   3.411   2.494   3.647
    1C        C   86   3.624   2.495   3.768
    1C        C   87   3.483   2.494   3.769
    1C        C   88   3.694   2.503   3.890
    1C        C   89   3.626   2.497   4.013
    1C        C   90   3.832   2.543   4.132
    1C        C   91   3.696   2.503   4.136
    1C        C   92   3.898   2.571   4.254
    1C        C   93   3.835   2.540   4.377
    1C        C   94   4.027   2.634   4.497
    1C        C   95   3.903   2.567   4.497
    1C        C   96   4.089   2.671   4.619
    1C        C   97   4.027   2.629   4.739
    1C        C   98   4.186   2.766   4.860
    1C        C   99   4.096   2.654   4.860
    1C        C  100   4.206   2.843   4.975
    1C        C  101   2.822   2.728   2.068
    1C        C  102   2.987   2.588   2.189
    1C        C  103   2.878   2.680   2.187
    1C        C  104   3.062   2.571   2.308
    1C        C  105   3.002   2.615   2.429
    1C        C  106   3.200   2.528   2.546
    1C        C  107   3.072   2.586   2.548
    1C        C  108   3.268   2.511   2.668
    1C        C  109   3.204   2.540   2.791
    1C        C  110   3.408   2.485   2.914
    1C        C  111   3.269   2.511   2.913
    1C        C  112   3.482   2.480   3.034
    1C        C  113   3.410   2.486   3.156
    1C        C  114   3.622   2.492   3.279
    1C        C  115   3.481   2.482   3.278
    1C        C  116   3.694   2.502   3.401
    1C        C  117   3.624   2.494   3.524
    1C        C  118   3.831   2.539   3.645
    1C        C  119   3.695   2.502   3.646
    1C        C  120   3.897   2.565   3.767
    1C        C  121   3.830   2.542   3.889
    1C        C  122   4.019   2.642   4.011
    1C        C  123   3.898   2.570   4.010
    1C        C  124   4.081   2.680   4.132
    1C        C  125   4.021   2.641   4.254
    1C        C  126   4.192   2.768   4.376
    1C        C  127   4.082   2.679   4.375
    1C        C  128   4.241   2.821   4.497
    1C        C  129   4.192   2.768   4.618
    1C        C  130   4.323   2.935   4.739
    1C        C  131   4.242   2.818   4.740
    1C        C  132   4.353   3.004   4.858
    1C        C  133   4.286   2.956   4.972
    1C        C  134   3.169   2.466   2.079
    1C        C  135   3.034   2.503   2.083
    1C        C  136   3.258   2.484   2.185
    1C        C  137   3.193   2.515   2.306
    1C        C  138   3.406   2.471   2.428
    1C        C  139   3.267   2.497   2.425
    1C        C  140   3.478   2.473   2.549
    1C        C  141   3.407   2.486   2.671
    1C        C  142   3.620   2.490   2.789
    1C        C  143   3.479   2.479   2.792
    1C        C  144   3.689   2.506   2.911
    1C        C  145   3.623   2.491   3.035
    1C        C  146   3.829   2.539   3.154
    1C        C  147   3.693   2.501   3.157
    1C        C  148   3.895   2.564   3.276
    1C        C  149   3.830   2.538   3.399
    1C        C  150   4.022   2.628   3.521
    1C        C  151   3.896   2.565   3.522
    1C        C  152   4.080   2.669   3.643
    1C        C  153   4.019   2.636   3.766
    1C        C  154   4.190   2.764   3.886
    1C        C  155   4.079   2.677   3.888
    1C        C  156   4.243   2.813   4.008
    1C        C  157   4.193   2.766   4.131
    1C        C  158   4.338   2.921   4.251
    1C        C  159   4.245   2.815   4.254
    1C        C  160   4.378   2.982   4.372
    1C        C  161   4.332   2.929   4.495
    1C        C  162   4.431   3.117   4.614
    1C        C  163   4.362   2.994   4.617
    1C        C  164   4.471   3.180   4.734
    1C        C  165   4.430   3.123   4.856
    1C        C  166   4.508   3.322   4.970
    1C        C  167   4.475   3.187   4.972
    1C        C  168   3.472   2.434   2.070
    1C        C  169   3.397   2.457   2.186
    1C        C  170   3.616   2.466   2.306
    1C        C  171   3.474   2.458   2.305
    1C        C  172   3.692   2.479   2.424
    1C        C  173   3.619   2.480   2.544
    1C        C  174   3.826   2.532   2.663
    1C        C  175   3.689   2.496   2.666
    1C        C  176   3.892   2.557   2.785
    1C        C  177   3.827   2.535   2.908
    1C        C  178   4.016   2.631   3.029
    1C        C  179   3.894   2.560   3.030
    1C        C  180   4.077   2.667   3.151
    1C        C  181   4.020   2.628   3.275
    1C        C  182   4.188   2.755   3.396
    1C        C  183   4.080   2.664   3.397
    1C        C  184   4.245   2.801   3.517
    1C        C  185   4.192   2.755   3.640
    1C        C  186   4.335   2.914   3.762
    1C        C  187   4.241   2.809   3.762
    1C        C  188   4.373   2.977   3.882
    1C        C  189   4.333   2.921   4.006
    1C        C  190   4.442   3.104   4.128
    1C        C  191   4.374   2.979   4.128
    1C        C  192   4.471   3.172   4.248
    1C        C  193   4.441   3.109   4.371
    1C        C  194   4.506   3.314   4.490
    1C        C  195   4.463   3.179   4.491
    1C        C  196   4.526   3.386   4.610
    1C        C  197   4.512   3.316   4.732
    1C        C  198   4.555   3.533   4.849
    1C        C  199   4.529   3.392   4.850
    1C        C  200   4.584   3.620   4.959
    1C        C  201   3.612   2.420   2.071
    1C        C  202   3.823   2.511   2.182
    1C        C  203   3.689   2.460   2.184
    1C        C  204   3.896   2.542   2.300
    1C        C  205   3.828   2.518   2.421
    1C        C  206   4.020   2.617   2.543
    1C        C  207   3.894   2.554   2.541
    1C        C  208   4.080   2.657   2.665
    1C        C  209   4.018   2.621   2.786
    1C        C  210   4.191   2.749   2.907
    1C        C  211   4.078   2.665   2.906
    1C        C  212   4.243   2.800   3.028
    1C        C  213   4.190   2.751   3.150
    1C        C  214   4.331   2.909   3.271
    1C        C  215   4.238   2.803   3.273
    1C        C  216   4.372   2.968   3.393
    1C        C  217   4.331   2.913   3.516
    1C        C  218   4.426   3.102   3.637
    1C        C  219   4.369   2.973   3.638
    1C        C  220   4.459   3.168   3.758
    1C        C  221   4.435   3.105   3.882
    1C        C  222   4.503   3.304   4.001
    1C        C  223   4.467   3.168   4.005
    1C        C  224   4.514   3.378   4.121
    1C        C  225   4.505   3.309   4.244
    1C        C  226   4.525   3.521   4.364
    1C        C  227   4.519   3.380   4.366
    1C        C  228   4.521   3.596   4.484
    1C        C  229   4.525   3.527   4.607
    1C        C  230   4.504   3.741   4.724
    1C        C  231   4.536   3.603   4.726
    1C        C  232   4.493   3.818   4.842
    1C        C  233   4.541   3.753   4.956
    1C        C  234   4.014   2.610   2.059
    1C        C  235   3.890   2.548   2.064
    1C        C  236   4.082   2.646   2.176
    1C        C  237   4.023   2.607   2.298
    1C        C  238   4.197   2.731   2.420
    1C        C  239   4.080   2.651   2.420
    1C        C  240   4.248   2.783   2.541
    1C        C  241   4.191   2.744   2.664
    1C        C  242   4.341   2.898   2.781
    1C        C  243   4.245   2.796   2.785
    1C        C  244   4.381   2.957   2.903
    1C        C  245   4.336   2.906   3.027
    1C        C  246   4.438   3.091   3.148
    1C        C  247   4.376   2.964   3.149
    1C        C  248   4.460   3.160   3.269
    1C        C  249   4.435   3.094   3.392
    1C        C  250   4.496   3.299   3.510
    1C        C  251   4.456   3.163   3.514
    1C        C  252   4.506   3.369   3.632
    1C        C  253   4.498   3.304   3.758
    1C        C  254   4.521   3.515   3.874
    1C        C  255   4.516   3.374   3.879
    1C        C  256   4.517   3.587   3.995
    1C        C  257   4.515   3.519   4.119
    1C        C  258   4.488   3.729   4.239
    1C        C  259   4.513   3.590   4.241
    1C        C  260   4.469   3.801   4.359
    1C        C  261   4.489   3.733   4.481
    1C        C  262   4.426   3.938   4.602
    1C        C  263   4.475   3.806   4.602
    1C        C  264   4.397   4.011   4.720
    1C        C  265   4.437   3.948   4.839
    1C        C  266   4.322   4.132   4.957
    1C        C  267   4.395   4.014   4.955
    1C        C  268   4.261   2.773   2.064
    1C        C  269   4.197   2.728   2.181
    1C        C  270   4.345   2.887   2.298
    1C        C  271   4.254   2.778   2.300
    1C        C  272   4.382   2.951   2.418
    1C        C  273   4.336   2.894   2.539
    1C        C  274   4.450   3.079   2.659
    1C        C  275   4.381   2.956   2.658
    1C        C  276   4.473   3.148   2.780
    1C        C  277   4.447   3.082   2.903
    1C        C  278   4.504   3.288   3.021
    1C        C  279   4.469   3.151   3.024
    1C        C  280   4.514   3.361   3.142
    1C        C  281   4.496   3.297   3.266
    1C        C  282   4.514   3.509   3.386
    1C        C  283   4.507   3.368   3.387
    1C        C  284   4.511   3.581   3.507
    1C        C  285   4.516   3.510   3.629
    1C        C  286   4.494   3.722   3.751
    1C        C  287   4.516   3.583   3.750
    1C        C  288   4.470   3.791   3.872
    1C        C  289   4.488   3.726   3.996
    1C        C  290   4.419   3.929   4.115
    1C        C  291   4.471   3.797   4.116
    1C        C  292   4.389   3.995   4.236
    1C        C  293   4.419   3.933   4.359
    1C        C  294   4.327   4.125   4.475
    1C        C  295   4.395   4.002   4.480
    1C        C  296   4.284   4.187   4.595
    1C        C  297   4.323   4.133   4.719
    1C        C  298   4.199   4.313   4.834
    1C        C  299   4.281   4.197   4.839
    1C        C  300   4.162   4.393   4.947
    1C        C  301   4.347   2.882   2.059
    1C        C  302   4.467   3.065   2.173
    1C        C  303   4.394   2.942   2.176
    1C        C  304   4.479   3.139   2.294
    1C        C  305   4.450   3.075   2.416
    1C        C  306   4.510   3.281   2.535
    1C        C  307   4.480   3.143   2.537
    1C        C  308   4.516   3.354   2.656
    1C        C  309   4.506   3.285   2.779
    1C        C  310   4.518   3.499   2.896
    1C        C  311   4.517   3.358   2.899
    1C        C  312   4.512   3.571   3.018
    1C        C  313   4.517   3.503   3.142
    1C        C  314   4.484   3.715   3.259
    1C        C  315   4.510   3.577   3.262
    1C        C  316   4.467   3.786   3.381
    1C        C  317   4.484   3.720   3.504
    1C        C  318   4.423   3.920   3.626
    1C        C  319   4.473   3.788   3.628
    1C        C  320   4.391   3.987   3.747
    1C        C  321   4.422   3.924   3.869
    1C        C  322   4.315   4.108   3.989
    1C        C  323   4.391   3.989   3.990
    1C        C  324   4.276   4.170   4.110
    1C        C  325   4.325   4.121   4.233
    1C        C  326   4.186   4.285   4.349
    1C        C  327   4.284   4.183   4.353
    1C        C  328   4.133   4.334   4.470
    1C        C  329   4.186   4.289   4.593
    1C        C  330   4.024   4.435   4.711
    1C        C  331   4.139   4.351   4.711
    1C        C  332   3.967   4.488   4.829
    1C        C  333   4.049   4.476   4.942
    1C        C  334   4.552   3.266   2.062
    1C        C  335   4.528   3.128   2.059
    1C        C  336   4.535   3.347   2.175
    1C        C  337   4.511   3.277   2.295
    1C        C  338   4.519   3.494   2.410
    1C        C  339   4.516   3.353   2.414
    1C        C  340   4.521   3.568   2.531
    1C        C  341   4.521   3.495   2.652
    1C        C  342   4.486   3.707   2.773
    1C        C  343   4.514   3.568   2.773
    1C        C  344   4.471   3.778   2.894
    1C        C  345   4.490   3.710   3.016
    1C        C  346   4.422   3.916   3.135
    1C        C  347   4.469   3.782   3.136
    1C        C  348   4.393   3.982   3.257
    1C        C  349   4.423   3.920   3.380
    1C        C  350   4.317   4.102   3.500
    1C        C  351   4.393   3.983   3.503
    1C        C  352   4.270   4.159   3.620
    1C        C  353   4.312   4.104   3.744
    1C        C  354   4.173   4.264   3.865
    1C        C  355   4.270   4.162   3.866
    1C        C  356   4.120   4.315   3.986
    1C        C  357   4.176   4.269   4.108
    1C        C  358   4.011   4.406   4.227
    1C        C  359   4.128   4.326   4.228
    1C        C  360   3.952   4.445   4.349
    1C        C  361   4.017   4.415   4.471
    1C        C  362   3.827   4.515   4.590
    1C        C  363   3.958   4.464   4.589
    1C        C  364   3.760   4.542   4.711
    1C        C  365   3.836   4.538   4.830
    1C        C  366   3.629   4.586   4.947
    1C        C  367   3.766   4.566   4.949
    1C        C  368   4.504   3.558   2.050
    1C        C  369   4.521   3.487   2.169
    1C        C  370   4.505   3.705   2.286
    1C        C  371   4.520   3.565   2.288
    1C        C  372   4.485   3.776   2.407
    1C        C  373   4.497   3.707   2.530
    1C        C  374   4.427   3.909   2.646
    1C        C  375   4.476   3.776   2.651
    1C        C  376   4.400   3.976   2.767
    1C        C  377   4.428   3.912   2.890
    1C        C  378   4.316   4.095   3.009
    1C        C  379   4.392   3.976   3.011
    1C        C  380   4.275   4.155   3.131
    1C        C  381   4.314   4.099   3.254
    1C        C  382   4.177   4.259   3.376
    1C        C  383   4.275   4.158   3.377
    1C        C  384   4.119   4.307   3.496
    1C        C  385   4.173   4.261   3.618
    1C        C  386   4.006   4.389   3.740
    1C        C  387   4.122   4.309   3.741
    1C        C  388   3.946   4.431   3.861
    1C        C  389   4.005   4.397   3.985
    1C        C  390   3.816   4.493   4.106
    1C        C  391   3.947   4.441   4.106
    1C        C  392   3.749   4.514   4.228
    1C        C  393   3.821   4.497   4.349
    1C        C  394   3.615   4.552   4.473
    1C        C  395   3.754   4.528   4.469
    1C        C  396   3.545   4.565   4.595
    1C        C  397   3.620   4.562   4.714
    1C        C  398   3.408   4.541   4.837
    1C        C  399   3.547   4.569   4.835
    1C        C  400   3.337   4.515   4.955
    1C        C  401   4.501   3.697   2.052
    1C        C  402   4.450   3.912   2.166
    1C        C  403   4.496   3.778   2.166
    1C        C  404   4.408   3.976   2.285
    1C        C  405   4.438   3.909   2.406
    1C        C  406   4.322   4.093   2.521
    1C        C  407   4.402   3.976   2.525
    1C        C  408   4.275   4.145   2.644
    1C        C  409   4.315   4.090   2.767
    1C        C  410   4.173   4.251   2.886
    1C        C  411   4.272   4.150   2.887
    1C        C  412   4.120   4.295   3.009
    1C        C  413   4.176   4.255   3.133
    1C        C  414   4.001   4.379   3.251
    1C        C  415   4.120   4.302   3.254
    1C        C  416   3.939   4.413   3.373
    1C        C  417   3.998   4.380   3.498
    1C        C  418   3.807   4.472   3.617
    1C        C  419   3.937   4.417   3.620
    1C        C  420   3.746   4.506   3.739
    1C        C  421   3.814   4.481   3.861
    1C        C  422   3.610   4.535   3.985
    1C        C  423   3.748   4.509   3.982
    1C        C  424   3.540   4.542   4.108
    1C        C  425   3.612   4.546   4.230
    1C        C  426   3.401   4.552   4.355
    1C        C  427   3.542   4.559   4.352
    1C        C  428   3.331   4.549   4.478
    1C        C  429   3.403   4.562   4.598
    1C        C  430   3.193   4.511   4.723
    1C        C  431   3.332   4.542   4.718
    1C        C  432   3.120   4.496   4.844
    1C        C  433   3.200   4.489   4.958
    1C        C  434   4.380   4.116   2.049
    1C        C  435   4.450   3.995   2.053
    1C        C  436   4.300   4.160   2.158
    1C        C  437   4.328   4.093   2.281
    1C        C  438   4.175   4.246   2.400
    1C        C  439   4.278   4.149   2.400
    1C        C  440   4.121   4.292   2.522
    1C        C  441   4.179   4.249   2.643
    1C        C  442   4.000   4.370   2.765
    1C        C  443   4.121   4.296   2.763
    1C        C  444   3.941   4.411   2.886
    1C        C  445   4.004   4.376   3.007
    1C        C  446   3.810   4.467   3.128
    1C        C  447   3.940   4.411   3.128
    1C        C  448   3.744   4.493   3.250
    1C        C  449   3.810   4.471   3.373
    1C        C  450   3.605   4.531   3.496
    1C        C  451   3.742   4.499   3.494
    1C        C  452   3.538   4.546   3.620
    1C        C  453   3.608   4.539   3.743
    1C        C  454   3.396   4.545   3.864
    1C        C  455   3.537   4.546   3.865
    1C        C  456   3.329   4.535   3.987
    1C        C  457   3.399   4.541   4.110
    1C        C  458   3.193   4.502   4.235
    1C        C  459   3.331   4.535   4.233
    1C        C  460   3.129   4.482   4.359
    1C        C  461   3.196   4.507   4.481
    1C        C  462   2.995   4.433   4.603
    1C        C  463   3.125   4.488   4.601
    1C        C  464   2.928   4.399   4.722
    1C        C  465   2.987   4.444   4.843
    1C        C  466   2.797   4.336   4.958
    1C        C  467   2.904   4.425   4.959
    1C        C  468   4.121   4.286   2.038
    1C        C  469   4.186   4.247   2.156
    1C        C  470   4.006   4.370   2.275
    1C        C  471   4.124   4.291   2.276
    1C        C  472   3.939   4.398   2.397
    1C        C  473   4.003   4.370   2.520
    1C        C  474   3.813   4.466   2.642
    1C        C  475   3.942   4.406   2.641
    1C        C  476   3.744   4.488   2.763
    1C        C  477   3.811   4.467   2.886
    1C        C  478   3.605   4.523   3.010
    1C        C  479   3.743   4.493   3.007
    1C        C  480   3.533   4.532   3.132
    1C        C  481   3.606   4.525   3.252
    1C        C  482   3.394   4.536   3.376
    1C        C  483   3.535   4.536   3.374
    1C        C  484   3.325   4.534   3.499
    1C        C  485   3.397   4.542   3.620
    1C        C  486   3.189   4.498   3.743
    1C        C  487   3.326   4.533   3.742
    1C        C  488   3.126   4.473   3.867
    1C        C  489   3.191   4.503   3.989
    1C        C  490   3.004   4.409   4.114
    1C        C  491   3.127   4.478   4.112
    1C        C  492   2.947   4.373   4.238
    1C        C  493   3.002   4.420   4.360
    1C        C  494   2.832   4.294   4.482
    1C        C  495   2.940   4.385   4.482
    1C        C  496   2.770   4.253   4.602
    1C        C  497   2.814   4.313   4.721
    1C        C  498   2.660   4.165   4.843
    1C        C  499   2.752   4.272   4.842
    1C        C  500   2.589   4.114   4.952
    1C        C  501   4.000   4.355   2.038
    1C        C  502   3.813   4.465   2.151
    1C        C  503   3.937   4.398   2.155
    1C        C  504   3.745   4.481   2.274
    1C        C  505   3.809   4.451   2.397
    1C        C  506   3.605   4.504   2.521
    1C        C  507   3.744   4.478   2.519
    1C        C  508   3.533   4.514   2.642
    1C        C  509   3.605   4.509   2.763
    1C        C  510   3.395   4.518   2.886
    1C        C  511   3.537   4.521   2.887
    1C        C  512   3.322   4.521   3.007
    1C        C  513   3.391   4.538   3.129
    1C        C  514   3.188   4.490   3.255
    1C        C  515   3.324   4.526   3.253
    1C        C  516   3.122   4.466   3.378
    1C        C  517   3.189   4.494   3.499
    1C        C  518   2.999   4.404   3.624
    1C        C  519   3.121   4.474   3.622
    1C        C  520   2.945   4.361   3.747
    1C        C  521   3.003   4.402   3.869
    1C        C  522   2.837   4.275   3.995
    1C        C  523   2.948   4.364   3.993
    1C        C  524   2.787   4.230   4.119
    1C        C  525   2.838   4.283   4.239
    1C        C  526   2.693   4.130   4.364
    1C        C  527   2.782   4.240   4.361
    1C        C  528   2.655   4.072   4.487
    1C        C  529   2.694   4.134   4.607
    1C        C  530   2.589   3.952   4.731
    1C        C  531   2.644   4.083   4.729
    1C        C  532   2.544   3.896   4.854
    1C        C  533   2.524   3.990   4.960
    1C        C  534   3.615   4.557   2.037
    1C        C  535   3.746   4.506   2.035
    1C        C  536   3.536   4.537   2.155
    1C        C  537   3.606   4.510   2.275
    1C        C  538   3.395   4.520   2.398
    1C        C  539   3.536   4.518   2.398
    1C        C  540   3.323   4.508   2.519
    1C        C  541   3.392   4.514   2.642
    1C        C  542   3.185   4.480   2.764
    1C        C  543   3.323   4.511   2.765
    1C        C  544   3.119   4.463   2.888
    1C        C  545   3.186   4.484   3.010
    1C        C  546   2.997   4.393   3.132
    1C        C  547   3.121   4.462   3.134
    1C        C  548   2.942   4.354   3.257
    1C        C  549   3.001   4.394   3.379
    1C        C  550   2.831   4.271   3.503
    1C        C  551   2.940   4.362   3.502
    1C        C  552   2.782   4.225   3.627
    1C        C  553   2.833   4.275   3.750
    1C        C  554   2.695   4.118   3.874
    1C        C  555   2.784   4.228   3.874
    1C        C  556   2.655   4.061   3.997
    1C        C  557   2.695   4.122   4.118
    1C        C  558   2.590   3.943   4.246
    1C        C  559   2.653   4.069   4.242
    1C        C  560   2.560   3.879   4.369
    1C        C  561   2.584   3.950   4.489
    1C        C  562   2.529   3.745   4.615
    1C        C  563   2.564   3.881   4.611
    1C        C  564   2.508   3.678   4.738
    1C        C  565   2.515   3.756   4.856
    1C        C  566   2.520   3.541   4.977
    1C        C  567   2.519   3.680   4.974
    1C        C  568   3.324   4.488   2.039
    1C        C  569   3.395   4.519   2.156
    1C        C  570   3.185   4.473   2.280
    1C        C  571   3.321   4.513   2.278
    1C        C  572   3.115   4.454   2.401
    1C        C  573   3.184   4.482   2.521
    1C        C  574   2.990   4.393   2.645
    1C        C  575   3.115   4.459   2.643
    1C        C  576   2.935   4.351   2.768
    1C        C  577   2.994   4.396   2.888
    1C        C  578   2.826   4.268   3.015
    1C        C  579   2.936   4.357   3.011
    1C        C  580   2.777   4.217   3.137
    1C        C  581   2.829   4.269   3.258
    1C        C  582   2.693   4.111   3.385
    1C        C  583   2.780   4.222   3.381
    1C        C  584   2.652   4.056   3.509
    1C        C  585   2.692   4.117   3.630
    1C        C  586   2.591   3.933   3.756
    1C        C  587   2.655   4.059   3.753
    1C        C  588   2.566   3.868   3.880
    1C        C  589   2.591   3.935   4.002
    1C        C  590   2.530   3.736   4.126
    1C        C  591   2.566   3.873   4.126
    1C        C  592   2.521   3.672   4.251
    1C        C  593   2.523   3.743   4.373
    1C        C  594   2.508   3.531   4.498
    1C        C  595   2.514   3.672   4.495
    1C        C  596   2.511   3.460   4.620
    1C        C  597   2.515   3.536   4.740
    1C        C  598   2.536   3.322   4.860
    1C        C  599   2.521   3.462   4.860
    1C        C  600   2.540   3.246   4.977
    1C        C  601   3.193   4.445   2.043
    1C        C  602   2.981   4.392   2.158
    1C        C  603   3.116   4.440   2.160
    1C        C  604   2.925   4.355   2.284
    1C        C  605   2.986   4.397   2.404
    1C        C  606   2.818   4.264   2.527
    1C        C  607   2.928   4.354   2.525
    1C        C  608   2.768   4.217   2.650
    1C        C  609   2.822   4.266   2.771
    1C        C  610   2.686   4.106   2.896
    1C        C  611   2.774   4.216   2.894
    1C        C  612   2.645   4.050   3.019
    1C        C  613   2.689   4.106   3.141
    1C        C  614   2.582   3.927   3.265
    1C        C  615   2.649   4.051   3.265
    1C        C  616   2.559   3.863   3.390
    1C        C  617   2.590   3.929   3.511
    1C        C  618   2.523   3.730   3.638
    1C        C  619   2.564   3.865   3.635
    1C        C  620   2.511   3.663   3.762
    1C        C  621   2.520   3.735   3.883
    1C        C  622   2.499   3.525   4.009
    1C        C  623   2.505   3.666   4.006
    1C        C  624   2.506   3.457   4.132
    1C        C  625   2.510   3.531   4.252
    1C        C  626   2.531   3.321   4.377
    1C        C  627   2.513   3.461   4.375
    1C        C  628   2.554   3.252   4.498
    1C        C  629   2.532   3.321   4.619
    1C        C  630   2.591   3.114   4.743
    1C        C  631   2.546   3.248   4.740
    1C        C  632   2.614   3.042   4.863
    1C        C  633   2.563   3.108   4.980
    1C        C  634   2.772   4.307   2.057
    1C        C  635   2.891   4.382   2.048
    1C        C  636   2.746   4.225   2.167
    1C        C  637   2.811   4.270   2.284
    1C        C  638   2.675   4.107   2.408
    1C        C  639   2.765   4.216   2.406
    1C        C  640   2.636   4.048   2.530
    1C        C  641   2.680   4.106   2.651
    1C        C  642   2.580   3.921   2.776
    1C        C  643   2.645   4.046   2.774
    1C        C  644   2.557   3.856   2.899
    1C        C  645   2.584   3.922   3.021
    1C        C  646   2.516   3.723   3.146
    1C        C  647   2.556   3.859   3.144
    1C        C  648   2.504   3.656   3.270
    1C        C  649   2.523   3.727   3.391
    1C        C  650   2.500   3.520   3.517
    1C        C  651   2.514   3.660   3.515
    1C        C  652   2.506   3.453   3.641
    1C        C  653   2.504   3.522   3.764
    1C        C  654   2.531   3.315   3.888
    1C        C  655   2.506   3.454   3.888
    1C        C  656   2.552   3.250   4.012
    1C        C  657   2.536   3.319   4.135
    1C        C  658   2.606   3.119   4.256
    1C        C  659   2.550   3.249   4.257
    1C        C  660   2.634   3.055   4.378
    1C        C  661   2.603   3.119   4.500
    1C        C  662   2.711   2.936   4.622
    1C        C  663   2.633   3.054   4.622
    1C        C  664   2.755   2.875   4.742
    1C        C  665   2.701   2.929   4.862
    1C        C  666   2.747   2.867   4.979
    1C        C  667   2.675   4.022   2.052
    1C        C  668   2.674   4.103   2.166
    1C        C  669   2.586   3.911   2.293
    1C        C  670   2.633   4.045   2.288
    1C        C  671   2.559   3.844   2.415
    1C        C  672   2.580   3.918   2.534
    1C        C  673   2.509   3.718   2.656
    1C        C  674   2.550   3.853   2.656
    1C        C  675   2.496   3.650   2.779
    1C        C  676   2.515   3.721   2.900
    1C        C  677   2.498   3.513   3.027
    1C        C  678   2.505   3.654   3.024
    1C        C  679   2.497   3.444   3.150
    1C        C  680   2.494   3.515   3.272
    1C        C  681   2.532   3.310   3.400
    1C        C  682   2.498   3.447   3.396
    1C        C  683   2.552   3.243   3.522
    1C        C  684   2.532   3.314   3.642
    1C        C  685   2.608   3.118   3.770
    1C        C  686   2.554   3.248   3.766
    1C        C  687   2.642   3.057   3.893
    1C        C  688   2.609   3.121   4.015
    1C        C  689   2.720   2.938   4.137
    1C        C  690   2.637   3.053   4.135
    1C        C  691   2.758   2.880   4.260
    1C        C  692   2.710   2.936   4.381
    1C        C  693   2.756   2.878   4.502
    1C        C  694   2.616   3.895   2.056
    1C        C  695   2.519   3.705   2.174
    1C        C  696   2.571   3.836   2.175
    1C        C  697   2.498   3.637   2.296
    1C        C  698   2.517   3.710   2.416
    1C        C  699   2.482   3.501   2.538
    1C        C  700   2.492   3.642   2.538
    1C        C  701   2.495   3.435   2.662
    1C        C  702   2.492   3.509   2.782
    1C        C  703   2.521   3.302   2.908
    1C        C  704   2.498   3.441   2.905
    1C        C  705   2.542   3.237   3.032
    1C        C  706   2.526   3.306   3.154
    1C        C  707   2.599   3.109   3.277
    1C        C  708   2.547   3.240   3.278
    1C        C  709   2.635   3.051   3.400
    1C        C  710   2.607   3.112   3.525
    1C        C  711   2.716   2.934   3.647
    1C        C  712   2.636   3.050   3.648
    1C        C  713   2.765   2.884   3.769
    1C        C  714   2.721   2.940   3.891
    1C        C  715   2.763   2.884   4.014
    1C        C  716   2.444   3.498   2.061
    1C        C  717   2.488   3.631   2.059
    1C        C  718   2.459   3.419   2.179
    1C        C  719   2.473   3.497   2.297
    1C        C  720   2.503   3.286   2.424
    1C        C  721   2.479   3.426   2.419
    1C        C  722   2.533   3.223   2.546
    1C        C  723   2.519   3.295   2.666
    1C        C  724   2.594   3.097   2.789
    1C        C  725   2.539   3.227   2.789
    1C        C  726   2.626   3.038   2.913
    1C        C  727   2.592   3.105   3.033
    1C        C  728   2.715   2.932   3.157
    1C        C  729   2.631   3.045   3.155
    1C        C  730   2.760   2.878   3.280
    1C        C  731   2.716   2.935   3.402
    1C        C  732   2.759   2.879   3.524
    1C        C  733   2.481   3.194   2.069
    1C        C  734   2.487   3.279   2.181
    1C        C  735   2.576   3.085   2.306
    1C        C  736   2.513   3.212   2.304
    1C        C  737   2.613   3.022   2.426
    1C        C  738   2.593   3.095   2.546
    1C        C  739   2.706   2.916   2.669
    1C        C  740   2.627   3.033   2.668
    1C        C  741   2.747   2.861   2.793
    1C        C  742   2.707   2.922   2.913
    1C        C  743   2.756   2.872   3.036
    1C        C  744   2.547   3.072   2.073
    1C        C  745   2.686   2.900   2.184
    1C        C  746   2.610   3.019   2.186
    1C        C  747   2.735   2.845   2.305
    1C        C  748   2.694   2.906   2.426
    1C        C  749   2.744   2.855   2.548
    1C        C  750   2.730   2.833   2.069
    1C        C  751   3.650   2.309   1.981
    1C        O  752   3.662   2.191   2.024
    1C        O  753   3.636   2.311   1.841
    1C        C  754   4.622   3.068   1.962
    1C        O  755   4.623   3.104   1.842
    1C        O  756   4.702   2.956   1.989
    1C        C  757   4.439   4.217   1.957
    1C        O  758   4.543   4.284   1.984
    1C        O  759   4.390   4.237   1.828
    1C        C  760   3.612   4.680   1.955
    1C        O  761   3.616   4.797   2.002
    1C        O  762   3.571   4.684   1.821
    1C        C  763   2.883   4.469   1.929
    1C        O  764   2.943   4.431   1.825
    1C        O  765   2.887   4.608   1.943
    1C        C  766   2.339   3.477   1.958
    1C        O  767   2.368   3.431   1.844
    1C        O  768   2.201   3.476   1.980
    1C        C  769   4.715   3.599   5.025
    1C        O  770   4.715   3.519   5.123
    1C        O  771   4.819   3.692   5.036
    1C        C  772   4.273   4.434   5.037
    1C        O  773   4.273   4.399   5.158
    1C        O  774   4.364   4.538   5.015
    1C        C  775   4.150   2.530   5.075
    1C        O  776   4.205   2.416   5.068
    1C        O  777   4.132   2.561   5.210
    1C        C  778   2.862   4.557   5.011
    1C        O  779   2.788   4.642   4.956
    1C        O  780   2.874   4.585   5.148
    1C        C  781   2.474   3.035   5.073
    1C        O  782   2.364   2.984   5.038
    1C        O  783   2.528   3.018   5.200
    1C        C  784   2.424   3.981   5.068
    1C        O  785   2.322   4.055   5.075
    1C        O  786   2.464   3.950   5.199
    1C        C  787   2.941   2.422   2.001
    1C        O  788   2.937   2.428   1.875
    1C        O  789   2.867   2.324   2.065
    1C        C  790   3.161   2.349   5.031
    1C        O  791   3.071   2.271   4.989
    1C        O  792   3.197   2.324   5.163
    1C        H  793   4.306   3.002   5.066
    1C        H  794   4.200   2.794   5.070
    1C        H  795   4.520   3.130   5.051
    1C        H  796   4.459   3.375   5.049
    1C        H  797   4.556   3.812   5.045
    1C        H  798   4.418   3.971   5.051
    1C        H  799   4.265   4.153   5.045
    1C        H  800   4.047   4.555   5.015
    1C        H  801   3.822   4.571   5.040
    1C        H  802   3.586   4.595   5.044
    1C        H  803   3.388   4.522   5.049
    1C        H  804   3.151   4.496   5.053
    1C        H  805   3.889   2.495   5.069
    1C        H  806   3.680   2.455   5.067
    1C        H  807   3.014   2.574   5.072
    1C        H  808   3.446   2.436   5.068
    1C        H  809   2.852   2.711   5.073
    1C        H  810   2.732   2.917   5.073
    1C        H  811   2.475   3.283   5.054
    1C        H  812   2.483   3.495   5.066
    1C        H  813   2.572   3.718   5.058
    1C        H  814   2.564   4.185   5.029
    1C        H  815   2.755   4.312   5.054
    1C        H  816   2.696   2.858   1.971
    1C        H  817   2.841   2.678   1.976
    1C        H  818   3.208   2.426   1.988
    1C        H  819   3.426   2.416   1.975
    1C        H  820   3.840   2.533   1.971
    1C        H  821   4.059   2.623   1.963
    1C        H  822   4.292   2.694   1.998
    1C        H  823   4.379   2.916   1.963
    1C        H  824   4.616   3.303   1.985
    1C        H  825   4.461   3.507   1.966
    1C        H  826   4.493   3.745   1.956
    1C        H  827   3.801   4.523   1.945
    1C        H  828   3.950   4.369   1.944
    1C        H  829   4.150   4.233   1.949
    1C        H  830   4.506   3.963   1.968
    1C        H  831   2.642   3.831   1.974
    1C        H  832   2.750   4.036   1.976
    1C        H  833   2.690   4.335   1.995
    1C        H  834   3.344   4.559   1.961
    1C        H  835   3.158   4.388   1.959
    1C        H  836   2.496   3.000   2.013
    1C        H  837   2.464   3.242   1.974
    1C        H  838   2.509   3.671   1.962
    2V3OU   H29  839   2.803   3.544   5.432
    2V3OU   C27  840   2.782   3.499   5.532
    2V3OU   H27  841   2.721   3.569   5.596
    2V3OU   H28  842   2.733   3.399   5.523
    2V3OU   O11  843   2.908   3.480   5.596
    2V3OU   C15  844   2.923   3.391   5.702
    2V3OU   C13  845   3.052   3.367   5.754
    2V3OU   C14  846   3.073   3.267   5.849
    2V3OU   C16  847   2.971   3.182   5.888
    2V3OU    H6  848   2.991   3.101   5.960
    2V3OU   C12  849   3.212   3.226   5.883
    2V3OU    O2  850   3.236   3.117   5.938
    2V3OU   C10  851   3.325   3.305   5.833
    2V3OU    C8  852   3.459   3.270   5.851
    2V3OU   O10  853   3.493   3.158   5.921
    2V3OU   H26  854   3.411   3.114   5.947
    2V3OU    C6  855   3.568   3.349   5.803
    2V3OU    C5  856   3.538   3.469   5.740
    2V3OU    C4  857   3.705   3.291   5.807
    2V3OU    H4  858   3.722   3.226   5.898
    2V3OU    H5  859   3.709   3.221   5.719
    2V3OU    C2  860   3.818   3.395   5.803
    2V3OU    O6  861   3.813   3.470   5.925
    2V3OU   H21  862   3.765   3.552   5.906
    2V3OU    C3  863   3.784   3.493   5.692
    2V3OU    H2  864   3.866   3.568   5.680
    2V3OU    H3  865   3.779   3.428   5.601
    2V3OU   C25  866   3.952   3.323   5.790
    2V3OU    O7  867   3.990   3.293   5.676
    2V3OU   C26  868   4.029   3.284   5.915
    2V3OU   H22  869   4.072   3.379   5.957
    2V3OU   H23  870   4.117   3.221   5.888
    2V3OU    O8  871   3.957   3.203   6.006
    2V3OU   H24  872   3.919   3.264   6.071
    2V3OU    C1  873   3.651   3.563   5.712
    2V3OU    H1  874   3.625   3.615   5.615
    2V3OU    O3  875   3.659   3.652   5.824
    2V3OU   C19  876   3.617   3.786   5.796
    2V3OU    H9  877   3.519   3.808   5.745
    2V3OU    O4  878   3.713   3.840   5.708
    2V3OU   C20  879   3.842   3.872   5.761
    2V3OU   H10  880   3.887   3.770   5.776
    2V3OU   C24  881   3.603   3.858   5.931
    2V3OU   H16  882   3.543   3.792   5.998
    2V3OU   H17  883   3.553   3.957   5.922
    2V3OU   C23  884   3.744   3.871   5.989
    2V3OU   H15  885   3.790   3.767   6.001
    2V3OU    N1  886   3.740   3.947   6.113
    2V3OU   H19  887   3.805   3.919   6.184
    2V3OU   H20  888   3.646   3.941   6.148
    2V3OU   C21  889   3.846   3.944   5.897
    2V3OU   H11  890   3.947   3.918   5.941
    2V3OU    O5  891   3.834   4.085   5.904
    2V3OU   H18  892   3.777   4.097   5.981
    2V3OU   C22  893   3.911   3.950   5.651
    2V3OU   H12  894   3.859   4.047   5.632
    2V3OU   H13  895   3.905   3.892   5.555
    2V3OU   H14  896   4.020   3.959   5.672
    2V3OU   C11  897   3.154   3.472   5.737
    2V3OU    O1  898   3.134   3.586   5.692
    2V3OU    C9  899   3.292   3.424   5.763
    2V3OU    C7  900   3.400   3.500   5.719
    2V3OU    O9  901   3.385   3.609   5.636
    2V3OU   H25  902   3.292   3.635   5.649
    2V3OU   C17  903   2.819   3.312   5.754
    2V3OU    H7  904   2.716   3.340   5.732
    2V3OU   C18  905   2.843   3.205   5.840
    2V3OU    H8  906   2.756   3.146   5.875
    3SOL     OW  907   3.686   3.039   3.895
    3SOL    HW1  908   3.628   3.006   3.821
    3SOL    HW2  909   3.681   3.139   3.899
    4SOL     OW  910   6.442   6.276   0.585
    4SOL    HW1  911   6.429   6.343   0.658
    4SOL    HW2  912   6.415   6.185   0.617
    5SOL     OW  913   5.222   1.774   1.180
    5SOL    HW1  914   5.195   1.778   1.084
    5SOL    HW2  915   5.235   1.678   1.207
    6SOL     OW  916   5.026   1.296   3.191
    6SOL    HW1  917   4.950   1.236   3.216
    6SOL    HW2  918   5.110   1.242   3.187
    7SOL     OW  919   2.268   4.191   3.979
    7SOL    HW1  920   2.232   4.120   3.919
    7SOL    HW2  921   2.232   4.179   4.071
    8SOL     OW  922   0.720   2.942   4.996
    8SOL    HW1  923   0.643   2.955   4.932
    8SOL    HW2  924   0.802   2.985   4.959
    9SOL     OW  925   0.112   0.993   6.495
    9SOL    HW1  926   0.091   1.049   6.576
    9SOL    HW2  927   0.202   0.951   6.506
   10SOL     OW  928   5.633   4.761   1.640
   10SOL    HW1  929   5.667   4.784   1.549
   10SOL    HW2  930   5.688   4.688   1.679
   11SOL     OW  931   2.010   2.082   1.365
   11SOL    HW1  932   1.948   2.090   1.443
   11SOL    HW2  933   1.974   2.015   1.300
   12SOL     OW  934   4.336   4.615   2.694
   12SOL    HW1  935   4.285   4.661   2.767
   12SOL    HW2  936   4.432   4.644   2.697
   13SOL     OW  937   5.633   6.201   1.292
   13SOL    HW1  938   5.700   6.243   1.353
   13SOL    HW2  939   5.674   6.121   1.248
   14SOL     OW  940   4.236   6.708   6.326
   14SOL    HW1  941   4.258   6.801   6.355
   14SOL    HW2  942   4.290   6.643   6.380
   15SOL     OW  943   1.382   6.080   6.399
   15SOL    HW1  944   1.327   6.163   6.404
   15SOL    HW2  945   1.476   6.103   6.375
   16SOL     OW  946   2.045   4.957   4.829
   16SOL    HW1  947   2.042   4.923   4.736
   16SOL    HW2  948   1.975   5.028   4.841
   17SOL     OW  949   6.852   1.276   5.238
   17SOL    HW1  950   6.759   1.241   5.244
   17SOL    HW2  951   6.888   1.290   5.331
   18SOL     OW  952   2.845   1.487   5.986
   18SOL    HW1  953   2.862   1.546   5.907
   18SOL    HW2  954   2.747   1.468   5.994
   19SOL     OW  955   3.232   6.453   3.238
   19SOL    HW1  956   3.260   6.360   3.212
   19SOL    HW2  957   3.181   6.450   3.324
   20SOL     OW  958   5.783   1.011   5.175
   20SOL    HW1  959   5.685   1.027   5.159
   20SOL    HW2  960   5.803   0.914   5.158
   21SOL     OW  961   2.215   4.157   2.546
   21SOL    HW1  962   2.165   4.242   2.562
   21SOL    HW2  963   2.313   4.174   2.556
   22SOL     OW  964   1.100   0.662   6.861
   22SOL    HW1  965   1.066   0.613   6.942
   22SOL    HW2  966   1.041   0.740   6.842
   23SOL     OW  967   5.542   4.645   0.911
   23SOL    HW1  968   5.618   4.586   0.937
   23SOL    HW2  969   5.556   4.679   0.818
   24SOL     OW  970   5.024   1.663   0.513
   24SOL    HW1  971   5.043   1.611   0.430
   24SOL    HW2  972   4.932   1.701   0.508
   25SOL     OW  973   1.798   0.479   4.433
   25SOL    HW1  974   1.836   0.487   4.525
   25SOL    HW2  975   1.813   0.564   4.383
   26SOL     OW  976   0.565   2.158   6.554
   26SOL    HW1  977   0.520   2.070   6.543
   26SOL    HW2  978   0.600   2.167   6.647
   27SOL     OW  979   6.752   0.299   2.372
   27SOL    HW1  980   6.717   0.245   2.295
   27SOL    HW2  981   6.678   0.315   2.438
   28SOL     OW  982   1.816   0.657   4.938
   28SOL    HW1  983   1.763   0.655   5.023
   28SOL    HW2  984   1.760   0.699   4.866
   29SOL     OW  985   6.698   6.889   0.838
   29SOL    HW1  986   6.641   6.810   0.861
   29SOL    HW2  987   6.760   6.908   0.914
   30SOL     OW  988   4.334   0.150   4.941
   30SOL    HW1  989   4.273   0.214   4.989
   30SOL    HW2  990   4.279   0.092   4.881
   31SOL     OW  991   1.064   4.144   4.698
   31SOL    HW1  992   0.978   4.161   4.649
   31SOL    HW2  993   1.140   4.144   4.633
   32SOL     OW  994   3.487   0.854   1.065
   32SOL    HW1  995   3.420   0.780   1.074
   32SOL    HW2  996   3.512   0.864   0.968
   33SOL     OW  997   1.998   5.402   6.340
   33SOL    HW1  998   2.069   5.469   6.320
   33SOL    HW2  999   1.928   5.405   6.268
   34SOL     OW 1000   2.982   5.913   5.462
   34SOL    HW1 1001   2.953   5.818   5.462
   34SOL    HW2 1002   3.060   5.925   5.401
   35SOL     OW 1003   1.590   2.882   6.369
   35SOL    HW1 1004   1.545   2.958   6.414
   35SOL    HW2 1005   1.523   2.810   6.350
   36SOL     OW 1006   4.511   0.785   3.145
   36SOL    HW1 1007   4.541   0.855   3.210
   36SOL    HW2 1008   4.456   0.827   3.073
   37SOL     OW 1009   2.387   6.878   3.846
   37SOL    HW1 1010   2.458   6.939   3.810
   37SOL    HW2 1011   2.373   6.898   3.943
   38SOL     OW 1012   0.829   4.337   2.621
   38SOL    HW1 1013   0.907   4.289   2.582
   38SOL    HW2 1014   0.747   4.281   2.611
   39SOL     OW 1015   6.701   5.269   1.291
   39SOL    HW1 1016   6.730   5.300   1.381
   39SOL    HW2 1017   6.722   5.172   1.279
   40SOL     OW 1018   4.755   1.724   0.571
   40SOL    HW1 1019   4.696   1.680   0.504
   40SOL    HW2 1020   4.746   1.677   0.659
   41SOL     OW 1021   5.199   3.930   1.777
   41SOL    HW1 1022   5.109   3.949   1.737
   41SOL    HW2 1023   5.188   3.867   1.854
   42SOL     OW 1024   2.635   4.893   6.713
   42SOL    HW1 1025   2.707   4.962   6.707
   42SOL    HW2 1026   2.649   4.836   6.794
   43SOL     OW 1027   5.054   6.914   5.150
   43SOL    HW1 1028   5.143   6.922   5.105
   43SOL    HW2 1029   5.057   6.840   5.217
   44SOL     OW 1030   6.981   1.392   0.187
   44SOL    HW1 1031   6.937   1.447   0.116
   44SOL    HW2 1032   0.002   1.310   0.146
   45SOL     OW 1033   2.169   4.701   6.210
   45SOL    HW1 1034   2.147   4.756   6.290
   45SOL    HW2 1035   2.227   4.755   6.148
   46SOL     OW 1036   1.411   3.434   5.275
   46SOL    HW1 1037   1.456   3.494   5.341
   46SOL    HW2 1038   1.435   3.339   5.296
   47SOL     OW 1039   5.844   3.842   6.819
   47SOL    HW1 1040   5.749   3.813   6.803
   47SOL    HW2 1041   5.882   3.880   6.735
   48SOL     OW 1042   6.281   3.767   0.474
   48SOL    HW1 1043   6.198   3.813   0.442
   48SOL    HW2 1044   6.352   3.774   0.404
   49SOL     OW 1045   2.939   3.704   6.778
   49SOL    HW1 1046   2.917   3.801   6.778
   49SOL    HW2 1047   2.868   3.654   6.728
   50SOL     OW 1048   6.263   2.070   6.891
   50SOL    HW1 1049   6.261   2.150   6.831
   50SOL    HW2 1050   6.177   2.065   6.943
   51SOL     OW 1051   1.020   5.990   2.557
   51SOL    HW1 1052   1.055   5.913   2.502
   51SOL    HW2 1053   0.976   5.955   2.639
   52SOL     OW 1054   5.934   2.784   1.719
   52SOL    HW1 1055   5.934   2.884   1.715
   52SOL    HW2 1056   5.869   2.748   1.651
   53SOL     OW 1057   3.320   0.606   1.600
   53SOL    HW1 1058   3.417   0.586   1.587
   53SOL    HW2 1059   3.285   0.554   1.678
   54SOL     OW 1060   5.646   0.101   6.394
   54SOL    HW1 1061   5.718   0.038   6.364
   54SOL    HW2 1062   5.593   0.132   6.315
   55SOL     OW 1063   1.188   3.235   6.091
   55SOL    HW1 1064   1.248   3.311   6.067
   55SOL    HW2 1065   1.150   3.251   6.182
   56SOL     OW 1066   0.616   2.065   0.105
   56SOL    HW1 1067   0.614   2.077   0.006
   56SOL    HW2 1068   0.610   1.967   0.127
   57SOL     OW 1069   4.365   6.366   1.020
   57SOL    HW1 1070   4.387   6.430   0.946
   57SOL    HW2 1071   4.308   6.292   0.984
   58SOL     OW 1072   1.346   0.772   6.884
   58SOL    HW1 1073   1.249   0.752   6.870
   58SOL    HW2 1074   1.356   0.822   6.970
   59SOL     OW 1075   4.393   3.354   5.554
   59SOL    HW1 1076   4.427   3.375   5.462
   59SOL    HW2 1077   4.422   3.262   5.580
   60SOL     OW 1078   6.367   2.722   2.197
   60SOL    HW1 1079   6.348   2.630   2.162
   60SOL    HW2 1080   6.354   2.789   2.124
   61SOL     OW 1081   0.888   6.406   3.973
   61SOL    HW1 1082   0.971   6.461   3.980
   61SOL    HW2 1083   0.837   6.432   3.891
   62SOL     OW 1084   6.290   3.129   3.250
   62SOL    HW1 1085   6.237   3.054   3.210
   62SOL    HW2 1086   6.257   3.216   3.214
   63SOL     OW 1087   3.615   0.577   6.428
   63SOL    HW1 1088   3.570   0.662   6.456
   63SOL    HW2 1089   3.673   0.595   6.349
   64SOL     OW 1090   1.490   2.964   5.504
   64SOL    HW1 1091   1.428   2.921   5.439
   64SOL    HW2 1092   1.547   2.894   5.548
   65SOL     OW 1093   0.617   5.130   4.307
   65SOL    HW1 1094   0.623   5.039   4.349
   65SOL    HW2 1095   0.525   5.166   4.320
   66SOL     OW 1096   3.617   1.263   1.626
   66SOL    HW1 1097   3.634   1.165   1.635
   66SOL    HW2 1098   3.680   1.303   1.559
   67SOL     OW 1099   0.037   3.184   1.662
   67SOL    HW1 1100   0.071   3.260   1.606
   67SOL    HW2 1101   6.958   3.176   1.651
   68SOL     OW 1102   0.143   1.786   6.719
   68SOL    HW1 1103   0.121   1.751   6.810
   68SOL    HW2 1104   0.166   1.709   6.658
   69SOL     OW 1105   1.112   5.940   6.815
   69SOL    HW1 1106   1.071   6.004   6.751
   69SOL    HW2 1107   1.111   5.848   6.775
   70SOL     OW 1108   5.070   4.378   4.135
   70SOL    HW1 1109   5.064   4.469   4.095
   70SOL    HW2 1110   5.033   4.379   4.227
   71SOL     OW 1111   5.319   2.059   4.373
   71SOL    HW1 1112   5.252   2.133   4.373
   71SOL    HW2 1113   5.331   2.025   4.280
   72SOL     OW 1114   0.366   1.503   3.338
   72SOL    HW1 1115   0.409   1.414   3.324
   72SOL    HW2 1116   0.368   1.526   3.436
   73SOL     OW 1117   2.419   0.183   1.130
   73SOL    HW1 1118   2.479   0.256   1.162
   73SOL    HW2 1119   2.474   0.100   1.116
   74SOL     OW 1120   3.557   2.225   0.684
   74SOL    HW1 1121   3.552   2.288   0.607
   74SOL    HW2 1122   3.496   2.257   0.757
   75SOL     OW 1123   2.868   2.837   0.160
   75SOL    HW1 1124   2.888   2.826   0.258
   75SOL    HW2 1125   2.791   2.901   0.150
   76SOL     OW 1126   3.934   5.300   5.777
   76SOL    HW1 1127   3.981   5.216   5.753
   76SOL    HW2 1128   3.983   5.378   5.737
   77SOL     OW 1129   0.805   5.169   4.834
   77SOL    HW1 1130   0.870   5.246   4.840
   77SOL    HW2 1131   0.848   5.093   4.786
   78SOL     OW 1132   4.218   1.804   1.209
   78SOL    HW1 1133   4.290   1.741   1.238
   78SOL    HW2 1134   4.258   1.878   1.155
   79SOL     OW 1135   1.589   4.386   3.870
   79SOL    HW1 1136   1.673   4.423   3.830
   79SOL    HW2 1137   1.511   4.439   3.838
   80SOL     OW 1138   3.460   2.029   4.937
   80SOL    HW1 1139   3.550   2.071   4.944
   80SOL    HW2 1140   3.414   2.061   4.855
   81SOL     OW 1141   3.884   5.251   1.548
   81SOL    HW1 1142   3.976   5.228   1.578
   81SOL    HW2 1143   3.838   5.306   1.618
   82SOL     OW 1144   2.860   6.438   1.758
   82SOL    HW1 1145   2.849   6.393   1.669
   82SOL    HW2 1146   2.865   6.537   1.745
   83SOL     OW 1147   5.273   1.017   3.994
   83SOL    HW1 1148   5.317   0.938   3.951
   83SOL    HW2 1149   5.305   1.101   3.950
   84SOL     OW 1150   6.045   2.845   2.733
   84SOL    HW1 1151   5.994   2.869   2.816
   84SOL    HW2 1152   6.140   2.876   2.743
   85SOL     OW 1153   2.521   6.685   3.554
   85SOL    HW1 1154   2.449   6.666   3.487
   85SOL    HW2 1155   2.604   6.713   3.507
   86SOL     OW 1156   5.250   0.062   0.409
   86SOL    HW1 1157   5.197   7.002   0.381
   86SOL    HW2 1158   5.306   0.094   0.332
   87SOL     OW 1159   2.598   3.614   6.906
   87SOL    HW1 1160   2.663   3.571   6.843
   87SOL    HW2 1161   2.627   3.708   6.923
   88SOL     OW 1162   2.466   3.471   1.438
   88SOL    HW1 1163   2.439   3.377   1.417
   88SOL    HW2 1164   2.524   3.471   1.520
   89SOL     OW 1165   3.013   3.262   4.091
   89SOL    HW1 1166   2.949   3.323   4.138
   89SOL    HW2 1167   3.104   3.304   4.089
   90SOL     OW 1168   5.729   3.645   2.275
   90SOL    HW1 1169   5.672   3.702   2.216
   90SOL    HW2 1170   5.803   3.700   2.313
   91SOL     OW 1171   4.214   5.547   6.219
   91SOL    HW1 1172   4.245   5.533   6.313
   91SOL    HW2 1173   4.135   5.608   6.219
   92SOL     OW 1174   5.221   3.991   0.076
   92SOL    HW1 1175   5.239   3.948   0.164
   92SOL    HW2 1176   5.247   4.088   0.079
   93SOL     OW 1177   3.078   3.868   2.050
   93SOL    HW1 1178   3.063   3.779   2.008
   93SOL    HW2 1179   3.133   3.924   1.988
   94SOL     OW 1180   2.997   2.204   4.167
   94SOL    HW1 1181   3.002   2.227   4.265
   94SOL    HW2 1182   2.924   2.257   4.124
   95SOL     OW 1183   0.351   0.403   4.041
   95SOL    HW1 1184   0.401   0.395   3.955
   95SOL    HW2 1185   0.275   0.338   4.042
   96SOL     OW 1186   6.960   5.157   6.349
   96SOL    HW1 1187   6.927   5.199   6.264
   96SOL    HW2 1188   6.927   5.063   6.354
   97SOL     OW 1189   2.427   4.434   5.765
   97SOL    HW1 1190   2.388   4.420   5.856
   97SOL    HW2 1191   2.445   4.531   5.752
   98SOL     OW 1192   0.738   2.032   3.767
   98SOL    HW1 1193   0.643   2.042   3.736
   98SOL    HW2 1194   0.800   2.048   3.691
   99SOL     OW 1195   3.399   4.324   5.247
   99SOL    HW1 1196   3.404   4.232   5.287
   99SOL    HW2 1197   3.491   4.357   5.226
  100SOL     OW 1198   0.647   0.322   5.074
  100SOL    HW1 1199   0.636   0.250   5.006
  100SOL    HW2 1200   0.572   0.316   5.141
  101SOL     OW 1201   5.090   3.339   2.696
  101SOL    HW1 1202   5.128   3.377   2.612
  101SOL    HW2 1203   5.100   3.239   2.695
  102SOL     OW 1204   4.231   0.629   0.037
  102SOL    HW1 1205   4.221   0.723   0.004
  102SOL    HW2 1206   4.286   0.629   0.120
  103SOL     OW 1207   1.251   1.323   1.937
  103SOL    HW1 1208   1.288   1.339   2.028
  103SOL    HW2 1209   1.327   1.312   1.872
  104SOL     OW 1210   6.524   4.468   1.741
  104SOL    HW1 1211   6.451   4.529   1.772
  104SOL    HW2 1212   6.527   4.468   1.641
  105SOL     OW 1213   6.884   0.290   5.006
  105SOL    HW1 1214   6.951   0.240   4.951
  105SOL    HW2 1215   6.867   0.379   4.964
  106SOL     OW 1216   4.452   3.014   1.432
  106SOL    HW1 1217   4.436   3.062   1.518
  106SOL    HW2 1218   4.544   2.975   1.432
  107SOL     OW 1219   5.991   6.883   1.633
  107SOL    HW1 1220   5.925   6.884   1.708
  107SOL    HW2 1221   6.000   6.789   1.598
  108SOL     OW 1222   3.034   1.123   4.859
  108SOL    HW1 1223   2.980   1.193   4.907
  108SOL    HW2 1224   2.987   1.098   4.774
  109SOL     OW 1225   2.000   1.012   5.015
  109SOL    HW1 1226   2.022   0.958   4.934
  109SOL    HW2 1227   2.025   1.108   4.999
  110SOL     OW 1228   3.405   4.042   5.364
  110SOL    HW1 1229   3.470   4.034   5.439
  110SOL    HW2 1230   3.320   3.995   5.388
  111SOL     OW 1231   5.861   2.490   0.923
  111SOL    HW1 1232   5.929   2.461   0.855
  111SOL    HW2 1233   5.786   2.536   0.877
  112SOL     OW 1234   5.391   0.199   6.629
  112SOL    HW1 1235   5.385   0.117   6.687
  112SOL    HW2 1236   5.463   0.259   6.663
  113SOL     OW 1237   0.387   5.269   2.612
  113SOL    HW1 1238   0.375   5.180   2.566
  113SOL    HW2 1239   0.339   5.339   2.560
  114SOL     OW 1240   0.247   2.354   2.072
  114SOL    HW1 1241   0.158   2.352   2.117
  114SOL    HW2 1242   0.245   2.418   1.995
  115SOL     OW 1243   5.084   6.533   3.421
  115SOL    HW1 1244   5.091   6.460   3.352
  115SOL    HW2 1245   5.068   6.492   3.511
  116SOL     OW 1246   0.035   4.988   0.508
  116SOL    HW1 1247   0.020   5.054   0.434
  116SOL    HW2 1248   0.120   5.010   0.555
  117SOL     OW 1249   2.600   2.615   0.315
  117SOL    HW1 1250   2.598   2.593   0.218
  117SOL    HW2 1251   2.564   2.708   0.328
  118SOL     OW 1252   6.936   1.985   2.620
  118SOL    HW1 1253   6.949   1.886   2.625
  118SOL    HW2 1254   6.886   2.016   2.701
  119SOL     OW 1255   6.254   0.508   5.039
  119SOL    HW1 1256   6.156   0.525   5.025
  119SOL    HW2 1257   6.307   0.583   4.999
  120SOL     OW 1258   4.322   0.668   4.355
  120SOL    HW1 1259   4.399   0.605   4.342
  120SOL    HW2 1260   4.347   0.758   4.320
  121SOL     OW 1261   0.353   5.204   6.883
  121SOL    HW1 1262   0.291   5.148   6.938
  121SOL    HW2 1263   0.300   5.265   6.825
  122SOL     OW 1264   6.810   4.849   6.044
  122SOL    HW1 1265   6.723   4.881   6.083
  122SOL    HW2 1266   6.822   4.889   5.953
  123SOL     OW 1267   0.758   2.607   1.916
  123SOL    HW1 1268   0.800   2.661   1.989
  123SOL    HW2 1269   0.659   2.603   1.930
  124SOL     OW 1270   1.141   3.842   0.283
  124SOL    HW1 1271   1.221   3.899   0.264
  124SOL    HW2 1272   1.073   3.853   0.210
  125SOL     OW 1273   4.705   2.869   0.336
  125SOL    HW1 1274   4.792   2.881   0.384
  125SOL    HW2 1275   4.645   2.810   0.391
  126SOL     OW 1276   3.720   2.931   4.141
  126SOL    HW1 1277   3.627   2.898   4.157
  126SOL    HW2 1278   3.725   2.973   4.051
  127SOL     OW 1279   0.634   4.779   5.316
  127SOL    HW1 1280   0.538   4.761   5.337
  127SOL    HW2 1281   0.686   4.694   5.321
  128SOL     OW 1282   4.969   3.941   6.727
  128SOL    HW1 1283   5.045   3.991   6.767
  128SOL    HW2 1284   4.999   3.849   6.701
  129SOL     OW 1285   6.957   5.730   2.396
  129SOL    HW1 1286   6.967   5.639   2.357
  129SOL    HW2 1287   7.000   5.731   2.487
  130SOL     OW 1288   6.196   2.642   4.546
  130SOL    HW1 1289   6.156   2.719   4.496
  130SOL    HW2 1290   6.270   2.675   4.604
  131SOL     OW 1291   0.932   3.239   3.391
  131SOL    HW1 1292   1.007   3.181   3.423
  131SOL    HW2 1293   0.846   3.207   3.429
  132SOL     OW 1294   4.016   2.610   1.075
  132SOL    HW1 1295   4.005   2.547   1.152
  132SOL    HW2 1296   4.004   2.704   1.106
  133SOL     OW 1297   4.571   5.951   5.842
  133SOL    HW1 1298   4.659   5.996   5.861
  133SOL    HW2 1299   4.502   6.019   5.823
  134SOL     OW 1300   5.849   1.992   1.226
  134SOL    HW1 1301   5.924   1.968   1.164
  134SOL    HW2 1302   5.812   1.909   1.267
  135SOL     OW 1303   4.910   3.572   3.981
  135SOL    HW1 1304   4.898   3.569   3.882
  135SOL    HW2 1305   4.929   3.666   4.009
  136SOL     OW 1306   3.694   1.073   6.494
  136SOL    HW1 1307   3.638   1.092   6.575
  136SOL    HW2 1308   3.746   1.155   6.470
  137SOL     OW 1309   2.529   3.466   6.047
  137SOL    HW1 1310   2.583   3.489   5.965
  137SOL    HW2 1311   2.459   3.536   6.061
  138SOL     OW 1312   1.001   5.055   6.695
  138SOL    HW1 1313   0.978   5.140   6.648
  138SOL    HW2 1314   0.929   5.031   6.760
  139SOL     OW 1315   1.264   0.217   1.116
  139SOL    HW1 1316   1.279   0.286   1.046
  139SOL    HW2 1317   1.247   0.262   1.204
  140SOL     OW 1318   4.357   0.714   1.387
  140SOL    HW1 1319   4.332   0.672   1.474
  140SOL    HW2 1320   4.347   0.648   1.313
  141SOL     OW 1321   0.326   2.832   0.658
  141SOL    HW1 1322   0.351   2.836   0.755
  141SOL    HW2 1323   0.286   2.742   0.638
  142SOL     OW 1324   2.506   3.725   0.802
  142SOL    HW1 1325   2.456   3.699   0.719
  142SOL    HW2 1326   2.596   3.682   0.801
  143SOL     OW 1327   4.144   6.265   1.923
  143SOL    HW1 1328   4.164   6.334   1.993
  143SOL    HW2 1329   4.203   6.186   1.936
  144SOL     OW 1330   3.115   5.798   3.042
  144SOL    HW1 1331   3.032   5.753   3.077
  144SOL    HW2 1332   3.091   5.858   2.966
  145SOL     OW 1333   0.574   4.999   3.556
  145SOL    HW1 1334   0.481   4.963   3.550
  145SOL    HW2 1335   0.575   5.094   3.524
  146SOL     OW 1336   5.122   0.988   6.272
  146SOL    HW1 1337   5.196   1.055   6.266
  146SOL    HW2 1338   5.149   0.915   6.334
  147SOL     OW 1339   4.501   0.590   4.972
  147SOL    HW1 1340   4.490   0.516   4.907
  147SOL    HW2 1341   4.562   0.561   5.046
  148SOL     OW 1342   1.684   5.880   1.185
  148SOL    HW1 1343   1.645   5.810   1.244
  148SOL    HW2 1344   1.729   5.950   1.241
  149SOL     OW 1345   1.982   2.453   4.309
  149SOL    HW1 1346   2.051   2.391   4.347
  149SOL    HW2 1347   2.027   2.524   4.254
  150SOL     OW 1348   4.148   1.215   4.877
  150SOL    HW1 1349   4.080   1.159   4.925
  150SOL    HW2 1350   4.240   1.182   4.898
  151SOL     OW 1351   5.645   2.600   0.748
  151SOL    HW1 1352   5.582   2.602   0.825
  151SOL    HW2 1353   5.693   2.688   0.742
  152SOL     OW 1354   0.735   2.186   1.370
  152SOL    HW1 1355   0.677   2.259   1.406
  152SOL    HW2 1356   0.828   2.219   1.357
  153SOL     OW 1357   2.292   1.484   3.831
  153SOL    HW1 1358   2.274   1.548   3.906
  153SOL    HW2 1359   2.354   1.527   3.766
  154SOL     OW 1360   6.396   2.462   2.579
  154SOL    HW1 1361   6.374   2.555   2.608
  154SOL    HW2 1362   6.451   2.465   2.496
  155SOL     OW 1363   6.677   5.506   3.082
  155SOL    HW1 1364   6.687   5.433   3.015
  155SOL    HW2 1365   6.621   5.580   3.043
  156SOL     OW 1366   5.210   2.526   0.390
  156SOL    HW1 1367   5.175   2.452   0.447
  156SOL    HW2 1368   5.309   2.514   0.377
  157SOL     OW 1369   5.014   6.529   0.993
  157SOL    HW1 1370   4.959   6.497   0.916
  157SOL    HW2 1371   5.047   6.450   1.045
  158SOL     OW 1372   0.668   2.711   3.788
  158SOL    HW1 1373   0.600   2.638   3.794
  158SOL    HW2 1374   0.684   2.734   3.692
  159SOL     OW 1375   6.173   5.342   0.620
  159SOL    HW1 1376   6.133   5.251   0.605
  159SOL    HW2 1377   6.211   5.376   0.534
  160SOL     OW 1378   5.400   0.549   1.303
  160SOL    HW1 1379   5.312   0.524   1.344
  160SOL    HW2 1380   5.450   0.609   1.365
  161SOL     OW 1381   6.286   6.888   0.977
  161SOL    HW1 1382   6.206   6.909   1.034
  161SOL    HW2 1383   6.264   6.908   0.882
  162SOL     OW 1384   4.429   0.324   6.348
  162SOL    HW1 1385   4.518   0.297   6.313
  162SOL    HW2 1386   4.363   0.326   6.273
  163SOL     OW 1387   0.923   3.590   2.196
  163SOL    HW1 1388   1.008   3.594   2.144
  163SOL    HW2 1389   0.933   3.641   2.281
  164SOL     OW 1390   2.962   1.921   3.144
  164SOL    HW1 1391   2.954   1.897   3.047
  164SOL    HW2 1392   2.962   2.020   3.155
  165SOL     OW 1393   6.939   0.051   3.960
  165SOL    HW1 1394   6.865   7.012   3.993
  165SOL    HW2 1395   6.901   0.140   3.934
  166SOL     OW 1396   6.545   4.598   4.046
  166SOL    HW1 1397   6.594   4.551   3.972
  166SOL    HW2 1398   6.494   4.531   4.100
  167SOL     OW 1399   2.129   1.523   5.337
  167SOL    HW1 1400   2.206   1.512   5.274
  167SOL    HW2 1401   2.158   1.498   5.429
  168SOL     OW 1402   3.901   3.536   1.549
  168SOL    HW1 1403   3.935   3.547   1.455
  168SOL    HW2 1404   3.881   3.440   1.567
  169SOL     OW 1405   4.783   2.256   0.987
  169SOL    HW1 1406   4.761   2.351   0.961
  169SOL    HW2 1407   4.861   2.256   1.049
  170SOL     OW 1408   6.088   5.587   1.003
  170SOL    HW1 1409   6.020   5.514   1.003
  170SOL    HW2 1410   6.170   5.556   1.052
  171SOL     OW 1411   3.571   2.822   1.133
  171SOL    HW1 1412   3.629   2.877   1.193
  171SOL    HW2 1413   3.481   2.863   1.127
  172SOL     OW 1414   1.209   1.634   6.631
  172SOL    HW1 1415   1.236   1.698   6.558
  172SOL    HW2 1416   1.269   1.646   6.710
  173SOL     OW 1417   6.322   1.497   3.983
  173SOL    HW1 1418   6.222   1.490   3.974
  173SOL    HW2 1419   6.347   1.593   3.999
  174SOL     OW 1420   5.646   4.388   4.467
  174SOL    HW1 1421   5.717   4.457   4.483
  174SOL    HW2 1422   5.583   4.420   4.396
  175SOL     OW 1423   0.119   6.466   2.886
  175SOL    HW1 1424   0.100   6.504   2.976
  175SOL    HW2 1425   0.130   6.540   2.820
  176SOL     OW 1426   5.907   3.471   1.694
  176SOL    HW1 1427   6.002   3.478   1.664
  176SOL    HW2 1428   5.846   3.495   1.619
  177SOL     OW 1429   5.894   2.473   3.624
  177SOL    HW1 1430   5.940   2.403   3.570
  177SOL    HW2 1431   5.958   2.513   3.689
  178SOL     OW 1432   2.707   5.735   4.779
  178SOL    HW1 1433   2.652   5.762   4.700
  178SOL    HW2 1434   2.666   5.653   4.820
  179SOL     OW 1435   3.128   4.233   1.343
  179SOL    HW1 1436   3.084   4.144   1.337
  179SOL    HW2 1437   3.170   4.244   1.433
  180SOL     OW 1438   4.602   1.096   6.997
  180SOL    HW1 1439   4.582   1.045   6.913
  180SOL    HW2 1440   4.650   1.181   6.974
  181SOL     OW 1441   3.373   2.349   6.145
  181SOL    HW1 1442   3.280   2.375   6.169
  181SOL    HW2 1443   3.374   2.308   6.054
  182SOL     OW 1444   3.366   2.589   5.808
  182SOL    HW1 1445   3.270   2.578   5.833
  182SOL    HW2 1446   3.378   2.569   5.711
  183SOL     OW 1447   2.726   0.886   3.577
  183SOL    HW1 1448   2.711   0.985   3.582
  183SOL    HW2 1449   2.748   0.852   3.668
  184SOL     OW 1450   5.259   5.664   3.983
  184SOL    HW1 1451   5.335   5.600   3.978
  184SOL    HW2 1452   5.175   5.618   3.952
  185SOL     OW 1453   0.012   0.436   4.702
  185SOL    HW1 1454   6.971   0.367   4.663
  185SOL    HW2 1455   0.062   0.481   4.628
  186SOL     OW 1456   3.612   5.823   5.144
  186SOL    HW1 1457   3.527   5.773   5.163
  186SOL    HW2 1458   3.666   5.772   5.078
  187SOL     OW 1459   4.175   6.040   1.636
  187SOL    HW1 1460   4.076   6.029   1.639
  187SOL    HW2 1461   4.218   5.972   1.694
  188SOL     OW 1462   1.452   3.326   3.194
  188SOL    HW1 1463   1.459   3.287   3.286
  188SOL    HW2 1464   1.360   3.309   3.158
  189SOL     OW 1465   5.527   5.149   5.207
  189SOL    HW1 1466   5.487   5.197   5.129
  189SOL    HW2 1467   5.498   5.053   5.206
  190SOL     OW 1468   5.718   0.109   0.744
  190SOL    HW1 1469   5.815   0.133   0.751
  190SOL    HW2 1470   5.663   0.190   0.763
  191SOL     OW 1471   0.452   1.951   5.594
  191SOL    HW1 1472   0.509   1.945   5.676
  191SOL    HW2 1473   0.361   1.984   5.619
  192SOL     OW 1474   0.572   5.624   1.270
  192SOL    HW1 1475   0.511   5.679   1.214
  192SOL    HW2 1476   0.635   5.573   1.212
  193SOL     OW 1477   2.172   0.230   0.708
  193SOL    HW1 1478   2.193   0.299   0.778
  193SOL    HW2 1479   2.158   0.141   0.751
  194SOL     OW 1480   3.829   5.679   2.238
  194SOL    HW1 1481   3.899   5.688   2.309
  194SOL    HW2 1482   3.740   5.701   2.277
  195SOL     OW 1483   4.038   0.523   1.345
  195SOL    HW1 1484   4.019   0.490   1.437
  195SOL    HW2 1485   3.982   0.603   1.325
  196SOL     OW 1486   3.899   2.379   0.735
  196SOL    HW1 1487   3.982   2.334   0.767
  196SOL    HW2 1488   3.840   2.400   0.814
  197SOL     OW 1489   1.833   5.918   0.346
  197SOL    HW1 1490   1.904   5.977   0.307
  197SOL    HW2 1491   1.865   5.879   0.432
  198SOL     OW 1492   3.839   6.921   6.523
  198SOL    HW1 1493   3.872   6.937   6.616
  198SOL    HW2 1494   3.865   6.998   6.465
  199SOL     OW 1495   0.619   0.354   2.895
  199SOL    HW1 1496   0.586   0.436   2.848
  199SOL    HW2 1497   0.583   0.353   2.988
  200SOL     OW 1498   1.058   4.685   3.211
  200SOL    HW1 1499   1.030   4.590   3.224
  200SOL    HW2 1500   0.992   4.745   3.258
  201SOL     OW 1501   5.248   1.462   6.702
  201SOL    HW1 1502   5.279   1.444   6.795
  201SOL    HW2 1503   5.267   1.382   6.645
  202SOL     OW 1504   3.546   0.965   2.397
  202SOL    HW1 1505   3.591   1.046   2.434
  202SOL    HW2 1506   3.614   0.898   2.367
  203SOL     OW 1507   6.158   2.982   6.559
  203SOL    HW1 1508   6.168   2.885   6.582
  203SOL    HW2 1509   6.232   3.034   6.602
  204SOL     OW 1510   2.529   6.492   1.658
  204SOL    HW1 1511   2.591   6.508   1.581
  204SOL    HW2 1512   2.493   6.579   1.691
  205SOL     OW 1513   5.596   0.749   0.946
  205SOL    HW1 1514   5.627   0.792   0.861
  205SOL    HW2 1515   5.549   0.663   0.924
  206SOL     OW 1516   0.455   5.198   1.745
  206SOL    HW1 1517   0.406   5.143   1.678
  206SOL    HW2 1518   0.537   5.150   1.775
  207SOL     OW 1519   4.750   1.629   5.543
  207SOL    HW1 1520   4.809   1.552   5.567
  207SOL    HW2 1521   4.785   1.674   5.461
  208SOL     OW 1522   3.627   4.909   6.405
  208SOL    HW1 1523   3.699   4.842   6.422
  208SOL    HW2 1524   3.587   4.937   6.492
  209SOL     OW 1525   6.659   5.358   5.120
  209SOL    HW1 1526   6.575   5.384   5.167
  209SOL    HW2 1527   6.686   5.266   5.149
  210SOL     OW 1528   3.889   2.128   2.155
  210SOL    HW1 1529   3.974   2.158   2.112
  210SOL    HW2 1530   3.811   2.160   2.101
  211SOL     OW 1531   1.181   2.172   1.951
  211SOL    HW1 1532   1.162   2.181   2.049
  211SOL    HW2 1533   1.099   2.142   1.904
  212SOL     OW 1534   0.809   4.813   4.523
  212SOL    HW1 1535   0.865   4.864   4.457
  212SOL    HW2 1536   0.759   4.878   4.581
  213SOL     OW 1537   4.448   2.711   6.452
  213SOL    HW1 1538   4.442   2.805   6.487
  213SOL    HW2 1539   4.483   2.651   6.523
  214SOL     OW 1540   1.673   6.540   3.211
  214SOL    HW1 1541   1.623   6.454   3.197
  214SOL    HW2 1542   1.607   6.614   3.227
  215SOL     OW 1543   3.573   3.527   2.793
  215SOL    HW1 1544   3.605   3.568   2.879
  215SOL    HW2 1545   3.632   3.449   2.770
  216SOL     OW 1546   1.510   6.332   5.747
  216SOL    HW1 1547   1.426   6.283   5.726
  216SOL    HW2 1548   1.487   6.417   5.796
  217SOL     OW 1549   0.300   2.583   3.907
  217SOL    HW1 1550   0.228   2.607   3.972
  217SOL    HW2 1551   0.387   2.575   3.956
  218SOL     OW 1552   1.973   3.901   5.644
  218SOL    HW1 1553   1.999   3.881   5.739
  218SOL    HW2 1554   1.910   3.978   5.642
  219SOL     OW 1555   4.158   5.589   0.684
  219SOL    HW1 1556   4.214   5.544   0.753
  219SOL    HW2 1557   4.155   5.532   0.602
  220SOL     OW 1558   1.695   4.548   0.648
  220SOL    HW1 1559   1.680   4.451   0.663
  220SOL    HW2 1560   1.741   4.563   0.560
  221SOL     OW 1561   6.556   2.778   3.887
  221SOL    HW1 1562   6.487   2.787   3.958
  221SOL    HW2 1563   6.629   2.846   3.902
  222SOL     OW 1564   1.221   5.945   4.753
  222SOL    HW1 1565   1.194   6.012   4.822
  222SOL    HW2 1566   1.235   5.992   4.665
  223SOL     OW 1567   5.825   4.376   2.728
  223SOL    HW1 1568   5.755   4.330   2.673
  223SOL    HW2 1569   5.863   4.453   2.675
  224SOL     OW 1570   3.474   2.053   2.149
  224SOL    HW1 1571   3.550   2.117   2.132
  224SOL    HW2 1572   3.403   2.068   2.080
  225SOL     OW 1573   0.144   0.155   1.224
  225SOL    HW1 1574   0.227   0.103   1.206
  225SOL    HW2 1575   0.113   0.138   1.317
  226SOL     OW 1576   0.194   6.102   1.508
  226SOL    HW1 1577   0.227   6.034   1.574
  226SOL    HW2 1578   0.272   6.146   1.464
  227SOL     OW 1579   1.717   2.969   2.815
  227SOL    HW1 1580   1.783   2.923   2.875
  227SOL    HW2 1581   1.756   3.056   2.784
  228SOL     OW 1582   3.919   6.548   2.623
  228SOL    HW1 1583   3.849   6.497   2.572
  228SOL    HW2 1584   3.882   6.574   2.713
  229SOL     OW 1585   6.160   5.598   3.071
  229SOL    HW1 1586   6.106   5.610   2.987
  229SOL    HW2 1587   6.220   5.518   3.061
  230SOL     OW 1588   0.880   4.350   6.066
  230SOL    HW1 1589   0.887   4.252   6.047
  230SOL    HW2 1590   0.847   4.363   6.160
  231SOL     OW 1591   0.694   1.764   0.511
  231SOL    HW1 1592   0.715   1.862   0.515
  231SOL    HW2 1593   0.630   1.747   0.436
  232SOL     OW 1594   2.142   4.320   6.474
  232SOL    HW1 1595   2.197   4.237   6.472
  232SOL    HW2 1596   2.079   4.316   6.551
  233SOL     OW 1597   3.255   0.888   6.008
  233SOL    HW1 1598   3.338   0.931   6.044
  233SOL    HW2 1599   3.186   0.958   5.992
  234SOL     OW 1600   2.769   5.559   6.861
  234SOL    HW1 1601   2.761   5.658   6.875
  234SOL    HW2 1602   2.732   5.535   6.772
  235SOL     OW 1603   4.056   3.173   4.292
  235SOL    HW1 1604   4.062   3.108   4.368
  235SOL    HW2 1605   4.051   3.266   4.328
  236SOL     OW 1606   6.792   1.896   5.526
  236SOL    HW1 1607   6.890   1.899   5.544
  236SOL    HW2 1608   6.776   1.862   5.433
  237SOL     OW 1609   0.075   6.533   1.862
  237SOL    HW1 1610   0.130   6.450   1.874
  237SOL    HW2 1611   0.134   6.613   1.863
  238SOL     OW 1612   6.995   2.089   2.114
  238SOL    HW1 1613   6.984   2.188   2.123
  238SOL    HW2 1614   0.071   2.068   2.098
  239SOL     OW 1615   0.430   5.847   1.149
  239SOL    HW1 1616   0.435   5.860   1.050
  239SOL    HW2 1617   0.502   5.901   1.194
  240SOL     OW 1618   6.965   2.915   5.591
  240SOL    HW1 1619   6.903   2.973   5.537
  240SOL    HW2 1620   6.951   2.932   5.688
  241SOL     OW 1621   6.365   1.937   4.238
  241SOL    HW1 1622   6.392   1.906   4.147
  241SOL    HW2 1623   6.266   1.952   4.240
  242SOL     OW 1624   2.032   2.672   3.425
  242SOL    HW1 1625   2.126   2.672   3.458
  242SOL    HW2 1626   1.986   2.589   3.456
  243SOL     OW 1627   3.941   1.068   6.206
  243SOL    HW1 1628   4.020   1.016   6.238
  243SOL    HW2 1629   3.924   1.144   6.269
  244SOL     OW 1630   6.661   0.648   6.062
  244SOL    HW1 1631   6.727   0.606   6.125
  244SOL    HW2 1632   6.695   0.737   6.032
  245SOL     OW 1633   5.656   2.901   3.572
  245SOL    HW1 1634   5.710   2.842   3.632
  245SOL    HW2 1635   5.646   2.858   3.482
  246SOL     OW 1636   4.900   3.552   3.696
  246SOL    HW1 1637   4.860   3.546   3.605
  246SOL    HW2 1638   4.994   3.519   3.693
  247SOL     OW 1639   2.881   0.183   3.536
  247SOL    HW1 1640   2.790   0.148   3.516
  247SOL    HW2 1641   2.921   0.132   3.613
  248SOL     OW 1642   6.552   1.267   2.075
  248SOL    HW1 1643   6.629   1.246   2.015
  248SOL    HW2 1644   6.470   1.220   2.043
  249SOL     OW 1645   2.207   6.183   4.386
  249SOL    HW1 1646   2.167   6.271   4.411
  249SOL    HW2 1647   2.133   6.116   4.372
  250SOL     OW 1648   5.561   3.220   6.341
  250SOL    HW1 1649   5.656   3.224   6.370
  250SOL    HW2 1650   5.501   3.246   6.417
  251SOL     OW 1651   1.992   2.571   0.815
  251SOL    HW1 1652   1.977   2.566   0.717
  251SOL    HW2 1653   2.056   2.499   0.842
  252SOL     OW 1654   0.755   1.514   0.671
  252SOL    HW1 1655   0.685   1.444   0.658
  252SOL    HW2 1656   0.745   1.585   0.601
  253SOL     OW 1657   1.649   3.880   5.701
  253SOL    HW1 1658   1.685   3.788   5.712
  253SOL    HW2 1659   1.560   3.887   5.746
  254SOL     OW 1660   5.145   3.790   5.858
  254SOL    HW1 1661   5.146   3.890   5.849
  254SOL    HW2 1662   5.135   3.765   5.954
  255SOL     OW 1663   3.323   1.810   2.886
  255SOL    HW1 1664   3.338   1.811   2.985
  255SOL    HW2 1665   3.269   1.890   2.860
  256SOL     OW 1666   0.026   5.535   1.228
  256SOL    HW1 1667   0.019   5.566   1.323
  256SOL    HW2 1668   0.100   5.468   1.220
  257SOL     OW 1669   3.364   5.397   6.592
  257SOL    HW1 1670   3.398   5.307   6.562
  257SOL    HW2 1671   3.419   5.429   6.670
  258SOL     OW 1672   4.844   4.208   4.070
  258SOL    HW1 1673   4.934   4.251   4.075
  258SOL    HW2 1674   4.819   4.194   3.974
  259SOL     OW 1675   1.160   2.009   3.513
  259SOL    HW1 1676   1.170   2.108   3.504
  259SOL    HW2 1677   1.249   1.969   3.537
  260SOL     OW 1678   6.605   6.856   5.666
  260SOL    HW1 1679   6.551   6.940   5.662
  260SOL    HW2 1680   6.654   6.852   5.753
  261SOL     OW 1681   0.197   1.627   3.164
  261SOL    HW1 1682   0.253   1.571   3.225
  261SOL    HW2 1683   0.197   1.722   3.196
  262SOL     OW 1684   2.147   4.811   1.979
  262SOL    HW1 1685   2.155   4.738   2.047
  262SOL    HW2 1686   2.138   4.899   2.026
  263SOL     OW 1687   6.381   2.722   5.192
  263SOL    HW1 1688   6.328   2.685   5.116
  263SOL    HW2 1689   6.320   2.740   5.270
  264SOL     OW 1690   3.532   3.786   6.256
  264SOL    HW1 1691   3.467   3.756   6.326
  264SOL    HW2 1692   3.573   3.706   6.212
  265SOL     OW 1693   5.256   5.648   4.963
  265SOL    HW1 1694   5.159   5.624   4.964
  265SOL    HW2 1695   5.289   5.658   5.057
  266SOL     OW 1696   3.359   2.917   6.471
  266SOL    HW1 1697   3.442   2.955   6.431
  266SOL    HW2 1698   3.329   2.837   6.419
  267SOL     OW 1699   1.860   1.173   6.128
  267SOL    HW1 1700   1.793   1.246   6.147
  267SOL    HW2 1701   1.930   1.174   6.199
  268SOL     OW 1702   3.197   5.503   3.703
  268SOL    HW1 1703   3.219   5.601   3.704
  268SOL    HW2 1704   3.260   5.456   3.641
  269SOL     OW 1705   1.670   0.732   4.710
  269SOL    HW1 1706   1.639   0.814   4.759
  269SOL    HW2 1707   1.591   0.676   4.684
  270SOL     OW 1708   5.120   6.653   4.486
  270SOL    HW1 1709   5.212   6.661   4.449
  270SOL    HW2 1710   5.054   6.683   4.418
  271SOL     OW 1711   1.486   1.769   0.684
  271SOL    HW1 1712   1.545   1.804   0.757
  271SOL    HW2 1713   1.399   1.739   0.724
  272SOL     OW 1714   4.730   5.863   1.897
  272SOL    HW1 1715   4.704   5.835   1.990
  272SOL    HW2 1716   4.754   5.960   1.897
  273SOL     OW 1717   2.584   6.395   4.517
  273SOL    HW1 1718   2.544   6.485   4.498
  273SOL    HW2 1719   2.513   6.334   4.552
  274SOL     OW 1720   6.049   1.758   0.961
  274SOL    HW1 1721   6.092   1.820   1.026
  274SOL    HW2 1722   6.057   1.796   0.869
  275SOL     OW 1723   5.443   6.094   5.897
  275SOL    HW1 1724   5.412   6.101   5.803
  275SOL    HW2 1725   5.537   6.060   5.899
  276SOL     OW 1726   6.837   6.581   4.069
  276SOL    HW1 1727   6.773   6.606   4.142
  276SOL    HW2 1728   6.880   6.493   4.092
  277SOL     OW 1729   4.785   2.525   5.307
  277SOL    HW1 1730   4.774   2.624   5.317
  277SOL    HW2 1731   4.730   2.493   5.230
  278SOL     OW 1732   5.874   3.822   3.450
  278SOL    HW1 1733   5.784   3.823   3.405
  278SOL    HW2 1734   5.939   3.770   3.394
  279SOL     OW 1735   0.287   3.471   3.925
  279SOL    HW1 1736   0.339   3.536   3.870
  279SOL    HW2 1737   0.220   3.520   3.980
  280SOL     OW 1738   3.784   1.519   3.680
  280SOL    HW1 1739   3.713   1.460   3.641
  280SOL    HW2 1740   3.760   1.614   3.665
  281SOL     OW 1741   5.104   6.461   5.036
  281SOL    HW1 1742   5.073   6.407   4.958
  281SOL    HW2 1743   5.028   6.516   5.071
  282SOL     OW 1744   1.226   2.614   0.447
  282SOL    HW1 1745   1.228   2.708   0.413
  282SOL    HW2 1746   1.314   2.570   0.427
  283SOL     OW 1747   5.220   3.716   4.469
  283SOL    HW1 1748   5.180   3.676   4.387
  283SOL    HW2 1749   5.202   3.656   4.547
  284SOL     OW 1750   5.136   5.653   2.583
  284SOL    HW1 1751   5.081   5.578   2.617
  284SOL    HW2 1752   5.192   5.622   2.506
  285SOL     OW 1753   4.215   1.039   5.847
  285SOL    HW1 1754   4.170   1.115   5.894
  285SOL    HW2 1755   4.254   0.977   5.914
  286SOL     OW 1756   2.672   4.910   5.566
  286SOL    HW1 1757   2.738   4.985   5.567
  286SOL    HW2 1758   2.587   4.942   5.525
  287SOL     OW 1759   3.808   6.974   0.049
  287SOL    HW1 1760   3.724   7.007   0.092
  287SOL    HW2 1761   3.803   6.875   0.039
  288SOL     OW 1762   4.556   1.940   0.516
  288SOL    HW1 1763   4.646   1.982   0.505
  288SOL    HW2 1764   4.485   2.010   0.507
  289SOL     OW 1765   6.278   5.393   4.048
  289SOL    HW1 1766   6.310   5.456   3.977
  289SOL    HW2 1767   6.220   5.443   4.112
  290SOL     OW 1768   3.724   0.925   6.277
  290SOL    HW1 1769   3.791   0.986   6.234
  290SOL    HW2 1770   3.698   0.961   6.366
  291SOL     OW 1771   3.820   0.598   5.562
  291SOL    HW1 1772   3.918   0.581   5.554
  291SOL    HW2 1773   3.804   0.695   5.580
  292SOL     OW 1774   4.265   0.220   3.876
  292SOL    HW1 1775   4.170   0.252   3.873
  292SOL    HW2 1776   4.282   0.176   3.965
  293SOL     OW 1777   5.249   6.289   2.582
  293SOL    HW1 1778   5.239   6.317   2.487
  293SOL    HW2 1779   5.332   6.329   2.620
  294SOL     OW 1780   6.408   1.284   6.414
  294SOL    HW1 1781   6.427   1.198   6.367
  294SOL    HW2 1782   6.493   1.335   6.426
  295SOL     OW 1783   1.159   0.468   4.408
  295SOL    HW1 1784   1.185   0.418   4.326
  295SOL    HW2 1785   1.059   0.467   4.417
  296SOL     OW 1786   0.805   2.244   2.144
  296SOL    HW1 1787   0.791   2.226   2.046
  296SOL    HW2 1788   0.748   2.322   2.171
  297SOL     OW 1789   5.578   3.500   3.149
  297SOL    HW1 1790   5.533   3.550   3.223
  297SOL    HW2 1791   5.570   3.553   3.064
  298SOL     OW 1792   4.385   0.904   6.033
  298SOL    HW1 1793   4.398   0.884   6.130
  298SOL    HW2 1794   4.397   1.002   6.017
  299SOL     OW 1795   1.156   0.434   6.677
  299SOL    HW1 1796   1.180   0.513   6.733
  299SOL    HW2 1797   1.144   0.354   6.735
  300SOL     OW 1798   4.351   0.143   3.400
  300SOL    HW1 1799   4.382   0.130   3.495
  300SOL    HW2 1800   4.256   0.112   3.392
  301SOL     OW 1801   6.246   5.268   6.532
  301SOL    HW1 1802   6.288   5.329   6.599
  301SOL    HW2 1803   6.223   5.181   6.576
  302SOL     OW 1804   6.684   5.835   2.495
  302SOL    HW1 1805   6.680   5.824   2.595
  302SOL    HW2 1806   6.777   5.819   2.463
  303SOL     OW 1807   5.538   5.428   3.520
  303SOL    HW1 1808   5.472   5.357   3.543
  303SOL    HW2 1809   5.604   5.392   3.454
  304SOL     OW 1810   2.308   6.141   4.853
  304SOL    HW1 1811   2.249   6.069   4.889
  304SOL    HW2 1812   2.391   6.147   4.908
  305SOL     OW 1813   0.877   2.421   1.764
  305SOL    HW1 1814   0.850   2.491   1.830
  305SOL    HW2 1815   0.811   2.347   1.765
  306SOL     OW 1816   7.016   6.907   3.300
  306SOL    HW1 1817   0.046   6.827   3.333
  306SOL    HW2 1818   6.927   6.911   3.344
  307SOL     OW 1819   3.554   3.228   4.400
  307SOL    HW1 1820   3.597   3.288   4.332
  307SOL    HW2 1821   3.595   3.137   4.394
  308SOL     OW 1822   6.352   1.995   2.674
  308SOL    HW1 1823   6.344   1.913   2.731
  308SOL    HW2 1824   6.373   2.073   2.732
  309SOL     OW 1825   1.665   5.499   6.679
  309SOL    HW1 1826   1.615   5.582   6.702
  309SOL    HW2 1827   1.736   5.483   6.748
  310SOL     OW 1828   5.684   6.648   5.103
  310SOL    HW1 1829   5.737   6.576   5.146
  310SOL    HW2 1830   5.619   6.607   5.038
  311SOL     OW 1831   1.732   6.130   2.247
  311SOL    HW1 1832   1.634   6.145   2.229
  311SOL    HW2 1833   1.746   6.113   2.344
  312SOL     OW 1834   3.407   0.204   3.589
  312SOL    HW1 1835   3.395   0.184   3.686
  312SOL    HW2 1836   3.448   0.295   3.579
  313SOL     OW 1837   3.039   3.857   2.616
  313SOL    HW1 1838   3.016   3.898   2.528
  313SOL    HW2 1839   3.104   3.915   2.664
  314SOL     OW 1840   3.123   5.751   6.174
  314SOL    HW1 1841   3.052   5.780   6.237
  314SOL    HW2 1842   3.115   5.803   6.088
  315SOL     OW 1843   6.092   0.873   4.388
  315SOL    HW1 1844   6.097   0.944   4.459
  315SOL    HW2 1845   6.152   0.798   4.412
  316SOL     OW 1846   4.168   0.929   6.292
  316SOL    HW1 1847   4.265   0.915   6.313
  316SOL    HW2 1848   4.143   0.876   6.211
  317SOL     OW 1849   0.985   2.240   1.013
  317SOL    HW1 1850   0.897   2.268   1.052
  317SOL    HW2 1851   1.005   2.298   0.934
  318SOL     OW 1852   0.717   0.129   5.578
  318SOL    HW1 1853   0.626   0.104   5.609
  318SOL    HW2 1854   0.713   0.215   5.528
  319SOL     OW 1855   0.038   0.958   3.763
  319SOL    HW1 1856   0.074   1.051   3.756
  319SOL    HW2 1857   0.012   0.940   3.858
  320SOL     OW 1858   5.615   2.102   6.805
  320SOL    HW1 1859   5.618   2.060   6.895
  320SOL    HW2 1860   5.705   2.135   6.780
  321SOL     OW 1861   5.234   2.726   0.774
  321SOL    HW1 1862   5.221   2.654   0.842
  321SOL    HW2 1863   5.145   2.757   0.741
  322SOL     OW 1864   3.047   2.710   6.527
  322SOL    HW1 1865   3.024   2.803   6.554
  322SOL    HW2 1866   3.014   2.646   6.597
  323SOL     OW 1867   1.882   4.032   2.759
  323SOL    HW1 1868   1.922   4.109   2.808
  323SOL    HW2 1869   1.824   4.067   2.685
  324SOL     OW 1870   0.577   6.859   2.719
  324SOL    HW1 1871   0.649   6.794   2.693
  324SOL    HW2 1872   0.618   6.946   2.744
  325SOL     OW 1873   0.151   4.233   0.680
  325SOL    HW1 1874   0.073   4.275   0.725
  325SOL    HW2 1875   0.235   4.278   0.710
  326SOL     OW 1876   0.600   6.231   6.957
  326SOL    HW1 1877   0.552   6.151   6.922
  326SOL    HW2 1878   0.620   6.219   0.034
  327SOL     OW 1879   5.107   5.345   4.998
  327SOL    HW1 1880   5.046   5.424   4.986
  327SOL    HW2 1881   5.063   5.278   5.058
  328SOL     OW 1882   1.318   4.707   3.133
  328SOL    HW1 1883   1.222   4.711   3.160
  328SOL    HW2 1884   1.372   4.765   3.193
  329SOL     OW 1885   3.261   3.368   1.690
  329SOL    HW1 1886   3.328   3.437   1.719
  329SOL    HW2 1887   3.217   3.328   1.770
  330SOL     OW 1888   3.020   4.307   0.607
  330SOL    HW1 1889   2.931   4.266   0.586
  330SOL    HW2 1890   3.067   4.330   0.521
  331SOL     OW 1891   5.990   4.993   5.766
  331SOL    HW1 1892   5.935   4.910   5.760
  331SOL    HW2 1893   5.929   5.073   5.759
  332SOL     OW 1894   5.681   2.516   2.658
  332SOL    HW1 1895   5.719   2.600   2.619
  332SOL    HW2 1896   5.681   2.522   2.757
  333SOL     OW 1897   3.097   0.813   5.185
  333SOL    HW1 1898   3.050   0.854   5.107
  333SOL    HW2 1899   3.030   0.788   5.255
  334SOL     OW 1900   3.873   3.583   3.322
  334SOL    HW1 1901   3.965   3.592   3.358
  334SOL    HW2 1902   3.806   3.600   3.394
  335SOL     OW 1903   4.197   1.512   0.987
  335SOL    HW1 1904   4.279   1.536   0.935
  335SOL    HW2 1905   4.116   1.545   0.938
  336SOL     OW 1906   3.345   1.316   4.485
  336SOL    HW1 1907   3.305   1.293   4.397
  336SOL    HW2 1908   3.275   1.311   4.556
  337SOL     OW 1909   0.939   0.592   5.494
  337SOL    HW1 1910   0.855   0.604   5.547
  337SOL    HW2 1911   1.015   0.635   5.543
  338SOL     OW 1912   4.322   1.449   1.246
  338SOL    HW1 1913   4.295   1.462   1.151
  338SOL    HW2 1914   4.250   1.484   1.306
  339SOL     OW 1915   4.022   5.665   5.909
  339SOL    HW1 1916   4.115   5.672   5.945
  339SOL    HW2 1917   3.968   5.745   5.937
  340SOL     OW 1918   4.982   1.813   3.933
  340SOL    HW1 1919   5.058   1.857   3.884
  340SOL    HW2 1920   4.925   1.764   3.867
  341SOL     OW 1921   6.564   6.080   3.155
  341SOL    HW1 1922   6.599   5.988   3.174
  341SOL    HW2 1923   6.487   6.073   3.092
  342SOL     OW 1924   5.147   1.892   2.508
  342SOL    HW1 1925   5.139   1.942   2.594
  342SOL    HW2 1926   5.069   1.830   2.499
  343SOL     OW 1927   6.918   6.728   2.523
  343SOL    HW1 1928   6.865   6.685   2.596
  343SOL    HW2 1929   6.948   6.659   2.457
  344SOL     OW 1930   0.580   2.193   0.956
  344SOL    HW1 1931   0.486   2.225   0.941
  344SOL    HW2 1932   0.579   2.116   1.020
  345SOL     OW 1933   6.782   2.867   4.196
  345SOL    HW1 1934   6.813   2.774   4.216
  345SOL    HW2 1935   6.692   2.882   4.238
  346SOL     OW 1936   2.338   6.620   3.813
  346SOL    HW1 1937   2.266   6.601   3.879
  346SOL    HW2 1938   2.357   6.718   3.811
  347SOL     OW 1939   2.448   4.687   0.370
  347SOL    HW1 1940   2.382   4.622   0.332
  347SOL    HW2 1941   2.414   4.780   0.356
  348SOL     OW 1942   4.738   5.225   1.535
  348SOL    HW1 1943   4.658   5.270   1.573
  348SOL    HW2 1944   4.776   5.280   1.461
  349SOL     OW 1945   5.892   3.988   0.854
  349SOL    HW1 1946   5.992   3.992   0.865
  349SOL    HW2 1947   5.858   3.901   0.891
  350SOL     OW 1948   3.626   2.656   0.311
  350SOL    HW1 1949   3.615   2.576   0.369
  350SOL    HW2 1950   3.635   2.627   0.216
  351SOL     OW 1951   3.322   4.555   1.062
  351SOL    HW1 1952   3.409   4.572   1.109
  351SOL    HW2 1953   3.293   4.461   1.078
  352SOL     OW 1954   4.740   0.415   2.630
  352SOL    HW1 1955   4.740   0.415   2.530
  352SOL    HW2 1956   4.833   0.400   2.663
  353SOL     OW 1957   1.640   0.290   6.756
  353SOL    HW1 1958   1.581   0.209   6.750
  353SOL    HW2 1959   1.698   0.295   6.674
  354SOL     OW 1960   0.220   2.250   0.311
  354SOL    HW1 1961   0.228   2.254   0.411
  354SOL    HW2 1962   0.127   2.274   0.284
  355SOL     OW 1963   0.978   2.246   2.906
  355SOL    HW1 1964   0.964   2.150   2.882
  355SOL    HW2 1965   0.969   2.257   3.005
  356SOL     OW 1966   1.886   1.087   5.720
  356SOL    HW1 1967   1.854   1.070   5.627
  356SOL    HW2 1968   1.873   1.005   5.775
  357SOL     OW 1969   4.981   0.327   5.159
  357SOL    HW1 1970   5.044   0.290   5.227
  357SOL    HW2 1971   5.032   0.387   5.096
  358SOL     OW 1972   3.451   6.108   6.659
  358SOL    HW1 1973   3.445   6.052   6.576
  358SOL    HW2 1974   3.372   6.170   6.663
  359SOL     OW 1975   1.661   2.178   2.592
  359SOL    HW1 1976   1.685   2.117   2.516
  359SOL    HW2 1977   1.635   2.268   2.556
  360SOL     OW 1978   0.790   4.762   4.200
  360SOL    HW1 1979   0.823   4.844   4.247
  360SOL    HW2 1980   0.720   4.788   4.133
  361SOL     OW 1981   6.595   1.953   2.547
  361SOL    HW1 1982   6.639   1.901   2.620
  361SOL    HW2 1983   6.503   1.980   2.575
  362SOL     OW 1984   3.722   3.888   0.708
  362SOL    HW1 1985   3.775   3.810   0.740
  362SOL    HW2 1986   3.731   3.963   0.775
  363SOL     OW 1987   5.211   5.352   1.538
  363SOL    HW1 1988   5.195   5.257   1.566
  363SOL    HW2 1989   5.261   5.354   1.452
  364SOL     OW 1990   0.969   6.740   6.411
  364SOL    HW1 1991   0.880   6.765   6.372
  364SOL    HW2 1992   0.984   6.791   6.495
  365SOL     OW 1993   5.164   1.878   3.360
  365SOL    HW1 1994   5.197   1.784   3.370
  365SOL    HW2 1995   5.092   1.896   3.427
  366SOL     OW 1996   5.692   1.418   6.683
  366SOL    HW1 1997   5.645   1.478   6.748
  366SOL    HW2 1998   5.634   1.402   6.603
  367SOL     OW 1999   5.857   1.656   6.173
  367SOL    HW1 2000   5.864   1.741   6.224
  367SOL    HW2 2001   5.761   1.632   6.158
  368SOL     OW 2002   7.015   2.085   5.638
  368SOL    HW1 2003   6.953   2.103   5.561
  368SOL    HW2 2004   6.989   2.143   5.715
  369SOL     OW 2005   6.690   3.781   1.743
  369SOL    HW1 2006   6.685   3.831   1.657
  369SOL    HW2 2007   6.597   3.761   1.776
  370SOL     OW 2008   1.547   3.023   3.739
  370SOL    HW1 2009   1.508   3.017   3.831
  370SOL    HW2 2010   1.558   2.931   3.702
  371SOL     OW 2011   0.833   4.567   6.582
  371SOL    HW1 2012   0.780   4.541   6.662
  371SOL    HW2 2013   0.926   4.593   6.611
  372SOL     OW 2014   3.981   6.204   6.557
  372SOL    HW1 2015   3.987   6.303   6.568
  372SOL    HW2 2016   3.894   6.172   6.594
  373SOL     OW 2017   5.724   5.073   3.918
  373SOL    HW1 2018   5.817   5.071   3.955
  373SOL    HW2 2019   5.701   5.166   3.889
  374SOL     OW 2020   2.599   1.286   2.972
  374SOL    HW1 2021   2.621   1.219   2.902
  374SOL    HW2 2022   2.683   1.329   3.006
  375SOL     OW 2023   1.094   5.552   4.237
  375SOL    HW1 2024   1.079   5.527   4.333
  375SOL    HW2 2025   1.009   5.538   4.186
  376SOL     OW 2026   2.768   0.762   3.802
  376SOL    HW1 2027   2.791   0.665   3.787
  376SOL    HW2 2028   2.831   0.801   3.869
  377SOL     OW 2029   1.533   1.931   0.261
  377SOL    HW1 2030   1.627   1.946   0.229
  377SOL    HW2 2031   1.469   1.971   0.196
  378SOL     OW 2032   3.903   1.306   1.925
  378SOL    HW1 2033   3.988   1.256   1.940
  378SOL    HW2 2034   3.833   1.272   1.987
  379SOL     OW 2035   5.374   1.856   6.366
  379SOL    HW1 2036   5.405   1.828   6.457
  379SOL    HW2 2037   5.294   1.801   6.339
  380SOL     OW 2038   4.385   2.554   0.376
  380SOL    HW1 2039   4.400   2.549   0.278
  380SOL    HW2 2040   4.439   2.629   0.414
  381SOL     OW 2041   1.659   3.764   3.138
  381SOL    HW1 2042   1.702   3.850   3.163
  381SOL    HW2 2043   1.727   3.702   3.099
  382SOL     OW 2044   4.638   0.972   6.741
  382SOL    HW1 2045   4.676   0.945   6.652
  382SOL    HW2 2046   4.544   0.937   6.749
  383SOL     OW 2047   5.200   1.832   0.647
  383SOL    HW1 2048   5.269   1.796   0.710
  383SOL    HW2 2049   5.129   1.764   0.634
  384SOL     OW 2050   6.386   3.697   4.883
  384SOL    HW1 2051   6.354   3.784   4.844
  384SOL    HW2 2052   6.484   3.688   4.869
  385SOL     OW 2053   3.986   3.056   6.965
  385SOL    HW1 2054   4.037   3.142   6.960
  385SOL    HW2 2055   3.963   3.026   6.873
  386SOL     OW 2056   3.821   6.189   3.771
  386SOL    HW1 2057   3.771   6.241   3.702
  386SOL    HW2 2058   3.895   6.138   3.726
  387SOL     OW 2059   3.267   6.552   3.701
  387SOL    HW1 2060   3.180   6.579   3.742
  387SOL    HW2 2061   3.309   6.631   3.655
  388SOL     OW 2062   1.891   4.433   6.977
  388SOL    HW1 2063   1.860   4.338   6.983
  388SOL    HW2 2064   1.824   4.487   6.926
  389SOL     OW 2065   3.038   3.201   2.823
  389SOL    HW1 2066   2.989   3.286   2.840
  389SOL    HW2 2067   2.986   3.124   2.861
  390SOL     OW 2068   2.278   1.255   3.974
  390SOL    HW1 2069   2.293   1.331   3.911
  390SOL    HW2 2070   2.278   1.289   4.068
  391SOL     OW 2071   0.762   2.670   6.716
  391SOL    HW1 2072   0.674   2.623   6.705
  391SOL    HW2 2073   0.776   2.734   6.641
  392SOL     OW 2074   2.901   5.728   3.189
  392SOL    HW1 2075   2.816   5.772   3.161
  392SOL    HW2 2076   2.889   5.684   3.278
  393SOL     OW 2077   5.921   4.269   4.926
  393SOL    HW1 2078   5.843   4.209   4.909
  393SOL    HW2 2079   5.891   4.364   4.924
  394SOL     OW 2080   2.441   0.157   6.708
  394SOL    HW1 2081   2.391   0.209   6.777
  394SOL    HW2 2082   2.380   0.091   6.664
  395SOL     OW 2083   6.433   3.267   0.708
  395SOL    HW1 2084   6.482   3.333   0.651
  395SOL    HW2 2085   6.447   3.290   0.804
  396SOL     OW 2086   2.973   3.277   4.602
  396SOL    HW1 2087   3.018   3.229   4.527
  396SOL    HW2 2088   2.987   3.227   4.687
  397SOL     OW 2089   4.542   2.404   6.526
  397SOL    HW1 2090   4.454   2.375   6.564
  397SOL    HW2 2091   4.587   2.326   6.482
  398SOL     OW 2092   1.469   5.105   2.042
  398SOL    HW1 2093   1.543   5.053   1.999
  398SOL    HW2 2094   1.500   5.140   2.130
  399SOL     OW 2095   5.436   5.207   1.993
  399SOL    HW1 2096   5.349   5.249   2.019
  399SOL    HW2 2097   5.491   5.191   2.075
  400SOL     OW 2098   1.424   5.632   5.408
  400SOL    HW1 2099   1.435   5.731   5.417
  400SOL    HW2 2100   1.490   5.597   5.342
  401SOL     OW 2101   5.492   1.361   6.490
  401SOL    HW1 2102   5.433   1.282   6.475
  401SOL    HW2 2103   5.546   1.378   6.408
  402SOL     OW 2104   5.989   5.080   1.152
  402SOL    HW1 2105   6.019   4.986   1.166
  402SOL    HW2 2106   5.996   5.104   1.055
  403SOL     OW 2107   5.413   3.569   6.495
  403SOL    HW1 2108   5.348   3.497   6.469
  403SOL    HW2 2109   5.377   3.657   6.464
  404SOL     OW 2110   0.334   0.048   4.781
  404SOL    HW1 2111   0.308   0.143   4.797
  404SOL    HW2 2112   0.265   0.003   4.725
  405SOL     OW 2113   0.602   2.313   0.591
  405SOL    HW1 2114   0.552   2.269   0.516
  405SOL    HW2 2115   0.657   2.388   0.554
  406SOL     OW 2116   1.778   3.163   3.653
  406SOL    HW1 2117   1.769   3.183   3.750
  406SOL    HW2 2118   1.716   3.088   3.629
  407SOL     OW 2119   2.536   0.506   4.510
  407SOL    HW1 2120   2.591   0.456   4.443
  407SOL    HW2 2121   2.440   0.506   4.480
  408SOL     OW 2122   1.890   0.191   3.011
  408SOL    HW1 2123   1.949   0.129   2.960
  408SOL    HW2 2124   1.797   0.153   3.013
  409SOL     OW 2125   6.101   3.548   3.782
  409SOL    HW1 2126   6.019   3.583   3.735
  409SOL    HW2 2127   6.180   3.556   3.722
  410SOL     OW 2128   2.599   1.603   6.251
  410SOL    HW1 2129   2.581   1.604   6.152
  410SOL    HW2 2130   2.696   1.586   6.266
  411SOL     OW 2131   6.655   4.116   5.183
  411SOL    HW1 2132   6.730   4.146   5.241
  411SOL    HW2 2133   6.568   4.139   5.226
  412SOL     OW 2134   3.541   0.372   2.273
  412SOL    HW1 2135   3.564   0.389   2.369
  412SOL    HW2 2136   3.472   0.300   2.267
  413SOL     OW 2137   2.707   6.855   0.944
  413SOL    HW1 2138   2.632   6.850   1.009
  413SOL    HW2 2139   2.682   6.915   0.868
  414SOL     OW 2140   4.099   3.977   0.441
  414SOL    HW1 2141   4.185   3.987   0.391
  414SOL    HW2 2142   4.071   3.881   0.441
  415SOL     OW 2143   3.208   6.483   1.772
  415SOL    HW1 2144   3.114   6.454   1.752
  415SOL    HW2 2145   3.227   6.569   1.724
  416SOL     OW 2146   3.742   6.086   5.116
  416SOL    HW1 2147   3.679   6.017   5.152
  416SOL    HW2 2148   3.831   6.076   5.162
  417SOL     OW 2149   4.915   5.727   0.992
  417SOL    HW1 2150   4.873   5.637   1.001
  417SOL    HW2 2151   4.882   5.787   1.065
  418SOL     OW 2152   5.420   4.868   1.002
  418SOL    HW1 2153   5.468   4.941   0.954
  418SOL    HW2 2154   5.472   4.783   0.995
  419SOL     OW 2155   6.054   6.688   1.413
  419SOL    HW1 2156   6.084   6.605   1.460
  419SOL    HW2 2157   5.975   6.666   1.355
  420SOL     OW 2158   4.130   4.412   0.229
  420SOL    HW1 2159   4.188   4.356   0.168
  420SOL    HW2 2160   4.039   4.422   0.189
  421SOL     OW 2161   1.677   6.122   6.450
  421SOL    HW1 2162   1.695   6.121   6.549
  421SOL    HW2 2163   1.764   6.122   6.400
  422SOL     OW 2164   5.791   3.447   6.748
  422SOL    HW1 2165   5.889   3.467   6.751
  422SOL    HW2 2166   5.755   3.468   6.657
  423SOL     OW 2167   0.512   2.542   6.707
  423SOL    HW1 2168   0.474   2.450   6.692
  423SOL    HW2 2169   0.477   2.580   6.792
  424SOL     OW 2170   2.400   3.238   0.439
  424SOL    HW1 2171   2.461   3.187   0.499
  424SOL    HW2 2172   2.310   3.246   0.482
  425SOL     OW 2173   3.046   1.341   0.590
  425SOL    HW1 2174   2.982   1.267   0.607
  425SOL    HW2 2175   3.133   1.322   0.635
  426SOL     OW 2176   5.875   3.964   5.586
  426SOL    HW1 2177   5.944   3.989   5.654
  426SOL    HW2 2178   5.884   4.023   5.506
  427SOL     OW 2179   5.226   3.927   0.971
  427SOL    HW1 2180   5.183   3.845   0.933
  427SOL    HW2 2181   5.313   3.901   1.015
  428SOL     OW 2182   3.746   0.773   4.898
  428SOL    HW1 2183   3.836   0.817   4.900
  428SOL    HW2 2184   3.728   0.741   4.805
  429SOL     OW 2185   1.550   5.290   6.518
  429SOL    HW1 2186   1.600   5.358   6.572
  429SOL    HW2 2187   1.600   5.204   6.520
  430SOL     OW 2188   1.283   0.332   5.334
  430SOL    HW1 2189   1.245   0.423   5.322
  430SOL    HW2 2190   1.287   0.285   5.246
  431SOL     OW 2191   3.706   1.708   0.534
  431SOL    HW1 2192   3.686   1.798   0.493
  431SOL    HW2 2193   3.647   1.695   0.614
  432SOL     OW 2194   0.372   1.992   1.164
  432SOL    HW1 2195   0.339   1.912   1.113
  432SOL    HW2 2196   0.470   1.984   1.178
  433SOL     OW 2197   3.642   6.544   5.643
  433SOL    HW1 2198   3.696   6.585   5.717
  433SOL    HW2 2199   3.548   6.531   5.673
  434SOL     OW 2200   0.210   3.623   1.321
  434SOL    HW1 2201   0.197   3.708   1.373
  434SOL    HW2 2202   0.137   3.615   1.253
  435SOL     OW 2203   3.746   4.215   0.218
  435SOL    HW1 2204   3.712   4.286   0.280
  435SOL    HW2 2205   3.690   4.133   0.228
  436SOL     OW 2206   2.012   0.933   0.014
  436SOL    HW1 2207   1.987   0.889   0.100
  436SOL    HW2 2208   2.109   0.957   0.015
  437SOL     OW 2209   6.719   6.819   6.732
  437SOL    HW1 2210   6.645   6.791   6.793
  437SOL    HW2 2211   6.791   6.863   6.785
  438SOL     OW 2212   1.139   2.792   1.865
  438SOL    HW1 2213   1.179   2.709   1.826
  438SOL    HW2 2214   1.197   2.824   1.940
  439SOL     OW 2215   6.699   5.061   3.163
  439SOL    HW1 2216   6.618   5.002   3.159
  439SOL    HW2 2217   6.701   5.108   3.251
  440SOL     OW 2218   0.944   2.619   3.778
  440SOL    HW1 2219   0.923   2.523   3.795
  440SOL    HW2 2220   0.861   2.674   3.788
  441SOL     OW 2221   0.532   1.389   3.755
  441SOL    HW1 2222   0.575   1.411   3.843
  441SOL    HW2 2223   0.599   1.347   3.694
  442SOL     OW 2224   0.129   4.033   0.032
  442SOL    HW1 2225   0.048   4.015   0.089
  442SOL    HW2 2226   0.164   3.947   7.016
  443SOL     OW 2227   0.517   4.441   5.503
  443SOL    HW1 2228   0.526   4.484   5.413
  443SOL    HW2 2229   0.608   4.419   5.538
  444SOL     OW 2230   4.217   3.117   6.504
  444SOL    HW1 2231   4.309   3.134   6.470
  444SOL    HW2 2232   4.204   3.164   6.592
  445SOL     OW 2233   2.207   4.604   3.200
  445SOL    HW1 2234   2.183   4.603   3.297
  445SOL    HW2 2235   2.210   4.699   3.168
  446SOL     OW 2236   4.735   5.062   3.695
  446SOL    HW1 2237   4.801   4.991   3.668
  446SOL    HW2 2238   4.665   5.021   3.754
  447SOL     OW 2239   6.601   5.682   0.704
  447SOL    HW1 2240   6.666   5.707   0.776
  447SOL    HW2 2241   6.572   5.587   0.716
  448SOL     OW 2242   4.265   0.512   5.117
  448SOL    HW1 2243   4.337   0.518   5.185
  448SOL    HW2 2244   4.251   0.416   5.091
  449SOL     OW 2245   5.289   0.275   4.837
  449SOL    HW1 2246   5.255   0.293   4.930
  449SOL    HW2 2247   5.376   0.323   4.824
  450SOL     OW 2248   0.064   6.325   3.980
  450SOL    HW1 2249   0.161   6.319   3.957
  450SOL    HW2 2250   0.009   6.284   3.908
  451SOL     OW 2251   0.792   2.596   3.148
  451SOL    HW1 2252   0.730   2.518   3.141
  451SOL    HW2 2253   0.833   2.597   3.240
  452SOL     OW 2254   6.961   4.635   6.462
  452SOL    HW1 2255   7.013   4.676   6.537
  452SOL    HW2 2256   6.868   4.615   6.495
  453SOL     OW 2257   2.700   1.279   6.343
  453SOL    HW1 2258   2.601   1.265   6.341
  453SOL    HW2 2259   2.723   1.347   6.412
  454SOL     OW 2260   0.998   5.892   0.038
  454SOL    HW1 2261   1.026   5.913   6.964
  454SOL    HW2 2262   1.071   5.918   0.102
  455SOL     OW 2263   5.143   0.928   5.997
  455SOL    HW1 2264   5.126   0.955   6.091
  455SOL    HW2 2265   5.102   0.995   5.935
  456SOL     OW 2266   4.296   5.718   5.980
  456SOL    HW1 2267   4.328   5.809   6.003
  456SOL    HW2 2268   4.310   5.656   6.057
  457SOL     OW 2269   2.224   5.051   2.894
  457SOL    HW1 2270   2.291   5.091   2.831
  457SOL    HW2 2271   2.194   5.122   2.958
  458SOL     OW 2272   6.583   5.385   5.921
  458SOL    HW1 2273   6.622   5.434   5.998
  458SOL    HW2 2274   6.623   5.419   5.836
  459SOL     OW 2275   1.876   0.441   2.948
  459SOL    HW1 2276   1.780   0.468   2.939
  459SOL    HW2 2277   1.881   0.346   2.977
  460SOL     OW 2278   6.369   1.978   3.062
  460SOL    HW1 2279   6.443   1.980   3.129
  460SOL    HW2 2280   6.335   2.072   3.048
  461SOL     OW 2281   4.366   6.191   5.192
  461SOL    HW1 2282   4.434   6.258   5.221
  461SOL    HW2 2283   4.359   6.119   5.262
  462SOL     OW 2284   2.979   3.020   6.392
  462SOL    HW1 2285   2.987   3.108   6.347
  462SOL    HW2 2286   3.002   3.030   6.489
  463SOL     OW 2287   6.676   5.310   2.230
  463SOL    HW1 2288   6.585   5.351   2.235
  463SOL    HW2 2289   6.716   5.307   2.322
  464SOL     OW 2290   1.951   1.598   5.678
  464SOL    HW1 2291   1.986   1.657   5.606
  464SOL    HW2 2292   1.902   1.521   5.637
  465SOL     OW 2293   6.856   2.592   4.183
  465SOL    HW1 2294   6.849   2.518   4.116
  465SOL    HW2 2295   6.869   2.553   4.274
  466SOL     OW 2296   1.420   6.986   3.986
  466SOL    HW1 2297   1.388   0.056   4.017
  466SOL    HW2 2298   1.342   6.923   3.980
  467SOL     OW 2299   1.264   0.791   5.507
  467SOL    HW1 2300   1.288   0.699   5.539
  467SOL    HW2 2301   1.225   0.843   5.583
  468SOL     OW 2302   3.680   4.855   1.085
  468SOL    HW1 2303   3.584   4.834   1.104
  468SOL    HW2 2304   3.728   4.772   1.058
  469SOL     OW 2305   2.056   5.527   6.751
  469SOL    HW1 2306   2.038   5.517   6.653
  469SOL    HW2 2307   2.104   5.446   6.784
  470SOL     OW 2308   4.013   0.327   2.698
  470SOL    HW1 2309   3.991   0.334   2.601
  470SOL    HW2 2310   4.013   0.231   2.725
  471SOL     OW 2311   2.073   2.690   4.642
  471SOL    HW1 2312   2.071   2.735   4.732
  471SOL    HW2 2313   2.167   2.667   4.619
  472SOL     OW 2314   3.977   4.734   5.599
  472SOL    HW1 2315   3.939   4.817   5.560
  472SOL    HW2 2316   4.063   4.755   5.646
  473SOL     OW 2317   1.421   3.414   2.720
  473SOL    HW1 2318   1.427   3.480   2.646
  473SOL    HW2 2319   1.369   3.453   2.796
  474SOL     OW 2320   4.485   5.145   4.721
  474SOL    HW1 2321   4.574   5.150   4.766
  474SOL    HW2 2322   4.479   5.217   4.651
  475SOL     OW 2323   0.109   6.481   6.074
  475SOL    HW1 2324   0.136   6.476   5.978
  475SOL    HW2 2325   0.022   6.433   6.085
  476SOL     OW 2326   6.801   4.470   2.475
  476SOL    HW1 2327   6.854   4.485   2.559
  476SOL    HW2 2328   6.852   4.409   2.414
  477SOL     OW 2329   2.214   5.218   3.808
  477SOL    HW1 2330   2.298   5.267   3.786
  477SOL    HW2 2331   2.200   5.143   3.743
  478SOL     OW 2332   3.049   5.120   3.388
  478SOL    HW1 2333   2.970   5.171   3.424
  478SOL    HW2 2334   3.033   5.022   3.399
  479SOL     OW 2335   3.674   2.741   0.707
  479SOL    HW1 2336   3.698   2.793   0.625
  479SOL    HW2 2337   3.738   2.763   0.780
  480SOL     OW 2338   0.840   6.646   2.624
  480SOL    HW1 2339   0.908   6.717   2.606
  480SOL    HW2 2340   0.769   6.649   2.554
  481SOL     OW 2341   4.042   0.115   1.586
  481SOL    HW1 2342   4.095   0.143   1.506
  481SOL    HW2 2343   4.077   0.028   1.620
  482SOL     OW 2344   5.607   4.388   2.380
  482SOL    HW1 2345   5.612   4.484   2.353
  482SOL    HW2 2346   5.535   4.377   2.449
  483SOL     OW 2347   5.806   1.910   1.856
  483SOL    HW1 2348   5.774   1.837   1.796
  483SOL    HW2 2349   5.821   1.994   1.803
  484SOL     OW 2350   0.177   2.564   4.406
  484SOL    HW1 2351   0.095   2.558   4.349
  484SOL    HW2 2352   0.248   2.503   4.369
  485SOL     OW 2353   3.555   4.881   2.391
  485SOL    HW1 2354   3.476   4.833   2.353
  485SOL    HW2 2355   3.538   4.980   2.388
  486SOL     OW 2356   0.389   0.119   1.034
  486SOL    HW1 2357   0.435   0.079   1.113
  486SOL    HW2 2358   0.332   0.048   0.990
  487SOL     OW 2359   0.181   2.257   6.927
  487SOL    HW1 2360   0.098   2.308   6.950
  487SOL    HW2 2361   0.252   2.320   6.897
  488SOL     OW 2362   0.416   2.397   2.353
  488SOL    HW1 2363   0.328   2.421   2.312
  488SOL    HW2 2364   0.417   2.424   2.449
  489SOL     OW 2365   3.361   5.900   6.465
  489SOL    HW1 2366   3.279   5.915   6.521
  489SOL    HW2 2367   3.378   5.801   6.458
  490SOL     OW 2368   5.665   6.689   4.455
  490SOL    HW1 2369   5.752   6.644   4.475
  490SOL    HW2 2370   5.648   6.761   4.521
  491SOL     OW 2371   1.262   2.747   2.891
  491SOL    HW1 2372   1.201   2.711   2.961
  491SOL    HW2 2373   1.239   2.707   2.802
  492SOL     OW 2374   2.043   0.474   5.943
  492SOL    HW1 2375   2.037   0.477   6.042
  492SOL    HW2 2376   1.974   0.410   5.907
  493SOL     OW 2377   6.506   4.515   5.245
  493SOL    HW1 2378   6.484   4.438   5.185
  493SOL    HW2 2379   6.596   4.500   5.286
  494SOL     OW 2380   0.016   0.069   0.740
  494SOL    HW1 2381   0.011   6.990   0.728
  494SOL    HW2 2382   0.072   0.108   0.667
  495SOL     OW 2383   4.866   4.350   1.350
  495SOL    HW1 2384   4.803   4.341   1.273
  495SOL    HW2 2385   4.960   4.349   1.316
  496SOL     OW 2386   5.982   3.366   2.968
  496SOL    HW1 2387   5.894   3.338   3.006
  496SOL    HW2 2388   5.985   3.344   2.871
  497SOL     OW 2389   4.053   0.575   4.765
  497SOL    HW1 2390   4.076   0.649   4.828
  497SOL    HW2 2391   4.069   0.605   4.671
  498SOL     OW 2392   1.000   2.886   2.752
  498SOL    HW1 2393   1.088   2.840   2.738
  498SOL    HW2 2394   0.938   2.863   2.677
  499SOL     OW 2395   3.317   1.082   5.117
  499SOL    HW1 2396   3.339   1.022   5.040
  499SOL    HW2 2397   3.371   1.166   5.110
  500SOL     OW 2398   1.180   3.939   2.691
  500SOL    HW1 2399   1.196   4.032   2.726
  500SOL    HW2 2400   1.088   3.910   2.716
  501SOL     OW 2401   1.337   3.413   6.669
  501SOL    HW1 2402   1.309   3.479   6.739
  501SOL    HW2 2403   1.419   3.365   6.700
  502SOL     OW 2404   4.181   5.188   0.035
  502SOL    HW1 2405   4.200   5.276   0.079
  502SOL    HW2 2406   4.128   5.203   6.971
  503SOL     OW 2407   5.977   4.725   5.520
  503SOL    HW1 2408   5.966   4.631   5.551
  503SOL    HW2 2409   6.071   4.755   5.536
  504SOL     OW 2410   2.376   6.251   4.622
  504SOL    HW1 2411   2.360   6.182   4.551
  504SOL    HW2 2412   2.335   6.221   4.708
  505SOL     OW 2413   4.005   0.397   6.045
  505SOL    HW1 2414   4.047   0.327   5.988
  505SOL    HW2 2415   4.057   0.406   6.130
  506SOL     OW 2416   2.294   4.384   6.003
  506SOL    HW1 2417   2.242   4.300   5.983
  506SOL    HW2 2418   2.302   4.395   6.102
  507SOL     OW 2419   3.582   0.533   4.710
  507SOL    HW1 2420   3.556   0.442   4.677
  507SOL    HW2 2421   3.573   0.599   4.636
  508SOL     OW 2422   6.770   3.882   3.377
  508SOL    HW1 2423   6.702   3.930   3.322
  508SOL    HW2 2424   6.725   3.834   3.451
  509SOL     OW 2425   4.463   1.728   1.853
  509SOL    HW1 2426   4.506   1.790   1.788
  509SOL    HW2 2427   4.439   1.778   1.936
  510SOL     OW 2428   6.869   4.249   4.504
  510SOL    HW1 2429   6.930   4.321   4.469
  510SOL    HW2 2430   6.912   4.160   4.491
  511SOL     OW 2431   0.556   6.863   0.337
  511SOL    HW1 2432   0.601   6.917   0.408
  511SOL    HW2 2433   0.546   6.918   0.255
  512SOL     OW 2434   1.177   3.813   6.256
  512SOL    HW1 2435   1.169   3.908   6.225
  512SOL    HW2 2436   1.123   3.800   6.339
  513SOL     OW 2437   6.348   6.037   4.594
  513SOL    HW1 2438   6.398   5.951   4.585
  513SOL    HW2 2439   6.307   6.061   4.506
  514SOL     OW 2440   5.831   1.836   3.795
  514SOL    HW1 2441   5.896   1.792   3.733
  514SOL    HW2 2442   5.755   1.873   3.741
  515SOL     OW 2443   1.863   6.488   6.377
  515SOL    HW1 2444   1.830   6.394   6.367
  515SOL    HW2 2445   1.799   6.540   6.434
  516SOL     OW 2446   2.179   5.095   1.750
  516SOL    HW1 2447   2.199   5.193   1.748
  516SOL    HW2 2448   2.263   5.044   1.735
  517SOL     OW 2449   4.582   6.853   0.717
  517SOL    HW1 2450   4.576   6.760   0.682
  517SOL    HW2 2451   4.493   6.882   0.752
  518SOL     OW 2452   2.483   2.561   1.675
  518SOL    HW1 2453   2.465   2.645   1.623
  518SOL    HW2 2454   2.535   2.497   1.617
  519SOL     OW 2455   0.311   6.995   6.438
  519SOL    HW1 2456   0.376   6.954   6.373
  519SOL    HW2 2457   0.219   6.964   6.417
  520SOL     OW 2458   5.504   4.609   5.637
  520SOL    HW1 2459   5.513   4.708   5.646
  520SOL    HW2 2460   5.585   4.572   5.591
  521SOL     OW 2461   6.762   1.748   0.230
  521SOL    HW1 2462   6.670   1.742   0.268
  521SOL    HW2 2463   6.829   1.755   0.304
  522SOL     OW 2464   3.727   3.563   4.346
  522SOL    HW1 2465   3.676   3.495   4.294
  522SOL    HW2 2466   3.692   3.569   4.439
  523SOL     OW 2467   6.987   6.845   4.724
  523SOL    HW1 2468   6.947   6.777   4.663
  523SOL    HW2 2469   6.940   6.842   4.812
  524SOL     OW 2470   2.408   1.099   5.683
  524SOL    HW1 2471   2.425   1.043   5.765
  524SOL    HW2 2472   2.314   1.083   5.652
  525SOL     OW 2473   2.474   3.483   0.110
  525SOL    HW1 2474   2.535   3.436   0.174
  525SOL    HW2 2475   2.528   3.521   0.035
  526SOL     OW 2476   3.456   5.537   4.765
  526SOL    HW1 2477   3.482   5.493   4.851
  526SOL    HW2 2478   3.520   5.612   4.746
  527SOL     OW 2479   0.335   1.031   6.733
  527SOL    HW1 2480   0.417   1.088   6.737
  527SOL    HW2 2481   0.357   0.943   6.691
  528SOL     OW 2482   2.135   1.162   5.243
  528SOL    HW1 2483   2.183   1.240   5.281
  528SOL    HW2 2484   2.197   1.110   5.185
  529SOL     OW 2485   0.667   5.348   4.175
  529SOL    HW1 2486   0.615   5.332   4.092
  529SOL    HW2 2487   0.649   5.275   4.241
  530SOL     OW 2488   2.338   3.103   5.358
  530SOL    HW1 2489   2.315   3.196   5.331
  530SOL    HW2 2490   2.403   3.064   5.293
  531SOL     OW 2491   0.680   0.363   1.424
  531SOL    HW1 2492   0.662   0.266   1.408
  531SOL    HW2 2493   0.737   0.399   1.351
  532SOL     OW 2494   1.147   1.458   5.697
  532SOL    HW1 2495   1.201   1.374   5.697
  532SOL    HW2 2496   1.091   1.460   5.614
  533SOL     OW 2497   5.771   0.227   4.514
  533SOL    HW1 2498   5.683   0.223   4.466
  533SOL    HW2 2499   5.773   0.307   4.573
  534SOL     OW 2500   4.649   5.143   2.410
  534SOL    HW1 2501   4.586   5.083   2.362
  534SOL    HW2 2502   4.688   5.209   2.345
  535SOL     OW 2503   0.424   3.860   3.480
  535SOL    HW1 2504   0.384   3.783   3.530
  535SOL    HW2 2505   0.371   3.942   3.497
  536SOL     OW 2506   1.780   5.343   0.982
  536SOL    HW1 2507   1.812   5.343   1.077
  536SOL    HW2 2508   1.701   5.404   0.974
  537SOL     OW 2509   2.234   0.321   2.219
  537SOL    HW1 2510   2.182   0.406   2.226
  537SOL    HW2 2511   2.207   0.259   2.293
  538SOL     OW 2512   0.431   6.164   3.477
  538SOL    HW1 2513   0.406   6.143   3.572
  538SOL    HW2 2514   0.494   6.094   3.443
  539SOL     OW 2515   1.730   4.975   1.449
  539SOL    HW1 2516   1.689   4.893   1.488
  539SOL    HW2 2517   1.829   4.971   1.462
  540SOL     OW 2518   1.540   2.381   2.431
  540SOL    HW1 2519   1.461   2.319   2.436
  540SOL    HW2 2520   1.539   2.442   2.511
  541SOL     OW 2521   2.562   5.566   5.804
  541SOL    HW1 2522   2.640   5.610   5.848
  541SOL    HW2 2523   2.595   5.500   5.737
  542SOL     OW 2524   5.994   5.397   6.571
  542SOL    HW1 2525   6.064   5.332   6.540
  542SOL    HW2 2526   5.984   5.470   6.504
  543SOL     OW 2527   0.763   5.078   6.857
  543SOL    HW1 2528   0.709   5.125   6.786
  543SOL    HW2 2529   0.746   4.980   6.852
  544SOL     OW 2530   1.240   5.016   0.481
  544SOL    HW1 2531   1.177   4.961   0.536
  544SOL    HW2 2532   1.206   5.109   0.475
  545SOL     OW 2533   4.019   1.470   2.760
  545SOL    HW1 2534   3.935   1.431   2.799
  545SOL    HW2 2535   4.090   1.472   2.831
  546SOL     OW 2536   1.398   3.694   0.363
  546SOL    HW1 2537   1.301   3.696   0.339
  546SOL    HW2 2538   1.409   3.726   0.458
  547SOL     OW 2539   2.784   3.224   0.254
  547SOL    HW1 2540   2.770   3.304   0.313
  547SOL    HW2 2541   2.782   3.253   0.158
  548SOL     OW 2542   3.477   2.873   4.211
  548SOL    HW1 2543   3.430   2.879   4.299
  548SOL    HW2 2544   3.419   2.910   4.139
  549SOL     OW 2545   5.689   3.487   1.515
  549SOL    HW1 2546   5.678   3.394   1.480
  549SOL    HW2 2547   5.613   3.543   1.484
  550SOL     OW 2548   0.250   4.218   2.222
  550SOL    HW1 2549   0.217   4.124   2.211
  550SOL    HW2 2550   0.194   4.279   2.165
  551SOL     OW 2551   6.702   2.471   0.769
  551SOL    HW1 2552   6.695   2.569   0.790
  551SOL    HW2 2553   6.634   2.447   0.700
  552SOL     OW 2554   4.010   6.041   0.240
  552SOL    HW1 2555   3.949   5.968   0.268
  552SOL    HW2 2556   3.957   6.117   0.204
  553SOL     OW 2557   1.700   1.478   1.834
  553SOL    HW1 2558   1.635   1.438   1.769
  553SOL    HW2 2559   1.666   1.567   1.864
  554SOL     OW 2560   5.307   6.514   5.228
  554SOL    HW1 2561   5.261   6.489   5.142
  554SOL    HW2 2562   5.289   6.611   5.247
  555SOL     OW 2563   1.256   4.878   4.353
  555SOL    HW1 2564   1.237   4.837   4.263
  555SOL    HW2 2565   1.299   4.810   4.412
  556SOL     OW 2566   5.329   2.953   4.038
  556SOL    HW1 2567   5.234   2.979   4.052
  556SOL    HW2 2568   5.388   3.034   4.049
  557SOL     OW 2569   0.430   6.225   6.066
  557SOL    HW1 2570   0.439   6.133   6.105
  557SOL    HW2 2571   0.517   6.274   6.077
  558SOL     OW 2572   4.052   3.983   5.237
  558SOL    HW1 2573   3.959   3.947   5.252
  558SOL    HW2 2574   4.113   3.907   5.215
  559SOL     OW 2575   6.571   5.790   6.152
  559SOL    HW1 2576   6.669   5.788   6.172
  559SOL    HW2 2577   6.552   5.864   6.088
  560SOL     OW 2578   4.310   6.981   0.124
  560SOL    HW1 2579   4.226   7.001   0.176
  560SOL    HW2 2580   4.287   6.926   0.044
  561SOL     OW 2581   5.277   6.750   0.735
  561SOL    HW1 2582   5.195   6.704   0.699
  561SOL    HW2 2583   5.322   6.800   0.661
  562SOL     OW 2584   5.515   1.473   5.554
  562SOL    HW1 2585   5.465   1.434   5.477
  562SOL    HW2 2586   5.611   1.446   5.549
  563SOL     OW 2587   2.922   6.633   4.160
  563SOL    HW1 2588   2.902   6.602   4.253
  563SOL    HW2 2589   2.903   6.731   4.152
  564SOL     OW 2590   0.720   0.873   6.562
  564SOL    HW1 2591   0.801   0.914   6.604
  564SOL    HW2 2592   0.742   0.780   6.531
  565SOL     OW 2593   4.795   4.023   4.899
  565SOL    HW1 2594   4.832   3.967   4.824
  565SOL    HW2 2595   4.737   4.095   4.861
  566SOL     OW 2596   4.971   4.630   2.780
  566SOL    HW1 2597   4.919   4.552   2.744
  566SOL    HW2 2598   4.980   4.621   2.879
  567SOL     OW 2599   3.537   2.880   4.556
  567SOL    HW1 2600   3.459   2.898   4.495
  567SOL    HW2 2601   3.622   2.885   4.504
  568SOL     OW 2602   2.571   1.694   0.018
  568SOL    HW1 2603   2.478   1.707   0.053
  568SOL    HW2 2604   2.603   1.602   0.043
  569SOL     OW 2605   2.377   2.537   0.792
  569SOL    HW1 2606   2.387   2.624   0.841
  569SOL    HW2 2607   2.305   2.546   0.723
  570SOL     OW 2608   6.428   6.000   1.378
  570SOL    HW1 2609   6.427   6.042   1.287
  570SOL    HW2 2610   6.460   6.067   1.445
  571SOL     OW 2611   4.065   5.353   3.162
  571SOL    HW1 2612   4.121   5.408   3.101
  571SOL    HW2 2613   4.118   5.277   3.198
  572SOL     OW 2614   1.670   3.530   5.120
  572SOL    HW1 2615   1.677   3.462   5.194
  572SOL    HW2 2616   1.577   3.529   5.083
  573SOL     OW 2617   3.935   2.262   6.033
  573SOL    HW1 2618   3.998   2.308   5.971
  573SOL    HW2 2619   3.848   2.246   5.986
  574SOL     OW 2620   2.337   1.355   4.215
  574SOL    HW1 2621   2.378   1.425   4.274
  574SOL    HW2 2622   2.302   1.281   4.272
  575SOL     OW 2623   5.503   2.395   6.988
  575SOL    HW1 2624   5.599   2.409   6.967
  575SOL    HW2 2625   5.448   2.466   6.942
  576SOL     OW 2626   0.855   1.964   2.813
  576SOL    HW1 2627   0.921   1.904   2.768
  576SOL    HW2 2628   0.817   2.027   2.746
  577SOL     OW 2629   3.070   1.876   3.648
  577SOL    HW1 2630   3.021   1.872   3.561
  577SOL    HW2 2631   3.115   1.965   3.656
  578SOL     OW 2632   6.774   3.494   3.692
  578SOL    HW1 2633   6.821   3.482   3.779
  578SOL    HW2 2634   6.683   3.453   3.697
  579SOL     OW 2635   4.581   3.008   6.654
  579SOL    HW1 2636   4.578   3.063   6.570
  579SOL    HW2 2637   4.660   2.946   6.650
  580SOL     OW 2638   0.796   5.560   0.019
  580SOL    HW1 2639   0.796   5.464   0.047
  580SOL    HW2 2640   0.861   5.611   0.075
  581SOL     OW 2641   3.788   3.852   2.751
  581SOL    HW1 2642   3.807   3.901   2.665
  581SOL    HW2 2643   3.819   3.907   2.828
  582SOL     OW 2644   6.191   3.702   1.824
  582SOL    HW1 2645   6.139   3.778   1.785
  582SOL    HW2 2646   6.172   3.695   1.922
  583SOL     OW 2647   2.372   4.864   0.061
  583SOL    HW1 2648   2.283   4.871   0.015
  583SOL    HW2 2649   2.367   4.904   0.152
  584SOL     OW 2650   0.368   5.100   4.619
  584SOL    HW1 2651   0.295   5.119   4.684
  584SOL    HW2 2652   0.354   5.153   4.535
  585SOL     OW 2653   0.457   1.478   0.061
  585SOL    HW1 2654   0.380   1.506   0.118
  585SOL    HW2 2655   0.432   1.484   6.984
  586SOL     OW 2656   2.729   6.408   0.816
  586SOL    HW1 2657   2.783   6.492   0.828
  586SOL    HW2 2658   2.708   6.370   0.906
  587SOL     OW 2659   0.859   2.883   5.254
  587SOL    HW1 2660   0.843   2.932   5.168
  587SOL    HW2 2661   0.943   2.918   5.297
  588SOL     OW 2662   3.221   6.760   1.764
  588SOL    HW1 2663   3.316   6.746   1.737
  588SOL    HW2 2664   3.217   6.791   1.859
  589SOL     OW 2665   4.637   4.968   2.621
  589SOL    HW1 2666   4.597   5.020   2.696
  589SOL    HW2 2667   4.653   5.029   2.543
  590SOL     OW 2668   0.033   2.055   1.632
  590SOL    HW1 2669   0.069   1.966   1.658
  590SOL    HW2 2670   0.082   2.127   1.682
  591SOL     OW 2671   3.625   6.739   3.178
  591SOL    HW1 2672   3.546   6.760   3.235
  591SOL    HW2 2673   3.610   6.774   3.086
  592SOL     OW 2674   5.417   0.795   0.136
  592SOL    HW1 2675   5.366   0.872   0.098
  592SOL    HW2 2676   5.370   0.709   0.115
  593SOL     OW 2677   5.175   1.533   3.675
  593SOL    HW1 2678   5.192   1.522   3.577
  593SOL    HW2 2679   5.079   1.557   3.690
  594SOL     OW 2680   4.105   2.649   1.380
  594SOL    HW1 2681   4.016   2.611   1.358
  594SOL    HW2 2682   4.096   2.746   1.402
  595SOL     OW 2683   3.565   6.821   3.986
  595SOL    HW1 2684   3.569   6.917   3.958
  595SOL    HW2 2685   3.481   6.805   4.038
  596SOL     OW 2686   1.265   4.477   2.374
  596SOL    HW1 2687   1.242   4.443   2.283
  596SOL    HW2 2688   1.192   4.535   2.408
  597SOL     OW 2689   3.923   2.011   5.455
  597SOL    HW1 2690   3.875   1.957   5.524
  597SOL    HW2 2691   3.860   2.076   5.412
  598SOL     OW 2692   3.612   4.276   0.899
  598SOL    HW1 2693   3.680   4.319   0.841
  598SOL    HW2 2694   3.584   4.339   0.971
  599SOL     OW 2695   6.806   6.343   2.379
  599SOL    HW1 2696   6.887   6.398   2.362
  599SOL    HW2 2697   6.790   6.282   2.302
  600SOL     OW 2698   2.588   6.994   6.850
  600SOL    HW1 2699   2.681   6.981   6.815
  600SOL    HW2 2700   2.539   0.038   6.792
  601SOL     OW 2701   3.603   5.462   3.843
  601SOL    HW1 2702   3.590   5.555   3.877
  601SOL    HW2 2703   3.598   5.463   3.743
  602SOL     OW 2704   1.462   1.134   1.273
  602SOL    HW1 2705   1.508   1.163   1.189
  602SOL    HW2 2706   1.509   1.173   1.352
  603SOL     OW 2707   3.833   2.056   3.436
  603SOL    HW1 2708   3.785   2.033   3.351
  603SOL    HW2 2709   3.772   2.040   3.514
  604SOL     OW 2710   0.020   4.034   5.688
  604SOL    HW1 2711   0.054   4.106   5.627
  604SOL    HW2 2712   0.003   3.951   5.635
  605SOL     OW 2713   5.726   0.463   4.970
  605SOL    HW1 2714   5.816   0.420   4.961
  605SOL    HW2 2715   5.735   0.562   4.960
  606SOL     OW 2716   3.731   0.179   3.157
  606SOL    HW1 2717   3.796   0.255   3.164
  606SOL    HW2 2718   3.782   0.092   3.162
  607SOL     OW 2719   4.330   1.157   4.283
  607SOL    HW1 2720   4.395   1.233   4.279
  607SOL    HW2 2721   4.380   1.070   4.283
  608SOL     OW 2722   4.571   1.343   1.253
  608SOL    HW1 2723   4.621   1.330   1.167
  608SOL    HW2 2724   4.480   1.381   1.232
  609SOL     OW 2725   3.295   4.058   4.357
  609SOL    HW1 2726   3.293   4.123   4.281
  609SOL    HW2 2727   3.359   4.089   4.427
  610SOL     OW 2728   4.847   2.443   4.327
  610SOL    HW1 2729   4.835   2.421   4.423
  610SOL    HW2 2730   4.803   2.531   4.307
  611SOL     OW 2731   0.441   6.936   1.215
  611SOL    HW1 2732   0.502   6.983   1.279
  611SOL    HW2 2733   0.361   6.901   1.264
  612SOL     OW 2734   3.252   5.277   5.584
  612SOL    HW1 2735   3.291   5.291   5.675
  612SOL    HW2 2736   3.307   5.327   5.516
  613SOL     OW 2737   3.451   2.197   0.275
  613SOL    HW1 2738   3.534   2.184   0.220
  613SOL    HW2 2739   3.399   2.112   0.278
  614SOL     OW 2740   5.052   4.358   1.159
  614SOL    HW1 2741   4.987   4.360   1.082
  614SOL    HW2 2742   5.091   4.448   1.172
  615SOL     OW 2743   6.121   6.568   0.876
  615SOL    HW1 2744   6.046   6.502   0.880
  615SOL    HW2 2745   6.089   6.654   0.837
  616SOL     OW 2746   5.566   1.804   4.979
  616SOL    HW1 2747   5.589   1.707   4.985
  616SOL    HW2 2748   5.645   1.856   4.947
  617SOL     OW 2749   6.987   5.173   5.487
  617SOL    HW1 2750   6.996   5.186   5.388
  617SOL    HW2 2751   0.039   5.222   5.534
  618SOL     OW 2752   6.291   3.766   0.753
  618SOL    HW1 2753   6.267   3.784   0.658
  618SOL    HW2 2754   6.208   3.746   0.805
  619SOL     OW 2755   2.919   0.477   6.034
  619SOL    HW1 2756   2.914   0.569   5.995
  619SOL    HW2 2757   2.826   0.442   6.048
  620SOL     OW 2758   6.729   1.683   2.116
  620SOL    HW1 2759   6.733   1.780   2.139
  620SOL    HW2 2760   6.650   1.641   2.162
  621SOL     OW 2761   3.060   1.045   6.796
  621SOL    HW1 2762   3.016   1.037   6.707
  621SOL    HW2 2763   3.059   1.141   6.825
  622SOL     OW 2764   1.191   2.042   4.996
  622SOL    HW1 2765   1.151   2.116   4.942
  622SOL    HW2 2766   1.227   2.080   5.082
  623SOL     OW 2767   5.975   0.261   4.195
  623SOL    HW1 2768   5.921   0.181   4.221
  623SOL    HW2 2769   6.017   0.246   4.106
  624SOL     OW 2770   6.561   0.729   6.405
  624SOL    HW1 2771   6.469   0.715   6.368
  624SOL    HW2 2772   6.624   0.664   6.362
  625SOL     OW 2773   2.252   1.780   0.794
  625SOL    HW1 2774   2.231   1.798   0.890
  625SOL    HW2 2775   2.183   1.824   0.736
  626SOL     OW 2776   6.667   5.641   3.978
  626SOL    HW1 2777   6.742   5.578   3.998
  626SOL    HW2 2778   6.704   5.734   3.972
  627SOL     OW 2779   6.344   0.348   0.369
  627SOL    HW1 2780   6.426   0.381   0.415
  627SOL    HW2 2781   6.296   0.426   0.328
  628SOL     OW 2782   4.391   4.362   5.681
  628SOL    HW1 2783   4.491   4.364   5.690
  628SOL    HW2 2784   4.349   4.370   5.772
  629SOL     OW 2785   1.195   6.711   6.272
  629SOL    HW1 2786   1.118   6.710   6.335
  629SOL    HW2 2787   1.193   6.628   6.215
  630SOL     OW 2788   6.473   1.235   1.419
  630SOL    HW1 2789   6.407   1.278   1.358
  630SOL    HW2 2790   6.462   1.136   1.415
  631SOL     OW 2791   1.808   2.834   3.802
  631SOL    HW1 2792   1.719   2.800   3.770
  631SOL    HW2 2793   1.857   2.876   3.725
  632SOL     OW 2794   3.439   3.917   6.563
  632SOL    HW1 2795   3.527   3.906   6.608
  632SOL    HW2 2796   3.407   3.829   6.529
  633SOL     OW 2797   1.574   6.087   1.693
  633SOL    HW1 2798   1.657   6.142   1.698
  633SOL    HW2 2799   1.584   6.006   1.751
  634SOL     OW 2800   3.202   2.956   4.694
  634SOL    HW1 2801   3.124   3.002   4.737
  634SOL    HW2 2802   3.266   2.925   4.764
  635SOL     OW 2803   5.590   0.336   6.833
  635SOL    HW1 2804   5.605   0.303   6.926
  635SOL    HW2 2805   5.563   0.433   6.836
  636SOL     OW 2806   2.660   0.597   5.618
  636SOL    HW1 2807   2.689   0.554   5.532
  636SOL    HW2 2808   2.596   0.538   5.665
  637SOL     OW 2809   6.593   0.464   2.712
  637SOL    HW1 2810   6.671   0.520   2.738
  637SOL    HW2 2811   6.604   0.372   2.749
  638SOL     OW 2812   6.665   3.586   4.439
  638SOL    HW1 2813   6.607   3.549   4.512
  638SOL    HW2 2814   6.648   3.683   4.428
  639SOL     OW 2815   5.425   4.658   2.558
  639SOL    HW1 2816   5.333   4.621   2.547
  639SOL    HW2 2817   5.463   4.625   2.645
  640SOL     OW 2818   0.492   2.646   1.893
  640SOL    HW1 2819   0.417   2.604   1.841
  640SOL    HW2 2820   0.454   2.698   1.970
  641SOL     OW 2821   2.304   5.090   4.560
  641SOL    HW1 2822   2.363   5.158   4.516
  641SOL    HW2 2823   2.353   5.047   4.636
  642SOL     OW 2824   1.243   4.177   4.444
  642SOL    HW1 2825   1.332   4.149   4.409
  642SOL    HW2 2826   1.231   4.275   4.428
  643SOL     OW 2827   5.078   5.290   0.697
  643SOL    HW1 2828   5.093   5.242   0.784
  643SOL    HW2 2829   5.044   5.382   0.716
  644SOL     OW 2830   6.892   6.849   5.220
  644SOL    HW1 2831   6.820   6.821   5.283
  644SOL    HW2 2832   6.891   6.949   5.210
  645SOL     OW 2833   4.017   5.210   2.014
  645SOL    HW1 2834   4.031   5.134   2.078
  645SOL    HW2 2835   4.004   5.295   2.067
  646SOL     OW 2836   3.615   1.675   4.966
  646SOL    HW1 2837   3.565   1.683   5.052
  646SOL    HW2 2838   3.558   1.706   4.890
  647SOL     OW 2839   4.305   2.451   5.795
  647SOL    HW1 2840   4.232   2.472   5.860
  647SOL    HW2 2841   4.293   2.508   5.714
  648SOL     OW 2842   6.022   1.281   2.856
  648SOL    HW1 2843   6.011   1.190   2.816
  648SOL    HW2 2844   6.074   1.339   2.793
  649SOL     OW 2845   2.187   5.822   0.326
  649SOL    HW1 2846   2.185   5.904   0.383
  649SOL    HW2 2847   2.105   5.767   0.343
  650SOL     OW 2848   0.249   3.868   1.146
  650SOL    HW1 2849   0.252   3.768   1.142
  650SOL    HW2 2850   0.322   3.906   1.089
  651SOL     OW 2851   1.319   0.076   4.595
  651SOL    HW1 2852   1.246   0.011   4.620
  651SOL    HW2 2853   1.279   0.165   4.576
  652SOL     OW 2854   3.949   6.063   1.959
  652SOL    HW1 2855   4.018   6.135   1.957
  652SOL    HW2 2856   3.873   6.087   1.898
  653SOL     OW 2857   1.260   0.099   2.174
  653SOL    HW1 2858   1.163   0.103   2.196
  653SOL    HW2 2859   1.314   0.116   2.256
  654SOL     OW 2860   0.331   6.913   5.023
  654SOL    HW1 2861   0.303   6.825   4.987
  654SOL    HW2 2862   0.327   6.982   4.950
  655SOL     OW 2863   6.972   4.083   2.028
  655SOL    HW1 2864   6.928   4.000   1.994
  655SOL    HW2 2865   0.018   4.059   2.100
  656SOL     OW 2866   3.519   5.973   0.159
  656SOL    HW1 2867   3.564   6.029   0.229
  656SOL    HW2 2868   3.503   6.028   0.077
  657SOL     OW 2869   3.722   3.175   2.511
  657SOL    HW1 2870   3.699   3.242   2.441
  657SOL    HW2 2871   3.776   3.102   2.470
  658SOL     OW 2872   1.507   2.125   5.167
  658SOL    HW1 2873   1.529   2.222   5.161
  658SOL    HW2 2874   1.562   2.083   5.239
  659SOL     OW 2875   1.889   5.828   6.379
  659SOL    HW1 2876   1.955   5.900   6.402
  659SOL    HW2 2877   1.913   5.744   6.427
  660SOL     OW 2878   4.525   4.461   2.837
  660SOL    HW1 2879   4.585   4.541   2.832
  660SOL    HW2 2880   4.455   4.468   2.767
  661SOL     OW 2881   4.738   4.136   4.500
  661SOL    HW1 2882   4.692   4.204   4.558
  661SOL    HW2 2883   4.785   4.070   4.558
  662SOL     OW 2884   5.036   3.181   6.829
  662SOL    HW1 2885   4.985   3.167   6.913
  662SOL    HW2 2886   5.092   3.263   6.837
  663SOL     OW 2887   7.005   4.208   6.858
  663SOL    HW1 2888   0.065   4.155   6.884
  663SOL    HW2 2889   6.929   4.146   6.837
  664SOL     OW 2890   2.094   6.541   6.647
  664SOL    HW1 2891   2.130   6.628   6.680
  664SOL    HW2 2892   2.064   6.551   6.553
  665SOL     OW 2893   3.513   5.003   1.619
  665SOL    HW1 2894   3.598   4.952   1.612
  665SOL    HW2 2895   3.465   5.000   1.531
  666SOL     OW 2896   3.405   1.335   0.329
  666SOL    HW1 2897   3.458   1.417   0.352
  666SOL    HW2 2898   3.466   1.257   0.317
  667SOL     OW 2899   1.023   3.465   3.693
  667SOL    HW1 2900   0.948   3.422   3.743
  667SOL    HW2 2901   1.110   3.432   3.729
  668SOL     OW 2902   5.402   6.855   0.511
  668SOL    HW1 2903   5.477   6.912   0.479
  668SOL    HW2 2904   5.320   6.875   0.457
  669SOL     OW 2905   2.189   6.223   2.839
  669SOL    HW1 2906   2.157   6.132   2.813
  669SOL    HW2 2907   2.237   6.218   2.927
  670SOL     OW 2908   3.358   2.940   3.257
  670SOL    HW1 2909   3.259   2.941   3.269
  670SOL    HW2 2910   3.403   2.934   3.347
  671SOL     OW 2911   1.226   0.242   6.137
  671SOL    HW1 2912   1.202   0.253   6.234
  671SOL    HW2 2913   1.320   0.209   6.130
  672SOL     OW 2914   2.342   2.150   3.770
  672SOL    HW1 2915   2.441   2.143   3.755
  672SOL    HW2 2916   2.320   2.117   3.862
  673SOL     OW 2917   5.704   6.382   1.037
  673SOL    HW1 2918   5.622   6.338   1.073
  673SOL    HW2 2919   5.689   6.480   1.030
  674SOL     OW 2920   6.710   2.058   3.550
  674SOL    HW1 2921   6.723   2.090   3.644
  674SOL    HW2 2922   6.618   2.082   3.519
  675SOL     OW 2923   6.225   1.618   4.864
  675SOL    HW1 2924   6.297   1.686   4.876
  675SOL    HW2 2925   6.176   1.635   4.778
  676SOL     OW 2926   1.990   4.783   4.606
  676SOL    HW1 2927   1.897   4.748   4.599
  676SOL    HW2 2928   2.046   4.719   4.659
  677SOL     OW 2929   5.226   6.946   1.193
  677SOL    HW1 2930   5.229   6.857   1.148
  677SOL    HW2 2931   5.134   6.984   1.185
  678SOL     OW 2932   2.222   1.725   5.922
  678SOL    HW1 2933   2.163   1.646   5.907
  678SOL    HW2 2934   2.173   1.808   5.895
  679SOL     OW 2935   5.642   6.510   2.418
  679SOL    HW1 2936   5.741   6.522   2.425
  679SOL    HW2 2937   5.611   6.543   2.328
  680SOL     OW 2938   5.599   4.236   5.180
  680SOL    HW1 2939   5.671   4.165   5.180
  680SOL    HW2 2940   5.622   4.305   5.112
  681SOL     OW 2941   1.913   6.838   2.073
  681SOL    HW1 2942   1.862   6.804   1.994
  681SOL    HW2 2943   2.011   6.842   2.050
  682SOL     OW 2944   1.230   6.313   0.322
  682SOL    HW1 2945   1.139   6.307   0.364
  682SOL    HW2 2946   1.297   6.268   0.381
  683SOL     OW 2947   5.302   1.899   0.382
  683SOL    HW1 2948   5.269   1.859   0.468
  683SOL    HW2 2949   5.390   1.943   0.397
  684SOL     OW 2950   0.245   5.863   6.801
  684SOL    HW1 2951   0.147   5.877   6.785
  684SOL    HW2 2952   0.284   5.806   6.729
  685SOL     OW 2953   5.750   1.101   5.677
  685SOL    HW1 2954   5.781   1.131   5.768
  685SOL    HW2 2955   5.745   1.001   5.675
  686SOL     OW 2956   5.272   4.663   3.250
  686SOL    HW1 2957   5.295   4.587   3.310
  686SOL    HW2 2958   5.352   4.722   3.239
  687SOL     OW 2959   6.124   2.512   4.793
  687SOL    HW1 2960   6.174   2.563   4.864
  687SOL    HW2 2961   6.114   2.569   4.712
  688SOL     OW 2962   0.382   3.552   4.849
  688SOL    HW1 2963   0.418   3.464   4.879
  688SOL    HW2 2964   0.289   3.563   4.882
  689SOL     OW 2965   6.040   4.081   5.784
  689SOL    HW1 2966   6.006   4.043   5.870
  689SOL    HW2 2967   6.134   4.051   5.770
  690SOL     OW 2968   1.082   2.494   3.516
  690SOL    HW1 2969   1.060   2.515   3.611
  690SOL    HW2 2970   1.045   2.565   3.456
  691SOL     OW 2971   0.600   3.092   0.039
  691SOL    HW1 2972   0.546   3.039   6.994
  691SOL    HW2 2973   0.688   3.048   0.054
  692SOL     OW 2974   1.744   6.943   3.308
  692SOL    HW1 2975   1.826   6.962   3.362
  692SOL    HW2 2976   1.670   7.003   3.337
  693SOL     OW 2977   6.615   1.023   2.492
  693SOL    HW1 2978   6.683   0.965   2.448
  693SOL    HW2 2979   6.611   1.111   2.446
  694SOL     OW 2980   1.635   0.594   2.028
  694SOL    HW1 2981   1.725   0.571   2.065
  694SOL    HW2 2982   1.578   0.512   2.025
  695SOL     OW 2983   4.102   6.093   6.096
  695SOL    HW1 2984   4.105   6.157   6.172
  695SOL    HW2 2985   4.193   6.053   6.083
  696SOL     OW 2986   4.378   5.538   2.715
  696SOL    HW1 2987   4.417   5.462   2.663
  696SOL    HW2 2988   4.322   5.595   2.654
  697SOL     OW 2989   1.277   3.804   3.962
  697SOL    HW1 2990   1.315   3.801   3.869
  697SOL    HW2 2991   1.204   3.873   3.965
  698SOL     OW 2992   4.153   6.507   3.960
  698SOL    HW1 2993   4.229   6.497   3.895
  698SOL    HW2 2994   4.137   6.604   3.978
  699SOL     OW 2995   2.252   4.530   0.277
  699SOL    HW1 2996   2.190   4.479   0.337
  699SOL    HW2 2997   2.300   4.467   0.216
  700SOL     OW 2998   2.050   1.097   3.850
  700SOL    HW1 2999   2.130   1.093   3.791
  700SOL    HW2 3000   2.075   1.139   3.937
  701SOL     OW 3001   0.775   4.830   5.943
  701SOL    HW1 3002   0.822   4.746   5.970
  701SOL    HW2 3003   0.678   4.824   5.968
  702SOL     OW 3004   5.570   5.447   4.868
  702SOL    HW1 3005   5.528   5.535   4.848
  702SOL    HW2 3006   5.653   5.462   4.922
  703SOL     OW 3007   4.275   3.996   6.916
  703SOL    HW1 3008   4.367   3.958   6.914
  703SOL    HW2 3009   4.248   4.025   6.824
  704SOL     OW 3010   2.494   0.112   0.829
  704SOL    HW1 3011   2.480   0.109   0.730
  704SOL    HW2 3012   2.406   0.101   0.876
  705SOL     OW 3013   5.982   2.520   3.230
  705SOL    HW1 3014   6.029   2.607   3.219
  705SOL    HW2 3015   5.892   2.534   3.271
  706SOL     OW 3016   3.962   2.103   3.873
  706SOL    HW1 3017   3.867   2.121   3.901
  706SOL    HW2 3018   3.964   2.024   3.812
  707SOL     OW 3019   5.003   1.599   1.434
  707SOL    HW1 3020   4.985   1.693   1.463
  707SOL    HW2 3021   4.929   1.568   1.375
  708SOL     OW 3022   3.802   1.053   1.674
  708SOL    HW1 3023   3.877   1.117   1.655
  708SOL    HW2 3024   3.778   1.058   1.771
  709SOL     OW 3025   1.060   4.732   6.634
  709SOL    HW1 3026   1.131   4.704   6.569
  709SOL    HW2 3027   1.036   4.828   6.616
  710SOL     OW 3028   3.250   4.003   2.697
  710SOL    HW1 3029   3.341   3.962   2.687
  710SOL    HW2 3030   3.237   4.072   2.626
  711SOL     OW 3031   0.863   0.499   4.010
  711SOL    HW1 3032   0.768   0.528   4.023
  711SOL    HW2 3033   0.895   0.452   4.092
  712SOL     OW 3034   1.516   3.834   1.424
  712SOL    HW1 3035   1.469   3.866   1.507
  712SOL    HW2 3036   1.464   3.758   1.384
  713SOL     OW 3037   4.063   3.241   3.194
  713SOL    HW1 3038   4.065   3.211   3.099
  713SOL    HW2 3039   4.090   3.337   3.199
  714SOL     OW 3040   4.968   5.134   5.143
  714SOL    HW1 3041   4.971   5.132   5.243
  714SOL    HW2 3042   4.873   5.144   5.113
  715SOL     OW 3043   4.092   0.380   6.386
  715SOL    HW1 3044   3.996   0.363   6.411
  715SOL    HW2 3045   4.152   0.334   6.451
  716SOL     OW 3046   0.093   4.770   1.928
  716SOL    HW1 3047   7.014   4.781   1.921
  716SOL    HW2 3048   0.138   4.858   1.914
  717SOL     OW 3049   6.202   2.698   0.598
  717SOL    HW1 3050   6.160   2.786   0.616
  717SOL    HW2 3051   6.199   2.679   0.500
  718SOL     OW 3052   3.716   3.781   6.583
  718SOL    HW1 3053   3.742   3.872   6.615
  718SOL    HW2 3054   3.767   3.712   6.634
  719SOL     OW 3055   5.321   4.251   0.100
  719SOL    HW1 3056   5.331   4.303   0.015
  719SOL    HW2 3057   5.250   4.294   0.156
  720SOL     OW 3058   2.362   0.941   6.299
  720SOL    HW1 3059   2.334   0.846   6.287
  720SOL    HW2 3060   2.327   0.976   6.385
  721SOL     OW 3061   1.770   6.771   6.190
  721SOL    HW1 3062   1.689   6.758   6.247
  721SOL    HW2 3063   1.753   6.735   6.098
  722SOL     OW 3064   4.393   0.109   5.657
  722SOL    HW1 3065   4.326   0.175   5.690
  722SOL    HW2 3066   4.348   0.042   5.598
  723SOL     OW 3067   1.420   3.183   1.861
  723SOL    HW1 3068   1.333   3.228   1.882
  723SOL    HW2 3069   1.479   3.184   1.942
  724SOL     OW 3070   6.835   1.305   4.954
  724SOL    HW1 3071   6.813   1.347   5.042
  724SOL    HW2 3072   6.800   1.212   4.951
  725SOL     OW 3073   2.066   5.523   0.820
  725SOL    HW1 3074   2.119   5.576   0.754
  725SOL    HW2 3075   1.998   5.468   0.771
  726SOL     OW 3076   4.069   0.173   6.556
  726SOL    HW1 3077   4.161   0.148   6.586
  726SOL    HW2 3078   4.024   0.228   6.626
  727SOL     OW 3079   2.709   4.804   3.955
  727SOL    HW1 3080   2.697   4.812   4.055
  727SOL    HW2 3081   2.666   4.720   3.923
  728SOL     OW 3082   6.882   3.574   4.719
  728SOL    HW1 3083   6.794   3.619   4.704
  728SOL    HW2 3084   6.868   3.492   4.774
  729SOL     OW 3085   3.131   0.287   1.352
  729SOL    HW1 3086   3.124   0.207   1.294
  729SOL    HW2 3087   3.046   0.297   1.405
  730SOL     OW 3088   6.126   0.479   4.574
  730SOL    HW1 3089   6.196   0.419   4.612
  730SOL    HW2 3090   6.169   0.552   4.522
  731SOL     OW 3091   5.877   3.651   3.677
  731SOL    HW1 3092   5.809   3.583   3.650
  731SOL    HW2 3093   5.887   3.719   3.605
  732SOL     OW 3094   6.855   3.046   1.936
  732SOL    HW1 3095   6.943   3.068   1.977
  732SOL    HW2 3096   6.854   3.078   1.841
  733SOL     OW 3097   4.642   4.390   3.647
  733SOL    HW1 3098   4.578   4.462   3.623
  733SOL    HW2 3099   4.687   4.356   3.565
  734SOL     OW 3100   6.943   4.329   0.800
  734SOL    HW1 3101   6.852   4.315   0.761
  734SOL    HW2 3102   6.942   4.302   0.896
  735SOL     OW 3103   1.530   4.747   6.734
  735SOL    HW1 3104   1.464   4.822   6.725
  735SOL    HW2 3105   1.612   4.770   6.682
  736SOL     OW 3106   6.115   1.448   3.499
  736SOL    HW1 3107   6.133   1.383   3.425
  736SOL    HW2 3108   6.183   1.436   3.572
  737SOL     OW 3109   5.786   3.409   0.722
  737SOL    HW1 3110   5.839   3.355   0.787
  737SOL    HW2 3111   5.688   3.390   0.734
  738SOL     OW 3112   0.826   4.017   4.114
  738SOL    HW1 3113   0.789   4.068   4.192
  738SOL    HW2 3114   0.785   3.926   4.112
  739SOL     OW 3115   4.867   6.102   6.957
  739SOL    HW1 3116   4.906   6.113   0.028
  739SOL    HW2 3117   4.904   6.019   6.914
  740SOL     OW 3118   5.632   6.921   1.400
  740SOL    HW1 3119   5.726   6.946   1.422
  740SOL    HW2 3120   5.624   6.898   1.303
  741SOL     OW 3121   2.068   0.671   2.736
  741SOL    HW1 3122   2.069   0.639   2.831
  741SOL    HW2 3123   2.136   0.620   2.683
  742SOL     OW 3124   1.126   0.249   3.186
  742SOL    HW1 3125   1.082   0.225   3.100
  742SOL    HW2 3126   1.140   0.167   3.241
  743SOL     OW 3127   1.803   3.985   4.651
  743SOL    HW1 3128   1.756   4.010   4.566
  743SOL    HW2 3129   1.884   4.043   4.662
  744SOL     OW 3130   0.494   5.946   0.907
  744SOL    HW1 3131   0.441   6.027   0.879
  744SOL    HW2 3132   0.582   5.945   0.860
  745SOL     OW 3133   1.604   6.132   3.005
  745SOL    HW1 3134   1.695   6.090   3.006
  745SOL    HW2 3135   1.534   6.060   3.005
  746SOL     OW 3136   1.766   0.402   4.739
  746SOL    HW1 3137   1.788   0.324   4.797
  746SOL    HW2 3138   1.681   0.444   4.772
  747SOL     OW 3139   5.237   4.898   2.814
  747SOL    HW1 3140   5.148   4.886   2.771
  747SOL    HW2 3141   5.234   4.975   2.877
  748SOL     OW 3142   4.403   3.487   1.187
  748SOL    HW1 3143   4.328   3.464   1.249
  748SOL    HW2 3144   4.374   3.561   1.126
  749SOL     OW 3145   6.977   1.616   5.367
  749SOL    HW1 3146   0.043   1.642   5.410
  749SOL    HW2 3147   6.995   1.590   5.272
  750SOL     OW 3148   2.571   4.080   0.709
  750SOL    HW1 3149   2.632   4.007   0.738
  750SOL    HW2 3150   2.487   4.041   0.672
  751SOL     OW 3151   4.845   0.660   0.127
  751SOL    HW1 3152   4.930   0.692   0.086
  751SOL    HW2 3153   4.787   0.738   0.149
  752SOL     OW 3154   5.213   2.019   2.265
  752SOL    HW1 3155   5.291   1.958   2.250
  752SOL    HW2 3156   5.155   1.983   2.338
  753SOL     OW 3157   2.005   2.663   3.903
  753SOL    HW1 3158   1.948   2.740   3.874
  753SOL    HW2 3159   2.059   2.630   3.825
  754SOL     OW 3160   4.767   5.582   6.750
  754SOL    HW1 3161   4.791   5.545   6.840
  754SOL    HW2 3162   4.703   5.520   6.705
  755SOL     OW 3163   0.349   6.219   1.291
  755SOL    HW1 3164   0.422   6.255   1.232
  755SOL    HW2 3165   0.265   6.269   1.273
  756SOL     OW 3166   5.024   0.112   3.467
  756SOL    HW1 3167   5.039   0.028   3.519
  756SOL    HW2 3168   4.929   0.115   3.435
  757SOL     OW 3169   0.402   0.678   3.628
  757SOL    HW1 3170   0.460   0.722   3.696
  757SOL    HW2 3171   0.306   0.699   3.647
  758SOL     OW 3172   3.946   2.231   1.128
  758SOL    HW1 3173   4.011   2.229   1.205
  758SOL    HW2 3174   3.872   2.295   1.148
  759SOL     OW 3175   1.527   1.413   6.862
  759SOL    HW1 3176   1.610   1.455   6.824
  759SOL    HW2 3177   1.505   1.457   6.949
  760SOL     OW 3178   4.767   1.894   6.053
  760SOL    HW1 3179   4.780   1.985   6.016
  760SOL    HW2 3180   4.724   1.835   5.985
  761SOL     OW 3181   5.802   2.591   6.546
  761SOL    HW1 3182   5.858   2.612   6.626
  761SOL    HW2 3183   5.731   2.660   6.535
  762SOL     OW 3184   2.638   5.826   3.783
  762SOL    HW1 3185   2.585   5.818   3.699
  762SOL    HW2 3186   2.623   5.746   3.840
  763SOL     OW 3187   4.333   5.975   6.620
  763SOL    HW1 3188   4.310   5.985   6.716
  763SOL    HW2 3189   4.257   5.932   6.571
  764SOL     OW 3190   4.630   1.470   2.239
  764SOL    HW1 3191   4.651   1.566   2.223
  764SOL    HW2 3192   4.648   1.446   2.334
  765SOL     OW 3193   6.718   6.921   3.425
  765SOL    HW1 3194   6.682   6.931   3.518
  765SOL    HW2 3195   6.703   7.006   3.374
  766SOL     OW 3196   0.177   6.228   7.019
  766SOL    HW1 3197   0.220   6.304   6.971
  766SOL    HW2 3198   0.084   6.253   0.026
  767SOL     OW 3199   5.874   0.227   2.692
  767SOL    HW1 3200   5.947   0.279   2.649
  767SOL    HW2 3201   5.790   0.282   2.694
  768SOL     OW 3202   3.152   6.365   3.483
  768SOL    HW1 3203   3.130   6.279   3.529
  768SOL    HW2 3204   3.229   6.409   3.530
  769SOL     OW 3205   4.104   1.275   5.964
  769SOL    HW1 3206   4.145   1.266   6.055
  769SOL    HW2 3207   4.137   1.359   5.921
  770SOL     OW 3208   3.242   4.897   4.058
  770SOL    HW1 3209   3.209   4.880   3.965
  770SOL    HW2 3210   3.318   4.962   4.054
  771SOL     OW 3211   0.731   5.685   3.968
  771SOL    HW1 3212   0.770   5.774   3.946
  771SOL    HW2 3213   0.640   5.697   4.008
  772SOL     OW 3214   6.803   4.185   6.212
  772SOL    HW1 3215   6.768   4.233   6.132
  772SOL    HW2 3216   6.808   4.248   6.289
  773SOL     OW 3217   6.984   4.356   2.313
  773SOL    HW1 3218   0.031   4.315   2.375
  773SOL    HW2 3219   0.005   4.368   2.222
  774SOL     OW 3220   1.332   1.115   1.726
  774SOL    HW1 3221   1.421   1.090   1.689
  774SOL    HW2 3222   1.331   1.100   1.825
  775SOL     OW 3223   1.739   2.077   4.748
  775SOL    HW1 3224   1.813   2.074   4.681
  775SOL    HW2 3225   1.737   1.990   4.798
  776SOL     OW 3226   2.026   0.499   6.258
  776SOL    HW1 3227   2.056   0.404   6.242
  776SOL    HW2 3228   1.976   0.504   6.344
  777SOL     OW 3229   4.271   1.216   0.716
  777SOL    HW1 3230   4.327   1.267   0.651
  777SOL    HW2 3231   4.204   1.161   0.666
  778SOL     OW 3232   4.012   6.737   4.686
  778SOL    HW1 3233   3.952   6.682   4.629
  778SOL    HW2 3234   4.028   6.825   4.642
  779SOL     OW 3235   0.996   1.363   2.417
  779SOL    HW1 3236   1.036   1.281   2.457
  779SOL    HW2 3237   0.948   1.414   2.488
  780SOL     OW 3238   5.557   3.216   4.845
  780SOL    HW1 3239   5.512   3.156   4.911
  780SOL    HW2 3240   5.579   3.303   4.889
  781SOL     OW 3241   0.115   1.180   5.717
  781SOL    HW1 3242   0.163   1.267   5.708
  781SOL    HW2 3243   0.165   1.121   5.780
  782SOL     OW 3244   7.011   3.061   0.653
  782SOL    HW1 3245   0.016   2.989   0.718
  782SOL    HW2 3246   6.913   3.078   0.657
  783SOL     OW 3247   2.974   4.740   0.622
  783SOL    HW1 3248   2.958   4.754   0.525
  783SOL    HW2 3249   2.901   4.683   0.660
  784SOL     OW 3250   4.681   0.463   5.141
  784SOL    HW1 3251   4.692   0.375   5.095
  784SOL    HW2 3252   4.616   0.453   5.217
  785SOL     OW 3253   6.424   2.754   3.007
  785SOL    HW1 3254   6.457   2.660   2.998
  785SOL    HW2 3255   6.416   2.778   3.103
  786SOL     OW 3256   6.746   6.856   7.007
  786SOL    HW1 3257   6.699   6.915   0.052
  786SOL    HW2 3258   6.839   6.839   0.019
  787SOL     OW 3259   3.108   2.412   6.275
  787SOL    HW1 3260   3.014   2.400   6.307
  787SOL    HW2 3261   3.132   2.509   6.281
  788SOL     OW 3262   1.428   4.030   4.259
  788SOL    HW1 3263   1.365   4.055   4.186
  788SOL    HW2 3264   1.402   3.942   4.299
  789SOL     OW 3265   5.573   3.744   0.823
  789SOL    HW1 3266   5.529   3.770   0.909
  789SOL    HW2 3267   5.508   3.694   0.766
  790SOL     OW 3268   3.023   1.459   3.988
  790SOL    HW1 3269   2.996   1.384   3.928
  790SOL    HW2 3270   3.069   1.530   3.934
  791SOL     OW 3271   3.120   1.522   4.219
  791SOL    HW1 3272   3.093   1.492   4.128
  791SOL    HW2 3273   3.218   1.505   4.232
  792SOL     OW 3274   5.913   6.917   3.494
  792SOL    HW1 3275   5.884   6.924   3.399
  792SOL    HW2 3276   5.938   6.822   3.515
  793SOL     OW 3277   5.923   0.237   6.946
  793SOL    HW1 3278   5.955   0.303   6.878
  793SOL    HW2 3279   5.987   0.233   0.003
  794SOL     OW 3280   2.479   5.227   5.404
  794SOL    HW1 3281   2.452   5.151   5.464
  794SOL    HW2 3282   2.486   5.310   5.459
  795SOL     OW 3283   4.922   4.556   6.327
  795SOL    HW1 3284   4.832   4.595   6.342
  795SOL    HW2 3285   4.930   4.527   6.231
  796SOL     OW 3286   0.374   2.294   6.731
  796SOL    HW1 3287   0.338   2.201   6.728
  796SOL    HW2 3288   0.341   2.346   6.651
  797SOL     OW 3289   5.737   2.817   3.911
  797SOL    HW1 3290   5.804   2.774   3.850
  797SOL    HW2 3291   5.756   2.915   3.917
  798SOL     OW 3292   5.353   1.104   6.390
  798SOL    HW1 3293   5.325   1.177   6.328
  798SOL    HW2 3294   5.423   1.049   6.346
  799SOL     OW 3295   6.875   3.163   3.267
  799SOL    HW1 3296   6.815   3.217   3.325
  799SOL    HW2 3297   6.965   3.207   3.261
  800SOL     OW 3298   6.209   1.443   2.082
  800SOL    HW1 3299   6.203   1.372   2.153
  800SOL    HW2 3300   6.262   1.408   2.005
  801SOL     OW 3301   0.463   2.589   3.332
  801SOL    HW1 3302   0.375   2.583   3.285
  801SOL    HW2 3303   0.478   2.682   3.365
  802SOL     OW 3304   5.539   1.114   0.784
  802SOL    HW1 3305   5.579   1.151   0.700
  802SOL    HW2 3306   5.497   1.025   0.764
  803SOL     OW 3307   6.931   0.098   5.190
  803SOL    HW1 3308   6.909   0.113   5.286
  803SOL    HW2 3309   6.914   0.181   5.138
  804SOL     OW 3310   0.161   0.159   0.460
  804SOL    HW1 3311   0.161   0.124   0.366
  804SOL    HW2 3312   0.220   0.101   0.517
  805SOL     OW 3313   2.842   2.882   6.189
  805SOL    HW1 3314   2.888   2.926   6.265
  805SOL    HW2 3315   2.897   2.892   6.106
  806SOL     OW 3316   5.311   0.682   0.434
  806SOL    HW1 3317   5.232   0.699   0.376
  806SOL    HW2 3318   5.301   0.733   0.520
  807SOL     OW 3319   1.517   0.059   3.385
  807SOL    HW1 3320   1.515   0.076   3.483
  807SOL    HW2 3321   1.461   6.998   3.364
  808SOL     OW 3322   5.114   3.391   5.200
  808SOL    HW1 3323   5.063   3.357   5.121
  808SOL    HW2 3324   5.085   3.342   5.282
  809SOL     OW 3325   0.276   4.624   6.150
  809SOL    HW1 3326   0.197   4.563   6.148
  809SOL    HW2 3327   0.266   4.694   6.080
  810SOL     OW 3328   5.805   4.494   6.901
  810SOL    HW1 3329   5.794   4.580   6.951
  810SOL    HW2 3330   5.877   4.504   6.832
  811SOL     OW 3331   5.130   5.076   4.118
  811SOL    HW1 3332   5.081   5.076   4.206
  811SOL    HW2 3333   5.106   5.160   4.068
  812SOL     OW 3334   0.186   6.761   1.905
  812SOL    HW1 3335   0.255   6.754   1.832
  812SOL    HW2 3336   0.189   6.853   1.944
  813SOL     OW 3337   5.234   5.610   2.307
  813SOL    HW1 3338   5.172   5.682   2.276
  813SOL    HW2 3339   5.212   5.525   2.259
  814SOL     OW 3340   5.309   6.253   1.714
  814SOL    HW1 3341   5.365   6.279   1.793
  814SOL    HW2 3342   5.364   6.197   1.652
  815SOL     OW 3343   0.097   2.618   1.098
  815SOL    HW1 3344   0.145   2.545   1.049
  815SOL    HW2 3345   0.002   2.589   1.115
  816SOL     OW 3346   6.531   6.719   0.940
  816SOL    HW1 3347   6.446   6.768   0.962
  816SOL    HW2 3348   6.578   6.694   1.024
  817SOL     OW 3349   1.794   2.786   2.384
  817SOL    HW1 3350   1.759   2.786   2.478
  817SOL    HW2 3351   1.789   2.878   2.347
  818SOL     OW 3352   6.411   1.596   1.127
  818SOL    HW1 3353   6.435   1.676   1.181
  818SOL    HW2 3354   6.340   1.621   1.060
  819SOL     OW 3355   6.810   3.561   3.990
  819SOL    HW1 3356   6.752   3.527   4.065
  819SOL    HW2 3357   6.755   3.618   3.930
  820SOL     OW 3358   1.218   2.989   4.769
  820SOL    HW1 3359   1.275   3.069   4.792
  820SOL    HW2 3360   1.264   2.906   4.800
  821SOL     OW 3361   1.241   3.646   6.857
  821SOL    HW1 3362   1.293   3.671   6.776
  821SOL    HW2 3363   1.190   3.725   6.890
  822SOL     OW 3364   1.557   3.800   4.585
  822SOL    HW1 3365   1.592   3.706   4.581
  822SOL    HW2 3366   1.632   3.863   4.605
  823SOL     OW 3367   3.410   4.176   0.736
  823SOL    HW1 3368   3.486   4.213   0.790
  823SOL    HW2 3369   3.420   4.202   0.640
  824SOL     OW 3370   5.571   1.980   5.777
  824SOL    HW1 3371   5.472   1.970   5.771
  824SOL    HW2 3372   5.605   1.930   5.857
  825SOL     OW 3373   2.157   4.074   2.285
  825SOL    HW1 3374   2.177   4.099   2.380
  825SOL    HW2 3375   2.111   4.150   2.239
  826SOL     OW 3376   0.308   4.053   5.854
  826SOL    HW1 3377   0.332   4.150   5.855
  826SOL    HW2 3378   0.209   4.043   5.845
  827SOL     OW 3379   3.950   5.848   0.024
  827SOL    HW1 3380   4.036   5.830   0.072
  827SOL    HW2 3381   3.964   5.921   6.977
  828SOL     OW 3382   6.267   0.291   5.967
  828SOL    HW1 3383   6.213   0.208   5.981
  828SOL    HW2 3384   6.318   0.312   6.051
  829SOL     OW 3385   3.400   2.869   4.868
  829SOL    HW1 3386   3.403   2.769   4.875
  829SOL    HW2 3387   3.492   2.904   4.851
  830SOL     OW 3388   4.422   4.030   5.320
  830SOL    HW1 3389   4.363   3.950   5.307
  830SOL    HW2 3390   4.382   4.089   5.390
  831SOL     OW 3391   6.578   0.823   4.836
  831SOL    HW1 3392   6.538   0.847   4.748
  831SOL    HW2 3393   6.678   0.819   4.828
  832SOL     OW 3394   2.067   1.949   5.845
  832SOL    HW1 3395   2.030   1.976   5.934
  832SOL    HW2 3396   2.128   2.021   5.811
  833SOL     OW 3397   6.878   6.935   6.114
  833SOL    HW1 3398   6.834   6.845   6.112
  833SOL    HW2 3399   6.847   6.989   6.036
  834SOL     OW 3400   2.997   4.049   5.119
  834SOL    HW1 3401   2.900   4.065   5.138
  834SOL    HW2 3402   3.053   4.112   5.173
  835SOL     OW 3403   4.107   0.020   3.382
  835SOL    HW1 3404   4.098   6.953   3.432
  835SOL    HW2 3405   4.016   0.054   3.359
  836SOL     OW 3406   2.452   1.185   0.480
  836SOL    HW1 3407   2.359   1.164   0.508
  836SOL    HW2 3408   2.464   1.164   0.383
  837SOL     OW 3409   4.639   0.991   5.736
  837SOL    HW1 3410   4.739   0.989   5.746
  837SOL    HW2 3411   4.614   1.058   5.665
  838SOL     OW 3412   2.342   5.589   3.037
  838SOL    HW1 3413   2.358   5.502   2.992
  838SOL    HW2 3414   2.428   5.622   3.076
  839SOL     OW 3415   2.909   1.624   2.784
  839SOL    HW1 3416   3.004   1.633   2.755
  839SOL    HW2 3417   2.869   1.544   2.741
  840SOL     OW 3418   0.739   1.393   6.804
  840SOL    HW1 3419   0.778   1.485   6.812
  840SOL    HW2 3420   0.768   1.338   6.883
  841SOL     OW 3421   0.861   3.715   6.684
  841SOL    HW1 3422   0.841   3.735   6.780
  841SOL    HW2 3423   0.816   3.630   6.657
  842SOL     OW 3424   3.685   5.676   3.419
  842SOL    HW1 3425   3.645   5.621   3.346
  842SOL    HW2 3426   3.759   5.732   3.381
  843SOL     OW 3427   6.492   1.853   1.901
  843SOL    HW1 3428   6.398   1.860   1.934
  843SOL    HW2 3429   6.508   1.761   1.866
  844SOL     OW 3430   5.336   5.534   0.550
  844SOL    HW1 3431   5.295   5.523   0.641
  844SOL    HW2 3432   5.389   5.619   0.548
  845SOL     OW 3433   0.769   4.315   5.020
  845SOL    HW1 3434   0.782   4.391   4.957
  845SOL    HW2 3435   0.715   4.244   4.975
  846SOL     OW 3436   6.395   1.930   6.369
  846SOL    HW1 3437   6.416   1.842   6.326
  846SOL    HW2 3438   6.331   1.915   6.445
  847SOL     OW 3439   4.935   3.451   2.094
  847SOL    HW1 3440   4.903   3.523   2.155
  847SOL    HW2 3441   4.982   3.380   2.147
  848SOL     OW 3442   5.972   0.396   5.862
  848SOL    HW1 3443   6.032   0.475   5.852
  848SOL    HW2 3444   5.959   0.377   5.959
  849SOL     OW 3445   0.339   5.253   4.381
  849SOL    HW1 3446   0.266   5.193   4.348
  849SOL    HW2 3447   0.308   5.348   4.376
  850SOL     OW 3448   3.830   0.801   2.859
  850SOL    HW1 3449   3.890   0.733   2.816
  850SOL    HW2 3450   3.737   0.763   2.866
  851SOL     OW 3451   1.517   0.827   6.367
  851SOL    HW1 3452   1.541   0.730   6.372
  851SOL    HW2 3453   1.597   0.879   6.336
  852SOL     OW 3454   2.217   4.083   6.618
  852SOL    HW1 3455   2.288   4.021   6.650
  852SOL    HW2 3456   2.128   4.051   6.650
  853SOL     OW 3457   1.987   4.004   1.379
  853SOL    HW1 3458   2.035   3.925   1.339
  853SOL    HW2 3459   2.033   4.088   1.351
  854SOL     OW 3460   5.597   5.012   1.715
  854SOL    HW1 3461   5.617   4.920   1.681
  854SOL    HW2 3462   5.514   5.010   1.771
  855SOL     OW 3463   5.194   0.229   1.816
  855SOL    HW1 3464   5.290   0.250   1.796
  855SOL    HW2 3465   5.148   0.200   1.732
  856SOL     OW 3466   1.682   6.950   5.406
  856SOL    HW1 3467   1.594   6.965   5.453
  856SOL    HW2 3468   1.696   6.851   5.394
  857SOL     OW 3469   6.641   3.706   2.243
  857SOL    HW1 3470   6.616   3.656   2.161
  857SOL    HW2 3471   6.705   3.780   2.220
  858SOL     OW 3472   3.210   4.316   1.108
  858SOL    HW1 3473   3.198   4.234   1.051
  858SOL    HW2 3474   3.183   4.296   1.202
  859SOL     OW 3475   6.705   4.861   6.743
  859SOL    HW1 3476   6.630   4.926   6.734
  859SOL    HW2 3477   6.697   4.790   6.673
  860SOL     OW 3478   1.747   4.587   1.831
  860SOL    HW1 3479   1.714   4.670   1.786
  860SOL    HW2 3480   1.761   4.605   1.928
  861SOL     OW 3481   3.247   5.812   5.586
  861SOL    HW1 3482   3.240   5.774   5.494
  861SOL    HW2 3483   3.319   5.880   5.589
  862SOL     OW 3484   4.450   4.537   4.403
  862SOL    HW1 3485   4.448   4.437   4.399
  862SOL    HW2 3486   4.518   4.566   4.470
  863SOL     OW 3487   5.751   1.080   1.485
  863SOL    HW1 3488   5.757   1.111   1.391
  863SOL    HW2 3489   5.807   0.998   1.497
  864SOL     OW 3490   6.026   4.475   2.901
  864SOL    HW1 3491   5.991   4.556   2.949
  864SOL    HW2 3492   5.956   4.442   2.838
  865SOL     OW 3493   1.720   6.886   4.595
  865SOL    HW1 3494   1.789   6.944   4.640
  865SOL    HW2 3495   1.650   6.944   4.553
  866SOL     OW 3496   3.463   1.987   1.611
  866SOL    HW1 3497   3.482   1.991   1.710
  866SOL    HW2 3498   3.367   1.963   1.597
  867SOL     OW 3499   1.359   2.702   5.783
  867SOL    HW1 3500   1.335   2.637   5.854
  867SOL    HW2 3501   1.277   2.751   5.753
  868SOL     OW 3502   5.282   2.769   3.166
  868SOL    HW1 3503   5.229   2.765   3.082
  868SOL    HW2 3504   5.256   2.694   3.226
  869SOL     OW 3505   6.450   4.969   2.828
  869SOL    HW1 3506   6.388   4.995   2.754
  869SOL    HW2 3507   6.545   4.977   2.797
  870SOL     OW 3508   0.074   2.007   0.821
  870SOL    HW1 3509   0.123   1.945   0.883
  870SOL    HW2 3510   0.139   2.061   0.769
  871SOL     OW 3511   6.271   2.992   0.340
  871SOL    HW1 3512   6.345   2.982   0.274
  871SOL    HW2 3513   6.199   3.048   0.300
  872SOL     OW 3514   5.950   2.372   2.756
  872SOL    HW1 3515   5.998   2.396   2.841
  872SOL    HW2 3516   5.969   2.276   2.733
  873SOL     OW 3517   4.430   6.865   5.277
  873SOL    HW1 3518   4.456   6.938   5.214
  873SOL    HW2 3519   4.414   6.781   5.225
  874SOL     OW 3520   0.739   3.996   5.754
  874SOL    HW1 3521   0.779   3.983   5.663
  874SOL    HW2 3522   0.642   4.021   5.744
  875SOL     OW 3523   6.212   4.700   6.745
  875SOL    HW1 3524   6.301   4.696   6.790
  875SOL    HW2 3525   6.222   4.747   6.658
  876SOL     OW 3526   0.825   3.373   2.029
  876SOL    HW1 3527   0.861   3.450   2.082
  876SOL    HW2 3528   0.753   3.328   2.081
  877SOL     OW 3529   5.578   5.729   0.528
  877SOL    HW1 3530   5.591   5.819   0.487
  877SOL    HW2 3531   5.646   5.666   0.491
  878SOL     OW 3532   2.846   4.085   0.141
  878SOL    HW1 3533   2.898   4.054   0.061
  878SOL    HW2 3534   2.753   4.110   0.112
  879SOL     OW 3535   4.689   2.007   2.178
  879SOL    HW1 3536   4.783   2.017   2.146
  879SOL    HW2 3537   4.626   2.044   2.110
  880SOL     OW 3538   4.305   5.140   0.795
  880SOL    HW1 3539   4.290   5.048   0.829
  880SOL    HW2 3540   4.230   5.199   0.825
  881SOL     OW 3541   4.468   5.289   5.043
  881SOL    HW1 3542   4.434   5.327   5.129
  881SOL    HW2 3543   4.435   5.344   4.966
  882SOL     OW 3544   0.762   0.828   4.386
  882SOL    HW1 3545   0.818   0.857   4.308
  882SOL    HW2 3546   0.713   0.907   4.423
  883SOL     OW 3547   3.038   5.082   6.332
  883SOL    HW1 3548   2.985   5.166   6.319
  883SOL    HW2 3549   2.990   5.021   6.395
  884SOL     OW 3550   4.816   3.830   1.419
  884SOL    HW1 3551   4.843   3.918   1.378
  884SOL    HW2 3552   4.735   3.795   1.373
  885SOL     OW 3553   4.294   6.056   0.163
  885SOL    HW1 3554   4.339   5.999   0.231
  885SOL    HW2 3555   4.195   6.049   0.173
  886SOL     OW 3556   4.722   1.564   5.978
  886SOL    HW1 3557   4.630   1.599   5.958
  886SOL    HW2 3558   4.770   1.630   6.036
  887SOL     OW 3559   4.553   0.609   6.210
  887SOL    HW1 3560   4.573   0.699   6.173
  887SOL    HW2 3561   4.457   0.606   6.240
  888SOL     OW 3562   5.676   6.158   3.329
  888SOL    HW1 3563   5.742   6.233   3.344
  888SOL    HW2 3564   5.695   6.114   3.242
  889SOL     OW 3565   0.733   6.815   4.826
  889SOL    HW1 3566   0.682   6.808   4.740
  889SOL    HW2 3567   0.831   6.811   4.807
  890SOL     OW 3568   2.773   4.777   2.124
  890SOL    HW1 3569   2.808   4.862   2.085
  890SOL    HW2 3570   2.808   4.700   2.071
  891SOL     OW 3571   6.039   3.241   6.397
  891SOL    HW1 3572   6.130   3.205   6.419
  891SOL    HW2 3573   6.027   3.243   6.298
  892SOL     OW 3574   2.960   5.311   1.672
  892SOL    HW1 3575   2.904   5.379   1.720
  892SOL    HW2 3576   2.985   5.238   1.737
  893SOL     OW 3577   2.412   0.553   0.835
  893SOL    HW1 3578   2.373   0.645   0.846
  893SOL    HW2 3579   2.399   0.523   0.741
  894SOL     OW 3580   0.829   5.764   3.613
  894SOL    HW1 3581   0.792   5.679   3.649
  894SOL    HW2 3582   0.927   5.769   3.635
  895SOL     OW 3583   1.823   0.033   5.060
  895SOL    HW1 3584   1.917   0.062   5.083
  895SOL    HW2 3585   1.791   6.988   5.129
  896SOL     OW 3586   5.444   6.602   3.081
  896SOL    HW1 3587   5.521   6.637   3.027
  896SOL    HW2 3588   5.366   6.664   3.071
  897SOL     OW 3589   5.558   2.602   5.845
  897SOL    HW1 3590   5.476   2.628   5.895
  897SOL    HW2 3591   5.538   2.597   5.747
  898SOL     OW 3592   5.800   6.329   3.862
  898SOL    HW1 3593   5.752   6.260   3.808
  898SOL    HW2 3594   5.815   6.295   3.955
  899SOL     OW 3595   0.572   4.979   6.347
  899SOL    HW1 3596   0.635   4.925   6.403
  899SOL    HW2 3597   0.623   5.024   6.273
  900SOL     OW 3598   0.720   6.084   3.730
  900SOL    HW1 3599   0.772   6.143   3.668
  900SOL    HW2 3600   0.689   6.003   3.680
  901SOL     OW 3601   5.579   2.519   3.479
  901SOL    HW1 3602   5.498   2.535   3.534
  901SOL    HW2 3603   5.653   2.485   3.537
  902SOL     OW 3604   6.918   6.314   0.118
  902SOL    HW1 3605   6.873   6.335   0.205
  902SOL    HW2 3606   6.866   6.354   0.043
  903SOL     OW 3607   0.784   4.225   0.535
  903SOL    HW1 3608   0.829   4.205   0.622
  903SOL    HW2 3609   0.829   4.303   0.491
  904SOL     OW 3610   2.000   1.781   3.549
  904SOL    HW1 3611   2.098   1.764   3.556
  904SOL    HW2 3612   1.951   1.694   3.560
  905SOL     OW 3613   5.401   1.923   5.153
  905SOL    HW1 3614   5.457   1.908   5.235
  905SOL    HW2 3615   5.449   1.886   5.073
  906SOL     OW 3616   6.418   4.166   5.300
  906SOL    HW1 3617   6.332   4.135   5.342
  906SOL    HW2 3618   6.398   4.238   5.233
  907SOL     OW 3619   6.828   3.495   1.800
  907SOL    HW1 3620   6.752   3.482   1.863
  907SOL    HW2 3621   6.835   3.592   1.776
  908SOL     OW 3622   1.876   0.596   3.315
  908SOL    HW1 3623   1.898   0.693   3.327
  908SOL    HW2 3624   1.780   0.580   3.339
  909SOL     OW 3625   3.698   0.586   1.164
  909SOL    HW1 3626   3.693   0.488   1.145
  909SOL    HW2 3627   3.779   0.606   1.219
  910SOL     OW 3628   1.796   1.721   1.514
  910SOL    HW1 3629   1.805   1.793   1.584
  910SOL    HW2 3630   1.883   1.672   1.506
  911SOL     OW 3631   0.389   4.212   1.012
  911SOL    HW1 3632   0.409   4.183   1.106
  911SOL    HW2 3633   0.379   4.132   0.953
  912SOL     OW 3634   0.792   0.447   6.076
  912SOL    HW1 3635   0.696   0.464   6.096
  912SOL    HW2 3636   0.812   0.478   5.983
  913SOL     OW 3637   2.440   1.343   1.954
  913SOL    HW1 3638   2.522   1.319   1.903
  913SOL    HW2 3639   2.425   1.441   1.949
  914SOL     OW 3640   3.247   6.943   3.098
  914SOL    HW1 3641   3.202   6.899   3.021
  914SOL    HW2 3642   3.178   6.989   3.155
  915SOL     OW 3643   0.888   2.167   0.107
  915SOL    HW1 3644   0.795   2.138   0.131
  915SOL    HW2 3645   0.916   2.120   0.023
  916SOL     OW 3646   1.815   3.337   2.994
  916SOL    HW1 3647   1.794   3.413   3.056
  916SOL    HW2 3648   1.761   3.347   2.911
  917SOL     OW 3649   3.295   2.500   7.008
  917SOL    HW1 3650   3.216   2.485   6.948
  917SOL    HW2 3651   3.373   2.446   6.975
  918SOL     OW 3652   1.194   0.968   5.723
  918SOL    HW1 3653   1.183   0.894   5.790
  918SOL    HW2 3654   1.105   0.990   5.684
  919SOL     OW 3655   2.386   6.445   1.422
  919SOL    HW1 3656   2.408   6.474   1.515
  919SOL    HW2 3657   2.469   6.412   1.377
  920SOL     OW 3658   1.873   0.750   4.327
  920SOL    HW1 3659   1.898   0.709   4.240
  920SOL    HW2 3660   1.816   0.831   4.311
  921SOL     OW 3661   5.160   4.999   6.097
  921SOL    HW1 3662   5.222   5.061   6.049
  921SOL    HW2 3663   5.092   5.052   6.149
  922SOL     OW 3664   2.232   3.664   6.654
  922SOL    HW1 3665   2.288   3.623   6.582
  922SOL    HW2 3666   2.136   3.665   6.625
  923SOL     OW 3667   4.109   0.773   6.526
  923SOL    HW1 3668   4.016   0.747   6.502
  923SOL    HW2 3669   4.145   0.837   6.457
  924SOL     OW 3670   6.296   3.946   3.270
  924SOL    HW1 3671   6.298   3.850   3.299
  924SOL    HW2 3672   6.217   3.962   3.212
  925SOL     OW 3673   6.215   2.078   3.385
  925SOL    HW1 3674   6.194   2.049   3.291
  925SOL    HW2 3675   6.143   2.138   3.418
  926SOL     OW 3676   5.278   6.280   0.787
  926SOL    HW1 3677   5.267   6.300   0.884
  926SOL    HW2 3678   5.216   6.206   0.761
  927SOL     OW 3679   4.287   4.996   4.818
  927SOL    HW1 3680   4.259   5.014   4.912
  927SOL    HW2 3681   4.339   5.074   4.784
  928SOL     OW 3682   0.561   1.060   1.539
  928SOL    HW1 3683   0.465   1.060   1.567
  928SOL    HW2 3684   0.610   0.987   1.586
  929SOL     OW 3685   0.538   2.496   2.829
  929SOL    HW1 3686   0.545   2.421   2.895
  929SOL    HW2 3687   0.614   2.492   2.765
  930SOL     OW 3688   4.803   5.937   3.618
  930SOL    HW1 3689   4.887   5.885   3.633
  930SOL    HW2 3690   4.724   5.881   3.641
  931SOL     OW 3691   1.583   2.888   2.008
  931SOL    HW1 3692   1.588   2.886   1.908
  931SOL    HW2 3693   1.627   2.806   2.044
  932SOL     OW 3694   4.669   6.169   1.130
  932SOL    HW1 3695   4.586   6.167   1.185
  932SOL    HW2 3696   4.665   6.247   1.067
  933SOL     OW 3697   1.999   6.123   3.361
  933SOL    HW1 3698   2.032   6.177   3.284
  933SOL    HW2 3699   1.899   6.126   3.363
  934SOL     OW 3700   2.856   1.215   5.385
  934SOL    HW1 3701   2.891   1.231   5.477
  934SOL    HW2 3702   2.917   1.258   5.318
  935SOL     OW 3703   2.826   2.904   6.886
  935SOL    HW1 3704   2.792   2.894   6.792
  935SOL    HW2 3705   2.862   2.816   6.918
  936SOL     OW 3706   0.554   1.772   1.680
  936SOL    HW1 3707   0.597   1.683   1.662
  936SOL    HW2 3708   0.505   1.802   1.598
  937SOL     OW 3709   4.891   2.230   3.869
  937SOL    HW1 3710   4.874   2.318   3.914
  937SOL    HW2 3711   4.980   2.232   3.824
  938SOL     OW 3712   6.999   2.202   0.152
  938SOL    HW1 3713   6.948   2.202   0.238
  938SOL    HW2 3714   0.011   2.110   0.132
  939SOL     OW 3715   6.320   1.009   5.856
  939SOL    HW1 3716   6.298   1.086   5.915
  939SOL    HW2 3717   6.277   1.021   5.767
  940SOL     OW 3718   0.403   0.726   4.337
  940SOL    HW1 3719   0.465   0.767   4.269
  940SOL    HW2 3720   0.415   0.627   4.336
  941SOL     OW 3721   5.398   2.819   4.829
  941SOL    HW1 3722   5.354   2.742   4.782
  941SOL    HW2 3723   5.366   2.824   4.923
  942SOL     OW 3724   4.979   0.180   5.585
  942SOL    HW1 3725   5.006   0.276   5.581
  942SOL    HW2 3726   5.012   0.132   5.504
  943SOL     OW 3727   5.802   2.009   0.151
  943SOL    HW1 3728   5.865   2.003   0.074
  943SOL    HW2 3729   5.712   2.040   0.118
  944SOL     OW 3730   6.195   4.089   4.629
  944SOL    HW1 3731   6.118   4.098   4.566
  944SOL    HW2 3732   6.279   4.123   4.586
  945SOL     OW 3733   5.343   4.270   5.355
  945SOL    HW1 3734   5.365   4.183   5.312
  945SOL    HW2 3735   5.421   4.332   5.347
  946SOL     OW 3736   6.057   3.029   5.853
  946SOL    HW1 3737   6.047   3.008   5.951
  946SOL    HW2 3738   6.131   2.974   5.815
  947SOL     OW 3739   1.940   3.086   5.642
  947SOL    HW1 3740   2.024   3.107   5.592
  947SOL    HW2 3741   1.871   3.155   5.622
  948SOL     OW 3742   3.830   1.826   0.151
  948SOL    HW1 3743   3.920   1.852   0.187
  948SOL    HW2 3744   3.759   1.849   0.218
  949SOL     OW 3745   5.628   5.803   6.402
  949SOL    HW1 3746   5.555   5.825   6.338
  949SOL    HW2 3747   5.668   5.888   6.437
  950SOL     OW 3748   4.118   5.326   0.903
  950SOL    HW1 3749   4.187   5.383   0.859
  950SOL    HW2 3750   4.093   5.366   0.992
  951SOL     OW 3751   1.207   2.305   3.190
  951SOL    HW1 3752   1.241   2.297   3.284
  951SOL    HW2 3753   1.108   2.293   3.190
  952SOL     OW 3754   5.218   1.901   1.677
  952SOL    HW1 3755   5.158   1.901   1.597
  952SOL    HW2 3756   5.167   1.932   1.757
  953SOL     OW 3757   3.396   0.202   6.406
  953SOL    HW1 3758   3.343   0.172   6.327
  953SOL    HW2 3759   3.494   0.189   6.388
  954SOL     OW 3760   0.373   6.201   0.891
  954SOL    HW1 3761   0.280   6.239   0.893
  954SOL    HW2 3762   0.437   6.272   0.862
  955SOL     OW 3763   6.622   6.915   2.285
  955SOL    HW1 3764   6.615   7.007   2.246
  955SOL    HW2 3765   6.610   6.920   2.384
  956SOL     OW 3766   1.041   2.395   0.405
  956SOL    HW1 3767   1.105   2.465   0.437
  956SOL    HW2 3768   1.074   2.305   0.431
  957SOL     OW 3769   2.495   6.367   5.458
  957SOL    HW1 3770   2.462   6.450   5.412
  957SOL    HW2 3771   2.452   6.287   5.416
  958SOL     OW 3772   5.118   2.201   0.268
  958SOL    HW1 3773   5.102   2.103   0.265
  958SOL    HW2 3774   5.094   2.236   0.359
  959SOL     OW 3775   1.298   4.594   2.781
  959SOL    HW1 3776   1.214   4.546   2.806
  959SOL    HW2 3777   1.375   4.530   2.783
  960SOL     OW 3778   1.744   5.444   5.453
  960SOL    HW1 3779   1.662   5.473   5.403
  960SOL    HW2 3780   1.823   5.450   5.393
  961SOL     OW 3781   3.606   6.704   1.838
  961SOL    HW1 3782   3.627   6.781   1.898
  961SOL    HW2 3783   3.570   6.628   1.893
  962SOL     OW 3784   1.317   6.612   4.192
  962SOL    HW1 3785   1.328   6.546   4.119
  962SOL    HW2 3786   1.404   6.657   4.210
  963SOL     OW 3787   5.843   0.676   1.737
  963SOL    HW1 3788   5.824   0.711   1.829
  963SOL    HW2 3789   5.935   0.637   1.734
  964SOL     OW 3790   5.094   3.872   1.322
  964SOL    HW1 3791   5.192   3.891   1.326
  964SOL    HW2 3792   5.044   3.956   1.300
  965SOL     OW 3793   1.029   2.415   0.811
  965SOL    HW1 3794   1.094   2.473   0.761
  965SOL    HW2 3795   0.936   2.447   0.792
  966SOL     OW 3796   0.356   1.908   1.474
  966SOL    HW1 3797   0.364   1.918   1.375
  966SOL    HW2 3798   0.279   1.848   1.496
  967SOL     OW 3799   0.541   6.231   2.609
  967SOL    HW1 3800   0.637   6.226   2.580
  967SOL    HW2 3801   0.537   6.254   2.706
  968SOL     OW 3802   6.115   3.828   2.501
  968SOL    HW1 3803   6.017   3.831   2.484
  968SOL    HW2 3804   6.155   3.917   2.478
  969SOL     OW 3805   4.643   6.384   6.128
  969SOL    HW1 3806   4.589   6.343   6.054
  969SOL    HW2 3807   4.677   6.311   6.188
  970SOL     OW 3808   4.370   2.244   5.384
  970SOL    HW1 3809   4.463   2.234   5.349
  970SOL    HW2 3810   4.359   2.185   5.464
  971SOL     OW 3811   0.521   2.199   1.766
  971SOL    HW1 3812   0.478   2.266   1.827
  971SOL    HW2 3813   0.607   2.168   1.806
  972SOL     OW 3814   6.898   5.783   1.640
  972SOL    HW1 3815   6.828   5.820   1.578
  972SOL    HW2 3816   6.860   5.776   1.732
  973SOL     OW 3817   6.178   4.229   5.548
  973SOL    HW1 3818   6.242   4.303   5.527
  973SOL    HW2 3819   6.196   4.195   5.640
  974SOL     OW 3820   2.501   1.007   4.326
  974SOL    HW1 3821   2.468   0.916   4.352
  974SOL    HW2 3822   2.505   1.014   4.227
  975SOL     OW 3823   3.741   6.863   5.696
  975SOL    HW1 3824   3.731   6.811   5.780
  975SOL    HW2 3825   3.830   6.843   5.654
  976SOL     OW 3826   0.212   5.436   3.764
  976SOL    HW1 3827   0.155   5.463   3.687
  976SOL    HW2 3828   0.292   5.387   3.730
  977SOL     OW 3829   1.339   1.640   3.186
  977SOL    HW1 3830   1.245   1.616   3.209
  977SOL    HW2 3831   1.356   1.736   3.209
  978SOL     OW 3832   5.789   3.087   4.701
  978SOL    HW1 3833   5.857   3.158   4.718
  978SOL    HW2 3834   5.706   3.108   4.752
  979SOL     OW 3835   5.203   0.813   3.353
  979SOL    HW1 3836   5.296   0.802   3.390
  979SOL    HW2 3837   5.156   0.725   3.355
  980SOL     OW 3838   5.951   1.027   4.873
  980SOL    HW1 3839   5.866   1.078   4.857
  980SOL    HW2 3840   5.970   0.968   4.794
  981SOL     OW 3841   0.209   3.005   5.684
  981SOL    HW1 3842   0.249   3.084   5.637
  981SOL    HW2 3843   0.137   2.966   5.627
  982SOL     OW 3844   1.556   3.066   1.304
  982SOL    HW1 3845   1.524   2.985   1.354
  982SOL    HW2 3846   1.496   3.083   1.226
  983SOL     OW 3847   5.608   1.313   3.050
  983SOL    HW1 3848   5.630   1.272   2.962
  983SOL    HW2 3849   5.615   1.413   3.044
  984SOL     OW 3850   4.762   1.046   4.375
  984SOL    HW1 3851   4.707   1.108   4.430
  984SOL    HW2 3852   4.818   1.099   4.311
  985SOL     OW 3853   3.367   5.556   0.076
  985SOL    HW1 3854   3.434   5.483   0.065
  985SOL    HW2 3855   3.335   5.585   7.005
  986SOL     OW 3856   4.492   5.046   6.174
  986SOL    HW1 3857   4.464   5.102   6.252
  986SOL    HW2 3858   4.492   5.102   6.091
  987SOL     OW 3859   3.627   6.775   2.636
  987SOL    HW1 3860   3.635   6.713   2.715
  987SOL    HW2 3861   3.665   6.864   2.660
  988SOL     OW 3862   3.465   3.912   1.822
  988SOL    HW1 3863   3.373   3.947   1.802
  988SOL    HW2 3864   3.498   3.859   1.744
  989SOL     OW 3865   0.991   7.008   5.049
  989SOL    HW1 3866   0.907   0.013   5.098
  989SOL    HW2 3867   0.983   6.915   5.013
  990SOL     OW 3868   4.761   6.138   3.798
  990SOL    HW1 3869   4.741   6.221   3.746
  990SOL    HW2 3870   4.757   6.059   3.736
  991SOL     OW 3871   6.396   1.493   5.046
  991SOL    HW1 3872   6.298   1.493   5.067
  991SOL    HW2 3873   6.421   1.580   5.004
  992SOL     OW 3874   0.272   3.460   0.894
  992SOL    HW1 3875   0.316   3.483   0.807
  992SOL    HW2 3876   0.180   3.426   0.877
  993SOL     OW 3877   3.315   5.089   3.651
  993SOL    HW1 3878   3.318   5.161   3.581
  993SOL    HW2 3879   3.383   5.019   3.630
  994SOL     OW 3880   2.858   3.506   2.597
  994SOL    HW1 3881   2.878   3.425   2.543
  994SOL    HW2 3882   2.819   3.577   2.538
  995SOL     OW 3883   0.881   1.205   4.955
  995SOL    HW1 3884   0.843   1.297   4.949
  995SOL    HW2 3885   0.958   1.196   4.892
  996SOL     OW 3886   1.276   3.950   2.444
  996SOL    HW1 3887   1.234   3.906   2.523
  996SOL    HW2 3888   1.265   4.049   2.451
  997SOL     OW 3889   6.770   0.902   1.544
  997SOL    HW1 3890   6.703   0.955   1.596
  997SOL    HW2 3891   6.756   0.919   1.446
  998SOL     OW 3892   5.044   0.039   3.003
  998SOL    HW1 3893   5.111   0.052   3.076
  998SOL    HW2 3894   4.956   0.078   3.031
  999SOL     OW 3895   0.294   5.417   1.148
  999SOL    HW1 3896   0.392   5.432   1.136
  999SOL    HW2 3897   0.252   5.403   1.058
 1000SOL     OW 3898   3.865   1.765   3.914
 1000SOL    HW1 3899   3.893   1.672   3.938
 1000SOL    HW2 3900   3.801   1.762   3.838
 1001SOL     OW 3901   4.649   0.215   5.441
 1001SOL    HW1 3902   4.687   0.135   5.396
 1001SOL    HW2 3903   4.556   0.194   5.473
 1002SOL     OW 3904   6.583   1.493   0.939
 1002SOL    HW1 3905   6.506   1.513   0.999
 1002SOL    HW2 3906   6.557   1.513   0.844
 1003SOL     OW 3907   4.268   5.152   2.409
 1003SOL    HW1 3908   4.262   5.251   2.398
 1003SOL    HW2 3909   4.182   5.118   2.448
 1004SOL     OW 3910   6.164   5.915   6.788
 1004SOL    HW1 3911   6.185   5.962   6.874
 1004SOL    HW2 3912   6.145   5.819   6.807
 1005SOL     OW 3913   6.619   6.461   3.746
 1005SOL    HW1 3914   6.666   6.373   3.744
 1005SOL    HW2 3915   6.680   6.531   3.782
 1006SOL     OW 3916   2.257   4.431   0.942
 1006SOL    HW1 3917   2.282   4.491   1.018
 1006SOL    HW2 3918   2.299   4.342   0.955
 1007SOL     OW 3919   0.486   0.926   3.215
 1007SOL    HW1 3920   0.519   0.947   3.123
 1007SOL    HW2 3921   0.563   0.920   3.278
 1008SOL     OW 3922   2.005   3.130   3.366
 1008SOL    HW1 3923   2.028   3.171   3.455
 1008SOL    HW2 3924   2.087   3.125   3.310
 1009SOL     OW 3925   1.420   6.039   5.004
 1009SOL    HW1 3926   1.495   6.082   4.954
 1009SOL    HW2 3927   1.333   6.079   4.975
 1010SOL     OW 3928   4.836   1.257   0.143
 1010SOL    HW1 3929   4.799   1.291   0.056
 1010SOL    HW2 3930   4.771   1.195   0.185
 1011SOL     OW 3931   3.621   6.185   3.529
 1011SOL    HW1 3932   3.593   6.279   3.510
 1011SOL    HW2 3933   3.548   6.138   3.578
 1012SOL     OW 3934   4.878   5.434   6.975
 1012SOL    HW1 3935   4.958   5.471   0.002
 1012SOL    HW2 3936   4.904   5.348   6.929
 1013SOL     OW 3937   0.569   0.887   1.291
 1013SOL    HW1 3938   0.606   0.860   1.380
 1013SOL    HW2 3939   0.642   0.881   1.222
 1014SOL     OW 3940   4.540   0.258   5.821
 1014SOL    HW1 3941   4.614   0.322   5.798
 1014SOL    HW2 3942   4.513   0.208   5.738
 1015SOL     OW 3943   3.304   6.217   4.300
 1015SOL    HW1 3944   3.235   6.267   4.352
 1015SOL    HW2 3945   3.275   6.122   4.288
 1016SOL     OW 3946   4.601   2.732   1.528
 1016SOL    HW1 3947   4.651   2.788   1.462
 1016SOL    HW2 3948   4.617   2.635   1.508
 1017SOL     OW 3949   4.342   1.971   6.577
 1017SOL    HW1 3950   4.297   2.060   6.570
 1017SOL    HW2 3951   4.296   1.905   6.516
 1018SOL     OW 3952   1.601   3.782   2.492
 1018SOL    HW1 3953   1.690   3.791   2.447
 1018SOL    HW2 3954   1.605   3.825   2.582
 1019SOL     OW 3955   6.407   0.930   0.472
 1019SOL    HW1 3956   6.332   0.963   0.528
 1019SOL    HW2 3957   6.494   0.962   0.509
 1020SOL     OW 3958   2.636   1.570   1.767
 1020SOL    HW1 3959   2.687   1.531   1.844
 1020SOL    HW2 3960   2.698   1.582   1.689
 1021SOL     OW 3961   6.723   1.398   1.308
 1021SOL    HW1 3962   6.653   1.341   1.352
 1021SOL    HW2 3963   6.738   1.481   1.362
 1022SOL     OW 3964   4.325   2.906   6.709
 1022SOL    HW1 3965   4.275   2.868   6.631
 1022SOL    HW2 3966   4.410   2.948   6.677
 1023SOL     OW 3967   5.129   0.986   3.593
 1023SOL    HW1 3968   5.207   0.975   3.530
 1023SOL    HW2 3969   5.070   0.906   3.587
 1024SOL     OW 3970   6.123   1.806   3.234
 1024SOL    HW1 3971   6.144   1.735   3.167
 1024SOL    HW2 3972   6.190   1.803   3.308
 1025SOL     OW 3973   3.076   4.673   1.200
 1025SOL    HW1 3974   3.090   4.611   1.123
 1025SOL    HW2 3975   2.980   4.668   1.229
 1026SOL     OW 3976   1.388   2.289   0.270
 1026SOL    HW1 3977   1.328   2.245   0.337
 1026SOL    HW2 3978   1.436   2.366   0.314
 1027SOL     OW 3979   2.570   4.923   2.601
 1027SOL    HW1 3980   2.581   4.851   2.669
 1027SOL    HW2 3981   2.627   4.903   2.521
 1028SOL     OW 3982   1.704   6.483   0.484
 1028SOL    HW1 3983   1.776   6.539   0.444
 1028SOL    HW2 3984   1.656   6.537   0.554
 1029SOL     OW 3985   2.990   0.918   6.308
 1029SOL    HW1 3986   2.956   0.824   6.313
 1029SOL    HW2 3987   2.977   0.953   6.215
 1030SOL     OW 3988   3.683   4.205   4.759
 1030SOL    HW1 3989   3.719   4.180   4.849
 1030SOL    HW2 3990   3.640   4.295   4.764
 1031SOL     OW 3991   2.366   5.481   1.197
 1031SOL    HW1 3992   2.447   5.503   1.143
 1031SOL    HW2 3993   2.351   5.551   1.267
 1032SOL     OW 3994   1.706   0.923   4.176
 1032SOL    HW1 3995   1.661   0.838   4.150
 1032SOL    HW2 3996   1.653   1.001   4.143
 1033SOL     OW 3997   2.157   5.939   3.502
 1033SOL    HW1 3998   2.253   5.962   3.485
 1033SOL    HW2 3999   2.098   6.003   3.452
 1034SOL     OW 4000   1.511   4.832   3.857
 1034SOL    HW1 4001   1.416   4.860   3.871
 1034SOL    HW2 4002   1.570   4.912   3.858
 1035SOL     OW 4003   2.041   1.282   4.612
 1035SOL    HW1 4004   2.010   1.376   4.625
 1035SOL    HW2 4005   2.114   1.262   4.676
 1036SOL     OW 4006   4.980   1.932   0.278
 1036SOL    HW1 4007   4.967   1.869   0.201
 1036SOL    HW2 4008   5.073   1.921   0.314
 1037SOL     OW 4009   2.863   2.171   6.689
 1037SOL    HW1 4010   2.877   2.260   6.731
 1037SOL    HW2 4011   2.890   2.099   6.752
 1038SOL     OW 4012   2.170   0.928   4.276
 1038SOL    HW1 4013   2.083   0.882   4.264
 1038SOL    HW2 4014   2.202   0.963   4.187
 1039SOL     OW 4015   4.003   1.731   3.418
 1039SOL    HW1 4016   3.912   1.768   3.396
 1039SOL    HW2 4017   4.000   1.631   3.412
 1040SOL     OW 4018   6.692   4.259   3.207
 1040SOL    HW1 4019   6.602   4.294   3.180
 1040SOL    HW2 4020   6.689   4.159   3.207
 1041SOL     OW 4021   0.442   0.108   4.304
 1041SOL    HW1 4022   0.450   0.061   4.392
 1041SOL    HW2 4023   0.386   0.190   4.316
 1042SOL     OW 4024   5.346   4.115   0.827
 1042SOL    HW1 4025   5.398   4.178   0.884
 1042SOL    HW2 4026   5.294   4.053   0.886
 1043SOL     OW 4027   2.951   1.055   6.549
 1043SOL    HW1 4028   2.904   1.142   6.537
 1043SOL    HW2 4029   2.960   1.009   6.461
 1044SOL     OW 4030   4.213   3.517   1.737
 1044SOL    HW1 4031   4.195   3.430   1.691
 1044SOL    HW2 4032   4.265   3.577   1.676
 1045SOL     OW 4033   3.112   1.446   3.328
 1045SOL    HW1 4034   3.179   1.371   3.332
 1045SOL    HW2 4035   3.158   1.533   3.340
 1046SOL     OW 4036   3.582   0.970   1.837
 1046SOL    HW1 4037   3.568   0.906   1.913
 1046SOL    HW2 4038   3.534   1.055   1.856
 1047SOL     OW 4039   1.209   5.047   2.316
 1047SOL    HW1 4040   1.150   5.006   2.386
 1047SOL    HW2 4041   1.157   5.117   2.267
 1048SOL     OW 4042   5.990   4.462   5.643
 1048SOL    HW1 4043   6.040   4.408   5.575
 1048SOL    HW2 4044   5.916   4.407   5.682
 1049SOL     OW 4045   0.747   3.294   4.767
 1049SOL    HW1 4046   0.745   3.201   4.730
 1049SOL    HW2 4047   0.841   3.325   4.773
 1050SOL     OW 4048   3.318   0.545   6.649
 1050SOL    HW1 4049   3.255   0.598   6.704
 1050SOL    HW2 4050   3.324   0.584   6.557
 1051SOL     OW 4051   4.298   4.756   1.532
 1051SOL    HW1 4052   4.256   4.787   1.447
 1051SOL    HW2 4053   4.227   4.741   1.601
 1052SOL     OW 4054   3.257   0.027   4.341
 1052SOL    HW1 4055   3.340   7.010   4.384
 1052SOL    HW2 4056   3.252   0.125   4.356
 1053SOL     OW 4057   4.046   4.772   3.550
 1053SOL    HW1 4058   4.085   4.722   3.472
 1053SOL    HW2 4059   4.024   4.865   3.522
 1054SOL     OW 4060   3.784   6.214   4.281
 1054SOL    HW1 4061   3.803   6.209   4.379
 1054SOL    HW2 4062   3.747   6.305   4.259
 1055SOL     OW 4063   4.712   5.146   5.105
 1055SOL    HW1 4064   4.664   5.059   5.115
 1055SOL    HW2 4065   4.647   5.217   5.079
 1056SOL     OW 4066   1.013   6.349   4.887
 1056SOL    HW1 4067   0.979   6.424   4.945
 1056SOL    HW2 4068   1.032   6.383   4.796
 1057SOL     OW 4069   3.744   4.049   1.770
 1057SOL    HW1 4070   3.750   3.986   1.847
 1057SOL    HW2 4071   3.650   4.083   1.762
 1058SOL     OW 4072   3.672   1.188   1.262
 1058SOL    HW1 4073   3.582   1.195   1.219
 1058SOL    HW2 4074   3.698   1.092   1.271
 1059SOL     OW 4075   3.072   1.502   0.892
 1059SOL    HW1 4076   2.990   1.541   0.851
 1059SOL    HW2 4077   3.093   1.551   0.977
 1060SOL     OW 4078   2.616   2.423   5.061
 1060SOL    HW1 4079   2.591   2.398   4.967
 1060SOL    HW2 4080   2.700   2.376   5.086
 1061SOL     OW 4081   3.326   5.964   1.487
 1061SOL    HW1 4082   3.296   6.001   1.575
 1061SOL    HW2 4083   3.254   5.978   1.419
 1062SOL     OW 4084   5.242   4.591   5.228
 1062SOL    HW1 4085   5.309   4.538   5.280
 1062SOL    HW2 4086   5.238   4.684   5.264
 1063SOL     OW 4087   1.846   2.764   6.042
 1063SOL    HW1 4088   1.852   2.669   6.010
 1063SOL    HW2 4089   1.879   2.769   6.136
 1064SOL     OW 4090   0.136   3.431   1.529
 1064SOL    HW1 4091   0.185   3.491   1.466
 1064SOL    HW2 4092   0.138   3.471   1.621
 1065SOL     OW 4093   6.060   6.085   5.001
 1065SOL    HW1 4094   6.118   6.044   5.071
 1065SOL    HW2 4095   6.116   6.111   4.922
 1066SOL     OW 4096   4.096   0.600   3.929
 1066SOL    HW1 4097   4.088   0.521   3.990
 1066SOL    HW2 4098   4.146   0.673   3.976
 1067SOL     OW 4099   1.730   3.292   1.260
 1067SOL    HW1 4100   1.660   3.222   1.277
 1067SOL    HW2 4101   1.762   3.329   1.347
 1068SOL     OW 4102   0.717   3.489   1.778
 1068SOL    HW1 4103   0.756   3.443   1.698
 1068SOL    HW2 4104   0.667   3.570   1.749
 1069SOL     OW 4105   3.715   3.884   1.456
 1069SOL    HW1 4106   3.774   3.836   1.520
 1069SOL    HW2 4107   3.756   3.971   1.430
 1070SOL     OW 4108   2.113   0.746   6.798
 1070SOL    HW1 4109   2.174   0.698   6.861
 1070SOL    HW2 4110   2.079   0.830   6.842
 1071SOL     OW 4111   4.145   6.542   3.617
 1071SOL    HW1 4112   4.240   6.553   3.587
 1071SOL    HW2 4113   4.110   6.455   3.585
 1072SOL     OW 4114   3.592   5.829   3.054
 1072SOL    HW1 4115   3.535   5.841   3.136
 1072SOL    HW2 4116   3.683   5.865   3.071
 1073SOL     OW 4117   2.650   4.827   2.853
 1073SOL    HW1 4118   2.741   4.856   2.822
 1073SOL    HW2 4119   2.660   4.750   2.917
 1074SOL     OW 4120   1.454   5.247   2.288
 1074SOL    HW1 4121   1.502   5.277   2.371
 1074SOL    HW2 4122   1.374   5.305   2.273
 1075SOL     OW 4123   0.334   4.145   3.071
 1075SOL    HW1 4124   0.429   4.178   3.078
 1075SOL    HW2 4125   0.273   4.222   3.056
 1076SOL     OW 4126   0.477   5.265   3.495
 1076SOL    HW1 4127   0.388   5.231   3.467
 1076SOL    HW2 4128   0.511   5.329   3.426
 1077SOL     OW 4129   4.803   0.268   0.442
 1077SOL    HW1 4130   4.772   0.316   0.524
 1077SOL    HW2 4131   4.871   0.323   0.395
 1078SOL     OW 4132   1.082   2.035   1.409
 1078SOL    HW1 4133   1.060   1.966   1.340
 1078SOL    HW2 4134   1.021   2.113   1.398
 1079SOL     OW 4135   2.395   5.362   2.889
 1079SOL    HW1 4136   2.305   5.396   2.861
 1079SOL    HW2 4137   2.413   5.275   2.843
 1080SOL     OW 4138   1.672   5.264   4.117
 1080SOL    HW1 4139   1.771   5.281   4.117
 1080SOL    HW2 4140   1.632   5.302   4.200
 1081SOL     OW 4141   1.192   1.086   0.030
 1081SOL    HW1 4142   1.177   1.110   0.126
 1081SOL    HW2 4143   1.274   1.133   7.016
 1082SOL     OW 4144   2.141   0.025   6.937
 1082SOL    HW1 4145   2.126   6.990   7.018
 1082SOL    HW2 4146   2.134   6.988   6.855
 1083SOL     OW 4147   3.754   2.992   1.264
 1083SOL    HW1 4148   3.750   2.944   1.351
 1083SOL    HW2 4149   3.827   2.954   1.207
 1084SOL     OW 4150   6.566   3.849   0.637
 1084SOL    HW1 4151   6.543   3.941   0.670
 1084SOL    HW2 4152   6.489   3.788   0.651
 1085SOL     OW 4153   2.190   3.790   3.668
 1085SOL    HW1 4154   2.184   3.737   3.753
 1085SOL    HW2 4155   2.137   3.745   3.596
 1086SOL     OW 4156   4.307   5.346   1.904
 1086SOL    HW1 4157   4.217   5.310   1.879
 1086SOL    HW2 4158   4.336   5.415   1.837
 1087SOL     OW 4159   4.243   2.619   5.586
 1087SOL    HW1 4160   4.163   2.677   5.601
 1087SOL    HW2 4161   4.304   2.663   5.520
 1088SOL     OW 4162   5.050   3.686   3.324
 1088SOL    HW1 4163   5.035   3.697   3.226
 1088SOL    HW2 4164   5.028   3.771   3.371
 1089SOL     OW 4165   5.970   0.233   3.372
 1089SOL    HW1 4166   6.023   0.311   3.338
 1089SOL    HW2 4167   5.909   0.264   3.445
 1090SOL     OW 4168   0.663   2.192   5.305
 1090SOL    HW1 4169   0.720   2.263   5.347
 1090SOL    HW2 4170   0.703   2.102   5.322
 1091SOL     OW 4171   1.097   1.987   4.714
 1091SOL    HW1 4172   1.196   1.970   4.708
 1091SOL    HW2 4173   1.082   2.076   4.755
 1092SOL     OW 4174   2.257   4.563   1.179
 1092SOL    HW1 4175   2.287   4.657   1.196
 1092SOL    HW2 4176   2.308   4.501   1.240
 1093SOL     OW 4177   0.209   1.639   2.819
 1093SOL    HW1 4178   0.210   1.734   2.850
 1093SOL    HW2 4179   0.272   1.629   2.742
 1094SOL     OW 4180   0.853   6.361   1.547
 1094SOL    HW1 4181   0.758   6.360   1.516
 1094SOL    HW2 4182   0.861   6.417   1.630
 1095SOL     OW 4183   6.448   3.823   5.712
 1095SOL    HW1 4184   6.529   3.869   5.677
 1095SOL    HW2 4185   6.384   3.807   5.637
 1096SOL     OW 4186   3.454   4.187   1.715
 1096SOL    HW1 4187   3.447   4.088   1.728
 1096SOL    HW2 4188   3.370   4.221   1.671
 1097SOL     OW 4189   1.772   4.609   5.419
 1097SOL    HW1 4190   1.830   4.665   5.478
 1097SOL    HW2 4191   1.748   4.660   5.337
 1098SOL     OW 4192   3.866   1.467   3.335
 1098SOL    HW1 4193   3.829   1.558   3.356
 1098SOL    HW2 4194   3.837   1.441   3.243
 1099SOL     OW 4195   3.735   1.448   2.851
 1099SOL    HW1 4196   3.674   1.511   2.802
 1099SOL    HW2 4197   3.701   1.354   2.841
 1100SOL     OW 4198   0.843   0.266   0.991
 1100SOL    HW1 4199   0.912   0.206   0.950
 1100SOL    HW2 4200   0.752   0.234   0.964
 1101SOL     OW 4201   5.409   2.532   0.602
 1101SOL    HW1 4202   5.480   2.572   0.660
 1101SOL    HW2 4203   5.319   2.568   0.629
 1102SOL     OW 4204   0.762   4.833   3.639
 1102SOL    HW1 4205   0.710   4.785   3.710
 1102SOL    HW2 4206   0.710   4.913   3.607
 1103SOL     OW 4207   0.864   3.122   1.408
 1103SOL    HW1 4208   0.851   3.152   1.502
 1103SOL    HW2 4209   0.889   3.025   1.408
 1104SOL     OW 4210   2.854   5.097   5.568
 1104SOL    HW1 4211   2.830   5.130   5.477
 1104SOL    HW2 4212   2.953   5.092   5.577
 1105SOL     OW 4213   4.187   5.781   0.129
 1105SOL    HW1 4214   4.172   5.723   0.209
 1105SOL    HW2 4215   4.265   5.746   0.076
 1106SOL     OW 4216   0.559   1.817   6.171
 1106SOL    HW1 4217   0.595   1.724   6.158
 1106SOL    HW2 4218   0.635   1.880   6.182
 1107SOL     OW 4219   1.419   0.561   1.245
 1107SOL    HW1 4220   1.373   0.579   1.158
 1107SOL    HW2 4221   1.387   0.628   1.313
 1108SOL     OW 4222   0.772   1.964   6.373
 1108SOL    HW1 4223   0.828   2.016   6.309
 1108SOL    HW2 4224   0.798   1.868   6.370
 1109SOL     OW 4225   4.660   1.406   4.022
 1109SOL    HW1 4226   4.627   1.466   3.949
 1109SOL    HW2 4227   4.725   1.455   4.080
 1110SOL     OW 4228   3.668   3.114   1.870
 1110SOL    HW1 4229   3.737   3.100   1.798
 1110SOL    HW2 4230   3.579   3.085   1.836
 1111SOL     OW 4231   5.384   6.823   0.099
 1111SOL    HW1 4232   5.471   6.861   0.132
 1111SOL    HW2 4233   5.393   6.724   0.089
 1112SOL     OW 4234   6.423   1.183   2.943
 1112SOL    HW1 4235   6.455   1.119   2.873
 1112SOL    HW2 4236   6.338   1.148   2.983
 1113SOL     OW 4237   6.251   3.975   1.493
 1113SOL    HW1 4238   6.263   3.914   1.414
 1113SOL    HW2 4239   6.327   3.961   1.557
 1114SOL     OW 4240   5.099   1.636   4.867
 1114SOL    HW1 4241   5.100   1.545   4.826
 1114SOL    HW2 4242   5.067   1.703   4.801
 1115SOL     OW 4243   2.318   3.214   0.838
 1115SOL    HW1 4244   2.359   3.133   0.796
 1115SOL    HW2 4245   2.227   3.192   0.872
 1116SOL     OW 4246   4.114   5.520   4.955
 1116SOL    HW1 4247   4.211   5.514   4.934
 1116SOL    HW2 4248   4.085   5.439   5.005
 1117SOL     OW 4249   2.850   3.427   1.017
 1117SOL    HW1 4250   2.879   3.332   1.010
 1117SOL    HW2 4251   2.795   3.440   1.099
 1118SOL     OW 4252   1.956   3.693   3.540
 1118SOL    HW1 4253   1.984   3.608   3.584
 1118SOL    HW2 4254   1.871   3.678   3.490
 1119SOL     OW 4255   3.585   4.059   2.037
 1119SOL    HW1 4256   3.545   3.988   1.979
 1119SOL    HW2 4257   3.539   4.146   2.020
 1120SOL     OW 4258   4.296   0.395   4.601
 1120SOL    HW1 4259   4.364   0.348   4.657
 1120SOL    HW2 4260   4.290   0.491   4.628
 1121SOL     OW 4261   5.438   3.324   2.262
 1121SOL    HW1 4262   5.452   3.374   2.176
 1121SOL    HW2 4263   5.482   3.374   2.337
 1122SOL     OW 4264   4.999   4.734   6.867
 1122SOL    HW1 4265   4.925   4.675   6.899
 1122SOL    HW2 4266   5.080   4.679   6.847
 1123SOL     OW 4267   3.549   0.813   1.643
 1123SOL    HW1 4268   3.480   0.845   1.578
 1123SOL    HW2 4269   3.551   0.874   1.722
 1124SOL     OW 4270   1.311   4.661   4.529
 1124SOL    HW1 4271   1.365   4.647   4.612
 1124SOL    HW2 4272   1.216   4.637   4.548
 1125SOL     OW 4273   4.041   3.305   4.777
 1125SOL    HW1 4274   4.060   3.242   4.702
 1125SOL    HW2 4275   4.098   3.387   4.767
 1126SOL     OW 4276   5.727   0.077   2.453
 1126SOL    HW1 4277   5.721   0.137   2.533
 1126SOL    HW2 4278   5.814   0.028   2.454
 1127SOL     OW 4279   1.669   4.564   6.892
 1127SOL    HW1 4280   1.611   4.498   6.940
 1127SOL    HW2 4281   1.614   4.642   6.862
 1128SOL     OW 4282   3.114   1.572   4.782
 1128SOL    HW1 4283   3.106   1.660   4.828
 1128SOL    HW2 4284   3.166   1.583   4.698
 1129SOL     OW 4285   5.171   6.946   7.005
 1129SOL    HW1 4286   5.186   6.952   6.907
 1129SOL    HW2 4287   5.241   6.888   0.027
 1130SOL     OW 4288   0.232   5.094   5.931
 1130SOL    HW1 4289   0.243   5.104   6.029
 1130SOL    HW2 4290   0.321   5.081   5.888
 1131SOL     OW 4291   0.785   5.181   6.175
 1131SOL    HW1 4292   0.853   5.232   6.123
 1131SOL    HW2 4293   0.764   5.230   6.260
 1132SOL     OW 4294   4.980   0.327   6.052
 1132SOL    HW1 4295   4.901   0.351   6.107
 1132SOL    HW2 4296   4.968   0.234   6.016
 1133SOL     OW 4297   0.798   2.971   0.958
 1133SOL    HW1 4298   0.855   2.946   0.880
 1133SOL    HW2 4299   0.768   3.065   0.948
 1134SOL     OW 4300   6.357   3.014   5.540
 1134SOL    HW1 4301   6.319   3.097   5.500
 1134SOL    HW2 4302   6.456   3.023   5.548
 1135SOL     OW 4303   4.783   1.480   3.442
 1135SOL    HW1 4304   4.800   1.384   3.421
 1135SOL    HW2 4305   4.840   1.538   3.384
 1136SOL     OW 4306   3.791   5.204   4.159
 1136SOL    HW1 4307   3.806   5.268   4.083
 1136SOL    HW2 4308   3.865   5.214   4.226
 1137SOL     OW 4309   1.664   1.391   6.014
 1137SOL    HW1 4310   1.665   1.328   5.937
 1137SOL    HW2 4311   1.671   1.485   5.981
 1138SOL     OW 4312   0.808   4.393   5.614
 1138SOL    HW1 4313   0.892   4.432   5.652
 1138SOL    HW2 4314   0.831   4.319   5.551
 1139SOL     OW 4315   1.182   6.599   1.760
 1139SOL    HW1 4316   1.135   6.524   1.806
 1139SOL    HW2 4317   1.271   6.615   1.803
 1140SOL     OW 4318   3.314   1.931   3.852
 1140SOL    HW1 4319   3.350   1.912   3.943
 1140SOL    HW2 4320   3.255   1.855   3.824
 1141SOL     OW 4321   6.353   5.778   5.795
 1141SOL    HW1 4322   6.274   5.764   5.854
 1141SOL    HW2 4323   6.418   5.840   5.840
 1142SOL     OW 4324   5.857   0.960   4.064
 1142SOL    HW1 4325   5.835   0.954   3.967
 1142SOL    HW2 4326   5.868   0.868   4.101
 1143SOL     OW 4327   4.601   1.617   2.643
 1143SOL    HW1 4328   4.613   1.705   2.596
 1143SOL    HW2 4329   4.639   1.623   2.735
 1144SOL     OW 4330   0.320   6.266   5.169
 1144SOL    HW1 4331   0.388   6.339   5.166
 1144SOL    HW2 4332   0.342   6.197   5.099
 1145SOL     OW 4333   1.094   4.929   5.483
 1145SOL    HW1 4334   1.001   4.895   5.471
 1145SOL    HW2 4335   1.098   5.026   5.459
 1146SOL     OW 4336   5.935   2.115   0.879
 1146SOL    HW1 4337   5.838   2.133   0.863
 1146SOL    HW2 4338   5.966   2.164   0.961
 1147SOL     OW 4339   6.523   2.376   1.804
 1147SOL    HW1 4340   6.574   2.305   1.852
 1147SOL    HW2 4341   6.518   2.353   1.706
 1148SOL     OW 4342   4.650   0.281   0.224
 1148SOL    HW1 4343   4.708   0.340   0.167
 1148SOL    HW2 4344   4.707   0.237   0.294
 1149SOL     OW 4345   0.193   3.421   2.784
 1149SOL    HW1 4346   0.152   3.411   2.875
 1149SOL    HW2 4347   0.132   3.381   2.715
 1150SOL     OW 4348   1.394   4.702   6.286
 1150SOL    HW1 4349   1.388   4.789   6.334
 1150SOL    HW2 4350   1.402   4.718   6.188
 1151SOL     OW 4351   4.753   5.552   0.174
 1151SOL    HW1 4352   4.745   5.482   0.245
 1151SOL    HW2 4353   4.751   5.509   0.084
 1152SOL     OW 4354   0.281   0.630   4.931
 1152SOL    HW1 4355   0.242   0.542   4.958
 1152SOL    HW2 4356   0.266   0.644   4.833
 1153SOL     OW 4357   2.192   5.519   2.747
 1153SOL    HW1 4358   2.166   5.435   2.700
 1153SOL    HW2 4359   2.268   5.562   2.699
 1154SOL     OW 4360   1.704   4.616   2.122
 1154SOL    HW1 4361   1.618   4.642   2.166
 1154SOL    HW2 4362   1.741   4.535   2.167
 1155SOL     OW 4363   3.198   5.617   1.828
 1155SOL    HW1 4364   3.251   5.697   1.801
 1155SOL    HW2 4365   3.112   5.614   1.776
 1156SOL     OW 4366   1.948   0.932   4.094
 1156SOL    HW1 4367   1.857   0.930   4.137
 1156SOL    HW2 4368   1.937   0.936   3.995
 1157SOL     OW 4369   1.348   1.780   4.043
 1157SOL    HW1 4370   1.444   1.806   4.052
 1157SOL    HW2 4371   1.342   1.681   4.028
 1158SOL     OW 4372   4.573   5.254   5.535
 1158SOL    HW1 4373   4.646   5.230   5.471
 1158SOL    HW2 4374   4.503   5.182   5.534
 1159SOL     OW 4375   5.059   5.051   2.943
 1159SOL    HW1 4376   4.986   5.008   2.996
 1159SOL    HW2 4377   5.027   5.070   2.851
 1160SOL     OW 4378   2.933   3.026   0.532
 1160SOL    HW1 4379   2.949   2.984   0.621
 1160SOL    HW2 4380   2.909   3.122   0.544
 1161SOL     OW 4381   4.289   0.129   4.159
 1161SOL    HW1 4382   4.283   0.194   4.236
 1161SOL    HW2 4383   4.199   0.087   4.145
 1162SOL     OW 4384   3.556   4.463   1.670
 1162SOL    HW1 4385   3.530   4.370   1.695
 1162SOL    HW2 4386   3.536   4.524   1.746
 1163SOL     OW 4387   4.646   2.185   2.595
 1163SOL    HW1 4388   4.604   2.266   2.635
 1163SOL    HW2 4389   4.694   2.210   2.511
 1164SOL     OW 4390   6.219   3.240   3.785
 1164SOL    HW1 4391   6.261   3.263   3.697
 1164SOL    HW2 4392   6.139   3.298   3.800
 1165SOL     OW 4393   1.414   4.898   1.777
 1165SOL    HW1 4394   1.446   4.989   1.750
 1165SOL    HW2 4395   1.413   4.892   1.877
 1166SOL     OW 4396   3.871   3.046   6.467
 1166SOL    HW1 4397   3.897   2.962   6.420
 1166SOL    HW2 4398   3.930   3.121   6.436
 1167SOL     OW 4399   4.594   1.601   4.620
 1167SOL    HW1 4400   4.665   1.630   4.556
 1167SOL    HW2 4401   4.562   1.680   4.673
 1168SOL     OW 4402   6.119   5.882   3.634
 1168SOL    HW1 4403   6.204   5.911   3.678
 1168SOL    HW2 4404   6.134   5.876   3.535
 1169SOL     OW 4405   1.254   3.408   1.918
 1169SOL    HW1 4406   1.255   3.505   1.941
 1169SOL    HW2 4407   1.206   3.396   1.831
 1170SOL     OW 4408   2.706   0.398   0.752
 1170SOL    HW1 4409   2.690   0.329   0.823
 1170SOL    HW2 4410   2.686   0.360   0.662
 1171SOL     OW 4411   2.509   6.942   0.216
 1171SOL    HW1 4412   2.468   6.995   0.142
 1171SOL    HW2 4413   2.586   6.992   0.255
 1172SOL     OW 4414   3.401   3.499   4.928
 1172SOL    HW1 4415   3.330   3.556   4.970
 1172SOL    HW2 4416   3.389   3.500   4.829
 1173SOL     OW 4417   4.712   0.849   6.168
 1173SOL    HW1 4418   4.726   0.932   6.115
 1173SOL    HW2 4419   4.801   0.811   6.195
 1174SOL     OW 4420   3.254   6.592   1.201
 1174SOL    HW1 4421   3.177   6.550   1.153
 1174SOL    HW2 4422   3.327   6.613   1.136
 1175SOL     OW 4423   6.282   5.074   5.225
 1175SOL    HW1 4424   6.233   5.130   5.292
 1175SOL    HW2 4425   6.222   5.000   5.195
 1176SOL     OW 4426   6.401   3.601   0.992
 1176SOL    HW1 4427   6.371   3.651   1.073
 1176SOL    HW2 4428   6.330   3.604   0.922
 1177SOL     OW 4429   6.738   3.336   7.016
 1177SOL    HW1 4430   6.821   3.283   6.996
 1177SOL    HW2 4431   6.730   3.348   0.096
 1178SOL     OW 4432   5.636   3.875   1.894
 1178SOL    HW1 4433   5.722   3.914   1.928
 1178SOL    HW2 4434   5.586   3.944   1.842
 1179SOL     OW 4435   2.525   5.998   6.523
 1179SOL    HW1 4436   2.434   5.967   6.552
 1179SOL    HW2 4437   2.583   5.919   6.503
 1180SOL     OW 4438   2.332   1.614   4.065
 1180SOL    HW1 4439   2.289   1.546   4.125
 1180SOL    HW2 4440   2.322   1.705   4.105
 1181SOL     OW 4441   2.345   4.261   2.934
 1181SOL    HW1 4442   2.312   4.167   2.919
 1181SOL    HW2 4443   2.383   4.269   3.026
 1182SOL     OW 4444   1.483   4.821   2.938
 1182SOL    HW1 4445   1.454   4.815   2.843
 1182SOL    HW2 4446   1.420   4.770   2.997
 1183SOL     OW 4447   4.682   5.598   1.311
 1183SOL    HW1 4448   4.741   5.518   1.324
 1183SOL    HW2 4449   4.605   5.594   1.374
 1184SOL     OW 4450   3.182   3.071   5.597
 1184SOL    HW1 4451   3.205   2.978   5.567
 1184SOL    HW2 4452   3.096   3.069   5.648
 1185SOL     OW 4453   2.111   1.864   0.199
 1185SOL    HW1 4454   2.191   1.809   0.175
 1185SOL    HW2 4455   2.054   1.814   0.264
 1186SOL     OW 4456   3.813   1.016   5.154
 1186SOL    HW1 4457   3.725   0.967   5.149
 1186SOL    HW2 4458   3.870   0.989   5.076
 1187SOL     OW 4459   0.088   1.028   5.260
 1187SOL    HW1 4460   0.100   1.103   5.194
 1187SOL    HW2 4461   0.139   0.948   5.228
 1188SOL     OW 4462   1.219   0.195   5.576
 1188SOL    HW1 4463   1.252   0.249   5.498
 1188SOL    HW2 4464   1.135   0.147   5.549
 1189SOL     OW 4465   7.014   0.945   1.662
 1189SOL    HW1 4466   0.020   0.905   1.749
 1189SOL    HW2 4467   6.936   0.895   1.624
 1190SOL     OW 4468   4.462   4.801   3.006
 1190SOL    HW1 4469   4.375   4.796   2.957
 1190SOL    HW2 4470   4.535   4.763   2.948
 1191SOL     OW 4471   3.627   4.884   6.687
 1191SOL    HW1 4472   3.716   4.869   6.644
 1191SOL    HW2 4473   3.639   4.903   6.784
 1192SOL     OW 4474   4.393   4.761   2.351
 1192SOL    HW1 4475   4.435   4.848   2.326
 1192SOL    HW2 4476   4.349   4.721   2.271
 1193SOL     OW 4477   4.527   6.763   3.871
 1193SOL    HW1 4478   4.547   6.666   3.881
 1193SOL    HW2 4479   4.486   6.798   3.955
 1194SOL     OW 4480   6.153   0.385   0.825
 1194SOL    HW1 4481   6.202   0.408   0.909
 1194SOL    HW2 4482   6.177   0.452   0.754
 1195SOL     OW 4483   4.103   0.473   6.894
 1195SOL    HW1 4484   4.146   0.520   6.817
 1195SOL    HW2 4485   4.125   0.521   6.979
 1196SOL     OW 4486   6.934   5.507   2.237
 1196SOL    HW1 4487   6.945   5.411   2.265
 1196SOL    HW2 4488   6.841   5.537   2.256
 1197SOL     OW 4489   3.328   5.570   6.242
 1197SOL    HW1 4490   3.313   5.487   6.188
 1197SOL    HW2 4491   3.247   5.629   6.234
 1198SOL     OW 4492   3.217   1.313   2.927
 1198SOL    HW1 4493   3.265   1.392   2.966
 1198SOL    HW2 4494   3.139   1.344   2.873
 1199SOL     OW 4495   3.583   4.101   3.461
 1199SOL    HW1 4496   3.496   4.097   3.510
 1199SOL    HW2 4497   3.568   4.072   3.366
 1200SOL     OW 4498   3.929   4.337   0.072
 1200SOL    HW1 4499   3.879   4.415   0.035
 1200SOL    HW2 4500   3.869   4.285   0.133
 1201SOL     OW 4501   1.408   0.907   4.565
 1201SOL    HW1 4502   1.367   0.836   4.508
 1201SOL    HW2 4503   1.501   0.926   4.535
 1202SOL     OW 4504   5.973   0.304   4.920
 1202SOL    HW1 4505   6.000   0.372   4.988
 1202SOL    HW2 4506   6.032   0.224   4.927
 1203SOL     OW 4507   5.813   6.908   1.869
 1203SOL    HW1 4508   5.807   6.865   1.959
 1203SOL    HW2 4509   5.804   7.007   1.878
 1204SOL     OW 4510   2.895   0.495   0.352
 1204SOL    HW1 4511   2.958   0.466   0.424
 1204SOL    HW2 4512   2.852   0.582   0.378
 1205SOL     OW 4513   0.408   2.473   4.868
 1205SOL    HW1 4514   0.320   2.451   4.826
 1205SOL    HW2 4515   0.403   2.457   4.966
 1206SOL     OW 4516   0.947   1.413   4.694
 1206SOL    HW1 4517   1.018   1.353   4.733
 1206SOL    HW2 4518   0.929   1.386   4.600
 1207SOL     OW 4519   5.590   5.894   6.713
 1207SOL    HW1 4520   5.502   5.847   6.724
 1207SOL    HW2 4521   5.643   5.886   6.797
 1208SOL     OW 4522   3.840   4.086   3.592
 1208SOL    HW1 4523   3.839   4.177   3.634
 1208SOL    HW2 4524   3.760   4.076   3.533
 1209SOL     OW 4525   6.509   5.216   4.540
 1209SOL    HW1 4526   6.512   5.261   4.629
 1209SOL    HW2 4527   6.448   5.136   4.545
 1210SOL     OW 4528   2.986   6.668   2.728
 1210SOL    HW1 4529   3.051   6.720   2.784
 1210SOL    HW2 4530   2.975   6.712   2.639
 1211SOL     OW 4531   1.284   3.223   4.360
 1211SOL    HW1 4532   1.232   3.289   4.415
 1211SOL    HW2 4533   1.242   3.216   4.269
 1212SOL     OW 4534   2.142   3.991   4.847
 1212SOL    HW1 4535   2.082   4.067   4.872
 1212SOL    HW2 4536   2.219   3.988   4.912
 1213SOL     OW 4537   6.064   2.924   5.503
 1213SOL    HW1 4538   6.054   2.860   5.579
 1213SOL    HW2 4539   6.157   2.961   5.502
 1214SOL     OW 4540   2.130   2.625   3.158
 1214SOL    HW1 4541   2.084   2.655   3.242
 1214SOL    HW2 4542   2.061   2.595   3.091
 1215SOL     OW 4543   0.692   5.086   1.886
 1215SOL    HW1 4544   0.775   5.056   1.839
 1215SOL    HW2 4545   0.630   5.009   1.897
 1216SOL     OW 4546   2.986   0.076   1.910
 1216SOL    HW1 4547   2.984   0.117   1.819
 1216SOL    HW2 4548   3.076   0.091   1.951
 1217SOL     OW 4549   1.423   1.337   2.712
 1217SOL    HW1 4550   1.375   1.306   2.629
 1217SOL    HW2 4551   1.469   1.259   2.754
 1218SOL     OW 4552   0.536   3.752   4.060
 1218SOL    HW1 4553   0.479   3.691   4.115
 1218SOL    HW2 4554   0.547   3.714   3.968
 1219SOL     OW 4555   2.777   6.078   3.131
 1219SOL    HW1 4556   2.779   6.027   3.045
 1219SOL    HW2 4557   2.739   6.169   3.115
 1220SOL     OW 4558   6.924   4.329   2.969
 1220SOL    HW1 4559   6.860   4.298   3.039
 1220SOL    HW2 4560   7.016   4.335   3.007
 1221SOL     OW 4561   5.200   2.949   0.060
 1221SOL    HW1 4562   5.134   2.909   7.015
 1221SOL    HW2 4563   5.150   2.992   0.136
 1222SOL     OW 4564   6.409   6.265   0.895
 1222SOL    HW1 4565   6.414   6.355   0.850
 1222SOL    HW2 4566   6.314   6.244   0.916
 1223SOL     OW 4567   5.945   5.917   5.381
 1223SOL    HW1 4568   5.896   6.004   5.381
 1223SOL    HW2 4569   6.040   5.933   5.352
 1224SOL     OW 4570   5.447   4.700   2.104
 1224SOL    HW1 4571   5.507   4.686   2.183
 1224SOL    HW2 4572   5.361   4.740   2.134
 1225SOL     OW 4573   5.148   1.260   0.385
 1225SOL    HW1 4574   5.207   1.192   0.340
 1225SOL    HW2 4575   5.087   1.214   0.449
 1226SOL     OW 4576   5.223   4.556   0.361
 1226SOL    HW1 4577   5.155   4.627   0.342
 1226SOL    HW2 4578   5.197   4.471   0.316
 1227SOL     OW 4579   5.195   4.559   6.810
 1227SOL    HW1 4580   5.248   4.560   6.726
 1227SOL    HW2 4581   5.144   4.473   6.817
 1228SOL     OW 4582   3.589   3.399   4.176
 1228SOL    HW1 4583   3.494   3.426   4.192
 1228SOL    HW2 4584   3.603   3.381   4.079
 1229SOL     OW 4585   1.724   5.619   3.075
 1229SOL    HW1 4586   1.755   5.580   3.161
 1229SOL    HW2 4587   1.799   5.668   3.031
 1230SOL     OW 4588   5.336   4.784   1.628
 1230SOL    HW1 4589   5.295   4.848   1.693
 1230SOL    HW2 4590   5.435   4.791   1.632
 1231SOL     OW 4591   2.112   2.079   6.969
 1231SOL    HW1 4592   2.204   2.062   6.934
 1231SOL    HW2 4593   2.100   2.033   0.037
 1232SOL     OW 4594   2.689   0.899   5.016
 1232SOL    HW1 4595   2.590   0.893   5.000
 1232SOL    HW2 4596   2.712   0.850   5.100
 1233SOL     OW 4597   0.648   5.157   5.060
 1233SOL    HW1 4598   0.641   5.255   5.075
 1233SOL    HW2 4599   0.708   5.140   4.982
 1234SOL     OW 4600   6.768   3.742   0.195
 1234SOL    HW1 4601   6.867   3.737   0.187
 1234SOL    HW2 4602   6.730   3.792   0.117
 1235SOL     OW 4603   6.075   4.827   1.112
 1235SOL    HW1 4604   6.094   4.740   1.157
 1235SOL    HW2 4605   6.145   4.845   1.043
 1236SOL     OW 4606   1.569   1.552   2.613
 1236SOL    HW1 4607   1.532   1.474   2.664
 1236SOL    HW2 4608   1.668   1.542   2.605
 1237SOL     OW 4609   0.511   6.803   5.211
 1237SOL    HW1 4610   0.439   6.833   5.148
 1237SOL    HW2 4611   0.538   6.880   5.269
 1238SOL     OW 4612   0.878   0.554   4.332
 1238SOL    HW1 4613   0.810   0.620   4.363
 1238SOL    HW2 4614   0.832   0.472   4.297
 1239SOL     OW 4615   5.334   5.057   4.531
 1239SOL    HW1 4616   5.393   5.110   4.592
 1239SOL    HW2 4617   5.268   5.005   4.586
 1240SOL     OW 4618   0.702   4.110   2.481
 1240SOL    HW1 4619   0.630   4.137   2.544
 1240SOL    HW2 4620   0.668   4.039   2.419
 1241SOL     OW 4621   4.169   5.006   5.073
 1241SOL    HW1 4622   4.087   4.948   5.077
 1241SOL    HW2 4623   4.189   5.041   5.165
 1242SOL     OW 4624   2.325   4.692   0.801
 1242SOL    HW1 4625   2.277   4.604   0.802
 1242SOL    HW2 4626   2.262   4.765   0.776
 1243SOL     OW 4627   0.933   3.998   5.015
 1243SOL    HW1 4628   1.022   3.985   4.971
 1243SOL    HW2 4629   0.872   4.046   4.952
 1244SOL     OW 4630   5.740   0.299   5.411
 1244SOL    HW1 4631   5.668   0.324   5.345
 1244SOL    HW2 4632   5.722   0.207   5.446
 1245SOL     OW 4633   4.479   5.970   1.295
 1245SOL    HW1 4634   4.453   6.064   1.271
 1245SOL    HW2 4635   4.397   5.920   1.324
 1246SOL     OW 4636   4.823   0.698   0.405
 1246SOL    HW1 4637   4.803   0.634   0.331
 1246SOL    HW2 4638   4.741   0.752   0.426
 1247SOL     OW 4639   6.687   0.218   2.809
 1247SOL    HW1 4640   6.646   0.127   2.810
 1247SOL    HW2 4641   6.768   0.218   2.868
 1248SOL     OW 4642   1.292   6.437   4.909
 1248SOL    HW1 4643   1.198   6.404   4.911
 1248SOL    HW2 4644   1.336   6.416   4.997
 1249SOL     OW 4645   5.387   5.879   6.203
 1249SOL    HW1 4646   5.329   5.816   6.254
 1249SOL    HW2 4647   5.384   5.969   6.246
 1250SOL     OW 4648   6.810   3.298   4.822
 1250SOL    HW1 4649   6.869   3.217   4.825
 1250SOL    HW2 4650   6.717   3.272   4.847
 1251SOL     OW 4651   2.739   1.112   2.772
 1251SOL    HW1 4652   2.718   1.057   2.691
 1251SOL    HW2 4653   2.796   1.058   2.834
 1252SOL     OW 4654   1.918   6.198   6.318
 1252SOL    HW1 4655   1.948   6.156   6.233
 1252SOL    HW2 4656   1.997   6.238   6.365
 1253SOL     OW 4657   3.072   6.865   0.067
 1253SOL    HW1 4658   2.973   6.861   0.055
 1253SOL    HW2 4659   3.117   6.829   7.005
 1254SOL     OW 4660   5.995   0.427   2.984
 1254SOL    HW1 4661   5.982   0.328   2.978
 1254SOL    HW2 4662   5.906   0.473   2.981
 1255SOL     OW 4663   5.324   1.632   5.610
 1255SOL    HW1 4664   5.405   1.573   5.608
 1255SOL    HW2 4665   5.299   1.657   5.516
 1256SOL     OW 4666   0.417   5.522   4.498
 1256SOL    HW1 4667   0.462   5.505   4.585
 1256SOL    HW2 4668   0.484   5.549   4.429
 1257SOL     OW 4669   0.999   6.391   3.663
 1257SOL    HW1 4670   0.952   6.363   3.579
 1257SOL    HW2 4671   1.048   6.313   3.701
 1258SOL     OW 4672   4.323   6.132   5.792
 1258SOL    HW1 4673   4.276   6.184   5.721
 1258SOL    HW2 4674   4.297   6.036   5.786
 1259SOL     OW 4675   5.461   0.702   5.447
 1259SOL    HW1 4676   5.537   0.746   5.494
 1259SOL    HW2 4677   5.452   0.741   5.355
 1260SOL     OW 4678   2.784   1.378   1.300
 1260SOL    HW1 4679   2.752   1.294   1.343
 1260SOL    HW2 4680   2.846   1.426   1.363
 1261SOL     OW 4681   6.737   4.296   5.528
 1261SOL    HW1 4682   6.639   4.287   5.545
 1261SOL    HW2 4683   6.788   4.263   5.608
 1262SOL     OW 4684   4.311   4.831   0.807
 1262SOL    HW1 4685   4.269   4.743   0.785
 1262SOL    HW2 4686   4.337   4.877   0.722
 1263SOL     OW 4687   6.561   2.033   0.929
 1263SOL    HW1 4688   6.596   2.048   0.836
 1263SOL    HW2 4689   6.636   2.039   0.994
 1264SOL     OW 4690   0.428   3.111   4.289
 1264SOL    HW1 4691   0.421   3.065   4.201
 1264SOL    HW2 4692   0.479   3.196   4.278
 1265SOL     OW 4693   0.010   5.678   4.798
 1265SOL    HW1 4694   0.093   5.648   4.844
 1265SOL    HW2 4695   7.014   5.621   4.717
 1266SOL     OW 4696   1.579   1.558   4.653
 1266SOL    HW1 4697   1.584   1.643   4.706
 1266SOL    HW2 4698   1.534   1.488   4.708
 1267SOL     OW 4699   6.384   5.071   2.229
 1267SOL    HW1 4700   6.419   5.097   2.319
 1267SOL    HW2 4701   6.337   5.149   2.188
 1268SOL     OW 4702   6.476   3.490   0.027
 1268SOL    HW1 4703   6.409   3.436   0.077
 1268SOL    HW2 4704   6.562   3.440   0.022
 1269SOL     OW 4705   6.944   5.572   6.190
 1269SOL    HW1 4706   6.906   5.664   6.201
 1269SOL    HW2 4707   6.871   5.504   6.200
 1270SOL     OW 4708   1.579   2.638   5.001
 1270SOL    HW1 4709   1.526   2.558   4.973
 1270SOL    HW2 4710   1.554   2.664   5.094
 1271SOL     OW 4711   5.101   1.912   2.898
 1271SOL    HW1 4712   5.119   1.959   2.984
 1271SOL    HW2 4713   5.113   1.813   2.911
 1272SOL     OW 4714   0.576   5.989   1.682
 1272SOL    HW1 4715   0.562   6.086   1.699
 1272SOL    HW2 4716   0.635   5.951   1.754
 1273SOL     OW 4717   2.767   6.896   6.413
 1273SOL    HW1 4718   2.791   6.864   6.322
 1273SOL    HW2 4719   2.756   6.996   6.411
 1274SOL     OW 4720   6.557   2.844   1.654
 1274SOL    HW1 4721   6.637   2.811   1.705
 1274SOL    HW2 4722   6.568   2.942   1.635
 1275SOL     OW 4723   3.697   1.438   4.058
 1275SOL    HW1 4724   3.655   1.524   4.030
 1275SOL    HW2 4725   3.782   1.424   4.008
 1276SOL     OW 4726   6.207   0.406   3.817
 1276SOL    HW1 4727   6.231   0.443   3.727
 1276SOL    HW2 4728   6.286   0.412   3.878
 1277SOL     OW 4729   0.352   1.253   4.949
 1277SOL    HW1 4730   0.278   1.272   5.014
 1277SOL    HW2 4731   0.349   1.157   4.922
 1278SOL     OW 4732   2.620   1.717   5.541
 1278SOL    HW1 4733   2.615   1.797   5.481
 1278SOL    HW2 4734   2.601   1.635   5.488
 1279SOL     OW 4735   2.416   5.222   6.593
 1279SOL    HW1 4736   2.333   5.277   6.605
 1279SOL    HW2 4737   2.451   5.196   6.683
 1280SOL     OW 4738   1.970   6.716   3.720
 1280SOL    HW1 4739   1.884   6.665   3.725
 1280SOL    HW2 4740   2.044   6.660   3.756
 1281SOL     OW 4741   1.165   6.928   3.799
 1281SOL    HW1 4742   1.140   6.978   3.882
 1281SOL    HW2 4743   1.140   6.832   3.810
 1282SOL     OW 4744   1.230   0.513   2.249
 1282SOL    HW1 4745   1.244   0.591   2.311
 1282SOL    HW2 4746   1.156   0.456   2.283
 1283SOL     OW 4747   5.280   5.429   6.072
 1283SOL    HW1 4748   5.272   5.437   6.172
 1283SOL    HW2 4749   5.343   5.498   6.038
 1284SOL     OW 4750   2.216   2.125   1.766
 1284SOL    HW1 4751   2.127   2.134   1.812
 1284SOL    HW2 4752   2.211   2.169   1.676
 1285SOL     OW 4753   4.548   2.209   5.783
 1285SOL    HW1 4754   4.567   2.230   5.879
 1285SOL    HW2 4755   4.563   2.290   5.728
 1286SOL     OW 4756   6.402   5.287   1.824
 1286SOL    HW1 4757   6.460   5.245   1.755
 1286SOL    HW2 4758   6.312   5.306   1.786
 1287SOL     OW 4759   6.912   4.861   6.308
 1287SOL    HW1 4760   6.928   4.771   6.350
 1287SOL    HW2 4761   6.872   4.848   6.218
 1288SOL     OW 4762   6.772   2.807   2.334
 1288SOL    HW1 4763   6.695   2.802   2.397
 1288SOL    HW2 4764   6.750   2.868   2.258
 1289SOL     OW 4765   6.521   6.364   2.794
 1289SOL    HW1 4766   6.535   6.352   2.695
 1289SOL    HW2 4767   6.610   6.369   2.839
 1290SOL     OW 4768   0.619   6.626   1.367
 1290SOL    HW1 4769   0.566   6.548   1.399
 1290SOL    HW2 4770   0.685   6.653   1.437
 1291SOL     OW 4771   2.437   6.632   0.488
 1291SOL    HW1 4772   2.432   6.693   0.567
 1291SOL    HW2 4773   2.350   6.633   0.439
 1292SOL     OW 4774   1.022   6.012   0.814
 1292SOL    HW1 4775   1.098   6.020   0.879
 1292SOL    HW2 4776   1.058   6.018   0.721
 1293SOL     OW 4777   0.177   2.542   5.724
 1293SOL    HW1 4778   0.181   2.628   5.775
 1293SOL    HW2 4779   0.194   2.560   5.627
 1294SOL     OW 4780   0.274   2.113   2.544
 1294SOL    HW1 4781   0.336   2.109   2.466
 1294SOL    HW2 4782   0.188   2.156   2.516
 1295SOL     OW 4783   6.256   2.838   1.667
 1295SOL    HW1 4784   6.352   2.810   1.668
 1295SOL    HW2 4785   6.202   2.771   1.718
 1296SOL     OW 4786   3.839   2.344   6.316
 1296SOL    HW1 4787   3.862   2.306   6.226
 1296SOL    HW2 4788   3.813   2.440   6.306
 1297SOL     OW 4789   6.538   1.321   6.058
 1297SOL    HW1 4790   6.564   1.310   5.962
 1297SOL    HW2 4791   6.446   1.283   6.073
 1298SOL     OW 4792   5.386   3.411   3.524
 1298SOL    HW1 4793   5.439   3.475   3.578
 1298SOL    HW2 4794   5.411   3.317   3.548
 1299SOL     OW 4795   1.010   4.145   3.753
 1299SOL    HW1 4796   1.026   4.119   3.848
 1299SOL    HW2 4797   1.005   4.063   3.696
 1300SOL     OW 4798   3.037   3.384   1.516
 1300SOL    HW1 4799   3.119   3.360   1.568
 1300SOL    HW2 4800   3.033   3.329   1.433
 1301SOL     OW 4801   0.572   0.016   2.985
 1301SOL    HW1 4802   0.628   0.032   2.903
 1301SOL    HW2 4803   0.475   0.022   2.960
 1302SOL     OW 4804   2.910   5.822   4.982
 1302SOL    HW1 4805   2.825   5.808   4.930
 1302SOL    HW2 4806   2.951   5.734   5.003
 1303SOL     OW 4807   3.833   1.643   1.424
 1303SOL    HW1 4808   3.873   1.676   1.338
 1303SOL    HW2 4809   3.851   1.546   1.435
 1304SOL     OW 4810   2.494   0.688   6.721
 1304SOL    HW1 4811   2.422   0.668   6.654
 1304SOL    HW2 4812   2.542   0.771   6.693
 1305SOL     OW 4813   4.680   6.660   4.945
 1305SOL    HW1 4814   4.623   6.733   4.906
 1305SOL    HW2 4815   4.644   6.571   4.915
 1306SOL     OW 4816   1.251   4.551   3.960
 1306SOL    HW1 4817   1.303   4.553   3.874
 1306SOL    HW2 4818   1.213   4.641   3.978
 1307SOL     OW 4819   1.613   1.887   4.544
 1307SOL    HW1 4820   1.632   1.970   4.492
 1307SOL    HW2 4821   1.627   1.906   4.642
 1308SOL     OW 4822   5.058   6.088   2.994
 1308SOL    HW1 4823   5.112   6.004   3.000
 1308SOL    HW2 4824   4.978   6.072   2.936
 1309SOL     OW 4825   5.176   3.072   4.538
 1309SOL    HW1 4826   5.248   3.080   4.607
 1309SOL    HW2 4827   5.155   2.975   4.523
 1310SOL     OW 4828   4.784   3.727   5.300
 1310SOL    HW1 4829   4.742   3.677   5.375
 1310SOL    HW2 4830   4.792   3.667   5.220
 1311SOL     OW 4831   5.218   5.993   5.354
 1311SOL    HW1 4832   5.120   6.005   5.340
 1311SOL    HW2 4833   5.233   5.917   5.417
 1312SOL     OW 4834   1.066   6.739   0.797
 1312SOL    HW1 4835   1.034   6.676   0.726
 1312SOL    HW2 4836   1.063   6.833   0.762
 1313SOL     OW 4837   3.677   5.244   5.278
 1313SOL    HW1 4838   3.652   5.195   5.194
 1313SOL    HW2 4839   3.763   5.207   5.314
 1314SOL     OW 4840   6.288   1.674   4.438
 1314SOL    HW1 4841   6.258   1.675   4.342
 1314SOL    HW2 4842   6.247   1.595   4.485
 1315SOL     OW 4843   2.087   1.010   2.989
 1315SOL    HW1 4844   2.109   0.983   2.895
 1315SOL    HW2 4845   2.032   1.093   2.987
 1316SOL     OW 4846   3.259   6.589   2.412
 1316SOL    HW1 4847   3.331   6.564   2.347
 1316SOL    HW2 4848   3.220   6.678   2.385
 1317SOL     OW 4849   6.789   5.888   4.023
 1317SOL    HW1 4850   6.778   5.988   4.017
 1317SOL    HW2 4851   6.803   5.862   4.119
 1318SOL     OW 4852   6.718   6.733   0.584
 1318SOL    HW1 4853   6.775   6.721   0.502
 1318SOL    HW2 4854   6.769   6.786   0.652
 1319SOL     OW 4855   6.243   0.847   0.278
 1319SOL    HW1 4856   6.258   0.904   0.197
 1319SOL    HW2 4857   6.303   0.879   0.352
 1320SOL     OW 4858   5.317   5.197   6.328
 1320SOL    HW1 4859   5.378   5.140   6.273
 1320SOL    HW2 4860   5.222   5.168   6.314
 1321SOL     OW 4861   3.749   2.313   6.793
 1321SOL    HW1 4862   3.775   2.293   6.698
 1321SOL    HW2 4863   3.831   2.335   6.845
 1322SOL     OW 4864   6.119   1.478   5.080
 1322SOL    HW1 4865   6.142   1.543   5.007
 1322SOL    HW2 4866   6.072   1.527   5.154
 1323SOL     OW 4867   6.654   1.738   4.806
 1323SOL    HW1 4868   6.590   1.774   4.738
 1323SOL    HW2 4869   6.743   1.784   4.796
 1324SOL     OW 4870   1.378   3.971   0.816
 1324SOL    HW1 4871   1.413   3.925   0.898
 1324SOL    HW2 4872   1.338   4.059   0.841
 1325SOL     OW 4873   3.473   5.979   2.742
 1325SOL    HW1 4874   3.504   6.049   2.806
 1325SOL    HW2 4875   3.462   5.892   2.791
 1326SOL     OW 4876   5.654   3.478   4.212
 1326SOL    HW1 4877   5.658   3.381   4.186
 1326SOL    HW2 4878   5.565   3.497   4.254
 1327SOL     OW 4879   3.221   5.174   3.188
 1327SOL    HW1 4880   3.158   5.147   3.261
 1327SOL    HW2 4881   3.273   5.094   3.158
 1328SOL     OW 4882   1.629   2.276   6.644
 1328SOL    HW1 4883   1.566   2.215   6.596
 1328SOL    HW2 4884   1.590   2.301   6.733
 1329SOL     OW 4885   1.060   0.145   0.875
 1329SOL    HW1 4886   1.033   0.093   0.794
 1329SOL    HW2 4887   1.130   0.095   0.925
 1330SOL     OW 4888   5.955   6.416   1.170
 1330SOL    HW1 4889   6.047   6.449   1.152
 1330SOL    HW2 4890   5.911   6.391   1.084
 1331SOL     OW 4891   5.970   0.521   1.985
 1331SOL    HW1 4892   6.061   0.560   1.968
 1331SOL    HW2 4893   5.948   0.456   1.913
 1332SOL     OW 4894   4.139   1.673   1.681
 1332SOL    HW1 4895   4.230   1.638   1.706
 1332SOL    HW2 4896   4.069   1.622   1.731
 1333SOL     OW 4897   3.611   4.479   5.329
 1333SOL    HW1 4898   3.673   4.527   5.268
 1333SOL    HW2 4899   3.591   4.535   5.409
 1334SOL     OW 4900   0.386   3.601   4.268
 1334SOL    HW1 4901   0.432   3.640   4.348
 1334SOL    HW2 4902   0.289   3.623   4.272
 1335SOL     OW 4903   2.837   5.268   2.964
 1335SOL    HW1 4904   2.775   5.343   2.942
 1335SOL    HW2 4905   2.827   5.244   3.061
 1336SOL     OW 4906   0.369   0.482   5.399
 1336SOL    HW1 4907   0.370   0.550   5.325
 1336SOL    HW2 4908   0.425   0.403   5.372
 1337SOL     OW 4909   2.514   1.735   5.969
 1337SOL    HW1 4910   2.425   1.690   5.976
 1337SOL    HW2 4911   2.508   1.813   5.908
 1338SOL     OW 4912   4.134   5.373   0.420
 1338SOL    HW1 4913   4.228   5.399   0.442
 1338SOL    HW2 4914   4.089   5.447   0.371
 1339SOL     OW 4915   0.159   4.407   4.911
 1339SOL    HW1 4916   0.225   4.417   4.985
 1339SOL    HW2 4917   0.133   4.497   4.877
 1340SOL     OW 4918   1.950   1.967   6.125
 1340SOL    HW1 4919   1.901   2.026   6.189
 1340SOL    HW2 4920   1.928   1.872   6.145
 1341SOL     OW 4921   4.023   1.396   3.589
 1341SOL    HW1 4922   4.002   1.392   3.492
 1341SOL    HW2 4923   3.940   1.420   3.640
 1342SOL     OW 4924   0.396   6.605   0.714
 1342SOL    HW1 4925   0.384   6.692   0.762
 1342SOL    HW2 4926   0.416   6.624   0.617
 1343SOL     OW 4927   4.072   4.844   3.108
 1343SOL    HW1 4928   4.135   4.921   3.106
 1343SOL    HW2 4929   3.978   4.878   3.101
 1344SOL     OW 4930   6.353   1.173   2.557
 1344SOL    HW1 4931   6.380   1.077   2.552
 1344SOL    HW2 4932   6.277   1.183   2.622
 1345SOL     OW 4933   0.738   7.016   3.518
 1345SOL    HW1 4934   0.648   6.994   3.556
 1345SOL    HW2 4935   0.807   6.956   3.558
 1346SOL     OW 4936   0.329   0.691   3.957
 1346SOL    HW1 4937   0.234   0.675   3.984
 1346SOL    HW2 4938   0.386   0.699   4.038
 1347SOL     OW 4939   5.759   0.564   3.031
 1347SOL    HW1 4940   5.745   0.611   2.944
 1347SOL    HW2 4941   5.687   0.497   3.045
 1348SOL     OW 4942   5.150   4.384   4.713
 1348SOL    HW1 4943   5.219   4.348   4.650
 1348SOL    HW2 4944   5.194   4.412   4.798
 1349SOL     OW 4945   4.889   2.605   6.577
 1349SOL    HW1 4946   4.912   2.508   6.576
 1349SOL    HW2 4947   4.790   2.616   6.574
 1350SOL     OW 4948   3.398   0.396   5.781
 1350SOL    HW1 4949   3.345   0.345   5.849
 1350SOL    HW2 4950   3.386   0.494   5.795
 1351SOL     OW 4951   0.810   0.735   4.633
 1351SOL    HW1 4952   0.726   0.689   4.661
 1351SOL    HW2 4953   0.803   0.763   4.537
 1352SOL     OW 4954   0.283   0.570   3.337
 1352SOL    HW1 4955   0.262   0.653   3.388
 1352SOL    HW2 4956   0.374   0.538   3.363
 1353SOL     OW 4957   1.419   4.384   4.100
 1353SOL    HW1 4958   1.367   4.462   4.066
 1353SOL    HW2 4959   1.507   4.380   4.053
 1354SOL     OW 4960   0.444   0.345   1.758
 1354SOL    HW1 4961   0.386   0.378   1.832
 1354SOL    HW2 4962   0.453   0.415   1.688
 1355SOL     OW 4963   4.916   3.090   6.578
 1355SOL    HW1 4964   4.941   2.993   6.569
 1355SOL    HW2 4965   4.959   3.127   6.660
 1356SOL     OW 4966   3.013   3.896   2.322
 1356SOL    HW1 4967   2.955   3.819   2.350
 1356SOL    HW2 4968   3.056   3.875   2.234
 1357SOL     OW 4969   2.907   2.971   5.515
 1357SOL    HW1 4970   2.845   2.927   5.449
 1357SOL    HW2 4971   2.973   2.904   5.548
 1358SOL     OW 4972   2.072   2.407   5.481
 1358SOL    HW1 4973   2.157   2.456   5.501
 1358SOL    HW2 4974   2.014   2.463   5.423
 1359SOL     OW 4975   6.664   1.059   0.483
 1359SOL    HW1 4976   6.703   1.149   0.469
 1359SOL    HW2 4977   6.722   0.990   0.440
 1360SOL     OW 4978   3.395   3.763   4.473
 1360SOL    HW1 4979   3.309   3.813   4.463
 1360SOL    HW2 4980   3.471   3.827   4.469
 1361SOL     OW 4981   0.737   5.965   0.784
 1361SOL    HW1 4982   0.835   5.985   0.794
 1361SOL    HW2 4983   0.726   5.880   0.733
 1362SOL     OW 4984   3.274   3.146   6.239
 1362SOL    HW1 4985   3.304   3.072   6.299
 1362SOL    HW2 4986   3.250   3.108   6.149
 1363SOL     OW 4987   5.675   6.226   2.073
 1363SOL    HW1 4988   5.708   6.319   2.057
 1363SOL    HW2 4989   5.596   6.208   2.014
 1364SOL     OW 4990   0.697   3.340   1.392
 1364SOL    HW1 4991   0.737   3.249   1.388
 1364SOL    HW2 4992   0.620   3.340   1.456
 1365SOL     OW 4993   0.705   3.646   5.893
 1365SOL    HW1 4994   0.674   3.730   5.849
 1365SOL    HW2 4995   0.634   3.612   5.954
 1366SOL     OW 4996   5.205   0.748   0.678
 1366SOL    HW1 4997   5.214   0.733   0.776
 1366SOL    HW2 4998   5.143   0.679   0.639
 1367SOL     OW 4999   0.673   6.485   4.150
 1367SOL    HW1 5000   0.679   6.559   4.217
 1367SOL    HW2 5001   0.765   6.449   4.132
 1368SOL     OW 5002   1.106   6.525   5.858
 1368SOL    HW1 5003   1.134   6.429   5.859
 1368SOL    HW2 5004   1.025   6.536   5.917
 1369SOL     OW 5005   2.953   6.574   3.352
 1369SOL    HW1 5006   2.950   6.574   3.452
 1369SOL    HW2 5007   2.926   6.484   3.318
 1370SOL     OW 5008   6.435   2.245   2.744
 1370SOL    HW1 5009   6.404   2.318   2.682
 1370SOL    HW2 5010   6.530   2.222   2.723
 1371SOL     OW 5011   5.758   1.748   5.628
 1371SOL    HW1 5012   5.816   1.761   5.709
 1371SOL    HW2 5013   5.807   1.693   5.561
 1372SOL     OW 5014   6.466   2.798   7.014
 1372SOL    HW1 5015   6.526   2.842   6.947
 1372SOL    HW2 5016   6.520   2.749   0.062
 1373SOL     OW 5017   5.159   2.464   2.008
 1373SOL    HW1 5018   5.205   2.534   1.953
 1373SOL    HW2 5019   5.097   2.509   2.072
 1374SOL     OW 5020   3.984   3.946   0.141
 1374SOL    HW1 5021   4.009   3.861   0.187
 1374SOL    HW2 5022   4.006   4.024   0.199
 1375SOL     OW 5023   5.323   5.746   4.234
 1375SOL    HW1 5024   5.264   5.691   4.292
 1375SOL    HW2 5025   5.315   5.716   4.139
 1376SOL     OW 5026   2.593   4.954   5.965
 1376SOL    HW1 5027   2.603   4.875   6.027
 1376SOL    HW2 5028   2.683   4.981   5.932
 1377SOL     OW 5029   1.536   1.349   3.082
 1377SOL    HW1 5030   1.560   1.401   3.164
 1377SOL    HW2 5031   1.572   1.396   3.002
 1378SOL     OW 5032   4.528   2.298   4.067
 1378SOL    HW1 5033   4.541   2.373   4.132
 1378SOL    HW2 5034   4.504   2.214   4.117
 1379SOL     OW 5035   4.952   5.447   1.053
 1379SOL    HW1 5036   4.963   5.440   1.152
 1379SOL    HW2 5037   5.041   5.439   1.009
 1380SOL     OW 5038   6.710   6.067   1.854
 1380SOL    HW1 5039   6.679   5.979   1.890
 1380SOL    HW2 5040   6.810   6.073   1.859
 1381SOL     OW 5041   6.151   2.111   5.816
 1381SOL    HW1 5042   6.097   2.161   5.884
 1381SOL    HW2 5043   6.231   2.070   5.861
 1382SOL     OW 5044   5.000   2.427   0.153
 1382SOL    HW1 5045   5.029   2.362   0.223
 1382SOL    HW2 5046   4.907   2.460   0.174
 1383SOL     OW 5047   0.695   1.528   2.170
 1383SOL    HW1 5048   0.599   1.507   2.153
 1383SOL    HW2 5049   0.730   1.586   2.097
 1384SOL     OW 5050   5.978   1.691   1.590
 1384SOL    HW1 5051   5.893   1.722   1.633
 1384SOL    HW2 5052   6.051   1.688   1.659
 1385SOL     OW 5053   1.065   5.857   1.608
 1385SOL    HW1 5054   1.161   5.831   1.606
 1385SOL    HW2 5055   1.040   5.902   1.523
 1386SOL     OW 5056   2.586   5.866   4.533
 1386SOL    HW1 5057   2.565   5.925   4.455
 1386SOL    HW2 5058   2.520   5.791   4.537
 1387SOL     OW 5059   2.979   5.713   2.203
 1387SOL    HW1 5060   3.059   5.673   2.248
 1387SOL    HW2 5061   3.008   5.787   2.143
 1388SOL     OW 5062   6.650   0.505   1.893
 1388SOL    HW1 5063   6.707   0.578   1.856
 1388SOL    HW2 5064   6.559   0.509   1.852
 1389SOL     OW 5065   6.098   1.037   2.695
 1389SOL    HW1 5066   6.122   0.940   2.689
 1389SOL    HW2 5067   6.065   1.069   2.606
 1390SOL     OW 5068   0.302   1.905   6.196
 1390SOL    HW1 5069   0.394   1.867   6.186
 1390SOL    HW2 5070   0.243   1.837   6.240
 1391SOL     OW 5071   0.937   3.161   2.709
 1391SOL    HW1 5072   0.982   3.073   2.721
 1391SOL    HW2 5073   0.848   3.159   2.755
 1392SOL     OW 5074   5.019   4.689   5.470
 1392SOL    HW1 5075   5.035   4.698   5.371
 1392SOL    HW2 5076   5.101   4.652   5.513
 1393SOL     OW 5077   3.954   6.467   5.812
 1393SOL    HW1 5078   3.927   6.417   5.730
 1393SOL    HW2 5079   3.949   6.407   5.891
 1394SOL     OW 5080   2.236   6.327   5.882
 1394SOL    HW1 5081   2.282   6.246   5.920
 1394SOL    HW2 5082   2.235   6.321   5.782
 1395SOL     OW 5083   3.340   4.611   5.608
 1395SOL    HW1 5084   3.310   4.555   5.684
 1395SOL    HW2 5085   3.270   4.679   5.586
 1396SOL     OW 5086   5.896   5.984   4.493
 1396SOL    HW1 5087   5.889   5.971   4.394
 1396SOL    HW2 5088   5.940   6.071   4.512
 1397SOL     OW 5089   4.074   5.972   4.936
 1397SOL    HW1 5090   4.032   5.931   4.856
 1397SOL    HW2 5091   4.078   6.071   4.926
 1398SOL     OW 5092   1.452   1.278   4.712
 1398SOL    HW1 5093   1.511   1.214   4.760
 1398SOL    HW2 5094   1.471   1.276   4.614
 1399SOL     OW 5095   3.481   6.368   1.628
 1399SOL    HW1 5096   3.558   6.329   1.578
 1399SOL    HW2 5097   3.421   6.295   1.659
 1400SOL     OW 5098   0.930   0.254   1.871
 1400SOL    HW1 5099   0.852   0.259   1.809
 1400SOL    HW2 5100   0.975   0.343   1.874
 1401SOL     OW 5101   0.028   1.452   4.889
 1401SOL    HW1 5102   6.959   1.407   4.896
 1401SOL    HW2 5103   0.041   1.514   4.967
 1402SOL     OW 5104   6.763   2.826   0.295
 1402SOL    HW1 5105   6.797   2.793   0.384
 1402SOL    HW2 5106   6.687   2.769   0.265
 1403SOL     OW 5107   1.967   0.395   1.895
 1403SOL    HW1 5108   2.015   0.438   1.819
 1403SOL    HW2 5109   1.900   0.329   1.860
 1404SOL     OW 5110   5.753   0.411   0.397
 1404SOL    HW1 5111   5.809   0.421   0.480
 1404SOL    HW2 5112   5.674   0.472   0.404
 1405SOL     OW 5113   2.343   3.611   1.093
 1405SOL    HW1 5114   2.315   3.684   1.030
 1405SOL    HW2 5115   2.373   3.532   1.040
 1406SOL     OW 5116   1.859   4.198   1.092
 1406SOL    HW1 5117   1.942   4.226   1.141
 1406SOL    HW2 5118   1.798   4.150   1.154
 1407SOL     OW 5119   6.747   2.155   2.412
 1407SOL    HW1 5120   6.791   2.205   2.487
 1407SOL    HW2 5121   6.712   2.068   2.446
 1408SOL     OW 5122   5.843   0.442   6.436
 1408SOL    HW1 5123   5.866   0.530   6.393
 1408SOL    HW2 5124   5.744   0.433   6.441
 1409SOL     OW 5125   0.254   0.706   4.634
 1409SOL    HW1 5126   0.244   0.641   4.558
 1409SOL    HW2 5127   0.337   0.760   4.620
 1410SOL     OW 5128   0.219   3.068   6.897
 1410SOL    HW1 5129   0.226   2.995   6.965
 1410SOL    HW2 5130   0.278   3.047   6.819
 1411SOL     OW 5131   1.582   6.642   2.023
 1411SOL    HW1 5132   1.568   6.683   2.113
 1411SOL    HW2 5133   1.591   6.543   2.032
 1412SOL     OW 5134   1.059   2.867   0.381
 1412SOL    HW1 5135   0.992   2.941   0.376
 1412SOL    HW2 5136   1.043   2.802   0.307
 1413SOL     OW 5137   1.956   0.594   4.116
 1413SOL    HW1 5138   2.029   0.634   4.060
 1413SOL    HW2 5139   1.956   0.494   4.104
 1414SOL     OW 5140   2.036   1.892   2.127
 1414SOL    HW1 5141   2.107   1.910   2.195
 1414SOL    HW2 5142   2.003   1.979   2.090
 1415SOL     OW 5143   3.866   6.209   5.982
 1415SOL    HW1 5144   3.961   6.177   5.975
 1415SOL    HW2 5145   3.820   6.162   6.057
 1416SOL     OW 5146   4.494   5.307   2.136
 1416SOL    HW1 5147   4.439   5.361   2.199
 1416SOL    HW2 5148   4.434   5.262   2.070
 1417SOL     OW 5149   2.505   1.862   6.310
 1417SOL    HW1 5150   2.576   1.929   6.287
 1417SOL    HW2 5151   2.539   1.770   6.294
 1418SOL     OW 5152   3.549   4.091   3.199
 1418SOL    HW1 5153   3.474   4.067   3.137
 1418SOL    HW2 5154   3.568   4.189   3.193
 1419SOL     OW 5155   3.982   6.666   4.954
 1419SOL    HW1 5156   3.988   6.686   4.857
 1419SOL    HW2 5157   4.070   6.632   4.987
 1420SOL     OW 5158   1.034   5.739   2.111
 1420SOL    HW1 5159   1.032   5.671   2.038
 1420SOL    HW2 5160   0.994   5.700   2.194
 1421SOL     OW 5161   3.020   1.880   2.256
 1421SOL    HW1 5162   2.949   1.915   2.316
 1421SOL    HW2 5163   2.980   1.853   2.168
 1422SOL     OW 5164   2.955   5.432   0.591
 1422SOL    HW1 5165   3.015   5.511   0.607
 1422SOL    HW2 5166   3.009   5.348   0.597
 1423SOL     OW 5167   4.916   6.902   2.546
 1423SOL    HW1 5168   4.928   6.892   2.645
 1423SOL    HW2 5169   4.889   6.814   2.507
 1424SOL     OW 5170   5.989   5.487   4.734
 1424SOL    HW1 5171   6.011   5.391   4.749
 1424SOL    HW2 5172   5.938   5.496   4.649
 1425SOL     OW 5173   2.392   6.878   4.139
 1425SOL    HW1 5174   2.434   6.794   4.105
 1425SOL    HW2 5175   2.325   6.856   4.210
 1426SOL     OW 5176   1.243   1.735   5.709
 1426SOL    HW1 5177   1.280   1.724   5.801
 1426SOL    HW2 5178   1.188   1.655   5.685
 1427SOL     OW 5179   5.919   0.494   4.015
 1427SOL    HW1 5180   6.006   0.470   3.973
 1427SOL    HW2 5181   5.926   0.486   4.114
 1428SOL     OW 5182   5.844   2.248   6.784
 1428SOL    HW1 5183   5.937   2.242   6.750
 1428SOL    HW2 5184   5.825   2.341   6.816
 1429SOL     OW 5185   0.225   1.008   0.644
 1429SOL    HW1 5186   0.271   0.931   0.690
 1429SOL    HW2 5187   0.249   1.007   0.547
 1430SOL     OW 5188   1.927   4.924   3.090
 1430SOL    HW1 5189   1.876   4.930   3.175
 1430SOL    HW2 5190   1.937   5.015   3.051
 1431SOL     OW 5191   2.565   0.522   1.571
 1431SOL    HW1 5192   2.654   0.541   1.530
 1431SOL    HW2 5193   2.568   0.435   1.620
 1432SOL     OW 5194   1.975   1.361   2.309
 1432SOL    HW1 5195   1.920   1.439   2.339
 1432SOL    HW2 5196   2.043   1.392   2.242
 1433SOL     OW 5197   3.842   0.429   4.294
 1433SOL    HW1 5198   3.862   0.424   4.392
 1433SOL    HW2 5199   3.744   0.441   4.280
 1434SOL     OW 5200   0.905   0.979   5.627
 1434SOL    HW1 5201   0.937   0.974   5.533
 1434SOL    HW2 5202   0.818   0.929   5.635
 1435SOL     OW 5203   6.251   1.849   2.451
 1435SOL    HW1 5204   6.327   1.837   2.387
 1435SOL    HW2 5205   6.275   1.918   2.520
 1436SOL     OW 5206   4.288   3.525   0.094
 1436SOL    HW1 5207   4.306   3.500   0.189
 1436SOL    HW2 5208   4.373   3.525   0.042
 1437SOL     OW 5209   3.240   0.624   2.608
 1437SOL    HW1 5210   3.333   0.662   2.603
 1437SOL    HW2 5211   3.211   0.620   2.703
 1438SOL     OW 5212   3.097   6.817   1.519
 1438SOL    HW1 5213   3.141   6.774   1.598
 1438SOL    HW2 5214   3.012   6.861   1.549
 1439SOL     OW 5215   0.314   6.059   2.548
 1439SOL    HW1 5216   0.373   6.140   2.556
 1439SOL    HW2 5217   0.336   5.995   2.622
 1440SOL     OW 5218   2.908   3.018   1.188
 1440SOL    HW1 5219   2.853   3.073   1.251
 1440SOL    HW2 5220   2.898   2.921   1.211
 1441SOL     OW 5221   5.822   6.602   1.301
 1441SOL    HW1 5222   5.860   6.522   1.255
 1441SOL    HW2 5223   5.733   6.624   1.262
 1442SOL     OW 5224   5.925   5.121   0.495
 1442SOL    HW1 5225   5.859   5.052   0.464
 1442SOL    HW2 5226   6.015   5.102   0.455
 1443SOL     OW 5227   1.341   2.469   2.997
 1443SOL    HW1 5228   1.286   2.449   2.917
 1443SOL    HW2 5229   1.301   2.425   3.078
 1444SOL     OW 5230   6.083   5.324   0.063
 1444SOL    HW1 5231   6.047   5.352   6.994
 1444SOL    HW2 5232   6.024   5.254   0.103
 1445SOL     OW 5233   1.187   3.676   2.562
 1445SOL    HW1 5234   1.142   3.597   2.604
 1445SOL    HW2 5235   1.261   3.707   2.621
 1446SOL     OW 5236   6.347   0.064   6.746
 1446SOL    HW1 5237   6.426   0.117   6.778
 1446SOL    HW2 5238   6.288   0.122   6.691
 1447SOL     OW 5239   5.996   5.224   4.566
 1447SOL    HW1 5240   6.028   5.196   4.657
 1447SOL    HW2 5241   5.899   5.250   4.572
 1448SOL     OW 5242   0.961   3.030   6.131
 1448SOL    HW1 5243   0.992   3.059   6.221
 1448SOL    HW2 5244   1.039   3.007   6.074
 1449SOL     OW 5245   1.647   4.518   4.397
 1449SOL    HW1 5246   1.551   4.511   4.370
 1449SOL    HW2 5247   1.692   4.429   4.386
 1450SOL     OW 5248   2.084   2.095   4.811
 1450SOL    HW1 5249   2.039   2.083   4.723
 1450SOL    HW2 5250   2.031   2.157   4.868
 1451SOL     OW 5251   2.225   7.002   1.843
 1451SOL    HW1 5252   2.167   0.040   1.900
 1451SOL    HW2 5253   2.249   0.031   1.759
 1452SOL     OW 5254   5.086   2.934   5.438
 1452SOL    HW1 5255   5.171   2.944   5.490
 1452SOL    HW2 5256   5.008   2.940   5.500
 1453SOL     OW 5257   1.056   4.292   4.923
 1453SOL    HW1 5258   0.972   4.278   4.975
 1453SOL    HW2 5259   1.055   4.233   4.842
 1454SOL     OW 5260   3.119   1.672   3.807
 1454SOL    HW1 5261   3.144   1.586   3.762
 1454SOL    HW2 5262   3.105   1.743   3.738
 1455SOL     OW 5263   1.339   5.638   2.347
 1455SOL    HW1 5264   1.362   5.720   2.399
 1455SOL    HW2 5265   1.348   5.657   2.249
 1456SOL     OW 5266   6.061   5.335   5.668
 1456SOL    HW1 5267   5.987   5.379   5.616
 1456SOL    HW2 5268   6.022   5.283   5.744
 1457SOL     OW 5269   0.312   4.391   5.906
 1457SOL    HW1 5270   0.335   4.440   5.822
 1457SOL    HW2 5271   0.396   4.361   5.952
 1458SOL     OW 5272   5.234   4.860   5.296
 1458SOL    HW1 5273   5.318   4.875   5.244
 1458SOL    HW2 5274   5.251   4.879   5.393
 1459SOL     OW 5275   5.266   6.788   5.297
 1459SOL    HW1 5276   5.352   6.804   5.248
 1459SOL    HW2 5277   5.271   6.830   5.388
 1460SOL     OW 5278   1.703   6.476   5.603
 1460SOL    HW1 5279   1.653   6.390   5.615
 1460SOL    HW2 5280   1.789   6.472   5.654
 1461SOL     OW 5281   0.527   2.895   3.083
 1461SOL    HW1 5282   0.431   2.879   3.105
 1461SOL    HW2 5283   0.541   2.993   3.067
 1462SOL     OW 5284   0.563   0.066   0.554
 1462SOL    HW1 5285   0.625   0.140   0.526
 1462SOL    HW2 5286   0.585   0.038   0.647
 1463SOL     OW 5287   1.902   5.582   6.510
 1463SOL    HW1 5288   1.919   5.503   6.451
 1463SOL    HW2 5289   1.838   5.556   6.582
 1464SOL     OW 5290   0.377   4.554   4.310
 1464SOL    HW1 5291   0.454   4.507   4.266
 1464SOL    HW2 5292   0.337   4.493   4.379
 1465SOL     OW 5293   1.388   1.893   3.281
 1465SOL    HW1 5294   1.376   1.971   3.221
 1465SOL    HW2 5295   1.411   1.925   3.373
 1466SOL     OW 5296   4.314   2.064   1.757
 1466SOL    HW1 5297   4.327   2.163   1.766
 1466SOL    HW2 5298   4.229   2.046   1.708
 1467SOL     OW 5299   1.218   0.952   4.233
 1467SOL    HW1 5300   1.289   1.004   4.281
 1467SOL    HW2 5301   1.245   0.857   4.225
 1468SOL     OW 5302   2.497   6.086   2.619
 1468SOL    HW1 5303   2.482   5.990   2.640
 1468SOL    HW2 5304   2.544   6.095   2.532
 1469SOL     OW 5305   6.274   5.074   3.237
 1469SOL    HW1 5306   6.262   5.134   3.157
 1469SOL    HW2 5307   6.329   4.994   3.211
 1470SOL     OW 5308   6.242   2.042   0.555
 1470SOL    HW1 5309   6.217   2.019   0.461
 1470SOL    HW2 5310   6.170   2.009   0.617
 1471SOL     OW 5311   5.307   7.011   1.656
 1471SOL    HW1 5312   5.207   7.011   1.651
 1471SOL    HW2 5313   5.342   0.077   1.619
 1472SOL     OW 5314   1.631   6.649   6.488
 1472SOL    HW1 5315   1.590   6.736   6.460
 1472SOL    HW2 5316   1.603   6.577   6.426
 1473SOL     OW 5317   2.871   5.433   4.697
 1473SOL    HW1 5318   2.786   5.382   4.705
 1473SOL    HW2 5319   2.896   5.440   4.600
 1474SOL     OW 5320   3.977   4.999   1.422
 1474SOL    HW1 5321   3.958   5.096   1.438
 1474SOL    HW2 5322   3.984   4.952   1.509
 1475SOL     OW 5323   5.022   0.054   0.167
 1475SOL    HW1 5324   5.085   7.020   0.111
 1475SOL    HW2 5325   5.022   0.149   0.135
 1476SOL     OW 5326   4.134   0.927   1.352
 1476SOL    HW1 5327   4.172   1.007   1.399
 1476SOL    HW2 5328   4.192   0.848   1.369
 1477SOL     OW 5329   4.282   5.122   1.183
 1477SOL    HW1 5330   4.249   5.074   1.101
 1477SOL    HW2 5331   4.205   5.141   1.244
 1478SOL     OW 5332   4.930   5.832   5.870
 1478SOL    HW1 5333   4.867   5.905   5.900
 1478SOL    HW2 5334   4.877   5.759   5.827
 1479SOL     OW 5335   3.623   3.824   1.208
 1479SOL    HW1 5336   3.633   3.837   1.306
 1479SOL    HW2 5337   3.613   3.726   1.188
 1480SOL     OW 5338   2.920   0.383   4.933
 1480SOL    HW1 5339   2.949   0.292   4.904
 1480SOL    HW2 5340   2.945   0.450   4.863
 1481SOL     OW 5341   5.289   2.427   5.447
 1481SOL    HW1 5342   5.209   2.486   5.431
 1481SOL    HW2 5343   5.276   2.375   5.531
 1482SOL     OW 5344   4.418   1.239   0.448
 1482SOL    HW1 5345   4.332   1.208   0.409
 1482SOL    HW2 5346   4.406   1.328   0.491
 1483SOL     OW 5347   4.972   1.388   5.957
 1483SOL    HW1 5348   4.996   1.299   5.917
 1483SOL    HW2 5349   4.889   1.423   5.914
 1484SOL     OW 5350   3.375   5.685   5.199
 1484SOL    HW1 5351   3.318   5.616   5.155
 1484SOL    HW2 5352   3.446   5.640   5.254
 1485SOL     OW 5353   4.942   2.489   2.744
 1485SOL    HW1 5354   5.016   2.426   2.720
 1485SOL    HW2 5355   4.965   2.536   2.830
 1486SOL     OW 5356   5.170   0.093   3.854
 1486SOL    HW1 5357   5.163   7.015   3.833
 1486SOL    HW2 5358   5.104   0.143   3.797
 1487SOL     OW 5359   6.747   0.037   0.628
 1487SOL    HW1 5360   6.734   7.002   0.711
 1487SOL    HW2 5361   6.784   0.126   0.653
 1488SOL     OW 5362   5.928   0.983   2.951
 1488SOL    HW1 5363   5.964   0.909   2.895
 1488SOL    HW2 5364   5.982   1.066   2.936
 1489SOL     OW 5365   3.865   4.750   6.307
 1489SOL    HW1 5366   3.802   4.673   6.304
 1489SOL    HW2 5367   3.824   4.828   6.259
 1490SOL     OW 5368   0.328   2.262   2.767
 1490SOL    HW1 5369   0.360   2.351   2.732
 1490SOL    HW2 5370   0.311   2.200   2.691
 1491SOL     OW 5371   0.081   3.183   2.647
 1491SOL    HW1 5372   0.064   3.172   2.745
 1491SOL    HW2 5373   0.033   3.112   2.597
 1492SOL     OW 5374   5.849   1.503   2.813
 1492SOL    HW1 5375   5.884   1.412   2.836
 1492SOL    HW2 5376   5.918   1.553   2.760
 1493SOL     OW 5377   4.682   2.880   5.775
 1493SOL    HW1 5378   4.669   2.828   5.859
 1493SOL    HW2 5379   4.623   2.844   5.703
 1494SOL     OW 5380   6.460   4.335   5.649
 1494SOL    HW1 5381   6.490   4.405   5.714
 1494SOL    HW2 5382   6.432   4.253   5.700
 1495SOL     OW 5383   6.089   4.492   4.434
 1495SOL    HW1 5384   6.041   4.419   4.385
 1495SOL    HW2 5385   6.155   4.451   4.498
 1496SOL     OW 5386   6.452   5.583   6.533
 1496SOL    HW1 5387   6.441   5.662   6.592
 1496SOL    HW2 5388   6.427   5.500   6.583
 1497SOL     OW 5389   5.661   2.919   2.789
 1497SOL    HW1 5390   5.631   3.007   2.825
 1497SOL    HW2 5391   5.703   2.931   2.699
 1498SOL     OW 5392   3.161   4.689   0.836
 1498SOL    HW1 5393   3.124   4.598   0.857
 1498SOL    HW2 5394   3.108   4.730   0.762
 1499SOL     OW 5395   0.441   3.758   5.405
 1499SOL    HW1 5396   0.528   3.805   5.415
 1499SOL    HW2 5397   0.427   3.735   5.308
 1500SOL     OW 5398   0.796   5.398   1.918
 1500SOL    HW1 5399   0.820   5.311   1.875
 1500SOL    HW2 5400   0.743   5.453   1.854
 1501SOL     OW 5401   5.963   1.826   6.635
 1501SOL    HW1 5402   5.882   1.793   6.587
 1501SOL    HW2 5403   5.970   1.781   6.723
 1502SOL     OW 5404   6.311   6.825   6.768
 1502SOL    HW1 5405   6.328   6.923   6.755
 1502SOL    HW2 5406   6.388   6.783   6.815
 1503SOL     OW 5407   0.537   4.552   2.135
 1503SOL    HW1 5408   0.567   4.620   2.067
 1503SOL    HW2 5409   0.453   4.584   2.178
 1504SOL     OW 5410   0.682   0.504   2.545
 1504SOL    HW1 5411   0.727   0.431   2.494
 1504SOL    HW2 5412   0.604   0.538   2.492
 1505SOL     OW 5413   4.957   5.900   4.940
 1505SOL    HW1 5414   4.902   5.932   4.863
 1505SOL    HW2 5415   5.051   5.932   4.928
 1506SOL     OW 5416   0.806   0.897   0.590
 1506SOL    HW1 5417   0.848   0.945   0.513
 1506SOL    HW2 5418   0.877   0.861   0.650
 1507SOL     OW 5419   1.865   2.589   4.540
 1507SOL    HW1 5420   1.942   2.629   4.590
 1507SOL    HW2 5421   1.899   2.538   4.461
 1508SOL     OW 5422   1.092   0.781   0.403
 1508SOL    HW1 5423   1.156   0.746   0.334
 1508SOL    HW2 5424   1.123   0.753   0.494
 1509SOL     OW 5425   5.458   0.544   3.743
 1509SOL    HW1 5426   5.538   0.573   3.795
 1509SOL    HW2 5427   5.444   0.445   3.757
 1510SOL     OW 5428   3.603   5.746   3.932
 1510SOL    HW1 5429   3.655   5.826   3.963
 1510SOL    HW2 5430   3.524   5.733   3.991
 1511SOL     OW 5431   3.735   3.338   4.625
 1511SOL    HW1 5432   3.782   3.421   4.653
 1511SOL    HW2 5433   3.652   3.327   4.679
 1512SOL     OW 5434   6.515   6.176   1.169
 1512SOL    HW1 5435   6.493   6.188   1.072
 1512SOL    HW2 5436   6.463   6.242   1.223
 1513SOL     OW 5437   3.182   0.418   6.107
 1513SOL    HW1 5438   3.086   0.446   6.110
 1513SOL    HW2 5439   3.228   0.469   6.034
 1514SOL     OW 5440   3.568   2.036   5.615
 1514SOL    HW1 5441   3.657   2.026   5.658
 1514SOL    HW2 5442   3.552   2.132   5.591
 1515SOL     OW 5443   6.109   1.847   1.855
 1515SOL    HW1 5444   6.129   1.813   1.946
 1515SOL    HW2 5445   6.010   1.856   1.844
 1516SOL     OW 5446   5.656   6.830   4.795
 1516SOL    HW1 5447   5.620   6.910   4.747
 1516SOL    HW2 5448   5.736   6.794   4.746
 1517SOL     OW 5449   4.054   6.242   3.925
 1517SOL    HW1 5450   4.057   6.328   3.977
 1517SOL    HW2 5451   3.982   6.247   3.857
 1518SOL     OW 5452   0.366   2.473   0.280
 1518SOL    HW1 5453   0.311   2.390   0.279
 1518SOL    HW2 5454   0.334   2.534   0.352
 1519SOL     OW 5455   6.839   4.402   6.716
 1519SOL    HW1 5456   6.918   4.358   6.759
 1519SOL    HW2 5457   6.820   4.358   6.629
 1520SOL     OW 5458   7.006   5.946   2.204
 1520SOL    HW1 5459   0.006   5.899   2.118
 1520SOL    HW2 5460   6.981   5.879   2.273
 1521SOL     OW 5461   2.004   4.824   6.433
 1521SOL    HW1 5462   2.014   4.749   6.497
 1521SOL    HW2 5463   1.920   4.813   6.381
 1522SOL     OW 5464   5.011   5.286   4.525
 1522SOL    HW1 5465   4.973   5.241   4.445
 1522SOL    HW2 5466   4.939   5.299   4.593
 1523SOL     OW 5467   3.992   6.055   6.857
 1523SOL    HW1 5468   4.070   6.115   6.843
 1523SOL    HW2 5469   3.928   6.065   6.780
 1524SOL     OW 5470   2.477   1.760   2.118
 1524SOL    HW1 5471   2.386   1.797   2.137
 1524SOL    HW2 5472   2.475   1.710   2.031
 1525SOL     OW 5473   6.059   2.686   0.006
 1525SOL    HW1 5474   5.972   2.688   0.056
 1525SOL    HW2 5475   6.123   2.750   0.048
 1526SOL     OW 5476   0.992   1.033   0.376
 1526SOL    HW1 5477   1.031   0.945   0.403
 1526SOL    HW2 5478   1.066   1.096   0.352
 1527SOL     OW 5479   3.459   1.183   3.790
 1527SOL    HW1 5480   3.407   1.141   3.716
 1527SOL    HW2 5481   3.532   1.122   3.819
 1528SOL     OW 5482   4.858   3.489   1.185
 1528SOL    HW1 5483   4.881   3.392   1.194
 1528SOL    HW2 5484   4.941   3.542   1.169
 1529SOL     OW 5485   4.764   1.331   5.774
 1529SOL    HW1 5486   4.718   1.392   5.838
 1529SOL    HW2 5487   4.696   1.277   5.725
 1530SOL     OW 5488   3.738   6.217   1.659
 1530SOL    HW1 5489   3.715   6.266   1.576
 1530SOL    HW2 5490   3.752   6.282   1.734
 1531SOL     OW 5491   3.236   6.568   4.822
 1531SOL    HW1 5492   3.229   6.507   4.743
 1531SOL    HW2 5493   3.156   6.627   4.826
 1532SOL     OW 5494   2.616   5.248   6.104
 1532SOL    HW1 5495   2.536   5.200   6.140
 1532SOL    HW2 5496   2.595   5.281   6.012
 1533SOL     OW 5497   5.708   5.217   1.061
 1533SOL    HW1 5498   5.785   5.243   1.120
 1533SOL    HW2 5499   5.622   5.242   1.106
 1534SOL     OW 5500   3.778   5.619   6.614
 1534SOL    HW1 5501   3.726   5.700   6.588
 1534SOL    HW2 5502   3.839   5.641   6.690
 1535SOL     OW 5503   5.869   6.813   4.622
 1535SOL    HW1 5504   5.921   6.728   4.634
 1535SOL    HW2 5505   5.931   6.891   4.628
 1536SOL     OW 5506   4.158   4.065   6.660
 1536SOL    HW1 5507   4.110   4.144   6.623
 1536SOL    HW2 5508   4.154   3.990   6.595
 1537SOL     OW 5509   3.295   5.290   4.053
 1537SOL    HW1 5510   3.243   5.270   3.969
 1537SOL    HW2 5511   3.391   5.264   4.039
 1538SOL     OW 5512   3.103   1.336   6.853
 1538SOL    HW1 5513   3.173   1.391   6.898
 1538SOL    HW2 5514   3.018   1.387   6.848
 1539SOL     OW 5515   5.894   2.942   1.007
 1539SOL    HW1 5516   5.891   3.041   0.998
 1539SOL    HW2 5517   5.978   2.907   0.964
 1540SOL     OW 5518   3.256   0.460   4.817
 1540SOL    HW1 5519   3.300   0.372   4.800
 1540SOL    HW2 5520   3.228   0.466   4.913
 1541SOL     OW 5521   3.958   3.146   4.586
 1541SOL    HW1 5522   3.876   3.203   4.584
 1541SOL    HW2 5523   3.940   3.064   4.641
 1542SOL     OW 5524   0.014   0.355   2.732
 1542SOL    HW1 5525   0.100   0.393   2.766
 1542SOL    HW2 5526   6.958   0.413   2.762
 1543SOL     OW 5527   2.551   5.012   6.466
 1543SOL    HW1 5528   2.551   5.108   6.496
 1543SOL    HW2 5529   2.552   4.952   6.546
 1544SOL     OW 5530   4.137   3.386   4.064
 1544SOL    HW1 5531   4.042   3.356   4.056
 1544SOL    HW2 5532   4.194   3.308   4.090
 1545SOL     OW 5533   6.462   6.602   2.612
 1545SOL    HW1 5534   6.489   6.516   2.569
 1545SOL    HW2 5535   6.428   6.584   2.705
 1546SOL     OW 5536   5.150   6.463   5.732
 1546SOL    HW1 5537   5.141   6.420   5.642
 1546SOL    HW2 5538   5.145   6.562   5.722
 1547SOL     OW 5539   1.600   3.465   6.507
 1547SOL    HW1 5540   1.620   3.384   6.562
 1547SOL    HW2 5541   1.685   3.514   6.489
 1548SOL     OW 5542   6.122   2.276   6.755
 1548SOL    HW1 5543   6.130   2.319   6.665
 1548SOL    HW2 5544   6.165   2.335   6.824
 1549SOL     OW 5545   4.658   1.182   4.820
 1549SOL    HW1 5546   4.666   1.115   4.746
 1549SOL    HW2 5547   4.599   1.257   4.791
 1550SOL     OW 5548   3.809   2.965   3.103
 1550SOL    HW1 5549   3.809   2.866   3.090
 1550SOL    HW2 5550   3.817   3.010   3.014
 1551SOL     OW 5551   0.174   5.424   6.176
 1551SOL    HW1 5552   0.173   5.335   6.222
 1551SOL    HW2 5553   0.091   5.434   6.121
 1552SOL     OW 5554   2.351   4.196   1.870
 1552SOL    HW1 5555   2.255   4.211   1.893
 1552SOL    HW2 5556   2.404   4.276   1.898
 1553SOL     OW 5557   6.961   1.519   5.650
 1553SOL    HW1 5558   6.890   1.541   5.717
 1553SOL    HW2 5559   6.964   1.589   5.579
 1554SOL     OW 5560   2.671   1.737   3.805
 1554SOL    HW1 5561   2.738   1.782   3.863
 1554SOL    HW2 5562   2.639   1.653   3.850
 1555SOL     OW 5563   6.945   3.280   6.149
 1555SOL    HW1 5564   6.910   3.319   6.234
 1555SOL    HW2 5565   0.021   3.305   6.137
 1556SOL     OW 5566   2.093   1.456   5.904
 1556SOL    HW1 5567   2.052   1.503   5.826
 1556SOL    HW2 5568   2.043   1.372   5.923
 1557SOL     OW 5569   0.701   3.486   6.627
 1557SOL    HW1 5570   0.650   3.428   6.691
 1557SOL    HW2 5571   0.643   3.507   6.548
 1558SOL     OW 5572   6.648   0.512   5.199
 1558SOL    HW1 5573   6.591   0.430   5.198
 1558SOL    HW2 5574   6.736   0.492   5.242
 1559SOL     OW 5575   0.369   2.402   5.851
 1559SOL    HW1 5576   0.297   2.441   5.795
 1559SOL    HW2 5577   0.428   2.344   5.795
 1560SOL     OW 5578   6.914   0.670   6.474
 1560SOL    HW1 5579   6.943   0.682   6.569
 1560SOL    HW2 5580   6.924   0.756   6.425
 1561SOL     OW 5581   5.827   6.022   2.718
 1561SOL    HW1 5582   5.847   6.009   2.621
 1561SOL    HW2 5583   5.777   6.108   2.731
 1562SOL     OW 5584   5.570   0.336   3.117
 1562SOL    HW1 5585   5.540   0.308   3.208
 1562SOL    HW2 5586   5.624   0.263   3.076
 1563SOL     OW 5587   3.701   1.281   5.839
 1563SOL    HW1 5588   3.647   1.303   5.921
 1563SOL    HW2 5589   3.782   1.229   5.866
 1564SOL     OW 5590   1.809   2.227   2.815
 1564SOL    HW1 5591   1.751   2.263   2.888
 1564SOL    HW2 5592   1.752   2.194   2.740
 1565SOL     OW 5593   5.002   3.577   1.759
 1565SOL    HW1 5594   4.937   3.511   1.798
 1565SOL    HW2 5595   4.970   3.605   1.668
 1566SOL     OW 5596   5.285   4.112   3.681
 1566SOL    HW1 5597   5.326   4.128   3.770
 1566SOL    HW2 5598   5.200   4.164   3.673
 1567SOL     OW 5599   6.942   5.605   5.702
 1567SOL    HW1 5600   7.013   5.589   5.634
 1567SOL    HW2 5601   6.973   5.672   5.769
 1568SOL     OW 5602   0.322   0.355   0.956
 1568SOL    HW1 5603   0.353   0.266   0.991
 1568SOL    HW2 5604   0.319   0.352   0.856
 1569SOL     OW 5605   3.858   5.911   5.639
 1569SOL    HW1 5606   3.868   5.910   5.738
 1569SOL    HW2 5607   3.940   5.872   5.597
 1570SOL     OW 5608   3.208   1.971   1.593
 1570SOL    HW1 5609   3.174   2.055   1.636
 1570SOL    HW2 5610   3.162   1.892   1.633
 1571SOL     OW 5611   6.692   3.634   1.456
 1571SOL    HW1 5612   6.773   3.575   1.455
 1571SOL    HW2 5613   6.616   3.586   1.501
 1572SOL     OW 5614   1.422   6.922   2.106
 1572SOL    HW1 5615   1.408   6.864   2.026
 1572SOL    HW2 5616   1.336   6.966   2.131
 1573SOL     OW 5617   4.128   0.513   2.014
 1573SOL    HW1 5618   4.089   0.425   1.987
 1573SOL    HW2 5619   4.084   0.587   1.963
 1574SOL     OW 5620   6.831   2.251   1.872
 1574SOL    HW1 5621   6.774   2.178   1.912
 1574SOL    HW2 5622   6.822   2.249   1.773
 1575SOL     OW 5623   1.953   2.181   0.710
 1575SOL    HW1 5624   1.890   2.255   0.732
 1575SOL    HW2 5625   2.024   2.214   0.649
 1576SOL     OW 5626   6.035   6.104   4.043
 1576SOL    HW1 5627   5.989   6.070   3.961
 1576SOL    HW2 5628   6.127   6.135   4.019
 1577SOL     OW 5629   2.886   0.180   5.852
 1577SOL    HW1 5630   2.817   0.109   5.846
 1577SOL    HW2 5631   2.880   0.240   5.772
 1578SOL     OW 5632   6.305   4.703   5.734
 1578SOL    HW1 5633   6.309   4.734   5.638
 1578SOL    HW2 5634   6.371   4.754   5.788
 1579SOL     OW 5635   0.912   0.733   3.530
 1579SOL    HW1 5636   0.852   0.656   3.551
 1579SOL    HW2 5637   0.912   0.748   3.431
 1580SOL     OW 5638   3.086   4.192   5.339
 1580SOL    HW1 5639   3.135   4.271   5.304
 1580SOL    HW2 5640   2.994   4.220   5.369
 1581SOL     OW 5641   6.783   4.462   4.265
 1581SOL    HW1 5642   6.794   4.419   4.176
 1581SOL    HW2 5643   6.723   4.406   4.323
 1582SOL     OW 5644   6.858   5.273   4.671
 1582SOL    HW1 5645   6.783   5.246   4.731
 1582SOL    HW2 5646   6.827   5.344   4.608
 1583SOL     OW 5647   1.635   2.812   2.609
 1583SOL    HW1 5648   1.563   2.879   2.589
 1583SOL    HW2 5649   1.666   2.822   2.703
 1584SOL     OW 5650   2.353   0.057   5.937
 1584SOL    HW1 5651   2.363   0.111   6.021
 1584SOL    HW2 5652   2.307   6.991   5.959
 1585SOL     OW 5653   5.034   1.536   4.530
 1585SOL    HW1 5654   5.019   1.629   4.565
 1585SOL    HW2 5655   5.067   1.478   4.603
 1586SOL     OW 5656   3.479   3.822   2.755
 1586SOL    HW1 5657   3.578   3.836   2.751
 1586SOL    HW2 5658   3.443   3.857   2.841
 1587SOL     OW 5659   3.339   6.870   6.671
 1587SOL    HW1 5660   3.328   6.796   6.605
 1587SOL    HW2 5661   3.431   6.908   6.664
 1588SOL     OW 5662   5.866   3.052   1.797
 1588SOL    HW1 5663   5.787   3.109   1.774
 1588SOL    HW2 5664   5.949   3.093   1.759
 1589SOL     OW 5665   6.159   4.117   4.055
 1589SOL    HW1 5666   6.115   4.201   4.023
 1589SOL    HW2 5667   6.139   4.042   3.992
 1590SOL     OW 5668   1.314   0.609   6.115
 1590SOL    HW1 5669   1.351   0.539   6.053
 1590SOL    HW2 5670   1.329   0.700   6.077
 1591SOL     OW 5671   1.215   4.725   1.645
 1591SOL    HW1 5672   1.273   4.644   1.654
 1591SOL    HW2 5673   1.268   4.806   1.668
 1592SOL     OW 5674   3.306   3.393   2.769
 1592SOL    HW1 5675   3.230   3.328   2.768
 1592SOL    HW2 5676   3.384   3.354   2.817
 1593SOL     OW 5677   1.030   5.282   5.104
 1593SOL    HW1 5678   1.058   5.355   5.166
 1593SOL    HW2 5679   1.018   5.319   5.012
 1594SOL     OW 5680   6.717   5.241   2.631
 1594SOL    HW1 5681   6.791   5.176   2.650
 1594SOL    HW2 5682   6.756   5.332   2.621
 1595SOL     OW 5683   6.562   4.866   6.171
 1595SOL    HW1 5684   6.589   4.815   6.253
 1595SOL    HW2 5685   6.486   4.927   6.193
 1596SOL     OW 5686   2.825   5.055   5.862
 1596SOL    HW1 5687   2.882   4.973   5.853
 1596SOL    HW2 5688   2.804   5.091   5.772
 1597SOL     OW 5689   2.740   6.421   1.471
 1597SOL    HW1 5690   2.733   6.336   1.419
 1597SOL    HW2 5691   2.785   6.491   1.416
 1598SOL     OW 5692   0.213   5.130   1.166
 1598SOL    HW1 5693   0.253   5.115   1.256
 1598SOL    HW2 5694   0.263   5.203   1.119
 1599SOL     OW 5695   3.695   4.913   6.968
 1599SOL    HW1 5696   3.791   4.941   6.967
 1599SOL    HW2 5697   3.682   4.842   0.017
 1600SOL     OW 5698   3.807   1.194   4.346
 1600SOL    HW1 5699   3.861   1.278   4.352
 1600SOL    HW2 5700   3.745   1.190   4.424
 1601SOL     OW 5701   0.971   5.351   3.743
 1601SOL    HW1 5702   0.974   5.313   3.651
 1601SOL    HW2 5703   1.062   5.381   3.770
 1602SOL     OW 5704   1.320   4.917   3.502
 1602SOL    HW1 5705   1.274   5.002   3.527
 1602SOL    HW2 5706   1.257   4.840   3.515
 1603SOL     OW 5707   6.808   6.731   1.787
 1603SOL    HW1 5708   6.842   6.683   1.868
 1603SOL    HW2 5709   6.782   6.665   1.717
 1604SOL     OW 5710   0.648   5.672   6.439
 1604SOL    HW1 5711   0.606   5.631   6.358
 1604SOL    HW2 5712   0.707   5.748   6.410
 1605SOL     OW 5713   5.392   6.383   3.253
 1605SOL    HW1 5714   5.482   6.359   3.216
 1605SOL    HW2 5715   5.360   6.468   3.211
 1606SOL     OW 5716   5.114   6.789   6.579
 1606SOL    HW1 5717   5.082   6.721   6.513
 1606SOL    HW2 5718   5.126   6.746   6.668
 1607SOL     OW 5719   4.012   1.814   0.861
 1607SOL    HW1 5720   3.984   1.718   0.860
 1607SOL    HW2 5721   3.968   1.862   0.785
 1608SOL     OW 5722   2.653   0.249   0.525
 1608SOL    HW1 5723   2.567   0.207   0.553
 1608SOL    HW2 5724   2.635   0.320   0.457
 1609SOL     OW 5725   4.745   2.124   5.605
 1609SOL    HW1 5726   4.675   2.125   5.677
 1609SOL    HW2 5727   4.773   2.030   5.586
 1610SOL     OW 5728   6.468   5.367   4.778
 1610SOL    HW1 5729   6.429   5.294   4.835
 1610SOL    HW2 5730   6.403   5.442   4.771
 1611SOL     OW 5731   2.932   3.663   1.532
 1611SOL    HW1 5732   2.967   3.570   1.516
 1611SOL    HW2 5733   2.885   3.695   1.450
 1612SOL     OW 5734   2.742   0.655   4.622
 1612SOL    HW1 5735   2.778   0.724   4.559
 1612SOL    HW2 5736   2.676   0.597   4.575
 1613SOL     OW 5737   2.168   6.004   0.513
 1613SOL    HW1 5738   2.260   5.983   0.546
 1613SOL    HW2 5739   2.140   6.094   0.546
 1614SOL     OW 5740   6.233   2.405   6.950
 1614SOL    HW1 5741   6.270   2.395   0.023
 1614SOL    HW2 5742   6.289   2.471   6.899
 1615SOL     OW 5743   6.477   5.032   6.719
 1615SOL    HW1 5744   6.528   5.108   6.677
 1615SOL    HW2 5745   6.385   5.063   6.742
 1616SOL     OW 5746   3.391   2.099   5.987
 1616SOL    HW1 5747   3.404   2.128   5.893
 1616SOL    HW2 5748   3.354   2.006   5.990
 1617SOL     OW 5749   4.781   0.375   3.474
 1617SOL    HW1 5750   4.858   0.429   3.508
 1617SOL    HW2 5751   4.754   0.410   3.384
 1618SOL     OW 5752   5.281   2.512   1.118
 1618SOL    HW1 5753   5.213   2.504   1.045
 1618SOL    HW2 5754   5.242   2.565   1.194
 1619SOL     OW 5755   1.440   3.123   4.570
 1619SOL    HW1 5756   1.386   3.174   4.502
 1619SOL    HW2 5757   1.423   3.025   4.559
 1620SOL     OW 5758   3.047   5.395   1.395
 1620SOL    HW1 5759   3.093   5.322   1.345
 1620SOL    HW2 5760   2.991   5.356   1.468
 1621SOL     OW 5761   1.570   0.991   1.644
 1621SOL    HW1 5762   1.642   0.985   1.575
 1621SOL    HW2 5763   1.584   0.920   1.713
 1622SOL     OW 5764   1.915   2.004   4.563
 1622SOL    HW1 5765   1.933   1.907   4.580
 1622SOL    HW2 5766   1.937   2.026   4.468
 1623SOL     OW 5767   3.019   2.436   5.316
 1623SOL    HW1 5768   2.932   2.448   5.269
 1623SOL    HW2 5769   3.075   2.370   5.266
 1624SOL     OW 5770   1.963   1.102   0.451
 1624SOL    HW1 5771   1.907   1.145   0.522
 1624SOL    HW2 5772   1.924   1.122   0.361
 1625SOL     OW 5773   0.566   5.193   2.131
 1625SOL    HW1 5774   0.546   5.286   2.101
 1625SOL    HW2 5775   0.579   5.134   2.051
 1626SOL     OW 5776   1.982   1.958   6.568
 1626SOL    HW1 5777   1.916   2.005   6.509
 1626SOL    HW2 5778   1.996   1.865   6.535
 1627SOL     OW 5779   5.648   3.101   3.757
 1627SOL    HW1 5780   5.645   3.048   3.672
 1627SOL    HW2 5781   5.743   3.129   3.774
 1628SOL     OW 5782   3.058   3.977   7.010
 1628SOL    HW1 5783   3.050   3.880   0.013
 1628SOL    HW2 5784   3.154   4.005   7.015
 1629SOL     OW 5785   4.219   2.228   3.389
 1629SOL    HW1 5786   4.258   2.295   3.452
 1629SOL    HW2 5787   4.186   2.149   3.441
 1630SOL     OW 5788   0.183   4.961   4.951
 1630SOL    HW1 5789   0.112   5.028   4.930
 1630SOL    HW2 5790   0.258   5.005   5.001
 1631SOL     OW 5791   0.482   6.816   5.803
 1631SOL    HW1 5792   0.503   6.912   5.785
 1631SOL    HW2 5793   0.385   6.799   5.788
 1632SOL     OW 5794   5.898   0.846   1.515
 1632SOL    HW1 5795   5.977   0.814   1.464
 1632SOL    HW2 5796   5.878   0.784   1.591
 1633SOL     OW 5797   5.419   2.567   3.691
 1633SOL    HW1 5798   5.451   2.626   3.766
 1633SOL    HW2 5799   5.363   2.493   3.727
 1634SOL     OW 5800   3.502   1.173   6.687
 1634SOL    HW1 5801   3.430   1.144   6.623
 1634SOL    HW2 5802   3.516   1.271   6.678
 1635SOL     OW 5803   0.159   5.497   4.166
 1635SOL    HW1 5804   0.190   5.412   4.124
 1635SOL    HW2 5805   0.238   5.554   4.187
 1636SOL     OW 5806   2.093   5.930   1.101
 1636SOL    HW1 5807   2.057   5.838   1.085
 1636SOL    HW2 5808   2.107   5.975   1.014
 1637SOL     OW 5809   0.130   3.562   1.774
 1637SOL    HW1 5810   0.065   3.520   1.838
 1637SOL    HW2 5811   0.116   3.661   1.773
 1638SOL     OW 5812   1.021   2.824   4.614
 1638SOL    HW1 5813   0.990   2.731   4.633
 1638SOL    HW2 5814   1.066   2.862   4.695
 1639SOL     OW 5815   5.198   4.838   2.196
 1639SOL    HW1 5816   5.154   4.921   2.160
 1639SOL    HW2 5817   5.236   4.858   2.286
 1640SOL     OW 5818   5.977   0.212   1.365
 1640SOL    HW1 5819   6.055   0.273   1.354
 1640SOL    HW2 5820   5.918   0.217   1.284
 1641SOL     OW 5821   6.067   2.289   5.497
 1641SOL    HW1 5822   6.139   2.353   5.471
 1641SOL    HW2 5823   5.984   2.311   5.447
 1642SOL     OW 5824   0.229   2.507   1.836
 1642SOL    HW1 5825   0.183   2.587   1.797
 1642SOL    HW2 5826   0.209   2.426   1.779
 1643SOL     OW 5827   4.430   0.579   5.570
 1643SOL    HW1 5828   4.443   0.677   5.581
 1643SOL    HW2 5829   4.517   0.532   5.586
 1644SOL     OW 5830   3.202   0.546   1.280
 1644SOL    HW1 5831   3.212   0.560   1.378
 1644SOL    HW2 5832   3.157   0.457   1.263
 1645SOL     OW 5833   2.195   0.477   6.701
 1645SOL    HW1 5834   2.101   0.511   6.710
 1645SOL    HW2 5835   2.201   0.384   6.737
 1646SOL     OW 5836   0.954   3.658   1.431
 1646SOL    HW1 5837   0.919   3.585   1.372
 1646SOL    HW2 5838   0.976   3.619   1.521
 1647SOL     OW 5839   5.576   3.492   3.776
 1647SOL    HW1 5840   5.628   3.442   3.707
 1647SOL    HW2 5841   5.515   3.557   3.732
 1648SOL     OW 5842   4.596   0.231   2.241
 1648SOL    HW1 5843   4.545   0.287   2.306
 1648SOL    HW2 5844   4.613   0.284   2.158
 1649SOL     OW 5845   3.190   0.758   3.177
 1649SOL    HW1 5846   3.255   0.798   3.112
 1649SOL    HW2 5847   3.211   0.662   3.190
 1650SOL     OW 5848   2.916   6.210   3.825
 1650SOL    HW1 5849   2.826   6.172   3.844
 1650SOL    HW2 5850   2.931   6.291   3.882
 1651SOL     OW 5851   1.538   6.932   0.591
 1651SOL    HW1 5852   1.519   6.952   0.494
 1651SOL    HW2 5853   1.458   6.958   0.646
 1652SOL     OW 5854   2.806   2.652   1.415
 1652SOL    HW1 5855   2.812   2.696   1.505
 1652SOL    HW2 5856   2.784   2.556   1.426
 1653SOL     OW 5857   0.734   5.885   1.479
 1653SOL    HW1 5858   0.759   5.791   1.500
 1653SOL    HW2 5859   0.670   5.919   1.547
 1654SOL     OW 5860   0.435   3.406   2.907
 1654SOL    HW1 5861   0.442   3.488   2.965
 1654SOL    HW2 5862   0.351   3.410   2.853
 1655SOL     OW 5863   4.878   4.874   6.222
 1655SOL    HW1 5864   4.797   4.851   6.275
 1655SOL    HW2 5865   4.958   4.832   6.264
 1656SOL     OW 5866   0.575   4.995   3.225
 1656SOL    HW1 5867   0.630   5.042   3.293
 1656SOL    HW2 5868   0.548   5.059   3.153
 1657SOL     OW 5869   1.166   0.557   5.099
 1657SOL    HW1 5870   1.198   0.640   5.146
 1657SOL    HW2 5871   1.067   0.564   5.084
 1658SOL     OW 5872   6.158   6.225   2.629
 1658SOL    HW1 5873   6.234   6.169   2.663
 1658SOL    HW2 5874   6.117   6.179   2.550
 1659SOL     OW 5875   4.035   2.121   5.659
 1659SOL    HW1 5876   3.948   2.115   5.708
 1659SOL    HW2 5877   4.023   2.086   5.566
 1660SOL     OW 5878   1.353   5.629   3.447
 1660SOL    HW1 5879   1.353   5.593   3.540
 1660SOL    HW2 5880   1.447   5.651   3.419
 1661SOL     OW 5881   2.527   0.199   2.267
 1661SOL    HW1 5882   2.449   0.207   2.206
 1661SOL    HW2 5883   2.605   0.249   2.229
 1662SOL     OW 5884   0.521   0.555   2.762
 1662SOL    HW1 5885   0.502   0.653   2.755
 1662SOL    HW2 5886   0.576   0.527   2.683
 1663SOL     OW 5887   2.676   0.028   3.465
 1663SOL    HW1 5888   2.585   0.015   3.426
 1663SOL    HW2 5889   2.731   6.966   3.451
 1664SOL     OW 5890   2.327   5.841   4.786
 1664SOL    HW1 5891   2.265   5.899   4.734
 1664SOL    HW2 5892   2.375   5.779   4.724
 1665SOL     OW 5893   7.013   0.347   3.931
 1665SOL    HW1 5894   0.034   0.314   4.016
 1665SOL    HW2 5895   0.060   0.339   3.856
 1666SOL     OW 5896   6.013   2.278   5.985
 1666SOL    HW1 5897   5.982   2.331   6.064
 1666SOL    HW2 5898   5.936   2.228   5.945
 1667SOL     OW 5899   6.424   0.609   6.176
 1667SOL    HW1 5900   6.368   0.678   6.129
 1667SOL    HW2 5901   6.517   0.611   6.139
 1668SOL     OW 5902   3.523   1.107   5.388
 1668SOL    HW1 5903   3.513   1.116   5.487
 1668SOL    HW2 5904   3.465   1.032   5.356
 1669SOL     OW 5905   5.890   6.676   6.656
 1669SOL    HW1 5906   5.794   6.697   6.635
 1669SOL    HW2 5907   5.917   6.592   6.609
 1670SOL     OW 5908   5.819   4.259   5.742
 1670SOL    HW1 5909   5.797   4.216   5.829
 1670SOL    HW2 5910   5.896   4.210   5.699
 1671SOL     OW 5911   5.898   3.594   0.571
 1671SOL    HW1 5912   5.878   3.627   0.478
 1671SOL    HW2 5913   5.832   3.524   0.597
 1672SOL     OW 5914   1.766   5.122   2.233
 1672SOL    HW1 5915   1.857   5.157   2.212
 1672SOL    HW2 5916   1.723   5.179   2.303
 1673SOL     OW 5917   6.945   2.201   4.094
 1673SOL    HW1 5918   6.963   2.129   4.027
 1673SOL    HW2 5919   0.012   2.243   4.122
 1674SOL     OW 5920   0.274   4.162   6.278
 1674SOL    HW1 5921   0.337   4.121   6.343
 1674SOL    HW2 5922   0.311   4.248   6.244
 1675SOL     OW 5923   4.984   1.910   6.732
 1675SOL    HW1 5924   4.939   1.980   6.787
 1675SOL    HW2 5925   4.920   1.876   6.663
 1676SOL     OW 5926   1.628   0.112   2.986
 1676SOL    HW1 5927   1.605   0.021   3.021
 1676SOL    HW2 5928   1.615   0.113   2.887
 1677SOL     OW 5929   5.835   1.518   5.308
 1677SOL    HW1 5930   5.751   1.481   5.268
 1677SOL    HW2 5931   5.903   1.445   5.318
 1678SOL     OW 5932   5.170   0.393   1.319
 1678SOL    HW1 5933   5.193   0.296   1.333
 1678SOL    HW2 5934   5.118   0.402   1.234
 1679SOL     OW 5935   0.418   3.713   6.724
 1679SOL    HW1 5936   0.458   3.732   6.635
 1679SOL    HW2 5937   0.371   3.625   6.721
 1680SOL     OW 5938   0.983   1.615   4.364
 1680SOL    HW1 5939   0.999   1.635   4.268
 1680SOL    HW2 5940   0.956   1.699   4.412
 1681SOL     OW 5941   6.652   5.456   1.051
 1681SOL    HW1 5942   6.723   5.524   1.069
 1681SOL    HW2 5943   6.652   5.388   1.125
 1682SOL     OW 5944   6.426   3.397   5.645
 1682SOL    HW1 5945   6.410   3.349   5.559
 1682SOL    HW2 5946   6.502   3.462   5.633
 1683SOL     OW 5947   5.601   5.700   0.794
 1683SOL    HW1 5948   5.611   5.722   0.697
 1683SOL    HW2 5949   5.566   5.780   0.843
 1684SOL     OW 5950   0.755   5.785   5.031
 1684SOL    HW1 5951   0.778   5.706   5.088
 1684SOL    HW2 5952   0.696   5.757   4.956
 1685SOL     OW 5953   1.404   1.477   0.352
 1685SOL    HW1 5954   1.342   1.469   0.430
 1685SOL    HW2 5955   1.453   1.564   0.357
 1686SOL     OW 5956   1.657   6.869   0.063
 1686SOL    HW1 5957   1.717   6.947   0.082
 1686SOL    HW2 5958   1.709   6.797   0.018
 1687SOL     OW 5959   1.527   6.680   1.666
 1687SOL    HW1 5960   1.619   6.710   1.640
 1687SOL    HW2 5961   1.531   6.586   1.700
 1688SOL     OW 5962   0.777   2.227   3.402
 1688SOL    HW1 5963   0.751   2.304   3.461
 1688SOL    HW2 5964   0.712   2.220   3.326
 1689SOL     OW 5965   1.900   1.283   3.282
 1689SOL    HW1 5966   1.960   1.252   3.356
 1689SOL    HW2 5967   1.900   1.383   3.278
 1690SOL     OW 5968   0.973   1.118   0.891
 1690SOL    HW1 5969   0.906   1.174   0.940
 1690SOL    HW2 5970   1.063   1.160   0.897
 1691SOL     OW 5971   5.368   4.263   2.506
 1691SOL    HW1 5972   5.337   4.290   2.415
 1691SOL    HW2 5973   5.302   4.199   2.545
 1692SOL     OW 5974   1.586   0.587   3.427
 1692SOL    HW1 5975   1.489   0.610   3.431
 1692SOL    HW2 5976   1.597   0.488   3.439
 1693SOL     OW 5977   2.785   2.295   3.699
 1693SOL    HW1 5978   2.785   2.306   3.798
 1693SOL    HW2 5979   2.871   2.253   3.670
 1694SOL     OW 5980   4.912   5.838   5.223
 1694SOL    HW1 5981   4.946   5.919   5.271
 1694SOL    HW2 5982   4.926   5.849   5.125
 1695SOL     OW 5983   2.805   2.621   5.664
 1695SOL    HW1 5984   2.844   2.531   5.646
 1695SOL    HW2 5985   2.717   2.629   5.617
 1696SOL     OW 5986   4.308   5.884   0.722
 1696SOL    HW1 5987   4.221   5.925   0.694
 1696SOL    HW2 5988   4.297   5.785   0.729
 1697SOL     OW 5989   0.556   1.245   2.065
 1697SOL    HW1 5990   0.635   1.233   2.126
 1697SOL    HW2 5991   0.570   1.326   2.009
 1698SOL     OW 5992   4.692   2.059   1.450
 1698SOL    HW1 5993   4.665   2.129   1.516
 1698SOL    HW2 5994   4.790   2.065   1.432
 1699SOL     OW 5995   2.377   3.229   1.325
 1699SOL    HW1 5996   2.289   3.182   1.335
 1699SOL    HW2 5997   2.384   3.269   1.234
 1700SOL     OW 5998   6.427   3.315   3.586
 1700SOL    HW1 5999   6.435   3.239   3.522
 1700SOL    HW2 6000   6.495   3.305   3.658
 1701SOL     OW 6001   5.363   3.354   4.593
 1701SOL    HW1 6002   5.366   3.352   4.693
 1701SOL    HW2 6003   5.330   3.266   4.559
 1702SOL     OW 6004   4.954   2.895   0.454
 1702SOL    HW1 6005   4.963   2.817   0.392
 1702SOL    HW2 6006   4.972   2.866   0.548
 1703SOL     OW 6007   1.787   3.845   0.283
 1703SOL    HW1 6008   1.759   3.876   0.192
 1703SOL    HW2 6009   1.733   3.765   0.309
 1704SOL     OW 6010   0.882   1.329   2.173
 1704SOL    HW1 6011   0.942   1.357   2.248
 1704SOL    HW2 6012   0.819   1.403   2.150
 1705SOL     OW 6013   4.389   3.134   1.672
 1705SOL    HW1 6014   4.351   3.224   1.651
 1705SOL    HW2 6015   4.466   3.145   1.735
 1706SOL     OW 6016   2.895   1.088   0.136
 1706SOL    HW1 6017   2.944   1.167   0.099
 1706SOL    HW2 6018   2.927   1.005   0.091
 1707SOL     OW 6019   5.259   2.361   3.077
 1707SOL    HW1 6020   5.198   2.283   3.061
 1707SOL    HW2 6021   5.344   2.328   3.118
 1708SOL     OW 6022   6.912   4.961   3.014
 1708SOL    HW1 6023   6.840   4.993   3.075
 1708SOL    HW2 6024   6.984   5.030   3.008
 1709SOL     OW 6025   3.049   5.887   2.794
 1709SOL    HW1 6026   2.975   5.875   2.728
 1709SOL    HW2 6027   3.113   5.956   2.759
 1710SOL     OW 6028   0.127   6.147   4.302
 1710SOL    HW1 6029   0.154   6.169   4.396
 1710SOL    HW2 6030   0.042   6.195   4.280
 1711SOL     OW 6031   1.605   4.326   5.673
 1711SOL    HW1 6032   1.586   4.422   5.693
 1711SOL    HW2 6033   1.619   4.315   5.575
 1712SOL     OW 6034   0.699   4.511   0.657
 1712SOL    HW1 6035   0.691   4.442   0.585
 1712SOL    HW2 6036   0.655   4.596   0.627
 1713SOL     OW 6037   0.987   3.255   0.704
 1713SOL    HW1 6038   1.064   3.265   0.767
 1713SOL    HW2 6039   0.934   3.173   0.728
 1714SOL     OW 6040   3.113   1.730   0.555
 1714SOL    HW1 6041   3.173   1.690   0.624
 1714SOL    HW2 6042   3.158   1.728   0.466
 1715SOL     OW 6043   0.051   3.336   3.574
 1715SOL    HW1 6044   0.067   3.317   3.671
 1715SOL    HW2 6045   0.023   3.431   3.563
 1716SOL     OW 6046   0.094   6.600   0.387
 1716SOL    HW1 6047   0.008   6.621   0.341
 1716SOL    HW2 6048   0.158   6.676   0.375
 1717SOL     OW 6049   2.985   0.625   6.891
 1717SOL    HW1 6050   3.015   0.530   6.902
 1717SOL    HW2 6051   2.972   0.645   6.794
 1718SOL     OW 6052   1.324   4.757   6.010
 1718SOL    HW1 6053   1.356   4.757   5.915
 1718SOL    HW2 6054   1.297   4.849   6.037
 1719SOL     OW 6055   2.178   3.485   1.671
 1719SOL    HW1 6056   2.127   3.399   1.673
 1719SOL    HW2 6057   2.228   3.496   1.757
 1720SOL     OW 6058   6.550   1.126   1.019
 1720SOL    HW1 6059   6.643   1.158   1.033
 1720SOL    HW2 6060   6.495   1.200   0.979
 1721SOL     OW 6061   1.954   6.334   3.880
 1721SOL    HW1 6062   2.005   6.299   3.802
 1721SOL    HW2 6063   1.884   6.398   3.849
 1722SOL     OW 6064   5.922   6.427   2.270
 1722SOL    HW1 6065   5.892   6.480   2.190
 1722SOL    HW2 6066   5.872   6.340   2.273
 1723SOL     OW 6067   6.278   1.517   2.423
 1723SOL    HW1 6068   6.348   1.558   2.481
 1723SOL    HW2 6069   6.209   1.586   2.400
 1724SOL     OW 6070   5.059   0.769   0.014
 1724SOL    HW1 6071   5.024   0.858   7.003
 1724SOL    HW2 6072   5.130   0.738   6.971
 1725SOL     OW 6073   3.924   4.568   1.635
 1725SOL    HW1 6074   3.984   4.488   1.632
 1725SOL    HW2 6075   3.973   4.644   1.677
 1726SOL     OW 6076   0.818   4.425   4.553
 1726SOL    HW1 6077   0.817   4.455   4.457
 1726SOL    HW2 6078   0.882   4.482   4.605
 1727SOL     OW 6079   3.411   3.697   5.342
 1727SOL    HW1 6080   3.380   3.710   5.436
 1727SOL    HW2 6081   3.339   3.728   5.279
 1728SOL     OW 6082   4.483   4.522   3.096
 1728SOL    HW1 6083   4.493   4.621   3.107
 1728SOL    HW2 6084   4.488   4.498   2.999
 1729SOL     OW 6085   2.161   3.698   3.031
 1729SOL    HW1 6086   2.129   3.736   2.944
 1729SOL    HW2 6087   2.226   3.761   3.073
 1730SOL     OW 6088   6.079   2.575   5.385
 1730SOL    HW1 6089   6.000   2.587   5.325
 1730SOL    HW2 6090   6.054   2.601   5.478
 1731SOL     OW 6091   1.803   5.372   0.437
 1731SOL    HW1 6092   1.813   5.359   0.536
 1731SOL    HW2 6093   1.851   5.299   0.389
 1732SOL     OW 6094   0.441   4.740   0.023
 1732SOL    HW1 6095   0.405   4.744   6.949
 1732SOL    HW2 6096   0.539   4.720   0.020
 1733SOL     OW 6097   1.696   3.752   0.681
 1733SOL    HW1 6098   1.720   3.793   0.769
 1733SOL    HW2 6099   1.773   3.761   0.618
 1734SOL     OW 6100   4.908   2.535   0.699
 1734SOL    HW1 6101   4.875   2.517   0.606
 1734SOL    HW2 6102   4.833   2.523   0.764
 1735SOL     OW 6103   6.147   4.970   1.446
 1735SOL    HW1 6104   6.050   4.994   1.450
 1735SOL    HW2 6105   6.200   5.051   1.420
 1736SOL     OW 6106   3.997   3.366   0.616
 1736SOL    HW1 6107   4.016   3.269   0.631
 1736SOL    HW2 6108   3.898   3.380   0.608
 1737SOL     OW 6109   2.117   6.527   4.003
 1737SOL    HW1 6110   2.043   6.475   3.962
 1737SOL    HW2 6111   2.171   6.467   4.062
 1738SOL     OW 6112   2.148   2.859   2.269
 1738SOL    HW1 6113   2.162   2.958   2.258
 1738SOL    HW2 6114   2.075   2.829   2.209
 1739SOL     OW 6115   4.305   1.558   4.954
 1739SOL    HW1 6116   4.224   1.590   5.004
 1739SOL    HW2 6117   4.297   1.584   4.858
 1740SOL     OW 6118   0.678   1.304   5.761
 1740SOL    HW1 6119   0.738   1.224   5.752
 1740SOL    HW2 6120   0.582   1.274   5.760
 1741SOL     OW 6121   1.337   0.067   2.875
 1741SOL    HW1 6122   1.371   0.015   2.953
 1741SOL    HW2 6123   1.280   0.143   2.907
 1742SOL     OW 6124   6.108   0.819   4.757
 1742SOL    HW1 6125   6.164   0.806   4.839
 1742SOL    HW2 6126   6.162   0.794   4.676
 1743SOL     OW 6127   4.039   1.308   1.130
 1743SOL    HW1 6128   4.067   1.240   1.062
 1743SOL    HW2 6129   4.029   1.397   1.086
 1744SOL     OW 6130   2.734   0.665   0.873
 1744SOL    HW1 6131   2.680   0.746   0.851
 1744SOL    HW2 6132   2.702   0.588   0.817
 1745SOL     OW 6133   0.254   2.268   3.158
 1745SOL    HW1 6134   0.311   2.209   3.101
 1745SOL    HW2 6135   0.158   2.239   3.151
 1746SOL     OW 6136   2.776   1.000   5.889
 1746SOL    HW1 6137   2.743   0.945   5.966
 1746SOL    HW2 6138   2.761   0.949   5.804
 1747SOL     OW 6139   3.237   0.172   1.936
 1747SOL    HW1 6140   3.240   0.259   1.986
 1747SOL    HW2 6141   3.297   0.106   1.982
 1748SOL     OW 6142   5.588   2.145   2.180
 1748SOL    HW1 6143   5.515   2.213   2.190
 1748SOL    HW2 6144   5.598   2.121   2.083
 1749SOL     OW 6145   3.943   0.084   6.340
 1749SOL    HW1 6146   3.989   0.088   6.251
 1749SOL    HW2 6147   4.005   0.119   6.410
 1750SOL     OW 6148   4.571   1.005   3.329
 1750SOL    HW1 6149   4.528   1.045   3.410
 1750SOL    HW2 6150   4.585   1.076   3.260
 1751SOL     OW 6151   2.159   5.746   3.706
 1751SOL    HW1 6152   2.172   5.800   3.623
 1751SOL    HW2 6153   2.061   5.745   3.730
 1752SOL     OW 6154   6.002   2.248   0.639
 1752SOL    HW1 6155   5.993   2.197   0.724
 1752SOL    HW2 6156   5.961   2.196   0.564
 1753SOL     OW 6157   1.698   0.250   1.762
 1753SOL    HW1 6158   1.665   0.157   1.776
 1753SOL    HW2 6159   1.620   0.312   1.759
 1754SOL     OW 6160   4.143   3.398   0.841
 1754SOL    HW1 6161   4.238   3.381   0.814
 1754SOL    HW2 6162   4.089   3.418   0.759
 1755SOL     OW 6163   5.360   3.900   0.607
 1755SOL    HW1 6164   5.333   3.817   0.655
 1755SOL    HW2 6165   5.377   3.973   0.673
 1756SOL     OW 6166   6.698   5.667   4.591
 1756SOL    HW1 6167   6.773   5.714   4.545
 1756SOL    HW2 6168   6.692   5.573   4.557
 1757SOL     OW 6169   2.823   6.873   4.754
 1757SOL    HW1 6170   2.760   6.931   4.805
 1757SOL    HW2 6171   2.843   6.915   4.665
 1758SOL     OW 6172   2.075   0.647   3.026
 1758SOL    HW1 6173   2.030   0.711   3.089
 1758SOL    HW2 6174   2.007   0.583   2.990
 1759SOL     OW 6175   0.776   5.814   6.903
 1759SOL    HW1 6176   0.749   5.718   6.913
 1759SOL    HW2 6177   0.845   5.837   6.971
 1760SOL     OW 6178   6.196   0.592   2.606
 1760SOL    HW1 6179   6.294   0.614   2.600
 1760SOL    HW2 6180   6.143   0.665   2.562
 1761SOL     OW 6181   6.823   2.624   1.102
 1761SOL    HW1 6182   6.812   2.688   1.178
 1761SOL    HW2 6183   6.750   2.556   1.106
 1762SOL     OW 6184   6.522   1.735   6.235
 1762SOL    HW1 6185   6.551   1.643   6.258
 1762SOL    HW2 6186   6.480   1.735   6.144
 1763SOL     OW 6187   2.180   3.995   3.834
 1763SOL    HW1 6188   2.218   3.933   3.766
 1763SOL    HW2 6189   2.101   3.951   3.878
 1764SOL     OW 6190   6.964   3.307   3.997
 1764SOL    HW1 6191   6.929   3.400   3.992
 1764SOL    HW2 6192   0.022   3.297   3.936
 1765SOL     OW 6193   2.843   2.363   6.298
 1765SOL    HW1 6194   2.787   2.331   6.375
 1765SOL    HW2 6195   2.849   2.462   6.301
 1766SOL     OW 6196   5.500   3.068   5.096
 1766SOL    HW1 6197   5.589   3.027   5.114
 1766SOL    HW2 6198   5.495   3.159   5.138
 1767SOL     OW 6199   5.773   3.249   2.556
 1767SOL    HW1 6200   5.797   3.158   2.524
 1767SOL    HW2 6201   5.725   3.299   2.484
 1768SOL     OW 6202   5.430   6.832   4.035
 1768SOL    HW1 6203   5.368   6.796   3.965
 1768SOL    HW2 6204   5.501   6.764   4.054
 1769SOL     OW 6205   4.230   1.515   2.355
 1769SOL    HW1 6206   4.266   1.523   2.262
 1769SOL    HW2 6207   4.131   1.525   2.353
 1770SOL     OW 6208   1.968   5.702   5.569
 1770SOL    HW1 6209   1.925   5.621   5.529
 1770SOL    HW2 6210   2.038   5.673   5.635
 1771SOL     OW 6211   4.529   5.817   6.764
 1771SOL    HW1 6212   4.609   5.849   6.714
 1771SOL    HW2 6213   4.446   5.855   6.723
 1772SOL     OW 6214   3.621   6.425   3.263
 1772SOL    HW1 6215   3.583   6.499   3.207
 1772SOL    HW2 6216   3.721   6.432   3.265
 1773SOL     OW 6217   1.152   5.670   6.061
 1773SOL    HW1 6218   1.128   5.764   6.041
 1773SOL    HW2 6219   1.210   5.666   6.143
 1774SOL     OW 6220   4.168   5.175   1.581
 1774SOL    HW1 6221   4.166   5.273   1.597
 1774SOL    HW2 6222   4.203   5.129   1.663
 1775SOL     OW 6223   0.626   4.313   2.291
 1775SOL    HW1 6224   0.561   4.386   2.268
 1775SOL    HW2 6225   0.590   4.260   2.368
 1776SOL     OW 6226   3.295   6.103   4.895
 1776SOL    HW1 6227   3.381   6.054   4.886
 1776SOL    HW2 6228   3.221   6.049   4.855
 1777SOL     OW 6229   4.252   6.180   0.866
 1777SOL    HW1 6230   4.188   6.152   0.938
 1777SOL    HW2 6231   4.316   6.106   0.847
 1778SOL     OW 6232   5.369   3.625   5.842
 1778SOL    HW1 6233   5.301   3.691   5.809
 1778SOL    HW2 6234   5.339   3.532   5.821
 1779SOL     OW 6235   3.832   0.220   4.794
 1779SOL    HW1 6236   3.813   0.122   4.796
 1779SOL    HW2 6237   3.843   0.253   4.887
 1780SOL     OW 6238   3.376   3.448   6.233
 1780SOL    HW1 6239   3.299   3.384   6.243
 1780SOL    HW2 6240   3.458   3.397   6.206
 1781SOL     OW 6241   3.735   5.673   2.834
 1781SOL    HW1 6242   3.672   5.731   2.885
 1781SOL    HW2 6243   3.699   5.579   2.832
 1782SOL     OW 6244   2.894   1.397   3.599
 1782SOL    HW1 6245   2.979   1.447   3.580
 1782SOL    HW2 6246   2.819   1.439   3.548
 1783SOL     OW 6247   1.890   5.824   6.658
 1783SOL    HW1 6248   1.952   5.895   6.624
 1783SOL    HW2 6249   1.919   5.735   6.623
 1784SOL     OW 6250   3.452   6.922   5.845
 1784SOL    HW1 6251   3.470   6.957   5.938
 1784SOL    HW2 6252   3.389   6.845   5.851
 1785SOL     OW 6253   6.303   3.738   2.671
 1785SOL    HW1 6254   6.233   3.779   2.613
 1785SOL    HW2 6255   6.381   3.711   2.615
 1786SOL     OW 6256   3.402   2.242   0.918
 1786SOL    HW1 6257   3.374   2.307   0.989
 1786SOL    HW2 6258   3.336   2.243   0.843
 1787SOL     OW 6259   3.505   1.302   6.050
 1787SOL    HW1 6260   3.504   1.211   6.090
 1787SOL    HW2 6261   3.411   1.331   6.032
 1788SOL     OW 6262   1.692   5.167   5.502
 1788SOL    HW1 6263   1.696   5.260   5.467
 1788SOL    HW2 6264   1.784   5.133   5.520
 1789SOL     OW 6265   6.630   1.802   6.983
 1789SOL    HW1 6266   6.655   1.819   0.059
 1789SOL    HW2 6267   6.574   1.719   6.978
 1790SOL     OW 6268   3.891   6.572   3.876
 1790SOL    HW1 6269   3.966   6.536   3.932
 1790SOL    HW2 6270   3.896   6.672   3.873
 1791SOL     OW 6271   6.776   6.606   2.710
 1791SOL    HW1 6272   6.677   6.622   2.707
 1791SOL    HW2 6273   6.804   6.594   2.805
 1792SOL     OW 6274   1.044   3.242   5.064
 1792SOL    HW1 6275   1.053   3.280   5.156
 1792SOL    HW2 6276   1.050   3.316   4.997
 1793SOL     OW 6277   6.812   0.440   3.715
 1793SOL    HW1 6278   6.902   0.460   3.677
 1793SOL    HW2 6279   6.821   0.399   3.806
 1794SOL     OW 6280   4.678   5.205   5.975
 1794SOL    HW1 6281   4.646   5.115   5.945
 1794SOL    HW2 6282   4.725   5.250   5.899
 1795SOL     OW 6283   0.231   3.044   0.531
 1795SOL    HW1 6284   0.292   2.983   0.582
 1795SOL    HW2 6285   0.155   3.072   0.589
 1796SOL     OW 6286   2.903   0.695   5.824
 1796SOL    HW1 6287   2.856   0.751   5.892
 1796SOL    HW2 6288   2.838   0.666   5.754
 1797SOL     OW 6289   0.781   6.553   0.655
 1797SOL    HW1 6290   0.867   6.550   0.606
 1797SOL    HW2 6291   0.786   6.492   0.734
 1798SOL     OW 6292   4.515   2.411   2.970
 1798SOL    HW1 6293   4.612   2.387   2.960
 1798SOL    HW2 6294   4.480   2.371   3.055
 1799SOL     OW 6295   1.170   1.993   6.257
 1799SOL    HW1 6296   1.269   1.980   6.248
 1799SOL    HW2 6297   1.144   2.080   6.214
 1800SOL     OW 6298   4.182   4.846   1.280
 1800SOL    HW1 6299   4.112   4.904   1.322
 1800SOL    HW2 6300   4.202   4.881   1.188
 1801SOL     OW 6301   6.942   6.642   2.072
 1801SOL    HW1 6302   6.991   6.589   2.003
 1801SOL    HW2 6303   6.996   6.721   2.098
 1802SOL     OW 6304   6.161   5.777   4.502
 1802SOL    HW1 6305   6.077   5.743   4.544
 1802SOL    HW2 6306   6.234   5.777   4.570
 1803SOL     OW 6307   0.125   6.016   0.418
 1803SOL    HW1 6308   0.169   6.065   0.494
 1803SOL    HW2 6309   0.193   5.999   0.346
 1804SOL     OW 6310   2.970   3.490   5.164
 1804SOL    HW1 6311   3.066   3.501   5.137
 1804SOL    HW2 6312   2.932   3.410   5.118
 1805SOL     OW 6313   5.146   3.109   5.819
 1805SOL    HW1 6314   5.193   3.122   5.906
 1805SOL    HW2 6315   5.206   3.061   5.755
 1806SOL     OW 6316   1.359   6.673   1.451
 1806SOL    HW1 6317   1.333   6.579   1.427
 1806SOL    HW2 6318   1.426   6.670   1.526
 1807SOL     OW 6319   6.444   1.741   4.953
 1807SOL    HW1 6320   6.428   1.822   5.009
 1807SOL    HW2 6321   6.533   1.748   4.909
 1808SOL     OW 6322   0.769   4.165   4.324
 1808SOL    HW1 6323   0.745   4.261   4.311
 1808SOL    HW2 6324   0.686   4.110   4.335
 1809SOL     OW 6325   3.256   1.759   5.690
 1809SOL    HW1 6326   3.320   1.793   5.621
 1809SOL    HW2 6327   3.162   1.776   5.659
 1810SOL     OW 6328   3.037   6.509   3.037
 1810SOL    HW1 6329   3.118   6.514   3.096
 1810SOL    HW2 6330   2.960   6.471   3.089
 1811SOL     OW 6331   5.960   5.444   3.232
 1811SOL    HW1 6332   6.015   5.503   3.173
 1811SOL    HW2 6333   6.018   5.407   3.305
 1812SOL     OW 6334   4.359   5.329   6.156
 1812SOL    HW1 6335   4.344   5.253   6.220
 1812SOL    HW2 6336   4.294   5.403   6.176
 1813SOL     OW 6337   6.252   4.528   0.039
 1813SOL    HW1 6338   6.272   4.529   6.961
 1813SOL    HW2 6339   6.172   4.472   0.056
 1814SOL     OW 6340   4.654   6.650   2.707
 1814SOL    HW1 6341   4.586   6.704   2.756
 1814SOL    HW2 6342   4.620   6.557   2.695
 1815SOL     OW 6343   0.067   0.391   3.052
 1815SOL    HW1 6344   0.117   0.417   2.970
 1815SOL    HW2 6345   7.007   0.336   3.026
 1816SOL     OW 6346   1.454   3.795   6.932
 1816SOL    HW1 6347   1.356   3.780   6.917
 1816SOL    HW2 6348   1.492   3.720   6.985
 1817SOL     OW 6349   1.874   5.635   2.110
 1817SOL    HW1 6350   1.886   5.551   2.057
 1817SOL    HW2 6351   1.776   5.654   2.121
 1818SOL     OW 6352   1.689   0.840   3.418
 1818SOL    HW1 6353   1.648   0.900   3.486
 1818SOL    HW2 6354   1.655   0.747   3.430
 1819SOL     OW 6355   1.527   4.602   1.440
 1819SOL    HW1 6356   1.593   4.529   1.419
 1819SOL    HW2 6357   1.434   4.568   1.425
 1820SOL     OW 6358   5.008   0.272   2.600
 1820SOL    HW1 6359   5.106   0.256   2.596
 1820SOL    HW2 6360   4.964   0.226   2.523
 1821SOL     OW 6361   2.565   1.944   2.841
 1821SOL    HW1 6362   2.467   1.951   2.820
 1821SOL    HW2 6363   2.578   1.952   2.940
 1822SOL     OW 6364   3.301   2.756   1.566
 1822SOL    HW1 6365   3.348   2.821   1.626
 1822SOL    HW2 6366   3.302   2.665   1.607
 1823SOL     OW 6367   4.191   6.703   2.170
 1823SOL    HW1 6368   4.120   6.747   2.115
 1823SOL    HW2 6369   4.228   6.769   2.235
 1824SOL     OW 6370   4.767   2.479   1.567
 1824SOL    HW1 6371   4.791   2.528   1.651
 1824SOL    HW2 6372   4.679   2.432   1.580
 1825SOL     OW 6373   1.319   0.627   1.796
 1825SOL    HW1 6374   1.258   0.560   1.839
 1825SOL    HW2 6375   1.265   0.706   1.765
 1826SOL     OW 6376   3.542   0.172   6.922
 1826SOL    HW1 6377   3.462   0.202   6.870
 1826SOL    HW2 6378   3.550   0.227   7.005
 1827SOL     OW 6379   6.941   6.182   1.530
 1827SOL    HW1 6380   0.018   6.169   1.509
 1827SOL    HW2 6381   6.927   6.270   1.574
 1828SOL     OW 6382   0.663   2.436   6.456
 1828SOL    HW1 6383   0.633   2.438   6.361
 1828SOL    HW2 6384   0.638   2.349   6.497
 1829SOL     OW 6385   5.410   5.587   2.762
 1829SOL    HW1 6386   5.425   5.590   2.663
 1829SOL    HW2 6387   5.394   5.680   2.796
 1830SOL     OW 6388   4.517   6.272   3.418
 1830SOL    HW1 6389   4.562   6.357   3.393
 1830SOL    HW2 6390   4.580   6.195   3.403
 1831SOL     OW 6391   5.296   6.598   2.100
 1831SOL    HW1 6392   5.382   6.628   2.058
 1831SOL    HW2 6393   5.219   6.630   2.045
 1832SOL     OW 6394   4.485   2.719   0.973
 1832SOL    HW1 6395   4.436   2.688   1.055
 1832SOL    HW2 6396   4.532   2.805   0.992
 1833SOL     OW 6397   4.684   0.782   4.892
 1833SOL    HW1 6398   4.608   0.719   4.885
 1833SOL    HW2 6399   4.697   0.829   4.805
 1834SOL     OW 6400   3.508   3.278   1.147
 1834SOL    HW1 6401   3.607   3.277   1.157
 1834SOL    HW2 6402   3.480   3.206   1.083
 1835SOL     OW 6403   1.841   5.043   0.941
 1835SOL    HW1 6404   1.796   5.133   0.934
 1835SOL    HW2 6405   1.809   4.984   0.867
 1836SOL     OW 6406   0.762   6.834   0.679
 1836SOL    HW1 6407   0.810   6.875   0.602
 1836SOL    HW2 6408   0.780   6.736   0.681
 1837SOL     OW 6409   0.788   2.200   4.733
 1837SOL    HW1 6410   0.816   2.273   4.795
 1837SOL    HW2 6411   0.825   2.218   4.642
 1838SOL     OW 6412   0.066   2.698   4.045
 1838SOL    HW1 6413   7.007   2.660   4.092
 1838SOL    HW2 6414   0.113   2.763   4.106
 1839SOL     OW 6415   6.650   2.497   5.704
 1839SOL    HW1 6416   6.647   2.414   5.648
 1839SOL    HW2 6417   6.688   2.474   5.794
 1840SOL     OW 6418   2.658   5.843   0.592
 1840SOL    HW1 6419   2.658   5.763   0.653
 1840SOL    HW2 6420   2.745   5.892   0.603
 1841SOL     OW 6421   2.310   2.898   3.346
 1841SOL    HW1 6422   2.283   2.852   3.261
 1841SOL    HW2 6423   2.337   2.992   3.327
 1842SOL     OW 6424   0.987   4.615   0.353
 1842SOL    HW1 6425   0.935   4.548   0.405
 1842SOL    HW2 6426   0.946   4.706   0.365
 1843SOL     OW 6427   2.395   1.913   4.834
 1843SOL    HW1 6428   2.439   1.933   4.922
 1843SOL    HW2 6429   2.381   1.998   4.784
 1844SOL     OW 6430   4.132   2.158   4.079
 1844SOL    HW1 6431   4.074   2.170   4.160
 1844SOL    HW2 6432   4.075   2.156   3.997
 1845SOL     OW 6433   4.567   0.191   6.997
 1845SOL    HW1 6434   4.599   0.220   0.068
 1845SOL    HW2 6435   4.492   0.251   6.968
 1846SOL     OW 6436   3.228   2.206   6.427
 1846SOL    HW1 6437   3.220   2.298   6.389
 1846SOL    HW2 6438   3.287   2.150   6.369
 1847SOL     OW 6439   0.127   0.550   0.969
 1847SOL    HW1 6440   0.077   0.560   1.055
 1847SOL    HW2 6441   0.204   0.487   0.982
 1848SOL     OW 6442   2.799   6.767   1.826
 1848SOL    HW1 6443   2.857   6.762   1.907
 1848SOL    HW2 6444   2.703   6.778   1.854
 1849SOL     OW 6445   3.139   1.936   6.634
 1849SOL    HW1 6446   3.139   2.002   6.560
 1849SOL    HW2 6447   3.051   1.941   6.683
 1850SOL     OW 6448   6.623   2.686   2.572
 1850SOL    HW1 6449   6.530   2.717   2.590
 1850SOL    HW2 6450   6.626   2.636   2.486
 1851SOL     OW 6451   0.588   2.880   2.660
 1851SOL    HW1 6452   0.574   2.979   2.668
 1851SOL    HW2 6453   0.539   2.834   2.734
 1852SOL     OW 6454   4.669   3.122   0.236
 1852SOL    HW1 6455   4.675   3.026   0.262
 1852SOL    HW2 6456   4.677   3.131   0.137
 1853SOL     OW 6457   1.164   4.599   1.036
 1853SOL    HW1 6458   1.130   4.622   1.127
 1853SOL    HW2 6459   1.201   4.506   1.037
 1854SOL     OW 6460   2.596   5.726   5.142
 1854SOL    HW1 6461   2.564   5.813   5.104
 1854SOL    HW2 6462   2.567   5.651   5.083
 1855SOL     OW 6463   5.179   4.866   0.892
 1855SOL    HW1 6464   5.276   4.867   0.916
 1855SOL    HW2 6465   5.127   4.819   0.963
 1856SOL     OW 6466   5.478   2.044   4.599
 1856SOL    HW1 6467   5.563   1.993   4.584
 1856SOL    HW2 6468   5.434   2.061   4.511
 1857SOL     OW 6469   4.156   1.094   3.628
 1857SOL    HW1 6470   4.199   1.064   3.543
 1857SOL    HW2 6471   4.153   1.194   3.631
 1858SOL     OW 6472   4.822   3.102   3.863
 1858SOL    HW1 6473   4.732   3.082   3.903
 1858SOL    HW2 6474   4.873   3.161   3.925
 1859SOL     OW 6475   4.567   2.055   3.166
 1859SOL    HW1 6476   4.614   2.003   3.095
 1859SOL    HW2 6477   4.468   2.042   3.158
 1860SOL     OW 6478   5.740   0.833   4.445
 1860SOL    HW1 6479   5.762   0.930   4.449
 1860SOL    HW2 6480   5.775   0.787   4.527
 1861SOL     OW 6481   5.285   6.271   2.993
 1861SOL    HW1 6482   5.207   6.210   3.009
 1861SOL    HW2 6483   5.256   6.347   2.936
 1862SOL     OW 6484   1.781   1.641   0.616
 1862SOL    HW1 6485   1.813   1.687   0.533
 1862SOL    HW2 6486   1.769   1.707   0.689
 1863SOL     OW 6487   2.965   2.745   1.218
 1863SOL    HW1 6488   2.902   2.706   1.285
 1863SOL    HW2 6489   2.950   2.703   1.129
 1864SOL     OW 6490   1.001   6.690   4.811
 1864SOL    HW1 6491   1.040   6.686   4.903
 1864SOL    HW2 6492   1.035   6.612   4.758
 1865SOL     OW 6493   4.424   2.406   6.234
 1865SOL    HW1 6494   4.459   2.455   6.314
 1865SOL    HW2 6495   4.349   2.346   6.262
 1866SOL     OW 6496   4.652   4.267   2.429
 1866SOL    HW1 6497   4.608   4.185   2.466
 1866SOL    HW2 6498   4.589   4.344   2.432
 1867SOL     OW 6499   0.324   4.159   0.194
 1867SOL    HW1 6500   0.255   4.119   0.133
 1867SOL    HW2 6501   0.282   4.181   0.282
 1868SOL     OW 6502   6.107   4.316   5.893
 1868SOL    HW1 6503   6.075   4.227   5.860
 1868SOL    HW2 6504   6.100   4.383   5.820
 1869SOL     OW 6505   6.402   1.241   5.043
 1869SOL    HW1 6506   6.392   1.198   4.953
 1869SOL    HW2 6507   6.417   1.339   5.031
 1870SOL     OW 6508   1.776   5.570   4.315
 1870SOL    HW1 6509   1.801   5.517   4.234
 1870SOL    HW2 6510   1.849   5.561   4.384
 1871SOL     OW 6511   2.358   0.171   0.509
 1871SOL    HW1 6512   2.294   0.217   0.571
 1871SOL    HW2 6513   2.370   0.226   0.426
 1872SOL     OW 6514   2.101   3.975   0.238
 1872SOL    HW1 6515   2.183   3.955   0.292
 1872SOL    HW2 6516   2.075   3.895   0.185
 1873SOL     OW 6517   4.633   1.450   6.622
 1873SOL    HW1 6518   4.726   1.449   6.585
 1873SOL    HW2 6519   4.585   1.366   6.595
 1874SOL     OW 6520   1.165   1.808   2.565
 1874SOL    HW1 6521   1.230   1.736   2.589
 1874SOL    HW2 6522   1.072   1.773   2.576
 1875SOL     OW 6523   0.935   6.461   6.727
 1875SOL    HW1 6524   0.940   6.378   6.783
 1875SOL    HW2 6525   0.994   6.531   6.768
 1876SOL     OW 6526   3.138   6.886   3.844
 1876SOL    HW1 6527   3.182   6.896   3.755
 1876SOL    HW2 6528   3.134   6.789   3.869
 1877SOL     OW 6529   0.308   6.829   3.131
 1877SOL    HW1 6530   0.326   6.800   3.036
 1877SOL    HW2 6531   0.276   6.923   3.131
 1878SOL     OW 6532   6.246   2.717   4.930
 1878SOL    HW1 6533   6.333   2.720   4.881
 1878SOL    HW2 6534   6.198   2.804   4.919
 1879SOL     OW 6535   1.359   3.836   5.383
 1879SOL    HW1 6536   1.426   3.907   5.360
 1879SOL    HW2 6537   1.289   3.833   5.312
 1880SOL     OW 6538   5.500   1.153   5.536
 1880SOL    HW1 6539   5.512   1.175   5.439
 1880SOL    HW2 6540   5.589   1.149   5.581
 1881SOL     OW 6541   6.654   2.061   0.686
 1881SOL    HW1 6542   6.607   2.035   0.601
 1881SOL    HW2 6543   6.720   2.133   0.667
 1882SOL     OW 6544   1.123   4.078   6.162
 1882SOL    HW1 6545   1.038   4.053   6.115
 1882SOL    HW2 6546   1.106   4.157   6.221
 1883SOL     OW 6547   0.368   2.453   3.586
 1883SOL    HW1 6548   0.358   2.551   3.571
 1883SOL    HW2 6549   0.381   2.407   3.498
 1884SOL     OW 6550   0.133   2.484   1.450
 1884SOL    HW1 6551   0.200   2.467   1.378
 1884SOL    HW2 6552   0.106   2.581   1.448
 1885SOL     OW 6553   2.409   2.001   5.083
 1885SOL    HW1 6554   2.365   1.914   5.103
 1885SOL    HW2 6555   2.498   2.005   5.128
 1886SOL     OW 6556   1.253   6.323   3.494
 1886SOL    HW1 6557   1.218   6.274   3.574
 1886SOL    HW2 6558   1.238   6.421   3.505
 1887SOL     OW 6559   1.487   6.039   6.664
 1887SOL    HW1 6560   1.573   6.090   6.666
 1887SOL    HW2 6561   1.444   6.051   6.575
 1888SOL     OW 6562   2.436   0.791   1.539
 1888SOL    HW1 6563   2.431   0.855   1.616
 1888SOL    HW2 6564   2.498   0.716   1.562
 1889SOL     OW 6565   1.393   3.335   3.464
 1889SOL    HW1 6566   1.436   3.340   3.554
 1889SOL    HW2 6567   1.361   3.426   3.437
 1890SOL     OW 6568   0.288   5.726   3.806
 1890SOL    HW1 6569   0.305   5.630   3.831
 1890SOL    HW2 6570   0.191   5.747   3.817
 1891SOL     OW 6571   3.990   3.661   2.691
 1891SOL    HW1 6572   4.026   3.685   2.601
 1891SOL    HW2 6573   3.907   3.714   2.709
 1892SOL     OW 6574   0.506   0.560   2.106
 1892SOL    HW1 6575   0.440   0.500   2.060
 1892SOL    HW2 6576   0.505   0.650   2.064
 1893SOL     OW 6577   3.397   3.259   3.258
 1893SOL    HW1 6578   3.416   3.290   3.350
 1893SOL    HW2 6579   3.427   3.164   3.247
 1894SOL     OW 6580   3.633   3.925   4.436
 1894SOL    HW1 6581   3.733   3.931   4.442
 1894SOL    HW2 6582   3.592   4.008   4.474
 1895SOL     OW 6583   3.492   6.655   6.871
 1895SOL    HW1 6584   3.498   6.750   6.903
 1895SOL    HW2 6585   3.457   6.654   6.777
 1896SOL     OW 6586   5.485   2.149   1.204
 1896SOL    HW1 6587   5.538   2.065   1.214
 1896SOL    HW2 6588   5.425   2.142   1.125
 1897SOL     OW 6589   2.188   5.055   3.588
 1897SOL    HW1 6590   2.264   5.050   3.523
 1897SOL    HW2 6591   2.145   4.965   3.596
 1898SOL     OW 6592   1.758   6.140   3.901
 1898SOL    HW1 6593   1.782   6.088   3.819
 1898SOL    HW2 6594   1.831   6.205   3.921
 1899SOL     OW 6595   6.891   0.139   2.021
 1899SOL    HW1 6596   6.911   0.064   1.959
 1899SOL    HW2 6597   6.953   0.135   2.099
 1900SOL     OW 6598   2.817   6.860   0.117
 1900SOL    HW1 6599   2.745   6.796   0.146
 1900SOL    HW2 6600   2.838   6.923   0.191
 1901SOL     OW 6601   3.063   3.835   0.831
 1901SOL    HW1 6602   3.079   3.738   0.849
 1901SOL    HW2 6603   3.122   3.865   0.756
 1902SOL     OW 6604   1.380   6.288   4.704
 1902SOL    HW1 6605   1.477   6.294   4.682
 1902SOL    HW2 6606   1.360   6.341   4.786
 1903SOL     OW 6607   1.411   2.418   4.551
 1903SOL    HW1 6608   1.314   2.425   4.531
 1903SOL    HW2 6609   1.458   2.500   4.518
 1904SOL     OW 6610   5.615   5.486   2.274
 1904SOL    HW1 6611   5.589   5.530   2.188
 1904SOL    HW2 6612   5.559   5.524   2.349
 1905SOL     OW 6613   0.035   0.510   3.571
 1905SOL    HW1 6614   0.052   0.481   3.477
 1905SOL    HW2 6615   0.059   0.606   3.581
 1906SOL     OW 6616   2.159   0.368   5.522
 1906SOL    HW1 6617   2.155   0.453   5.574
 1906SOL    HW2 6618   2.110   0.379   5.436
 1907SOL     OW 6619   5.410   2.795   0.021
 1907SOL    HW1 6620   5.462   2.823   0.101
 1907SOL    HW2 6621   5.327   2.849   0.014
 1908SOL     OW 6622   3.439   1.125   1.155
 1908SOL    HW1 6623   3.446   1.043   1.098
 1908SOL    HW2 6624   3.352   1.126   1.203
 1909SOL     OW 6625   6.811   4.515   4.974
 1909SOL    HW1 6626   6.855   4.457   4.905
 1909SOL    HW2 6627   6.877   4.536   5.046
 1910SOL     OW 6628   6.516   6.581   5.729
 1910SOL    HW1 6629   6.429   6.575   5.778
 1910SOL    HW2 6630   6.533   6.676   5.703
 1911SOL     OW 6631   0.107   4.918   4.376
 1911SOL    HW1 6632   0.098   4.901   4.474
 1911SOL    HW2 6633   0.024   4.890   4.329
 1912SOL     OW 6634   2.651   5.456   2.542
 1912SOL    HW1 6635   2.706   5.534   2.571
 1912SOL    HW2 6636   2.710   5.386   2.502
 1913SOL     OW 6637   2.665   4.671   5.275
 1913SOL    HW1 6638   2.747   4.640   5.227
 1913SOL    HW2 6639   2.641   4.605   5.347
 1914SOL     OW 6640   2.531   3.994   6.571
 1914SOL    HW1 6641   2.474   3.965   6.495
 1914SOL    HW2 6642   2.522   3.929   6.646
 1915SOL     OW 6643   4.650   2.186   6.404
 1915SOL    HW1 6644   4.599   2.102   6.385
 1915SOL    HW2 6645   4.705   2.211   6.324
 1916SOL     OW 6646   3.659   0.756   2.222
 1916SOL    HW1 6647   3.581   0.694   2.214
 1916SOL    HW2 6648   3.692   0.781   2.131
 1917SOL     OW 6649   2.539   4.037   1.485
 1917SOL    HW1 6650   2.541   4.110   1.553
 1917SOL    HW2 6651   2.610   4.053   1.416
 1918SOL     OW 6652   6.139   2.433   4.359
 1918SOL    HW1 6653   6.167   2.495   4.432
 1918SOL    HW2 6654   6.039   2.422   4.361
 1919SOL     OW 6655   0.821   1.802   1.203
 1919SOL    HW1 6656   0.857   1.789   1.110
 1919SOL    HW2 6657   0.897   1.818   1.265
 1920SOL     OW 6658   5.075   2.303   0.523
 1920SOL    HW1 6659   5.134   2.248   0.583
 1920SOL    HW2 6660   4.986   2.316   0.567
 1921SOL     OW 6661   1.696   2.541   7.000
 1921SOL    HW1 6662   1.688   2.508   6.905
 1921SOL    HW2 6663   1.731   2.634   7.000
 1922SOL     OW 6664   3.195   3.313   2.248
 1922SOL    HW1 6665   3.119   3.350   2.301
 1922SOL    HW2 6666   3.199   3.214   2.260
 1923SOL     OW 6667   3.624   0.471   5.433
 1923SOL    HW1 6668   3.694   0.430   5.374
 1923SOL    HW2 6669   3.669   0.520   5.508
 1924SOL     OW 6670   4.049   0.378   0.930
 1924SOL    HW1 6671   4.010   0.370   0.838
 1924SOL    HW2 6672   4.074   0.473   0.948
 1925SOL     OW 6673   1.495   4.784   1.179
 1925SOL    HW1 6674   1.504   4.723   1.258
 1925SOL    HW2 6675   1.571   4.849   1.178
 1926SOL     OW 6676   3.408   6.967   2.087
 1926SOL    HW1 6677   3.463   6.896   2.129
 1926SOL    HW2 6678   3.430   6.973   1.989
 1927SOL     OW 6679   2.136   5.400   1.489
 1927SOL    HW1 6680   2.116   5.469   1.420
 1927SOL    HW2 6681   2.186   5.323   1.447
 1928SOL     OW 6682   5.363   4.172   2.926
 1928SOL    HW1 6683   5.386   4.193   3.022
 1928SOL    HW2 6684   5.343   4.256   2.877
 1929SOL     OW 6685   3.126   0.094   2.752
 1929SOL    HW1 6686   3.033   0.087   2.715
 1929SOL    HW2 6687   3.150   0.190   2.765
 1930SOL     OW 6688   4.873   3.367   6.145
 1930SOL    HW1 6689   4.927   3.301   6.197
 1930SOL    HW2 6690   4.877   3.456   6.191
 1931SOL     OW 6691   0.695   1.769   4.481
 1931SOL    HW1 6692   0.734   1.851   4.439
 1931SOL    HW2 6693   0.746   1.746   4.563
 1932SOL     OW 6694   4.340   2.286   2.109
 1932SOL    HW1 6695   4.389   2.369   2.138
 1932SOL    HW2 6696   4.405   2.220   2.072
 1933SOL     OW 6697   1.045   1.693   0.991
 1933SOL    HW1 6698   1.104   1.640   0.930
 1933SOL    HW2 6699   0.954   1.701   0.950
 1934SOL     OW 6700   0.008   0.405   6.159
 1934SOL    HW1 6701   0.096   0.383   6.201
 1934SOL    HW2 6702   7.009   0.503   6.171
 1935SOL     OW 6703   6.708   5.232   3.998
 1935SOL    HW1 6704   6.717   5.298   3.924
 1935SOL    HW2 6705   6.649   5.269   4.069
 1936SOL     OW 6706   4.716   3.045   5.475
 1936SOL    HW1 6707   4.770   3.001   5.547
 1936SOL    HW2 6708   4.626   3.001   5.469
 1937SOL     OW 6709   5.374   5.224   6.604
 1937SOL    HW1 6710   5.362   5.317   6.637
 1937SOL    HW2 6711   5.391   5.225   6.505
 1938SOL     OW 6712   0.786   3.226   6.513
 1938SOL    HW1 6713   0.726   3.157   6.473
 1938SOL    HW2 6714   0.733   3.308   6.534
 1939SOL     OW 6715   0.710   0.222   4.488
 1939SOL    HW1 6716   0.689   0.267   4.401
 1939SOL    HW2 6717   0.791   0.265   4.529
 1940SOL     OW 6718   6.893   4.841   0.640
 1940SOL    HW1 6719   6.950   4.901   0.585
 1940SOL    HW2 6720   6.936   4.751   0.647
 1941SOL     OW 6721   5.972   2.157   4.382
 1941SOL    HW1 6722   5.875   2.153   4.361
 1941SOL    HW2 6723   5.984   2.188   4.476
 1942SOL     OW 6724   5.931   3.676   2.671
 1942SOL    HW1 6725   5.995   3.624   2.615
 1942SOL    HW2 6726   5.981   3.750   2.718
 1943SOL     OW 6727   0.935   1.432   2.792
 1943SOL    HW1 6728   1.035   1.431   2.783
 1943SOL    HW2 6729   0.906   1.520   2.830
 1944SOL     OW 6730   0.269   2.803   3.102
 1944SOL    HW1 6731   0.187   2.855   3.125
 1944SOL    HW2 6732   0.246   2.705   3.099
 1945SOL     OW 6733   4.814   0.978   2.214
 1945SOL    HW1 6734   4.816   0.885   2.176
 1945SOL    HW2 6735   4.872   1.038   2.158
 1946SOL     OW 6736   6.028   5.166   0.900
 1946SOL    HW1 6737   6.118   5.196   0.931
 1946SOL    HW2 6738   5.972   5.247   0.879
 1947SOL     OW 6739   5.778   4.626   3.759
 1947SOL    HW1 6740   5.873   4.648   3.778
 1947SOL    HW2 6741   5.732   4.707   3.722
 1948SOL     OW 6742   4.890   3.264   3.104
 1948SOL    HW1 6743   4.849   3.242   3.193
 1948SOL    HW2 6744   4.988   3.246   3.108
 1949SOL     OW 6745   3.784   4.600   6.739
 1949SOL    HW1 6746   3.799   4.695   6.711
 1949SOL    HW2 6747   3.749   4.548   6.661
 1950SOL     OW 6748   2.948   3.863   3.390
 1950SOL    HW1 6749   3.024   3.917   3.424
 1950SOL    HW2 6750   2.913   3.804   3.464
 1951SOL     OW 6751   6.113   4.656   5.930
 1951SOL    HW1 6752   6.178   4.695   5.864
 1951SOL    HW2 6753   6.121   4.557   5.931
 1952SOL     OW 6754   5.940   4.919   0.270
 1952SOL    HW1 6755   6.031   4.898   0.236
 1952SOL    HW2 6756   5.920   4.861   0.349
 1953SOL     OW 6757   0.608   0.664   6.829
 1953SOL    HW1 6758   0.660   0.612   6.897
 1953SOL    HW2 6759   0.589   0.605   6.750
 1954SOL     OW 6760   4.116   0.022   2.091
 1954SOL    HW1 6761   4.215   0.012   2.087
 1954SOL    HW2 6762   4.092   0.119   2.096
 1955SOL     OW 6763   0.461   2.178   2.991
 1955SOL    HW1 6764   0.409   2.219   2.916
 1955SOL    HW2 6765   0.518   2.104   2.956
 1956SOL     OW 6766   5.876   0.313   1.823
 1956SOL    HW1 6767   5.874   0.321   1.724
 1956SOL    HW2 6768   5.801   0.253   1.853
 1957SOL     OW 6769   5.479   1.744   4.376
 1957SOL    HW1 6770   5.398   1.741   4.435
 1957SOL    HW2 6771   5.459   1.800   4.296
 1958SOL     OW 6772   4.357   2.017   1.097
 1958SOL    HW1 6773   4.302   2.062   1.167
 1958SOL    HW2 6774   4.454   2.028   1.118
 1959SOL     OW 6775   0.330   1.021   4.798
 1959SOL    HW1 6776   0.397   0.980   4.736
 1959SOL    HW2 6777   0.251   0.960   4.807
 1960SOL     OW 6778   6.278   4.207   4.284
 1960SOL    HW1 6779   6.241   4.162   4.203
 1960SOL    HW2 6780   6.204   4.239   4.341
 1961SOL     OW 6781   7.004   4.010   4.427
 1961SOL    HW1 6782   0.077   4.023   4.462
 1961SOL    HW2 6783   6.965   3.927   4.467
 1962SOL     OW 6784   1.307   0.355   2.655
 1962SOL    HW1 6785   1.287   0.258   2.640
 1962SOL    HW2 6786   1.406   0.369   2.652
 1963SOL     OW 6787   0.445   2.616   1.573
 1963SOL    HW1 6788   0.365   2.668   1.600
 1963SOL    HW2 6789   0.528   2.660   1.609
 1964SOL     OW 6790   5.906   3.555   1.180
 1964SOL    HW1 6791   5.953   3.582   1.264
 1964SOL    HW2 6792   5.973   3.520   1.114
 1965SOL     OW 6793   0.276   4.365   4.038
 1965SOL    HW1 6794   0.205   4.398   4.100
 1965SOL    HW2 6795   0.268   4.412   3.951
 1966SOL     OW 6796   1.797   5.054   0.055
 1966SOL    HW1 6797   1.842   5.143   0.050
 1966SOL    HW2 6798   1.728   5.048   7.003
 1967SOL     OW 6799   6.391   3.565   3.092
 1967SOL    HW1 6800   6.486   3.548   3.117
 1967SOL    HW2 6801   6.377   3.663   3.079
 1968SOL     OW 6802   2.382   1.227   5.076
 1968SOL    HW1 6803   2.478   1.213   5.054
 1968SOL    HW2 6804   2.366   1.324   5.094
 1969SOL     OW 6805   2.636   6.433   0.142
 1969SOL    HW1 6806   2.564   6.432   0.072
 1969SOL    HW2 6807   2.638   6.523   0.186
 1970SOL     OW 6808   5.932   5.488   5.291
 1970SOL    HW1 6809   5.882   5.423   5.348
 1970SOL    HW2 6810   5.887   5.577   5.295
 1971SOL     OW 6811   1.962   5.758   4.725
 1971SOL    HW1 6812   1.905   5.819   4.780
 1971SOL    HW2 6813   2.024   5.812   4.669
 1972SOL     OW 6814   6.618   2.934   2.729
 1972SOL    HW1 6815   6.639   2.840   2.701
 1972SOL    HW2 6816   6.566   2.980   2.657
 1973SOL     OW 6817   2.536   3.189   6.968
 1973SOL    HW1 6818   2.445   3.186   7.010
 1973SOL    HW2 6819   2.537   3.131   6.887
 1974SOL     OW 6820   3.058   6.761   4.811
 1974SOL    HW1 6821   2.981   6.798   4.758
 1974SOL    HW2 6822   3.039   6.771   4.908
 1975SOL     OW 6823   1.852   2.476   3.482
 1975SOL    HW1 6824   1.870   2.403   3.548
 1975SOL    HW2 6825   1.849   2.437   3.390
 1976SOL     OW 6826   6.852   0.108   6.321
 1976SOL    HW1 6827   6.888   0.037   6.261
 1976SOL    HW2 6828   6.795   0.171   6.268
 1977SOL     OW 6829   2.067   4.564   5.581
 1977SOL    HW1 6830   2.121   4.480   5.582
 1977SOL    HW2 6831   2.022   4.575   5.670
 1978SOL     OW 6832   2.658   6.881   1.399
 1978SOL    HW1 6833   2.724   6.881   1.475
 1978SOL    HW2 6834   2.577   6.830   1.426
 1979SOL     OW 6835   0.311   4.872   6.260
 1979SOL    HW1 6836   0.303   4.772   6.257
 1979SOL    HW2 6837   0.407   4.898   6.245
 1980SOL     OW 6838   3.262   1.691   0.339
 1980SOL    HW1 6839   3.203   1.613   0.318
 1980SOL    HW2 6840   3.348   1.658   0.377
 1981SOL     OW 6841   3.174   2.029   2.797
 1981SOL    HW1 6842   3.210   2.099   2.736
 1981SOL    HW2 6843   3.089   2.061   2.839
 1982SOL     OW 6844   0.428   2.809   5.506
 1982SOL    HW1 6845   0.502   2.785   5.442
 1982SOL    HW2 6846   0.452   2.894   5.554
 1983SOL     OW 6847   0.310   0.500   2.533
 1983SOL    HW1 6848   0.220   0.544   2.541
 1983SOL    HW2 6849   0.376   0.568   2.501
 1984SOL     OW 6850   4.904   2.932   5.659
 1984SOL    HW1 6851   4.822   2.905   5.709
 1984SOL    HW2 6852   4.983   2.932   5.721
 1985SOL     OW 6853   6.333   3.397   2.435
 1985SOL    HW1 6854   6.329   3.317   2.375
 1985SOL    HW2 6855   6.428   3.425   2.446
 1986SOL     OW 6856   4.318   2.846   1.722
 1986SOL    HW1 6857   4.323   2.946   1.712
 1986SOL    HW2 6858   4.405   2.812   1.759
 1987SOL     OW 6859   2.798   1.130   1.586
 1987SOL    HW1 6860   2.883   1.181   1.575
 1987SOL    HW2 6861   2.762   1.105   1.496
 1988SOL     OW 6862   0.353   2.261   1.108
 1988SOL    HW1 6863   0.350   2.330   1.180
 1988SOL    HW2 6864   0.365   2.170   1.150
 1989SOL     OW 6865   2.406   4.969   4.771
 1989SOL    HW1 6866   2.393   4.895   4.706
 1989SOL    HW2 6867   2.499   4.965   4.808
 1990SOL     OW 6868   4.152   0.322   0.289
 1990SOL    HW1 6869   4.107   0.275   0.214
 1990SOL    HW2 6870   4.114   0.413   0.300
 1991SOL     OW 6871   2.560   5.184   1.120
 1991SOL    HW1 6872   2.521   5.257   1.064
 1991SOL    HW2 6873   2.530   5.096   1.085
 1992SOL     OW 6874   0.583   6.357   1.487
 1992SOL    HW1 6875   0.543   6.312   1.567
 1992SOL    HW2 6876   0.570   6.299   1.406
 1993SOL     OW 6877   2.210   2.539   3.713
 1993SOL    HW1 6878   2.253   2.538   3.623
 1993SOL    HW2 6879   2.281   2.534   3.784
 1994SOL     OW 6880   3.445   2.564   0.924
 1994SOL    HW1 6881   3.436   2.556   0.825
 1994SOL    HW2 6882   3.542   2.572   0.948
 1995SOL     OW 6883   5.706   2.164   4.342
 1995SOL    HW1 6884   5.701   2.231   4.416
 1995SOL    HW2 6885   5.638   2.186   4.273
 1996SOL     OW 6886   3.710   1.565   1.040
 1996SOL    HW1 6887   3.655   1.511   0.976
 1996SOL    HW2 6888   3.649   1.611   1.105
 1997SOL     OW 6889   4.005   0.315   3.874
 1997SOL    HW1 6890   3.977   0.391   3.817
 1997SOL    HW2 6891   3.940   0.302   3.949
 1998SOL     OW 6892   1.939   3.555   1.200
 1998SOL    HW1 6893   1.898   3.646   1.206
 1998SOL    HW2 6894   1.871   3.491   1.164
 1999SOL     OW 6895   1.415   6.831   6.724
 1999SOL    HW1 6896   1.321   6.826   6.691
 1999SOL    HW2 6897   1.419   6.804   6.820
 2000SOL     OW 6898   3.567   4.061   5.594
 2000SOL    HW1 6899   3.605   4.001   5.665
 2000SOL    HW2 6900   3.628   4.141   5.583
 2001SOL     OW 6901   1.894   1.956   0.933
 2001SOL    HW1 6902   1.979   1.940   0.984
 2001SOL    HW2 6903   1.905   2.036   0.875
 2002SOL     OW 6904   0.286   4.618   0.433
 2002SOL    HW1 6905   0.303   4.550   0.362
 2002SOL    HW2 6906   0.197   4.662   0.416
 2003SOL     OW 6907   6.616   5.244   2.958
 2003SOL    HW1 6908   6.669   5.178   3.011
 2003SOL    HW2 6909   6.636   5.233   2.861
 2004SOL     OW 6910   3.567   0.007   3.444
 2004SOL    HW1 6911   3.526   0.073   3.507
 2004SOL    HW2 6912   3.525   0.016   3.354
 2005SOL     OW 6913   1.521   6.266   0.448
 2005SOL    HW1 6914   1.605   6.314   0.420
 2005SOL    HW2 6915   1.499   6.291   0.542
 2006SOL     OW 6916   5.501   6.355   2.633
 2006SOL    HW1 6917   5.514   6.372   2.535
 2006SOL    HW2 6918   5.495   6.442   2.681
 2007SOL     OW 6919   5.685   4.666   6.681
 2007SOL    HW1 6920   5.632   4.582   6.696
 2007SOL    HW2 6921   5.782   4.644   6.680
 2008SOL     OW 6922   1.454   3.684   4.143
 2008SOL    HW1 6923   1.411   3.728   4.221
 2008SOL    HW2 6924   1.394   3.691   4.063
 2009SOL     OW 6925   6.281   0.195   3.179
 2009SOL    HW1 6926   6.211   0.265   3.168
 2009SOL    HW2 6927   6.338   0.191   3.096
 2010SOL     OW 6928   1.087   1.822   1.819
 2010SOL    HW1 6929   1.081   1.884   1.898
 2010SOL    HW2 6930   1.171   1.841   1.768
 2011SOL     OW 6931   1.229   6.708   5.725
 2011SOL    HW1 6932   1.154   6.650   5.756
 2011SOL    HW2 6933   1.259   6.767   5.800
 2012SOL     OW 6934   1.535   3.224   1.593
 2012SOL    HW1 6935   1.511   3.198   1.686
 2012SOL    HW2 6936   1.624   3.186   1.568
 2013SOL     OW 6937   0.650   3.588   2.244
 2013SOL    HW1 6938   0.739   3.564   2.206
 2013SOL    HW2 6939   0.622   3.518   2.310
 2014SOL     OW 6940   3.845   0.393   4.559
 2014SOL    HW1 6941   3.852   0.323   4.630
 2014SOL    HW2 6942   3.845   0.484   4.601
 2015SOL     OW 6943   4.620   0.763   2.066
 2015SOL    HW1 6944   4.619   0.730   2.161
 2015SOL    HW2 6945   4.573   0.851   2.061
 2016SOL     OW 6946   1.634   0.745   5.833
 2016SOL    HW1 6947   1.547   0.795   5.830
 2016SOL    HW2 6948   1.706   0.806   5.864
 2017SOL     OW 6949   3.820   6.471   3.625
 2017SOL    HW1 6950   3.896   6.417   3.589
 2017SOL    HW2 6951   3.840   6.498   3.719
 2018SOL     OW 6952   1.210   1.061   3.729
 2018SOL    HW1 6953   1.128   1.041   3.676
 2018SOL    HW2 6954   1.204   1.015   3.818
 2019SOL     OW 6955   5.734   5.313   6.426
 2019SOL    HW1 6956   5.699   5.407   6.423
 2019SOL    HW2 6957   5.660   5.250   6.404
 2020SOL     OW 6958   2.045   6.003   6.522
 2020SOL    HW1 6959   2.130   5.963   6.557
 2020SOL    HW2 6960   2.060   6.101   6.506
 2021SOL     OW 6961   6.653   6.066   4.334
 2021SOL    HW1 6962   6.649   6.111   4.423
 2021SOL    HW2 6963   6.601   6.120   4.267
 2022SOL     OW 6964   1.881   4.180   5.122
 2022SOL    HW1 6965   1.938   4.235   5.061
 2022SOL    HW2 6966   1.921   4.089   5.133
 2023SOL     OW 6967   6.486   6.484   0.396
 2023SOL    HW1 6968   6.479   6.405   0.457
 2023SOL    HW2 6969   6.491   6.568   0.451
 2024SOL     OW 6970   0.467   6.155   4.696
 2024SOL    HW1 6971   0.415   6.094   4.635
 2024SOL    HW2 6972   0.553   6.110   4.722
 2025SOL     OW 6973   1.186   6.642   4.445
 2025SOL    HW1 6974   1.189   6.731   4.491
 2025SOL    HW2 6975   1.229   6.650   4.355
 2026SOL     OW 6976   6.774   0.329   6.118
 2026SOL    HW1 6977   6.713   0.397   6.160
 2026SOL    HW2 6978   6.868   0.346   6.148
 2027SOL     OW 6979   6.806   6.159   2.186
 2027SOL    HW1 6980   6.818   6.079   2.245
 2027SOL    HW2 6981   6.792   6.128   2.091
 2028SOL     OW 6982   3.340   5.283   4.390
 2028SOL    HW1 6983   3.250   5.287   4.434
 2028SOL    HW2 6984   3.331   5.242   4.299
 2029SOL     OW 6985   6.400   2.661   6.514
 2029SOL    HW1 6986   6.413   2.743   6.459
 2029SOL    HW2 6987   6.446   2.584   6.470
 2030SOL     OW 6988   2.400   6.474   1.981
 2030SOL    HW1 6989   2.395   6.476   2.081
 2030SOL    HW2 6990   2.339   6.403   1.946
 2031SOL     OW 6991   6.780   5.843   4.287
 2031SOL    HW1 6992   6.751   5.938   4.294
 2031SOL    HW2 6993   6.704   5.783   4.312
 2032SOL     OW 6994   3.009   2.172   5.913
 2032SOL    HW1 6995   2.951   2.104   5.869
 2032SOL    HW2 6996   3.094   2.129   5.943
 2033SOL     OW 6997   2.291   2.082   0.811
 2033SOL    HW1 6998   2.315   1.985   0.805
 2033SOL    HW2 6999   2.306   2.126   0.723
 2034SOL     OW 7000   0.249   4.152   4.562
 2034SOL    HW1 7001   0.211   4.122   4.649
 2034SOL    HW2 7002   0.249   4.252   4.559
 2035SOL     OW 7003   5.502   6.934   2.776
 2035SOL    HW1 7004   5.553   6.894   2.852
 2035SOL    HW2 7005   5.541   6.903   2.689
 2036SOL     OW 7006   0.884   4.308   1.237
 2036SOL    HW1 7007   0.924   4.255   1.312
 2036SOL    HW2 7008   0.842   4.246   1.171
 2037SOL     OW 7009   0.601   2.563   0.164
 2037SOL    HW1 7010   0.685   2.520   0.129
 2037SOL    HW2 7011   0.534   2.492   0.185
 2038SOL     OW 7012   1.717   1.198   6.653
 2038SOL    HW1 7013   1.691   1.240   6.566
 2038SOL    HW2 7014   1.742   1.270   6.718
 2039SOL     OW 7015   5.679   6.264   2.807
 2039SOL    HW1 7016   5.770   6.295   2.779
 2039SOL    HW2 7017   5.611   6.298   2.743
 2040SOL     OW 7018   1.759   2.517   0.955
 2040SOL    HW1 7019   1.705   2.593   0.990
 2040SOL    HW2 7020   1.856   2.543   0.953
 2041SOL     OW 7021   2.471   0.540   6.243
 2041SOL    HW1 7022   2.411   0.574   6.315
 2041SOL    HW2 7023   2.441   0.577   6.155
 2042SOL     OW 7024   5.212   1.401   5.750
 2042SOL    HW1 7025   5.131   1.440   5.705
 2042SOL    HW2 7026   5.293   1.454   5.725
 2043SOL     OW 7027   0.138   4.072   1.324
 2043SOL    HW1 7028   0.192   4.019   1.258
 2043SOL    HW2 7029   0.190   4.083   1.409
 2044SOL     OW 7030   3.820   0.672   0.932
 2044SOL    HW1 7031   3.760   0.671   1.012
 2044SOL    HW2 7032   3.792   0.746   0.870
 2045SOL     OW 7033   0.935   6.422   5.352
 2045SOL    HW1 7034   0.857   6.452   5.407
 2045SOL    HW2 7035   0.917   6.332   5.315
 2046SOL     OW 7036   1.064   1.751   4.883
 2046SOL    HW1 7037   1.082   1.849   4.891
 2046SOL    HW2 7038   1.073   1.707   4.972
 2047SOL     OW 7039   0.258   0.743   0.773
 2047SOL    HW1 7040   0.205   0.674   0.823
 2047SOL    HW2 7041   0.265   0.716   0.677
 2048SOL     OW 7042   0.867   1.941   4.253
 2048SOL    HW1 7043   0.814   1.911   4.174
 2048SOL    HW2 7044   0.956   1.895   4.253
 2049SOL     OW 7045   4.812   1.964   5.215
 2049SOL    HW1 7046   4.754   2.024   5.161
 2049SOL    HW2 7047   4.872   1.912   5.155
 2050SOL     OW 7048   0.408   1.439   4.077
 2050SOL    HW1 7049   0.394   1.535   4.098
 2050SOL    HW2 7050   0.374   1.383   4.152
 2051SOL     OW 7051   3.001   6.583   6.954
 2051SOL    HW1 7052   3.093   6.617   6.936
 2051SOL    HW2 7053   2.982   6.587   0.032
 2052SOL     OW 7054   1.446   4.386   6.354
 2052SOL    HW1 7055   1.483   4.298   6.323
 2052SOL    HW2 7056   1.402   4.373   6.443
 2053SOL     OW 7057   6.728   6.426   3.268
 2053SOL    HW1 7058   6.770   6.448   3.356
 2053SOL    HW2 7059   6.753   6.333   3.241
 2054SOL     OW 7060   3.025   3.488   3.227
 2054SOL    HW1 7061   2.995   3.546   3.151
 2054SOL    HW2 7062   3.051   3.398   3.193
 2055SOL     OW 7063   3.324   2.239   5.766
 2055SOL    HW1 7064   3.324   2.337   5.782
 2055SOL    HW2 7065   3.239   2.212   5.720
 2056SOL     OW 7066   4.265   4.293   1.058
 2056SOL    HW1 7067   4.242   4.283   1.155
 2056SOL    HW2 7068   4.312   4.380   1.044
 2057SOL     OW 7069   5.164   2.432   4.338
 2057SOL    HW1 7070   5.195   2.386   4.254
 2057SOL    HW2 7071   5.065   2.425   4.346
 2058SOL     OW 7072   0.058   0.081   2.814
 2058SOL    HW1 7073   0.017   0.046   2.898
 2058SOL    HW2 7074   0.024   0.173   2.796
 2059SOL     OW 7075   0.853   0.643   5.876
 2059SOL    HW1 7076   0.950   0.667   5.868
 2059SOL    HW2 7077   0.810   0.702   5.944
 2060SOL     OW 7078   1.506   2.289   6.909
 2060SOL    HW1 7079   1.439   2.352   6.948
 2060SOL    HW2 7080   1.593   2.300   6.956
 2061SOL     OW 7081   1.935   2.659   2.157
 2061SOL    HW1 7082   1.913   2.691   2.249
 2061SOL    HW2 7083   1.904   2.727   2.090
 2062SOL     OW 7084   0.374   5.109   5.076
 2062SOL    HW1 7085   0.467   5.138   5.054
 2062SOL    HW2 7086   0.362   5.111   5.175
 2063SOL     OW 7087   0.790   1.028   4.646
 2063SOL    HW1 7088   0.854   0.982   4.708
 2063SOL    HW2 7089   0.839   1.058   4.564
 2064SOL     OW 7090   0.853   3.030   3.626
 2064SOL    HW1 7091   0.795   3.026   3.708
 2064SOL    HW2 7092   0.949   3.030   3.654
 2065SOL     OW 7093   4.164   3.598   5.438
 2065SOL    HW1 7094   4.150   3.500   5.450
 2065SOL    HW2 7095   4.261   3.619   5.446
 2066SOL     OW 7096   0.771   3.259   5.939
 2066SOL    HW1 7097   0.867   3.269   5.914
 2066SOL    HW2 7098   0.761   3.275   6.038
 2067SOL     OW 7099   6.637   5.169   1.675
 2067SOL    HW1 7100   6.703   5.243   1.666
 2067SOL    HW2 7101   6.561   5.183   1.611
 2068SOL     OW 7102   4.340   0.810   4.674
 2068SOL    HW1 7103   4.296   0.819   4.763
 2068SOL    HW2 7104   4.273   0.782   4.606
 2069SOL     OW 7105   0.159   1.811   3.712
 2069SOL    HW1 7106   0.244   1.819   3.765
 2069SOL    HW2 7107   0.087   1.863   3.757
 2070SOL     OW 7108   0.902   4.993   1.090
 2070SOL    HW1 7109   0.936   5.086   1.109
 2070SOL    HW2 7110   0.940   4.929   1.156
 2071SOL     OW 7111   0.213   1.427   5.620
 2071SOL    HW1 7112   0.279   1.502   5.614
 2071SOL    HW2 7113   0.122   1.464   5.635
 2072SOL     OW 7114   4.838   4.501   5.366
 2072SOL    HW1 7115   4.911   4.566   5.389
 2072SOL    HW2 7116   4.878   4.412   5.346
 2073SOL     OW 7117   3.086   5.497   6.530
 2073SOL    HW1 7118   3.077   5.452   6.441
 2073SOL    HW2 7119   3.181   5.493   6.560
 2074SOL     OW 7120   1.564   4.482   6.135
 2074SOL    HW1 7121   1.503   4.437   6.069
 2074SOL    HW2 7122   1.516   4.493   6.222
 2075SOL     OW 7123   6.374   2.662   1.016
 2075SOL    HW1 7124   6.398   2.641   0.921
 2075SOL    HW2 7125   6.276   2.648   1.029
 2076SOL     OW 7126   6.476   6.645   4.664
 2076SOL    HW1 7127   6.569   6.636   4.628
 2076SOL    HW2 7128   6.448   6.558   4.705
 2077SOL     OW 7129   6.422   4.631   0.752
 2077SOL    HW1 7130   6.470   4.706   0.706
 2077SOL    HW2 7131   6.328   4.628   0.718
 2078SOL     OW 7132   1.000   3.024   5.661
 2078SOL    HW1 7133   1.010   3.053   5.566
 2078SOL    HW2 7134   1.021   3.100   5.722
 2079SOL     OW 7135   5.280   1.310   2.234
 2079SOL    HW1 7136   5.206   1.275   2.292
 2079SOL    HW2 7137   5.299   1.405   2.257
 2080SOL     OW 7138   2.577   2.921   6.239
 2080SOL    HW1 7139   2.665   2.934   6.195
 2080SOL    HW2 7140   2.579   2.959   6.331
 2081SOL     OW 7141   6.087   5.598   2.227
 2081SOL    HW1 7142   5.998   5.622   2.188
 2081SOL    HW2 7143   6.113   5.666   2.295
 2082SOL     OW 7144   6.515   6.283   4.151
 2082SOL    HW1 7145   6.416   6.266   4.154
 2082SOL    HW2 7146   6.537   6.360   4.211
 2083SOL     OW 7147   0.105   6.769   3.804
 2083SOL    HW1 7148   0.118   6.744   3.708
 2083SOL    HW2 7149   0.190   6.754   3.854
 2084SOL     OW 7150   5.942   2.302   1.098
 2084SOL    HW1 7151   5.887   2.370   1.050
 2084SOL    HW2 7152   5.890   2.264   1.175
 2085SOL     OW 7153   5.755   5.810   1.167
 2085SOL    HW1 7154   5.735   5.726   1.116
 2085SOL    HW2 7155   5.853   5.830   1.160
 2086SOL     OW 7156   5.289   0.996   6.958
 2086SOL    HW1 7157   5.209   1.023   7.012
 2086SOL    HW2 7158   5.270   1.016   6.861
 2087SOL     OW 7159   4.103   1.548   6.693
 2087SOL    HW1 7160   4.085   1.468   6.635
 2087SOL    HW2 7161   4.023   1.609   6.691
 2088SOL     OW 7162   0.894   5.709   5.717
 2088SOL    HW1 7163   0.795   5.701   5.710
 2088SOL    HW2 7164   0.925   5.786   5.662
 2089SOL     OW 7165   2.326   3.240   0.153
 2089SOL    HW1 7166   2.334   3.334   0.119
 2089SOL    HW2 7167   2.329   3.240   0.253
 2090SOL     OW 7168   5.533   2.858   5.644
 2090SOL    HW1 7169   5.495   2.782   5.591
 2090SOL    HW2 7170   5.603   2.823   5.706
 2091SOL     OW 7171   5.132   6.487   1.393
 2091SOL    HW1 7172   5.058   6.421   1.381
 2091SOL    HW2 7173   5.095   6.573   1.426
 2092SOL     OW 7174   3.869   3.739   1.706
 2092SOL    HW1 7175   3.831   3.710   1.795
 2092SOL    HW2 7176   3.877   3.659   1.647
 2093SOL     OW 7177   4.013   1.192   1.582
 2093SOL    HW1 7178   4.065   1.194   1.496
 2093SOL    HW2 7179   4.060   1.247   1.651
 2094SOL     OW 7180   5.363   2.036   6.157
 2094SOL    HW1 7181   5.358   1.971   6.232
 2094SOL    HW2 7182   5.455   2.033   6.117
 2095SOL     OW 7183   5.502   5.453   4.223
 2095SOL    HW1 7184   5.505   5.355   4.240
 2095SOL    HW2 7185   5.452   5.471   4.138
 2096SOL     OW 7186   4.371   6.965   2.082
 2096SOL    HW1 7187   4.383   6.868   2.063
 2096SOL    HW2 7188   4.426   7.019   2.018
 2097SOL     OW 7189   0.728   5.911   6.355
 2097SOL    HW1 7190   0.647   5.941   6.304
 2097SOL    HW2 7191   0.722   5.946   6.448
 2098SOL     OW 7192   2.871   5.843   3.644
 2098SOL    HW1 7193   2.956   5.821   3.693
 2098SOL    HW2 7194   2.793   5.807   3.696
 2099SOL     OW 7195   4.854   1.687   6.282
 2099SOL    HW1 7196   4.755   1.680   6.292
 2099SOL    HW2 7197   4.877   1.776   6.242
 2100SOL     OW 7198   5.076   0.126   1.594
 2100SOL    HW1 7199   4.977   0.121   1.612
 2100SOL    HW2 7200   5.091   0.141   1.496
 2101SOL     OW 7201   0.702   0.014   2.408
 2101SOL    HW1 7202   0.648   0.025   2.492
 2101SOL    HW2 7203   0.746   0.101   2.385
 2102SOL     OW 7204   3.786   2.028   1.047
 2102SOL    HW1 7205   3.807   1.937   1.082
 2102SOL    HW2 7206   3.851   2.094   1.084
 2103SOL     OW 7207   2.678   6.032   0.262
 2103SOL    HW1 7208   2.738   6.096   0.309
 2103SOL    HW2 7209   2.704   5.938   0.284
 2104SOL     OW 7210   1.646   4.020   3.378
 2104SOL    HW1 7211   1.645   4.043   3.475
 2104SOL    HW2 7212   1.558   3.981   3.352
 2105SOL     OW 7213   5.573   6.100   5.085
 2105SOL    HW1 7214   5.544   6.123   4.993
 2105SOL    HW2 7215   5.497   6.115   5.149
 2106SOL     OW 7216   4.349   3.105   0.766
 2106SOL    HW1 7217   4.428   3.068   0.716
 2106SOL    HW2 7218   4.267   3.098   0.709
 2107SOL     OW 7219   5.610   4.761   5.311
 2107SOL    HW1 7220   5.565   4.797   5.229
 2107SOL    HW2 7221   5.574   4.670   5.333
 2108SOL     OW 7222   4.994   0.092   5.328
 2108SOL    HW1 7223   5.024   0.012   5.276
 2108SOL    HW2 7224   4.895   0.100   5.323
 2109SOL     OW 7225   2.845   6.563   2.162
 2109SOL    HW1 7226   2.888   6.648   2.132
 2109SOL    HW2 7227   2.780   6.531   2.092
 2110SOL     OW 7228   3.807   6.694   0.111
 2110SOL    HW1 7229   3.755   6.694   0.196
 2110SOL    HW2 7230   3.789   6.609   0.061
 2111SOL     OW 7231   0.803   2.314   5.960
 2111SOL    HW1 7232   0.901   2.328   5.948
 2111SOL    HW2 7233   0.763   2.392   6.009
 2112SOL     OW 7234   0.988   0.534   0.075
 2112SOL    HW1 7235   1.063   0.469   0.073
 2112SOL    HW2 7236   1.017   0.618   0.120
 2113SOL     OW 7237   0.366   1.244   4.586
 2113SOL    HW1 7238   0.451   1.233   4.637
 2113SOL    HW2 7239   0.332   1.154   4.558
 2114SOL     OW 7240   1.421   1.567   6.134
 2114SOL    HW1 7241   1.421   1.467   6.134
 2114SOL    HW2 7242   1.337   1.600   6.177
 2115SOL     OW 7243   6.350   6.199   3.314
 2115SOL    HW1 7244   6.362   6.293   3.346
 2115SOL    HW2 7245   6.427   6.174   3.255
 2116SOL     OW 7246   1.254   1.788   0.102
 2116SOL    HW1 7247   1.156   1.782   0.120
 2116SOL    HW2 7248   1.286   1.881   0.121
 2117SOL     OW 7249   6.469   1.837   2.283
 2117SOL    HW1 7250   6.526   1.842   2.201
 2117SOL    HW2 7251   6.517   1.783   2.353
 2118SOL     OW 7252   6.792   2.635   2.796
 2118SOL    HW1 7253   6.719   2.674   2.739
 2118SOL    HW2 7254   6.752   2.598   2.880
 2119SOL     OW 7255   1.299   1.494   0.614
 2119SOL    HW1 7256   1.220   1.435   0.599
 2119SOL    HW2 7257   1.295   1.534   0.705
 2120SOL     OW 7258   5.891   1.032   0.818
 2120SOL    HW1 7259   5.823   0.981   0.767
 2120SOL    HW2 7260   5.855   1.122   0.842
 2121SOL     OW 7261   1.644   0.468   6.996
 2121SOL    HW1 7262   1.683   0.560   6.987
 2121SOL    HW2 7263   1.639   0.425   6.906
 2122SOL     OW 7264   6.213   1.387   4.382
 2122SOL    HW1 7265   6.311   1.399   4.369
 2122SOL    HW2 7266   6.163   1.439   4.313
 2123SOL     OW 7267   1.200   5.322   2.784
 2123SOL    HW1 7268   1.229   5.273   2.866
 2123SOL    HW2 7269   1.259   5.296   2.707
 2124SOL     OW 7270   4.176   3.995   6.055
 2124SOL    HW1 7271   4.130   4.082   6.074
 2124SOL    HW2 7272   4.196   3.949   6.142
 2125SOL     OW 7273   1.647   5.958   4.550
 2125SOL    HW1 7274   1.688   6.009   4.475
 2125SOL    HW2 7275   1.648   6.015   4.633
 2126SOL     OW 7276   2.656   3.884   6.923
 2126SOL    HW1 7277   2.582   3.951   6.928
 2126SOL    HW2 7278   2.720   3.911   6.852
 2127SOL     OW 7279   0.635   2.464   4.429
 2127SOL    HW1 7280   0.591   2.440   4.515
 2127SOL    HW2 7281   0.567   2.467   4.356
 2128SOL     OW 7282   5.276   3.226   1.326
 2128SOL    HW1 7283   5.290   3.211   1.424
 2128SOL    HW2 7284   5.232   3.146   1.286
 2129SOL     OW 7285   5.652   4.129   4.444
 2129SOL    HW1 7286   5.600   4.105   4.362
 2129SOL    HW2 7287   5.648   4.228   4.459
 2130SOL     OW 7288   2.886   0.891   1.206
 2130SOL    HW1 7289   2.813   0.828   1.181
 2130SOL    HW2 7290   2.971   0.840   1.220
 2131SOL     OW 7291   5.048   0.463   5.554
 2131SOL    HW1 7292   4.989   0.488   5.477
 2131SOL    HW2 7293   5.098   0.544   5.585
 2132SOL     OW 7294   2.146   2.252   0.512
 2132SOL    HW1 7295   2.232   2.264   0.563
 2132SOL    HW2 7296   2.162   2.274   0.416
 2133SOL     OW 7297   3.098   2.199   1.701
 2133SOL    HW1 7298   3.042   2.189   1.784
 2133SOL    HW2 7299   3.040   2.225   1.624
 2134SOL     OW 7300   2.143   6.511   5.192
 2134SOL    HW1 7301   2.127   6.609   5.178
 2134SOL    HW2 7302   2.240   6.491   5.180
 2135SOL     OW 7303   0.706   6.977   4.342
 2135SOL    HW1 7304   0.622   6.938   4.305
 2135SOL    HW2 7305   0.688   0.049   4.376
 2136SOL     OW 7306   1.408   4.603   3.740
 2136SOL    HW1 7307   1.462   4.677   3.781
 2136SOL    HW2 7308   1.354   4.640   3.664
 2137SOL     OW 7309   1.151   1.057   4.601
 2137SOL    HW1 7310   1.128   0.982   4.663
 2137SOL    HW2 7311   1.240   1.039   4.558
 2138SOL     OW 7312   0.775   2.427   6.863
 2138SOL    HW1 7313   0.788   2.511   6.810
 2138SOL    HW2 7314   0.793   2.445   6.960
 2139SOL     OW 7315   2.111   0.929   4.721
 2139SOL    HW1 7316   2.026   0.897   4.680
 2139SOL    HW2 7317   2.183   0.863   4.704
 2140SOL     OW 7318   1.876   5.854   4.028
 2140SOL    HW1 7319   1.974   5.870   4.030
 2140SOL    HW2 7320   1.840   5.855   4.121
 2141SOL     OW 7321   6.477   1.565   6.953
 2141SOL    HW1 7322   6.470   1.513   0.018
 2141SOL    HW2 7323   6.503   1.504   6.878
 2142SOL     OW 7324   2.795   1.576   3.378
 2142SOL    HW1 7325   2.721   1.631   3.338
 2142SOL    HW2 7326   2.828   1.510   3.311
 2143SOL     OW 7327   3.740   6.458   6.962
 2143SOL    HW1 7328   3.649   6.421   6.979
 2143SOL    HW2 7329   3.749   6.479   6.865
 2144SOL     OW 7330   6.899   0.802   2.683
 2144SOL    HW1 7331   6.915   0.845   2.772
 2144SOL    HW2 7332   6.887   0.872   2.614
 2145SOL     OW 7333   4.027   5.394   2.762
 2145SOL    HW1 7334   4.007   5.478   2.812
 2145SOL    HW2 7335   3.988   5.399   2.670
 2146SOL     OW 7336   3.607   2.547   1.198
 2146SOL    HW1 7337   3.599   2.646   1.191
 2146SOL    HW2 7338   3.558   2.515   1.279
 2147SOL     OW 7339   0.153   0.786   5.128
 2147SOL    HW1 7340   0.067   0.737   5.145
 2147SOL    HW2 7341   0.192   0.754   5.042
 2148SOL     OW 7342   4.855   2.921   2.679
 2148SOL    HW1 7343   4.845   2.948   2.775
 2148SOL    HW2 7344   4.802   2.838   2.662
 2149SOL     OW 7345   3.549   0.839   3.560
 2149SOL    HW1 7346   3.593   0.794   3.637
 2149SOL    HW2 7347   3.604   0.918   3.532
 2150SOL     OW 7348   3.692   1.497   2.523
 2150SOL    HW1 7349   3.754   1.575   2.513
 2150SOL    HW2 7350   3.606   1.529   2.564
 2151SOL     OW 7351   3.546   2.944   5.745
 2151SOL    HW1 7352   3.550   2.932   5.646
 2151SOL    HW2 7353   3.526   3.039   5.767
 2152SOL     OW 7354   6.084   5.889   1.866
 2152SOL    HW1 7355   6.138   5.960   1.911
 2152SOL    HW2 7356   6.086   5.904   1.767
 2153SOL     OW 7357   4.719   2.694   2.686
 2153SOL    HW1 7358   4.649   2.656   2.626
 2153SOL    HW2 7359   4.791   2.627   2.701
 2154SOL     OW 7360   4.241   5.773   4.967
 2154SOL    HW1 7361   4.178   5.850   4.959
 2154SOL    HW2 7362   4.205   5.695   4.916
 2155SOL     OW 7363   6.327   3.860   6.777
 2155SOL    HW1 7364   6.248   3.811   6.815
 2155SOL    HW2 7365   6.409   3.804   6.785
 2156SOL     OW 7366   1.057   1.318   1.648
 2156SOL    HW1 7367   1.017   1.301   1.738
 2156SOL    HW2 7368   0.997   1.278   1.578
 2157SOL     OW 7369   0.598   1.211   4.711
 2157SOL    HW1 7370   0.690   1.191   4.677
 2157SOL    HW2 7371   0.600   1.293   4.768
 2158SOL     OW 7372   4.554   6.244   2.436
 2158SOL    HW1 7373   4.643   6.200   2.447
 2158SOL    HW2 7374   4.534   6.256   2.339
 2159SOL     OW 7375   2.069   6.317   4.997
 2159SOL    HW1 7376   2.159   6.315   4.954
 2159SOL    HW2 7377   2.067   6.387   5.068
 2160SOL     OW 7378   2.953   3.371   0.597
 2160SOL    HW1 7379   2.965   3.445   0.532
 2160SOL    HW2 7380   3.041   3.324   0.610
 2161SOL     OW 7381   5.132   2.236   3.704
 2161SOL    HW1 7382   5.185   2.304   3.754
 2161SOL    HW2 7383   5.155   2.144   3.737
 2162SOL     OW 7384   1.110   1.389   6.895
 2162SOL    HW1 7385   1.167   1.431   6.966
 2162SOL    HW2 7386   1.058   1.461   6.848
 2163SOL     OW 7387   2.801   2.548   0.479
 2163SOL    HW1 7388   2.728   2.549   0.410
 2163SOL    HW2 7389   2.854   2.632   0.473
 2164SOL     OW 7390   0.983   0.037   1.402
 2164SOL    HW1 7391   0.914   6.995   1.440
 2164SOL    HW2 7392   1.071   0.019   1.445
 2165SOL     OW 7393   2.832   6.936   1.615
 2165SOL    HW1 7394   2.891   7.012   1.644
 2165SOL    HW2 7395   2.817   6.875   1.693
 2166SOL     OW 7396   6.079   2.325   6.452
 2166SOL    HW1 7397   6.107   2.251   6.391
 2166SOL    HW2 7398   5.979   2.326   6.460
 2167SOL     OW 7399   2.576   0.298   1.704
 2167SOL    HW1 7400   2.498   0.238   1.721
 2167SOL    HW2 7401   2.648   0.277   1.770
 2168SOL     OW 7402   6.000   5.748   4.844
 2168SOL    HW1 7403   5.977   5.747   4.941
 2168SOL    HW2 7404   5.986   5.657   4.805
 2169SOL     OW 7405   5.602   2.203   5.156
 2169SOL    HW1 7406   5.628   2.278   5.095
 2169SOL    HW2 7407   5.508   2.216   5.187
 2170SOL     OW 7408   5.712   5.316   4.561
 2170SOL    HW1 7409   5.675   5.404   4.533
 2170SOL    HW2 7410   5.640   5.261   4.603
 2171SOL     OW 7411   6.547   2.396   0.557
 2171SOL    HW1 7412   6.449   2.380   0.550
 2171SOL    HW2 7413   6.594   2.347   0.484
 2172SOL     OW 7414   2.428   0.635   1.126
 2172SOL    HW1 7415   2.384   0.584   1.200
 2172SOL    HW2 7416   2.470   0.572   1.062
 2173SOL     OW 7417   5.026   1.864   5.023
 2173SOL    HW1 7418   5.102   1.876   5.087
 2173SOL    HW2 7419   5.035   1.774   4.979
 2174SOL     OW 7420   1.266   5.439   4.712
 2174SOL    HW1 7421   1.355   5.398   4.695
 2174SOL    HW2 7422   1.278   5.529   4.754
 2175SOL     OW 7423   1.982   6.449   5.389
 2175SOL    HW1 7424   2.037   6.458   5.306
 2175SOL    HW2 7425   2.031   6.491   5.465
 2176SOL     OW 7426   1.775   2.259   1.912
 2176SOL    HW1 7427   1.741   2.257   1.818
 2176SOL    HW2 7428   1.839   2.335   1.923
 2177SOL     OW 7429   6.668   1.260   2.324
 2177SOL    HW1 7430   6.729   1.335   2.299
 2177SOL    HW2 7431   6.596   1.249   2.255
 2178SOL     OW 7432   0.951   5.171   0.666
 2178SOL    HW1 7433   1.009   5.225   0.605
 2178SOL    HW2 7434   0.984   5.077   0.669
 2179SOL     OW 7435   1.006   4.821   3.967
 2179SOL    HW1 7436   0.949   4.767   4.030
 2179SOL    HW2 7437   0.955   4.903   3.939
 2180SOL     OW 7438   4.073   3.179   1.997
 2180SOL    HW1 7439   4.084   3.278   1.994
 2180SOL    HW2 7440   4.163   3.136   2.009
 2181SOL     OW 7441   4.628   6.227   0.302
 2181SOL    HW1 7442   4.660   6.135   0.285
 2181SOL    HW2 7443   4.645   6.252   0.397
 2182SOL     OW 7444   5.559   1.947   0.449
 2182SOL    HW1 7445   5.576   2.039   0.416
 2182SOL    HW2 7446   5.617   1.928   0.528
 2183SOL     OW 7447   2.698   2.840   0.980
 2183SOL    HW1 7448   2.731   2.748   0.999
 2183SOL    HW2 7449   2.673   2.885   1.066
 2184SOL     OW 7450   4.431   2.982   6.043
 2184SOL    HW1 7451   4.501   2.921   6.081
 2184SOL    HW2 7452   4.400   2.946   5.955
 2185SOL     OW 7453   1.265   0.688   1.028
 2185SOL    HW1 7454   1.203   0.621   0.988
 2185SOL    HW2 7455   1.310   0.739   0.955
 2186SOL     OW 7456   0.008   4.965   2.782
 2186SOL    HW1 7457   6.990   4.935   2.870
 2186SOL    HW2 7458   0.033   4.884   2.727
 2187SOL     OW 7459   0.970   1.493   6.506
 2187SOL    HW1 7460   0.910   1.572   6.510
 2187SOL    HW2 7461   1.044   1.504   6.573
 2188SOL     OW 7462   4.952   0.736   3.583
 2188SOL    HW1 7463   4.888   0.806   3.550
 2188SOL    HW2 7464   4.974   0.673   3.509
 2189SOL     OW 7465   2.816   0.365   6.817
 2189SOL    HW1 7466   2.903   0.413   6.807
 2189SOL    HW2 7467   2.832   0.270   6.842
 2190SOL     OW 7468   4.938   2.116   1.352
 2190SOL    HW1 7469   5.012   2.127   1.286
 2190SOL    HW2 7470   4.895   2.205   1.369
 2191SOL     OW 7471   2.676   1.983   7.000
 2191SOL    HW1 7472   2.645   1.912   0.043
 2191SOL    HW2 7473   2.714   1.941   6.917
 2192SOL     OW 7474   3.831   5.257   3.601
 2192SOL    HW1 7475   3.870   5.188   3.662
 2192SOL    HW2 7476   3.901   5.287   3.536
 2193SOL     OW 7477   0.523   5.147   5.785
 2193SOL    HW1 7478   0.606   5.105   5.749
 2193SOL    HW2 7479   0.511   5.120   5.881
 2194SOL     OW 7480   3.389   0.303   1.414
 2194SOL    HW1 7481   3.289   0.305   1.406
 2194SOL    HW2 7482   3.421   0.208   1.415
 2195SOL     OW 7483   1.435   4.938   2.416
 2195SOL    HW1 7484   1.516   4.983   2.379
 2195SOL    HW2 7485   1.353   4.983   2.382
 2196SOL     OW 7486   4.306   2.910   6.985
 2196SOL    HW1 7487   4.310   2.934   6.888
 2196SOL    HW2 7488   4.224   2.857   7.003
 2197SOL     OW 7489   4.339   4.449   0.400
 2197SOL    HW1 7490   4.302   4.367   0.444
 2197SOL    HW2 7491   4.279   4.476   0.324
 2198SOL     OW 7492   6.183   4.576   0.391
 2198SOL    HW1 7493   6.272   4.530   0.389
 2198SOL    HW2 7494   6.111   4.508   0.397
 2199SOL     OW 7495   4.441   0.465   2.386
 2199SOL    HW1 7496   4.452   0.476   2.484
 2199SOL    HW2 7497   4.345   0.478   2.361
 2200SOL     OW 7498   2.406   6.896   4.577
 2200SOL    HW1 7499   2.332   6.900   4.511
 2200SOL    HW2 7500   2.467   6.974   4.564
 2201SOL     OW 7501   4.814   4.033   2.642
 2201SOL    HW1 7502   4.795   4.106   2.707
 2201SOL    HW2 7503   4.836   4.073   2.553
 2202SOL     OW 7504   5.042   5.812   3.755
 2202SOL    HW1 7505   5.026   5.722   3.795
 2202SOL    HW2 7506   5.056   5.879   3.828
 2203SOL     OW 7507   3.271   2.162   2.557
 2203SOL    HW1 7508   3.175   2.190   2.557
 2203SOL    HW2 7509   3.299   2.140   2.464
 2204SOL     OW 7510   2.664   2.434   1.195
 2204SOL    HW1 7511   2.593   2.502   1.180
 2204SOL    HW2 7512   2.635   2.369   1.265
 2205SOL     OW 7513   2.231   0.499   1.258
 2205SOL    HW1 7514   2.196   0.430   1.194
 2205SOL    HW2 7515   2.169   0.577   1.260
 2206SOL     OW 7516   2.094   2.814   0.337
 2206SOL    HW1 7517   2.025   2.886   0.331
 2206SOL    HW2 7518   2.179   2.846   0.296
 2207SOL     OW 7519   0.486   4.371   4.725
 2207SOL    HW1 7520   0.576   4.414   4.728
 2207SOL    HW2 7521   0.474   4.314   4.807
 2208SOL     OW 7522   6.790   4.906   1.848
 2208SOL    HW1 7523   6.877   4.946   1.820
 2208SOL    HW2 7524   6.715   4.950   1.799
 2209SOL     OW 7525   1.274   6.404   1.284
 2209SOL    HW1 7526   1.193   6.430   1.336
 2209SOL    HW2 7527   1.255   6.412   1.186
 2210SOL     OW 7528   1.079   5.694   3.766
 2210SOL    HW1 7529   1.088   5.615   3.827
 2210SOL    HW2 7530   1.040   5.771   3.817
 2211SOL     OW 7531   0.421   1.611   5.615
 2211SOL    HW1 7532   0.482   1.681   5.578
 2211SOL    HW2 7533   0.421   1.617   5.715
 2212SOL     OW 7534   2.007   6.917   6.722
 2212SOL    HW1 7535   1.926   6.859   6.732
 2212SOL    HW2 7536   2.065   6.880   6.649
 2213SOL     OW 7537   3.318   1.281   3.434
 2213SOL    HW1 7538   3.396   1.281   3.371
 2213SOL    HW2 7539   3.309   1.190   3.476
 2214SOL     OW 7540   4.138   0.314   5.369
 2214SOL    HW1 7541   4.214   0.253   5.344
 2214SOL    HW2 7542   4.155   0.405   5.332
 2215SOL     OW 7543   5.720   2.845   4.634
 2215SOL    HW1 7544   5.733   2.943   4.653
 2215SOL    HW2 7545   5.761   2.791   4.708
 2216SOL     OW 7546   2.264   0.597   1.919
 2216SOL    HW1 7547   2.203   0.663   1.963
 2216SOL    HW2 7548   2.234   0.581   1.825
 2217SOL     OW 7549   4.477   0.999   2.039
 2217SOL    HW1 7550   4.449   1.071   1.976
 2217SOL    HW2 7551   4.420   1.000   2.120
 2218SOL     OW 7552   1.083   6.789   2.569
 2218SOL    HW1 7553   1.111   6.759   2.661
 2218SOL    HW2 7554   1.146   6.749   2.502
 2219SOL     OW 7555   1.508   1.918   2.834
 2219SOL    HW1 7556   1.535   2.010   2.805
 2219SOL    HW2 7557   1.410   1.918   2.857
 2220SOL     OW 7558   0.789   0.475   1.189
 2220SOL    HW1 7559   0.705   0.505   1.145
 2220SOL    HW2 7560   0.821   0.390   1.146
 2221SOL     OW 7561   0.203   1.557   0.178
 2221SOL    HW1 7562   0.125   1.498   0.201
 2221SOL    HW2 7563   0.196   1.643   0.228
 2222SOL     OW 7564   5.868   5.790   3.091
 2222SOL    HW1 7565   5.896   5.803   3.186
 2222SOL    HW2 7566   5.816   5.705   3.084
 2223SOL     OW 7567   6.222   5.207   1.292
 2223SOL    HW1 7568   6.145   5.178   1.234
 2223SOL    HW2 7569   6.211   5.303   1.317
 2224SOL     OW 7570   0.681   5.101   2.349
 2224SOL    HW1 7571   0.781   5.101   2.336
 2224SOL    HW2 7572   0.639   5.154   2.276
 2225SOL     OW 7573   0.526   4.512   1.228
 2225SOL    HW1 7574   0.518   4.573   1.149
 2225SOL    HW2 7575   0.491   4.559   1.310
 2226SOL     OW 7576   4.175   3.848   1.415
 2226SOL    HW1 7577   4.165   3.901   1.499
 2226SOL    HW2 7578   4.108   3.774   1.413
 2227SOL     OW 7579   0.808   3.053   4.578
 2227SOL    HW1 7580   0.906   3.068   4.562
 2227SOL    HW2 7581   0.791   2.955   4.591
 2228SOL     OW 7582   2.727   5.068   4.783
 2228SOL    HW1 7583   2.744   5.000   4.711
 2228SOL    HW2 7584   2.677   5.145   4.745
 2229SOL     OW 7585   5.826   6.893   3.244
 2229SOL    HW1 7586   5.753   6.934   3.189
 2229SOL    HW2 7587   5.903   6.869   3.185
 2230SOL     OW 7588   3.121   5.254   0.878
 2230SOL    HW1 7589   3.021   5.261   0.880
 2230SOL    HW2 7590   3.160   5.333   0.925
 2231SOL     OW 7591   2.723   5.726   1.108
 2231SOL    HW1 7592   2.780   5.651   1.144
 2231SOL    HW2 7593   2.631   5.692   1.091
 2232SOL     OW 7594   6.341   2.851   3.734
 2232SOL    HW1 7595   6.289   2.886   3.812
 2232SOL    HW2 7596   6.432   2.824   3.764
 2233SOL     OW 7597   2.956   1.880   6.824
 2233SOL    HW1 7598   2.867   1.848   6.794
 2233SOL    HW2 7599   2.958   1.886   6.923
 2234SOL     OW 7600   3.265   2.098   1.363
 2234SOL    HW1 7601   3.224   2.059   1.445
 2234SOL    HW2 7602   3.308   2.025   1.309
 2235SOL     OW 7603   1.803   0.963   1.470
 2235SOL    HW1 7604   1.851   1.046   1.444
 2235SOL    HW2 7605   1.797   0.902   1.391
 2236SOL     OW 7606   6.994   3.923   5.935
 2236SOL    HW1 7607   0.031   3.959   6.009
 2236SOL    HW2 7608   0.003   3.962   5.848
 2237SOL     OW 7609   6.316   3.054   4.313
 2237SOL    HW1 7610   6.233   3.000   4.325
 2237SOL    HW2 7611   6.305   3.116   4.235
 2238SOL     OW 7612   6.739   6.335   1.907
 2238SOL    HW1 7613   6.712   6.239   1.912
 2238SOL    HW2 7614   6.662   6.393   1.934
 2239SOL     OW 7615   5.647   5.445   2.679
 2239SOL    HW1 7616   5.576   5.494   2.728
 2239SOL    HW2 7617   5.609   5.404   2.596
 2240SOL     OW 7618   5.809   3.623   1.913
 2240SOL    HW1 7619   5.826   3.590   1.821
 2240SOL    HW2 7620   5.752   3.705   1.909
 2241SOL     OW 7621   0.984   6.869   2.146
 2241SOL    HW1 7622   0.934   6.940   2.096
 2241SOL    HW2 7623   0.918   6.811   2.196
 2242SOL     OW 7624   4.809   1.889   2.653
 2242SOL    HW1 7625   4.787   1.934   2.739
 2242SOL    HW2 7626   4.846   1.798   2.671
 2243SOL     OW 7627   2.978   6.319   5.572
 2243SOL    HW1 7628   2.977   6.367   5.659
 2243SOL    HW2 7629   3.031   6.234   5.580
 2244SOL     OW 7630   2.790   0.760   5.218
 2244SOL    HW1 7631   2.718   0.696   5.246
 2244SOL    HW2 7632   2.857   0.712   5.162
 2245SOL     OW 7633   0.250   1.810   2.081
 2245SOL    HW1 7634   0.290   1.901   2.076
 2245SOL    HW2 7635   0.163   1.809   2.032
 2246SOL     OW 7636   1.455   4.604   4.744
 2246SOL    HW1 7637   1.546   4.566   4.727
 2246SOL    HW2 7638   1.406   4.545   4.809
 2247SOL     OW 7639   1.751   1.417   5.502
 2247SOL    HW1 7640   1.705   1.495   5.458
 2247SOL    HW2 7641   1.782   1.353   5.431
 2248SOL     OW 7642   4.528   4.297   5.209
 2248SOL    HW1 7643   4.429   4.312   5.203
 2248SOL    HW2 7644   4.574   4.343   5.132
 2249SOL     OW 7645   4.372   5.474   4.849
 2249SOL    HW1 7646   4.443   5.544   4.836
 2249SOL    HW2 7647   4.316   5.469   4.766
 2250SOL     OW 7648   5.276   5.179   0.574
 2250SOL    HW1 7649   5.206   5.230   0.625
 2250SOL    HW2 7650   5.295   5.227   0.488
 2251SOL     OW 7651   0.242   0.657   6.250
 2251SOL    HW1 7652   0.173   0.690   6.185
 2251SOL    HW2 7653   0.332   0.663   6.209
 2252SOL     OW 7654   3.743   1.432   5.619
 2252SOL    HW1 7655   3.836   1.467   5.635
 2252SOL    HW2 7656   3.713   1.380   5.700
 2253SOL     OW 7657   1.334   2.486   5.960
 2253SOL    HW1 7658   1.244   2.444   5.948
 2253SOL    HW2 7659   1.405   2.418   5.944
 2254SOL     OW 7660   1.913   3.539   5.562
 2254SOL    HW1 7661   1.964   3.470   5.510
 2254SOL    HW2 7662   1.958   3.555   5.650
 2255SOL     OW 7663   5.219   3.135   0.654
 2255SOL    HW1 7664   5.232   3.107   0.559
 2255SOL    HW2 7665   5.268   3.072   0.715
 2256SOL     OW 7666   3.394   4.949   2.106
 2256SOL    HW1 7667   3.395   5.001   2.021
 2256SOL    HW2 7668   3.469   4.883   2.106
 2257SOL     OW 7669   2.083   3.564   3.888
 2257SOL    HW1 7670   1.994   3.520   3.882
 2257SOL    HW2 7671   2.130   3.532   3.970
 2258SOL     OW 7672   2.187   5.310   5.306
 2258SOL    HW1 7673   2.156   5.221   5.273
 2258SOL    HW2 7674   2.267   5.339   5.254
 2259SOL     OW 7675   6.358   3.217   6.408
 2259SOL    HW1 7676   6.452   3.249   6.396
 2259SOL    HW2 7677   6.340   3.201   6.505
 2260SOL     OW 7678   4.831   3.994   0.796
 2260SOL    HW1 7679   4.884   4.050   0.859
 2260SOL    HW2 7680   4.766   3.938   0.848
 2261SOL     OW 7681   3.614   6.792   5.178
 2261SOL    HW1 7682   3.676   6.724   5.140
 2261SOL    HW2 7683   3.526   6.749   5.200
 2262SOL     OW 7684   3.297   1.667   3.377
 2262SOL    HW1 7685   3.357   1.619   3.441
 2262SOL    HW2 7686   3.341   1.752   3.347
 2263SOL     OW 7687   0.155   4.312   5.571
 2263SOL    HW1 7688   0.233   4.375   5.575
 2263SOL    HW2 7689   0.125   4.302   5.476
 2264SOL     OW 7690   3.433   4.151   3.762
 2264SOL    HW1 7691   3.519   4.168   3.809
 2264SOL    HW2 7692   3.379   4.084   3.814
 2265SOL     OW 7693   0.328   6.799   2.843
 2265SOL    HW1 7694   0.261   6.745   2.794
 2265SOL    HW2 7695   0.413   6.803   2.791
 2266SOL     OW 7696   5.799   6.935   6.914
 2266SOL    HW1 7697   5.707   6.972   6.897
 2266SOL    HW2 7698   5.866   6.992   6.867
 2267SOL     OW 7699   5.199   1.980   5.327
 2267SOL    HW1 7700   5.166   2.071   5.302
 2267SOL    HW2 7701   5.282   1.959   5.276
 2268SOL     OW 7702   6.188   5.045   6.678
 2268SOL    HW1 7703   6.171   4.954   6.638
 2268SOL    HW2 7704   6.147   5.049   6.769
 2269SOL     OW 7705   0.250   5.942   4.159
 2269SOL    HW1 7706   0.234   5.880   4.235
 2269SOL    HW2 7707   0.228   6.036   4.186
 2270SOL     OW 7708   4.007   3.405   2.648
 2270SOL    HW1 7709   4.044   3.363   2.565
 2270SOL    HW2 7710   4.017   3.504   2.643
 2271SOL     OW 7711   0.450   4.438   2.827
 2271SOL    HW1 7712   0.438   4.537   2.818
 2271SOL    HW2 7713   0.515   4.418   2.900
 2272SOL     OW 7714   4.845   2.177   6.197
 2272SOL    HW1 7715   4.885   2.152   6.109
 2272SOL    HW2 7716   4.838   2.277   6.204
 2273SOL     OW 7717   0.509   0.848   3.809
 2273SOL    HW1 7718   0.466   0.925   3.761
 2273SOL    HW2 7719   0.438   0.789   3.848
 2274SOL     OW 7720   1.386   3.756   2.764
 2274SOL    HW1 7721   1.485   3.749   2.775
 2274SOL    HW2 7722   1.362   3.850   2.738
 2275SOL     OW 7723   4.934   6.187   3.551
 2275SOL    HW1 7724   4.920   6.184   3.452
 2275SOL    HW2 7725   4.879   6.115   3.594
 2276SOL     OW 7726   3.427   5.360   1.731
 2276SOL    HW1 7727   3.494   5.426   1.697
 2276SOL    HW2 7728   3.422   5.365   1.831
 2277SOL     OW 7729   3.608   3.547   1.181
 2277SOL    HW1 7730   3.609   3.545   1.081
 2277SOL    HW2 7731   3.592   3.454   1.215
 2278SOL     OW 7732   5.214   6.744   1.019
 2278SOL    HW1 7733   5.144   6.673   1.014
 2278SOL    HW2 7734   5.247   6.765   0.927
 2279SOL     OW 7735   5.411   4.051   5.148
 2279SOL    HW1 7736   5.350   4.086   5.077
 2279SOL    HW2 7737   5.488   4.113   5.160
 2280SOL     OW 7738   5.821   6.955   6.286
 2280SOL    HW1 7739   5.890   7.009   6.239
 2280SOL    HW2 7740   5.784   6.887   6.222
 2281SOL     OW 7741   3.374   2.773   0.427
 2281SOL    HW1 7742   3.300   2.765   0.360
 2281SOL    HW2 7743   3.461   2.773   0.379
 2282SOL     OW 7744   4.319   5.701   2.250
 2282SOL    HW1 7745   4.304   5.795   2.221
 2282SOL    HW2 7746   4.266   5.639   2.192
 2283SOL     OW 7747   6.899   3.839   1.919
 2283SOL    HW1 7748   6.860   3.780   1.990
 2283SOL    HW2 7749   6.840   3.837   1.838
 2284SOL     OW 7750   2.658   2.365   2.235
 2284SOL    HW1 7751   2.681   2.332   2.326
 2284SOL    HW2 7752   2.737   2.353   2.174
 2285SOL     OW 7753   1.912   3.744   6.456
 2285SOL    HW1 7754   1.963   3.718   6.374
 2285SOL    HW2 7755   1.923   3.673   6.526
 2286SOL     OW 7756   5.163   0.002   4.156
 2286SOL    HW1 7757   5.228   7.007   4.081
 2286SOL    HW2 7758   5.213   0.012   4.242
 2287SOL     OW 7759   2.218   2.786   1.440
 2287SOL    HW1 7760   2.241   2.694   1.408
 2287SOL    HW2 7761   2.288   2.818   1.504
 2288SOL     OW 7762   2.006   5.977   4.312
 2288SOL    HW1 7763   1.911   5.947   4.300
 2288SOL    HW2 7764   2.065   5.925   4.250
 2289SOL     OW 7765   4.439   1.696   0.421
 2289SOL    HW1 7766   4.490   1.769   0.465
 2289SOL    HW2 7767   4.423   1.720   0.325
 2290SOL     OW 7768   3.149   3.264   3.143
 2290SOL    HW1 7769   3.160   3.261   3.044
 2290SOL    HW2 7770   3.239   3.272   3.186
 2291SOL     OW 7771   1.274   2.931   6.421
 2291SOL    HW1 7772   1.212   2.898   6.492
 2291SOL    HW2 7773   1.249   2.891   6.333
 2292SOL     OW 7774   5.278   1.584   2.701
 2292SOL    HW1 7775   5.329   1.660   2.661
 2292SOL    HW2 7776   5.194   1.569   2.649
 2293SOL     OW 7777   0.351   0.372   0.521
 2293SOL    HW1 7778   0.260   0.377   0.479
 2293SOL    HW2 7779   0.395   0.286   0.496
 2294SOL     OW 7780   6.885   0.899   5.645
 2294SOL    HW1 7781   6.951   0.947   5.588
 2294SOL    HW2 7782   6.802   0.880   5.593
 2295SOL     OW 7783   5.889   6.134   1.180
 2295SOL    HW1 7784   5.866   6.106   1.087
 2295SOL    HW2 7785   5.883   6.234   1.187
 2296SOL     OW 7786   3.497   5.067   4.120
 2296SOL    HW1 7787   3.580   5.020   4.149
 2296SOL    HW2 7788   3.513   5.110   4.031
 2297SOL     OW 7789   4.896   3.971   5.430
 2297SOL    HW1 7790   4.860   3.880   5.410
 2297SOL    HW2 7791   4.994   3.967   5.444
 2298SOL     OW 7792   3.556   3.943   4.181
 2298SOL    HW1 7793   3.605   3.925   4.267
 2298SOL    HW2 7794   3.463   3.971   4.202
 2299SOL     OW 7795   5.742   3.121   4.202
 2299SOL    HW1 7796   5.735   3.024   4.225
 2299SOL    HW2 7797   5.680   3.142   4.127
 2300SOL     OW 7798   4.732   6.575   2.225
 2300SOL    HW1 7799   4.804   6.512   2.196
 2300SOL    HW2 7800   4.652   6.523   2.255
 2301SOL     OW 7801   3.895   3.002   4.878
 2301SOL    HW1 7802   3.942   2.914   4.867
 2301SOL    HW2 7803   3.867   3.014   4.973
 2302SOL     OW 7804   6.391   2.609   5.804
 2302SOL    HW1 7805   6.304   2.564   5.783
 2302SOL    HW2 7806   6.466   2.556   5.765
 2303SOL     OW 7807   2.896   2.593   0.012
 2303SOL    HW1 7808   2.870   2.667   0.074
 2303SOL    HW2 7809   2.931   2.516   0.065
 2304SOL     OW 7810   6.559   6.396   2.489
 2304SOL    HW1 7811   6.513   6.327   2.434
 2304SOL    HW2 7812   6.645   6.422   2.445
 2305SOL     OW 7813   2.966   0.137   4.862
 2305SOL    HW1 7814   2.982   0.067   4.933
 2305SOL    HW2 7815   3.033   0.125   4.788
 2306SOL     OW 7816   1.384   4.883   4.736
 2306SOL    HW1 7817   1.285   4.891   4.730
 2306SOL    HW2 7818   1.409   4.788   4.755
 2307SOL     OW 7819   6.310   3.236   5.360
 2307SOL    HW1 7820   6.405   3.224   5.330
 2307SOL    HW2 7821   6.250   3.180   5.302
 2308SOL     OW 7822   1.561   5.125   1.626
 2308SOL    HW1 7823   1.513   5.167   1.549
 2308SOL    HW2 7824   1.631   5.063   1.592
 2309SOL     OW 7825   1.704   0.356   5.081
 2309SOL    HW1 7826   1.793   0.336   5.039
 2309SOL    HW2 7827   1.682   0.285   5.147
 2310SOL     OW 7828   4.004   0.289   1.171
 2310SOL    HW1 7829   4.012   0.364   1.238
 2310SOL    HW2 7830   4.007   0.327   1.079
 2311SOL     OW 7831   2.579   5.310   1.380
 2311SOL    HW1 7832   2.554   5.269   1.292
 2311SOL    HW2 7833   2.613   5.239   1.442
 2312SOL     OW 7834   3.378   5.061   1.831
 2312SOL    HW1 7835   3.445   5.036   1.761
 2312SOL    HW2 7836   3.317   5.131   1.795
 2313SOL     OW 7837   5.351   5.692   1.210
 2313SOL    HW1 7838   5.423   5.762   1.203
 2313SOL    HW2 7839   5.354   5.633   1.130
 2314SOL     OW 7840   1.681   4.943   4.445
 2314SOL    HW1 7841   1.679   4.857   4.495
 2314SOL    HW2 7842   1.718   4.926   4.353
 2315SOL     OW 7843   4.694   2.683   6.303
 2315SOL    HW1 7844   4.608   2.691   6.353
 2315SOL    HW2 7845   4.745   2.769   6.310
 2316SOL     OW 7846   5.929   3.767   2.127
 2316SOL    HW1 7847   6.029   3.757   2.127
 2316SOL    HW2 7848   5.889   3.692   2.074
 2317SOL     OW 7849   0.095   5.973   3.581
 2317SOL    HW1 7850   0.147   6.035   3.522
 2317SOL    HW2 7851   0.137   5.882   3.578
 2318SOL     OW 7852   6.394   1.016   4.100
 2318SOL    HW1 7853   6.413   1.112   4.080
 2318SOL    HW2 7854   6.296   1.004   4.117
 2319SOL     OW 7855   0.797   5.534   2.591
 2319SOL    HW1 7856   0.716   5.562   2.540
 2319SOL    HW2 7857   0.806   5.590   2.673
 2320SOL     OW 7858   6.512   5.134   5.375
 2320SOL    HW1 7859   6.547   5.133   5.469
 2320SOL    HW2 7860   6.436   5.070   5.367
 2321SOL     OW 7861   3.734   4.951   4.945
 2321SOL    HW1 7862   3.689   4.919   4.861
 2321SOL    HW2 7863   3.671   5.009   4.996
 2322SOL     OW 7864   3.283   0.984   5.763
 2322SOL    HW1 7865   3.233   0.961   5.680
 2322SOL    HW2 7866   3.265   0.915   5.833
 2323SOL     OW 7867   5.142   3.764   1.974
 2323SOL    HW1 7868   5.205   3.716   2.034
 2323SOL    HW2 7869   5.077   3.699   1.935
 2324SOL     OW 7870   6.978   5.102   3.399
 2324SOL    HW1 7871   6.897   5.160   3.392
 2324SOL    HW2 7872   0.029   5.150   3.451
 2325SOL     OW 7873   0.459   2.434   0.786
 2325SOL    HW1 7874   0.510   2.368   0.730
 2325SOL    HW2 7875   0.367   2.399   0.801
 2326SOL     OW 7876   1.625   3.940   0.090
 2326SOL    HW1 7877   1.606   3.866   0.025
 2326SOL    HW2 7878   1.540   3.971   0.131
 2327SOL     OW 7879   5.622   1.985   3.681
 2327SOL    HW1 7880   5.640   2.079   3.652
 2327SOL    HW2 7881   5.608   1.928   3.601
 2328SOL     OW 7882   6.136   6.546   3.995
 2328SOL    HW1 7883   6.105   6.543   3.899
 2328SOL    HW2 7884   6.227   6.587   3.999
 2329SOL     OW 7885   6.335   5.751   3.240
 2329SOL    HW1 7886   6.247   5.717   3.208
 2329SOL    HW2 7887   6.328   5.778   3.335
 2330SOL     OW 7888   0.392   3.505   1.828
 2330SOL    HW1 7889   0.302   3.505   1.784
 2330SOL    HW2 7890   0.399   3.583   1.890
 2331SOL     OW 7891   0.961   5.104   5.790
 2331SOL    HW1 7892   0.926   5.022   5.835
 2331SOL    HW2 7893   1.059   5.093   5.773
 2332SOL     OW 7894   5.439   2.483   4.418
 2332SOL    HW1 7895   5.465   2.578   4.433
 2332SOL    HW2 7896   5.356   2.479   4.362
 2333SOL     OW 7897   2.543   4.650   3.322
 2333SOL    HW1 7898   2.557   4.628   3.419
 2333SOL    HW2 7899   2.489   4.578   3.279
 2334SOL     OW 7900   3.057   0.415   0.580
 2334SOL    HW1 7901   3.154   0.426   0.555
 2334SOL    HW2 7902   3.048   0.428   0.679
 2335SOL     OW 7903   4.686   5.150   4.134
 2335SOL    HW1 7904   4.653   5.244   4.148
 2335SOL    HW2 7905   4.640   5.089   4.199
 2336SOL     OW 7906   4.330   2.113   5.620
 2336SOL    HW1 7907   4.232   2.118   5.641
 2336SOL    HW2 7908   4.382   2.133   5.703
 2337SOL     OW 7909   5.937   0.481   4.344
 2337SOL    HW1 7910   5.949   0.392   4.300
 2337SOL    HW2 7911   5.940   0.470   4.443
 2338SOL     OW 7912   1.867   0.205   6.859
 2338SOL    HW1 7913   1.929   0.200   6.780
 2338SOL    HW2 7914   1.774   0.219   6.827
 2339SOL     OW 7915   4.663   4.318   6.255
 2339SOL    HW1 7916   4.682   4.416   6.246
 2339SOL    HW2 7917   4.657   4.294   6.352
 2340SOL     OW 7918   3.933   5.464   3.743
 2340SOL    HW1 7919   3.878   5.403   3.686
 2340SOL    HW2 7920   3.899   5.462   3.836
 2341SOL     OW 7921   6.092   5.110   6.289
 2341SOL    HW1 7922   6.177   5.059   6.300
 2341SOL    HW2 7923   6.048   5.083   6.203
 2342SOL     OW 7924   6.508   0.261   5.200
 2342SOL    HW1 7925   6.536   0.192   5.267
 2342SOL    HW2 7926   6.409   0.275   5.207
 2343SOL     OW 7927   1.042   0.037   0.615
 2343SOL    HW1 7928   1.063   0.130   0.587
 2343SOL    HW2 7929   1.014   7.003   0.536
 2344SOL     OW 7930   2.258   1.403   3.214
 2344SOL    HW1 7931   2.178   1.398   3.274
 2344SOL    HW2 7932   2.279   1.311   3.180
 2345SOL     OW 7933   1.257   1.390   3.428
 2345SOL    HW1 7934   1.251   1.352   3.521
 2345SOL    HW2 7935   1.349   1.375   3.392
 2346SOL     OW 7936   5.259   3.401   5.705
 2346SOL    HW1 7937   5.311   3.406   5.620
 2346SOL    HW2 7938   5.245   3.306   5.730
 2347SOL     OW 7939   1.188   3.776   1.182
 2347SOL    HW1 7940   1.162   3.745   1.090
 2347SOL    HW2 7941   1.143   3.863   1.202
 2348SOL     OW 7942   2.765   5.571   2.064
 2348SOL    HW1 7943   2.847   5.607   2.110
 2348SOL    HW2 7944   2.709   5.647   2.032
 2349SOL     OW 7945   4.338   4.636   5.894
 2349SOL    HW1 7946   4.306   4.574   5.966
 2349SOL    HW2 7947   4.438   4.634   5.891
 2350SOL     OW 7948   1.887   5.951   5.439
 2350SOL    HW1 7949   1.920   5.892   5.512
 2350SOL    HW2 7950   1.911   6.046   5.459
 2351SOL     OW 7951   2.358   5.744   3.356
 2351SOL    HW1 7952   2.303   5.663   3.336
 2351SOL    HW2 7953   2.298   5.823   3.370
 2352SOL     OW 7954   6.062   4.057   1.822
 2352SOL    HW1 7955   6.158   4.071   1.843
 2352SOL    HW2 7956   6.053   4.015   1.732
 2353SOL     OW 7957   3.018   3.625   6.252
 2353SOL    HW1 7958   2.943   3.614   6.186
 2353SOL    HW2 7959   3.016   3.718   6.289
 2354SOL     OW 7960   3.907   2.583   1.620
 2354SOL    HW1 7961   3.823   2.593   1.674
 2354SOL    HW2 7962   3.908   2.493   1.576
 2355SOL     OW 7963   6.828   1.012   1.314
 2355SOL    HW1 7964   6.835   1.097   1.263
 2355SOL    HW2 7965   6.892   1.013   1.391
 2356SOL     OW 7966   2.795   5.132   3.669
 2356SOL    HW1 7967   2.699   5.159   3.672
 2356SOL    HW2 7968   2.853   5.210   3.693
 2357SOL     OW 7969   6.512   4.196   0.790
 2357SOL    HW1 7970   6.547   4.118   0.842
 2357SOL    HW2 7971   6.502   4.275   0.851
 2358SOL     OW 7972   3.734   2.136   5.304
 2358SOL    HW1 7973   3.760   2.072   5.232
 2358SOL    HW2 7974   3.657   2.192   5.273
 2359SOL     OW 7975   1.646   1.914   5.933
 2359SOL    HW1 7976   1.722   1.849   5.927
 2359SOL    HW2 7977   1.652   1.979   5.858
 2360SOL     OW 7978   3.369   4.758   6.710
 2360SOL    HW1 7979   3.400   4.689   6.776
 2360SOL    HW2 7980   3.446   4.817   6.686
 2361SOL     OW 7981   4.157   5.422   1.634
 2361SOL    HW1 7982   4.089   5.452   1.701
 2361SOL    HW2 7983   4.246   5.460   1.658
 2362SOL     OW 7984   3.985   5.099   3.804
 2362SOL    HW1 7985   4.030   5.012   3.785
 2362SOL    HW2 7986   3.929   5.090   3.887
 2363SOL     OW 7987   1.917   4.106   0.533
 2363SOL    HW1 7988   1.940   4.011   0.552
 2363SOL    HW2 7989   1.849   4.137   0.600
 2364SOL     OW 7990   3.616   1.208   2.857
 2364SOL    HW1 7991   3.571   1.165   2.935
 2364SOL    HW2 7992   3.548   1.233   2.789
 2365SOL     OW 7993   4.844   4.345   3.463
 2365SOL    HW1 7994   4.943   4.346   3.446
 2365SOL    HW2 7995   4.795   4.349   3.376
 2366SOL     OW 7996   2.808   4.908   5.004
 2366SOL    HW1 7997   2.789   4.967   4.926
 2366SOL    HW2 7998   2.804   4.812   4.976
 2367SOL     OW 7999   5.704   5.356   6.005
 2367SOL    HW1 8000   5.725   5.445   6.046
 2367SOL    HW2 8001   5.635   5.368   5.934
 2368SOL     OW 8002   6.019   0.069   4.620
 2368SOL    HW1 8003   6.033   0.115   4.707
 2368SOL    HW2 8004   5.940   0.107   4.573
 2369SOL     OW 8005   3.028   2.199   4.449
 2369SOL    HW1 8006   2.974   2.281   4.467
 2369SOL    HW2 8007   2.974   2.118   4.470
 2370SOL     OW 8008   5.919   2.448   1.728
 2370SOL    HW1 8009   5.992   2.465   1.795
 2370SOL    HW2 8010   5.830   2.456   1.772
 2371SOL     OW 8011   0.738   6.201   3.013
 2371SOL    HW1 8012   0.808   6.231   2.949
 2371SOL    HW2 8013   0.650   6.196   2.965
 2372SOL     OW 8014   6.082   6.209   6.749
 2372SOL    HW1 8015   6.179   6.187   6.734
 2372SOL    HW2 8016   6.074   6.304   6.780
 2373SOL     OW 8017   6.367   5.048   6.214
 2373SOL    HW1 8018   6.301   5.049   6.139
 2373SOL    HW2 8019   6.378   5.140   6.250
 2374SOL     OW 8020   6.408   6.186   2.368
 2374SOL    HW1 8021   6.312   6.159   2.363
 2374SOL    HW2 8022   6.462   6.108   2.400
 2375SOL     OW 8023   1.585   0.686   4.055
 2375SOL    HW1 8024   1.659   0.669   3.990
 2375SOL    HW2 8025   1.504   0.719   4.006
 2376SOL     OW 8026   5.460   1.931   3.090
 2376SOL    HW1 8027   5.430   1.926   2.995
 2376SOL    HW2 8028   5.447   1.842   3.134
 2377SOL     OW 8029   4.667   4.057   5.885
 2377SOL    HW1 8030   4.699   4.049   5.791
 2377SOL    HW2 8031   4.568   4.065   5.886
 2378SOL     OW 8032   0.139   1.007   0.166
 2378SOL    HW1 8033   0.047   1.007   0.126
 2378SOL    HW2 8034   0.207   0.994   0.093
 2379SOL     OW 8035   6.297   5.292   2.089
 2379SOL    HW1 8036   6.331   5.291   1.995
 2379SOL    HW2 8037   6.310   5.383   2.128
 2380SOL     OW 8038   4.786   6.079   5.950
 2380SOL    HW1 8039   4.858   6.127   5.900
 2380SOL    HW2 8040   4.792   6.101   6.047
 2381SOL     OW 8041   2.315   4.497   4.412
 2381SOL    HW1 8042   2.249   4.549   4.358
 2381SOL    HW2 8043   2.286   4.494   4.508
 2382SOL     OW 8044   6.836   5.510   2.601
 2382SOL    HW1 8045   6.935   5.502   2.587
 2382SOL    HW2 8046   6.792   5.538   2.515
 2383SOL     OW 8047   5.207   4.595   6.019
 2383SOL    HW1 8048   5.117   4.565   5.989
 2383SOL    HW2 8049   5.256   4.518   6.059
 2384SOL     OW 8050   0.247   1.923   2.851
 2384SOL    HW1 8051   0.173   1.915   2.918
 2384SOL    HW2 8052   0.213   1.964   2.767
 2385SOL     OW 8053   0.582   1.295   0.660
 2385SOL    HW1 8054   0.642   1.267   0.585
 2385SOL    HW2 8055   0.487   1.296   0.628
 2386SOL     OW 8056   6.193   5.995   4.324
 2386SOL    HW1 8057   6.189   5.915   4.384
 2386SOL    HW2 8058   6.127   5.985   4.250
 2387SOL     OW 8059   0.706   1.313   3.565
 2387SOL    HW1 8060   0.722   1.240   3.499
 2387SOL    HW2 8061   0.785   1.375   3.564
 2388SOL     OW 8062   0.246   2.621   5.467
 2388SOL    HW1 8063   0.318   2.686   5.494
 2388SOL    HW2 8064   0.289   2.540   5.428
 2389SOL     OW 8065   4.168   4.898   3.775
 2389SOL    HW1 8066   4.255   4.934   3.740
 2389SOL    HW2 8067   4.118   4.854   3.700
 2390SOL     OW 8068   4.995   2.898   5.977
 2390SOL    HW1 8069   5.020   2.886   6.073
 2390SOL    HW2 8070   4.943   2.983   5.967
 2391SOL     OW 8071   3.008   4.000   5.673
 2391SOL    HW1 8072   2.982   3.923   5.732
 2391SOL    HW2 8073   2.928   4.031   5.621
 2392SOL     OW 8074   4.638   4.273   5.455
 2392SOL    HW1 8075   4.603   4.253   5.363
 2392SOL    HW2 8076   4.692   4.357   5.452
 2393SOL     OW 8077   3.988   4.624   1.199
 2393SOL    HW1 8078   4.063   4.677   1.239
 2393SOL    HW2 8079   4.002   4.527   1.219
 2394SOL     OW 8080   0.328   2.146   3.967
 2394SOL    HW1 8081   0.403   2.179   3.909
 2394SOL    HW2 8082   0.358   2.064   4.015
 2395SOL     OW 8083   0.885   2.367   4.508
 2395SOL    HW1 8084   0.900   2.269   4.495
 2395SOL    HW2 8085   0.791   2.390   4.485
 2396SOL     OW 8086   0.460   0.396   5.665
 2396SOL    HW1 8087   0.412   0.426   5.583
 2396SOL    HW2 8088   0.553   0.433   5.665
 2397SOL     OW 8089   0.374   3.696   5.138
 2397SOL    HW1 8090   0.308   3.641   5.086
 2397SOL    HW2 8091   0.365   3.792   5.113
 2398SOL     OW 8092   3.785   6.470   4.194
 2398SOL    HW1 8093   3.702   6.479   4.139
 2398SOL    HW2 8094   3.827   6.560   4.206
 2399SOL     OW 8095   3.288   2.097   3.527
 2399SOL    HW1 8096   3.353   2.153   3.580
 2399SOL    HW2 8097   3.279   2.136   3.436
 2400SOL     OW 8098   1.606   4.297   0.664
 2400SOL    HW1 8099   1.526   4.309   0.721
 2400SOL    HW2 8100   1.578   4.271   0.571
 2401SOL     OW 8101   1.575   0.168   6.433
 2401SOL    HW1 8102   1.579   0.188   6.335
 2401SOL    HW2 8103   1.656   0.205   6.478
 2402SOL     OW 8104   1.334   4.144   1.597
 2402SOL    HW1 8105   1.241   4.161   1.630
 2402SOL    HW2 8106   1.399   4.192   1.656
 2403SOL     OW 8107   4.163   3.646   4.121
 2403SOL    HW1 8108   4.168   3.548   4.101
 2403SOL    HW2 8109   4.219   3.667   4.201
 2404SOL     OW 8110   5.967   0.871   1.047
 2404SOL    HW1 8111   5.976   0.927   0.965
 2404SOL    HW2 8112   5.994   0.924   1.127
 2405SOL     OW 8113   1.902   3.185   0.508
 2405SOL    HW1 8114   1.845   3.250   0.557
 2405SOL    HW2 8115   1.967   3.142   0.571
 2406SOL     OW 8116   2.943   6.059   4.371
 2406SOL    HW1 8117   2.919   6.142   4.321
 2406SOL    HW2 8118   2.895   6.060   4.459
 2407SOL     OW 8119   2.465   1.023   3.327
 2407SOL    HW1 8120   2.436   1.069   3.243
 2407SOL    HW2 8121   2.492   0.929   3.307
 2408SOL     OW 8122   3.572   6.178   5.511
 2408SOL    HW1 8123   3.584   6.094   5.563
 2408SOL    HW2 8124   3.625   6.251   5.554
 2409SOL     OW 8125   1.198   3.406   0.262
 2409SOL    HW1 8126   1.287   3.406   0.216
 2409SOL    HW2 8127   1.209   3.439   0.356
 2410SOL     OW 8128   0.743   2.786   4.578
 2410SOL    HW1 8129   0.813   2.720   4.554
 2410SOL    HW2 8130   0.687   2.751   4.653
 2411SOL     OW 8131   3.248   2.357   0.231
 2411SOL    HW1 8132   3.337   2.310   0.237
 2411SOL    HW2 8133   3.234   2.389   0.138
 2412SOL     OW 8134   3.394   2.034   6.262
 2412SOL    HW1 8135   3.367   2.069   6.172
 2412SOL    HW2 8136   3.469   2.089   6.298
 2413SOL     OW 8137   0.276   3.539   0.197
 2413SOL    HW1 8138   0.374   3.557   0.192
 2413SOL    HW2 8139   0.252   3.465   0.134
 2414SOL     OW 8140   6.078   1.834   5.094
 2414SOL    HW1 8141   6.094   1.933   5.097
 2414SOL    HW2 8142   6.002   1.811   5.155
 2415SOL     OW 8143   2.656   5.431   6.621
 2415SOL    HW1 8144   2.683   5.414   6.526
 2415SOL    HW2 8145   2.559   5.452   6.626
 2416SOL     OW 8146   0.062   3.370   2.376
 2416SOL    HW1 8147   6.994   3.349   2.419
 2416SOL    HW2 8148   0.125   3.294   2.392
 2417SOL     OW 8149   2.892   2.669   1.728
 2417SOL    HW1 8150   2.987   2.698   1.739
 2417SOL    HW2 8151   2.878   2.582   1.775
 2418SOL     OW 8152   4.664   4.346   6.767
 2418SOL    HW1 8153   4.756   4.323   6.800
 2418SOL    HW2 8154   4.642   4.291   6.686
 2419SOL     OW 8155   3.077   0.056   3.252
 2419SOL    HW1 8156   3.004   0.035   3.317
 2419SOL    HW2 8157   3.138   0.125   3.291
 2420SOL     OW 8158   1.529   4.086   2.394
 2420SOL    HW1 8159   1.539   4.126   2.302
 2420SOL    HW2 8160   1.459   4.014   2.391
 2421SOL     OW 8161   3.350   6.738   3.257
 2421SOL    HW1 8162   3.302   6.807   3.203
 2421SOL    HW2 8163   3.293   6.657   3.267
 2422SOL     OW 8164   4.316   5.524   0.912
 2422SOL    HW1 8165   4.325   5.458   0.987
 2422SOL    HW2 8166   4.383   5.597   0.924
 2423SOL     OW 8167   2.492   5.831   2.771
 2423SOL    HW1 8168   2.437   5.837   2.854
 2423SOL    HW2 8169   2.461   5.753   2.716
 2424SOL     OW 8170   5.243   6.967   6.431
 2424SOL    HW1 8171   5.341   6.946   6.435
 2424SOL    HW2 8172   5.191   6.893   6.473
 2425SOL     OW 8173   5.466   5.726   4.837
 2425SOL    HW1 8174   5.435   5.805   4.785
 2425SOL    HW2 8175   5.390   5.688   4.890
 2426SOL     OW 8176   2.204   3.107   5.584
 2426SOL    HW1 8177   2.202   3.029   5.647
 2426SOL    HW2 8178   2.258   3.083   5.503
 2427SOL     OW 8179   5.499   0.482   0.156
 2427SOL    HW1 8180   5.569   0.412   0.137
 2427SOL    HW2 8181   5.535   0.548   0.222
 2428SOL     OW 8182   0.776   0.735   2.992
 2428SOL    HW1 8183   0.698   0.673   3.002
 2428SOL    HW2 8184   0.824   0.742   3.080
 2429SOL     OW 8185   5.534   4.640   1.294
 2429SOL    HW1 8186   5.472   4.656   1.217
 2429SOL    HW2 8187   5.504   4.559   1.344
 2430SOL     OW 8188   6.051   0.717   6.521
 2430SOL    HW1 8189   5.976   0.715   6.456
 2430SOL    HW2 8190   6.021   0.759   6.606
 2431SOL     OW 8191   0.555   3.087   2.091
 2431SOL    HW1 8192   0.521   3.164   2.038
 2431SOL    HW2 8193   0.613   3.120   2.165
 2432SOL     OW 8194   2.786   5.365   1.904
 2432SOL    HW1 8195   2.706   5.340   1.850
 2432SOL    HW2 8196   2.763   5.442   1.964
 2433SOL     OW 8197   6.977   4.023   5.286
 2433SOL    HW1 8198   0.043   3.993   5.327
 2433SOL    HW2 8199   6.960   3.970   5.203
 2434SOL     OW 8200   4.426   0.960   2.427
 2434SOL    HW1 8201   4.466   0.881   2.380
 2434SOL    HW2 8202   4.349   0.995   2.375
 2435SOL     OW 8203   6.102   6.842   6.935
 2435SOL    HW1 8204   6.167   6.858   6.860
 2435SOL    HW2 8205   6.013   6.818   6.896
 2436SOL     OW 8206   1.241   1.918   1.615
 2436SOL    HW1 8207   1.204   1.950   1.528
 2436SOL    HW2 8208   1.340   1.931   1.616
 2437SOL     OW 8209   0.213   4.383   3.029
 2437SOL    HW1 8210   0.178   4.474   3.051
 2437SOL    HW2 8211   0.261   4.385   2.942
 2438SOL     OW 8212   3.214   1.300   4.757
 2438SOL    HW1 8213   3.166   1.385   4.774
 2438SOL    HW2 8214   3.168   1.225   4.805
 2439SOL     OW 8215   1.624   6.067   1.436
 2439SOL    HW1 8216   1.601   6.102   1.527
 2439SOL    HW2 8217   1.561   6.104   1.368
 2440SOL     OW 8218   5.346   1.408   5.349
 2440SOL    HW1 8219   5.284   1.336   5.316
 2440SOL    HW2 8220   5.310   1.498   5.323
 2441SOL     OW 8221   6.075   0.145   0.420
 2441SOL    HW1 8222   5.996   0.103   0.466
 2441SOL    HW2 8223   6.158   0.117   0.467
 2442SOL     OW 8224   5.167   2.948   1.323
 2442SOL    HW1 8225   5.165   2.995   1.412
 2442SOL    HW2 8226   5.100   2.874   1.323
 2443SOL     OW 8227   1.093   3.081   1.946
 2443SOL    HW1 8228   1.064   3.177   1.944
 2443SOL    HW2 8229   1.150   3.063   1.865
 2444SOL     OW 8230   3.389   5.724   2.125
 2444SOL    HW1 8231   3.314   5.694   2.183
 2444SOL    HW2 8232   3.353   5.781   2.051
 2445SOL     OW 8233   0.556   2.908   1.501
 2445SOL    HW1 8234   0.620   2.877   1.571
 2445SOL    HW2 8235   0.554   2.843   1.426
 2446SOL     OW 8236   1.310   5.386   1.298
 2446SOL    HW1 8237   1.300   5.369   1.200
 2446SOL    HW2 8238   1.363   5.312   1.339
 2447SOL     OW 8239   2.566   6.709   6.957
 2447SOL    HW1 8240   2.657   6.698   6.918
 2447SOL    HW2 8241   2.549   6.806   6.976
 2448SOL     OW 8242   5.862   1.499   4.388
 2448SOL    HW1 8243   5.765   1.503   4.410
 2448SOL    HW2 8244   5.897   1.407   4.403
 2449SOL     OW 8245   1.819   4.383   1.671
 2449SOL    HW1 8246   1.902   4.337   1.705
 2449SOL    HW2 8247   1.804   4.467   1.723
 2450SOL     OW 8248   1.426   6.825   5.910
 2450SOL    HW1 8249   1.346   6.878   5.939
 2450SOL    HW2 8250   1.507   6.858   5.958
 2451SOL     OW 8251   0.599   6.375   4.619
 2451SOL    HW1 8252   0.693   6.351   4.642
 2451SOL    HW2 8253   0.537   6.302   4.649
 2452SOL     OW 8254   2.250   2.100   3.309
 2452SOL    HW1 8255   2.166   2.046   3.314
 2452SOL    HW2 8256   2.321   2.057   3.365
 2453SOL     OW 8257   0.415   0.852   6.097
 2453SOL    HW1 8258   0.476   0.858   6.176
 2453SOL    HW2 8259   0.393   0.944   6.064
 2454SOL     OW 8260   3.516   5.459   1.222
 2454SOL    HW1 8261   3.496   5.532   1.157
 2454SOL    HW2 8262   3.542   5.377   1.172
 2455SOL     OW 8263   4.118   2.710   0.851
 2455SOL    HW1 8264   4.070   2.677   0.770
 2455SOL    HW2 8265   4.083   2.662   0.932
 2456SOL     OW 8266   0.794   4.411   6.319
 2456SOL    HW1 8267   0.706   4.393   6.365
 2456SOL    HW2 8268   0.858   4.450   6.385
 2457SOL     OW 8269   4.716   2.239   5.011
 2457SOL    HW1 8270   4.808   2.268   4.984
 2457SOL    HW2 8271   4.659   2.230   4.929
 2458SOL     OW 8272   0.777   0.640   2.201
 2458SOL    HW1 8273   0.714   0.589   2.142
 2458SOL    HW2 8274   0.730   0.720   2.238
 2459SOL     OW 8275   2.932   0.193   0.454
 2459SOL    HW1 8276   3.006   0.255   0.480
 2459SOL    HW2 8277   2.848   0.220   0.502
 2460SOL     OW 8278   1.474   0.916   4.837
 2460SOL    HW1 8279   1.391   0.923   4.894
 2460SOL    HW2 8280   1.449   0.920   4.741
 2461SOL     OW 8281   4.784   0.114   3.378
 2461SOL    HW1 8282   4.757   0.195   3.430
 2461SOL    HW2 8283   4.727   0.107   3.296
 2462SOL     OW 8284   0.217   3.861   0.524
 2462SOL    HW1 8285   0.124   3.893   0.507
 2462SOL    HW2 8286   0.264   3.847   0.437
 2463SOL     OW 8287   6.975   0.647   0.022
 2463SOL    HW1 8288   0.026   0.592   0.066
 2463SOL    HW2 8289   6.902   0.588   7.008
 2464SOL     OW 8290   0.789   2.890   3.267
 2464SOL    HW1 8291   0.840   2.918   3.186
 2464SOL    HW2 8292   0.692   2.879   3.244
 2465SOL     OW 8293   6.847   6.196   5.599
 2465SOL    HW1 8294   6.878   6.143   5.520
 2465SOL    HW2 8295   6.747   6.207   5.595
 2466SOL     OW 8296   0.657   2.454   2.236
 2466SOL    HW1 8297   0.572   2.418   2.273
 2466SOL    HW2 8298   0.655   2.554   2.237
 2467SOL     OW 8299   5.856   1.792   5.281
 2467SOL    HW1 8300   5.768   1.834   5.302
 2467SOL    HW2 8301   5.848   1.693   5.287
 2468SOL     OW 8302   3.015   6.540   5.349
 2468SOL    HW1 8303   2.990   6.543   5.252
 2468SOL    HW2 8304   3.013   6.446   5.382
 2469SOL     OW 8305   3.664   2.238   5.949
 2469SOL    HW1 8306   3.586   2.191   5.990
 2469SOL    HW2 8307   3.646   2.336   5.946
 2470SOL     OW 8308   3.013   4.452   5.968
 2470SOL    HW1 8309   3.028   4.364   5.922
 2470SOL    HW2 8310   2.979   4.435   6.060
 2471SOL     OW 8311   3.310   5.888   1.918
 2471SOL    HW1 8312   3.381   5.829   1.879
 2471SOL    HW2 8313   3.306   5.974   1.866
 2472SOL     OW 8314   4.310   1.693   4.003
 2472SOL    HW1 8315   4.276   1.770   3.951
 2472SOL    HW2 8316   4.383   1.647   3.952
 2473SOL     OW 8317   0.381   3.997   5.051
 2473SOL    HW1 8318   0.476   3.969   5.042
 2473SOL    HW2 8319   0.338   3.998   4.960
 2474SOL     OW 8320   1.285   5.590   1.717
 2474SOL    HW1 8321   1.374   5.544   1.707
 2474SOL    HW2 8322   1.234   5.582   1.631
 2475SOL     OW 8323   4.626   0.898   0.769
 2475SOL    HW1 8324   4.662   0.934   0.683
 2475SOL    HW2 8325   4.538   0.941   0.790
 2476SOL     OW 8326   5.547   0.591   6.778
 2476SOL    HW1 8327   5.603   0.644   6.842
 2476SOL    HW2 8328   5.541   0.639   6.691
 2477SOL     OW 8329   3.915   0.313   3.503
 2477SOL    HW1 8330   4.005   0.274   3.522
 2477SOL    HW2 8331   3.846   0.263   3.555
 2478SOL     OW 8332   4.706   0.217   3.701
 2478SOL    HW1 8333   4.785   0.163   3.731
 2478SOL    HW2 8334   4.736   0.288   3.638
 2479SOL     OW 8335   6.912   3.807   6.822
 2479SOL    HW1 8336   7.000   3.853   6.812
 2479SOL    HW2 8337   6.926   3.718   6.865
 2480SOL     OW 8338   3.246   2.478   1.688
 2480SOL    HW1 8339   3.169   2.462   1.749
 2480SOL    HW2 8340   3.312   2.404   1.697
 2481SOL     OW 8341   3.381   0.032   0.871
 2481SOL    HW1 8342   3.459   0.044   0.933
 2481SOL    HW2 8343   3.396   6.971   0.814
 2482SOL     OW 8344   5.783   3.257   6.454
 2482SOL    HW1 8345   5.880   3.262   6.432
 2482SOL    HW2 8346   5.741   3.347   6.442
 2483SOL     OW 8347   0.949   2.723   0.584
 2483SOL    HW1 8348   0.989   2.753   0.498
 2483SOL    HW2 8349   0.967   2.790   0.655
 2484SOL     OW 8350   5.471   1.507   1.351
 2484SOL    HW1 8351   5.536   1.437   1.379
 2484SOL    HW2 8352   5.460   1.574   1.425
 2485SOL     OW 8353   6.284   2.269   6.060
 2485SOL    HW1 8354   6.211   2.334   6.039
 2485SOL    HW2 8355   6.257   2.213   6.138
 2486SOL     OW 8356   0.494   4.102   5.401
 2486SOL    HW1 8357   0.418   4.118   5.338
 2486SOL    HW2 8358   0.541   4.189   5.419
 2487SOL     OW 8359   4.419   5.891   0.359
 2487SOL    HW1 8360   4.464   5.825   0.297
 2487SOL    HW2 8361   4.476   5.903   0.440
 2488SOL     OW 8362   6.679   3.851   1.265
 2488SOL    HW1 8363   6.697   3.792   1.344
 2488SOL    HW2 8364   6.736   3.933   1.271
 2489SOL     OW 8365   0.205   6.721   4.454
 2489SOL    HW1 8366   0.229   6.625   4.442
 2489SOL    HW2 8367   0.188   6.763   4.365
 2490SOL     OW 8368   2.919   6.203   2.436
 2490SOL    HW1 8369   2.946   6.299   2.423
 2490SOL    HW2 8370   2.974   6.145   2.376
 2491SOL     OW 8371   3.725   4.829   1.364
 2491SOL    HW1 8372   3.788   4.899   1.398
 2491SOL    HW2 8373   3.717   4.836   1.265
 2492SOL     OW 8374   6.792   4.482   1.107
 2492SOL    HW1 8375   6.889   4.477   1.129
 2492SOL    HW2 8376   6.779   4.533   1.021
 2493SOL     OW 8377   6.527   6.642   1.766
 2493SOL    HW1 8378   6.521   6.578   1.843
 2493SOL    HW2 8379   6.578   6.599   1.691
 2494SOL     OW 8380   6.078   3.454   2.004
 2494SOL    HW1 8381   5.982   3.437   2.024
 2494SOL    HW2 8382   6.086   3.497   1.914
 2495SOL     OW 8383   6.603   4.835   3.810
 2495SOL    HW1 8384   6.641   4.742   3.807
 2495SOL    HW2 8385   6.547   4.845   3.892
 2496SOL     OW 8386   5.943   4.999   6.485
 2496SOL    HW1 8387   5.989   5.048   6.411
 2496SOL    HW2 8388   5.903   5.065   6.548
 2497SOL     OW 8389   0.242   0.021   1.973
 2497SOL    HW1 8390   0.161   0.040   2.028
 2497SOL    HW2 8391   0.324   0.041   2.026
 2498SOL     OW 8392   2.364   3.257   6.058
 2498SOL    HW1 8393   2.415   3.330   6.012
 2498SOL    HW2 8394   2.300   3.297   6.123
 2499SOL     OW 8395   6.798   3.286   1.632
 2499SOL    HW1 8396   6.826   3.326   1.544
 2499SOL    HW2 8397   6.806   3.355   1.704
 2500SOL     OW 8398   3.597   4.180   6.974
 2500SOL    HW1 8399   3.657   4.211   0.029
 2500SOL    HW2 8400   3.648   4.117   6.915
 2501SOL     OW 8401   6.225   5.673   0.397
 2501SOL    HW1 8402   6.279   5.596   0.362
 2501SOL    HW2 8403   6.211   5.662   0.496
 2502SOL     OW 8404   2.895   5.754   4.587
 2502SOL    HW1 8405   2.864   5.726   4.677
 2502SOL    HW2 8406   2.878   5.852   4.575
 2503SOL     OW 8407   2.532   6.685   5.849
 2503SOL    HW1 8408   2.582   6.636   5.777
 2503SOL    HW2 8409   2.467   6.748   5.808
 2504SOL     OW 8410   3.201   5.600   2.358
 2504SOL    HW1 8411   3.160   5.523   2.407
 2504SOL    HW2 8412   3.199   5.681   2.416
 2505SOL     OW 8413   0.015   5.787   2.866
 2505SOL    HW1 8414   7.006   5.709   2.920
 2505SOL    HW2 8415   0.007   5.871   2.921
 2506SOL     OW 8416   5.342   5.241   5.663
 2506SOL    HW1 8417   5.261   5.248   5.605
 2506SOL    HW2 8418   5.412   5.187   5.615
 2507SOL     OW 8419   6.983   3.487   0.432
 2507SOL    HW1 8420   6.889   3.507   0.459
 2507SOL    HW2 8421   0.026   3.523   0.500
 2508SOL     OW 8422   4.073   1.862   3.751
 2508SOL    HW1 8423   4.156   1.891   3.800
 2508SOL    HW2 8424   4.003   1.837   3.817
 2509SOL     OW 8425   0.068   3.585   5.697
 2509SOL    HW1 8426   7.014   3.527   5.661
 2509SOL    HW2 8427   0.040   3.622   5.786
 2510SOL     OW 8428   3.228   4.012   1.769
 2510SOL    HW1 8429   3.209   3.941   1.702
 2510SOL    HW2 8430   3.144   4.063   1.788
 2511SOL     OW 8431   2.426   1.013   5.290
 2511SOL    HW1 8432   2.420   1.034   5.192
 2511SOL    HW2 8433   2.379   1.084   5.342
 2512SOL     OW 8434   3.878   4.954   4.597
 2512SOL    HW1 8435   3.896   4.929   4.692
 2512SOL    HW2 8436   3.780   4.970   4.585
 2513SOL     OW 8437   2.329   6.289   6.355
 2513SOL    HW1 8438   2.426   6.287   6.380
 2513SOL    HW2 8439   2.299   6.196   6.331
 2514SOL     OW 8440   1.312   2.894   3.382
 2514SOL    HW1 8441   1.315   2.807   3.432
 2514SOL    HW2 8442   1.396   2.905   3.330
 2515SOL     OW 8443   1.765   1.426   1.389
 2515SOL    HW1 8444   1.790   1.489   1.462
 2515SOL    HW2 8445   1.681   1.378   1.413
 2516SOL     OW 8446   5.530   1.850   3.463
 2516SOL    HW1 8447   5.604   1.789   3.433
 2516SOL    HW2 8448   5.443   1.802   3.460
 2517SOL     OW 8449   1.070   0.692   4.206
 2517SOL    HW1 8450   1.011   0.773   4.198
 2517SOL    HW2 8451   1.021   0.620   4.256
 2518SOL     OW 8452   2.795   4.701   1.249
 2518SOL    HW1 8453   2.788   4.717   1.348
 2518SOL    HW2 8454   2.751   4.614   1.226
 2519SOL     OW 8455   1.892   1.359   0.576
 2519SOL    HW1 8456   1.865   1.455   0.571
 2519SOL    HW2 8457   1.991   1.353   0.588
 2520SOL     OW 8458   3.414   2.542   1.398
 2520SOL    HW1 8459   3.367   2.597   1.466
 2520SOL    HW2 8460   3.427   2.449   1.434
 2521SOL     OW 8461   4.457   1.547   5.195
 2521SOL    HW1 8462   4.503   1.633   5.216
 2521SOL    HW2 8463   4.427   1.548   5.099
 2522SOL     OW 8464   0.490   1.830   5.340
 2522SOL    HW1 8465   0.467   1.883   5.258
 2522SOL    HW2 8466   0.463   1.881   5.422
 2523SOL     OW 8467   1.719   4.726   0.096
 2523SOL    HW1 8468   1.753   4.819   0.079
 2523SOL    HW2 8469   1.717   4.675   0.010
 2524SOL     OW 8470   1.670   6.567   4.078
 2524SOL    HW1 8471   1.687   6.540   4.173
 2524SOL    HW2 8472   1.675   6.667   4.070
 2525SOL     OW 8473   0.381   2.402   4.301
 2525SOL    HW1 8474   0.420   2.479   4.251
 2525SOL    HW2 8475   0.434   2.319   4.281
 2526SOL     OW 8476   1.085   6.008   0.538
 2526SOL    HW1 8477   1.009   5.987   0.477
 2526SOL    HW2 8478   1.171   5.981   0.495
 2527SOL     OW 8479   5.002   5.276   6.772
 2527SOL    HW1 8480   5.005   5.332   6.689
 2527SOL    HW2 8481   5.095   5.250   6.798
 2528SOL     OW 8482   4.630   4.938   6.608
 2528SOL    HW1 8483   4.690   5.018   6.605
 2528SOL    HW2 8484   4.681   4.859   6.643
 2529SOL     OW 8485   0.434   7.003   6.138
 2529SOL    HW1 8486   0.522   6.957   6.152
 2529SOL    HW2 8487   0.381   6.952   6.070
 2530SOL     OW 8488   2.471   5.808   5.512
 2530SOL    HW1 8489   2.379   5.836   5.540
 2530SOL    HW2 8490   2.508   5.874   5.447
 2531SOL     OW 8491   6.317   5.314   6.018
 2531SOL    HW1 8492   6.409   5.311   5.979
 2531SOL    HW2 8493   6.294   5.408   6.041
 2532SOL     OW 8494   0.596   6.811   1.006
 2532SOL    HW1 8495   0.682   6.851   0.975
 2532SOL    HW2 8496   0.572   6.850   1.095
 2533SOL     OW 8497   5.335   0.457   3.039
 2533SOL    HW1 8498   5.313   0.414   2.952
 2533SOL    HW2 8499   5.430   0.438   3.063
 2534SOL     OW 8500   4.918   1.966   2.090
 2534SOL    HW1 8501   5.015   1.979   2.113
 2534SOL    HW2 8502   4.907   1.881   2.039
 2535SOL     OW 8503   3.602   2.874   6.128
 2535SOL    HW1 8504   3.522   2.857   6.071
 2535SOL    HW2 8505   3.686   2.864   6.074
 2536SOL     OW 8506   1.469   0.901   6.657
 2536SOL    HW1 8507   1.443   0.879   6.563
 2536SOL    HW2 8508   1.397   0.869   6.719
 2537SOL     OW 8509   4.211   1.296   0.052
 2537SOL    HW1 8510   4.230   1.380   7.020
 2537SOL    HW2 8511   4.295   1.243   0.060
 2538SOL     OW 8512   6.711   3.859   3.787
 2538SOL    HW1 8513   6.668   3.841   3.699
 2538SOL    HW2 8514   6.641   3.883   3.854
 2539SOL     OW 8515   5.390   1.212   4.467
 2539SOL    HW1 8516   5.291   1.210   4.457
 2539SOL    HW2 8517   5.433   1.167   4.389
 2540SOL     OW 8518   3.545   1.620   2.747
 2540SOL    HW1 8519   3.467   1.606   2.808
 2540SOL    HW2 8520   3.542   1.713   2.710
 2541SOL     OW 8521   3.275   6.517   5.475
 2541SOL    HW1 8522   3.340   6.501   5.401
 2541SOL    HW2 8523   3.182   6.519   5.438
 2542SOL     OW 8524   1.160   4.694   6.961
 2542SOL    HW1 8525   1.151   4.707   6.862
 2542SOL    HW2 8526   1.211   4.771   7.000
 2543SOL     OW 8527   0.911   2.105   4.479
 2543SOL    HW1 8528   0.995   2.062   4.513
 2543SOL    HW2 8529   0.885   2.063   4.393
 2544SOL     OW 8530   1.156   5.293   0.525
 2544SOL    HW1 8531   1.132   5.293   0.427
 2544SOL    HW2 8532   1.207   5.376   0.547
 2545SOL     OW 8533   1.981   6.438   2.832
 2545SOL    HW1 8534   2.061   6.379   2.844
 2545SOL    HW2 8535   2.011   6.526   2.796
 2546SOL     OW 8536   6.140   1.536   0.833
 2546SOL    HW1 8537   6.183   1.470   0.895
 2546SOL    HW2 8538   6.099   1.610   0.887
 2547SOL     OW 8539   6.835   3.765   5.106
 2547SOL    HW1 8540   6.885   3.693   5.154
 2547SOL    HW2 8541   6.739   3.765   5.137
 2548SOL     OW 8542   0.135   6.587   4.096
 2548SOL    HW1 8543   0.091   6.515   4.042
 2548SOL    HW2 8544   0.184   6.650   4.035
 2549SOL     OW 8545   0.384   0.716   1.780
 2549SOL    HW1 8546   0.482   0.728   1.767
 2549SOL    HW2 8547   0.361   0.618   1.778
 2550SOL     OW 8548   5.889   6.214   0.511
 2550SOL    HW1 8549   5.880   6.311   0.532
 2550SOL    HW2 8550   5.955   6.201   0.437
 2551SOL     OW 8551   2.040   3.844   6.909
 2551SOL    HW1 8552   2.068   3.938   6.926
 2551SOL    HW2 8553   2.003   3.837   6.816
 2552SOL     OW 8554   3.229   5.286   3.492
 2552SOL    HW1 8555   3.199   5.376   3.462
 2552SOL    HW2 8556   3.175   5.216   3.445
 2553SOL     OW 8557   4.113   3.650   5.927
 2553SOL    HW1 8558   4.172   3.707   5.985
 2553SOL    HW2 8559   4.159   3.633   5.840
 2554SOL     OW 8560   1.281   1.834   0.885
 2554SOL    HW1 8561   1.197   1.885   0.867
 2554SOL    HW2 8562   1.353   1.898   0.911
 2555SOL     OW 8563   5.253   2.679   5.082
 2555SOL    HW1 8564   5.175   2.617   5.080
 2555SOL    HW2 8565   5.330   2.635   5.129
 2556SOL     OW 8566   3.768   5.713   0.969
 2556SOL    HW1 8567   3.673   5.745   0.971
 2556SOL    HW2 8568   3.772   5.624   0.924
 2557SOL     OW 8569   2.107   4.059   6.262
 2557SOL    HW1 8570   2.012   4.059   6.294
 2557SOL    HW2 8571   2.110   4.098   6.170
 2558SOL     OW 8572   4.594   1.204   5.578
 2558SOL    HW1 8573   4.620   1.148   5.500
 2558SOL    HW2 8574   4.501   1.240   5.564
 2559SOL     OW 8575   0.315   5.018   5.511
 2559SOL    HW1 8576   0.249   5.015   5.436
 2559SOL    HW2 8577   0.408   5.026   5.475
 2560SOL     OW 8578   5.891   1.763   5.919
 2560SOL    HW1 8579   5.925   1.854   5.945
 2560SOL    HW2 8580   5.872   1.711   6.002
 2561SOL     OW 8581   2.570   5.487   4.840
 2561SOL    HW1 8582   2.474   5.464   4.823
 2561SOL    HW2 8583   2.596   5.451   4.930
 2562SOL     OW 8584   1.904   3.841   0.522
 2562SOL    HW1 8585   1.858   3.846   0.433
 2562SOL    HW2 8586   1.979   3.775   0.518
 2563SOL     OW 8587   2.425   1.242   0.174
 2563SOL    HW1 8588   2.391   1.269   0.084
 2563SOL    HW2 8589   2.367   1.283   0.245
 2564SOL     OW 8590   1.988   5.016   1.561
 2564SOL    HW1 8591   2.078   5.053   1.538
 2564SOL    HW2 8592   1.993   4.970   1.650
 2565SOL     OW 8593   1.363   0.744   1.433
 2565SOL    HW1 8594   1.306   0.707   1.507
 2565SOL    HW2 8595   1.349   0.843   1.428
 2566SOL     OW 8596   2.294   6.714   6.785
 2566SOL    HW1 8597   2.370   6.717   6.720
 2566SOL    HW2 8598   2.304   6.635   6.845
 2567SOL     OW 8599   1.982   6.698   0.674
 2567SOL    HW1 8600   1.980   6.682   0.575
 2567SOL    HW2 8601   1.889   6.705   0.708
 2568SOL     OW 8602   4.442   2.157   0.053
 2568SOL    HW1 8603   4.487   2.214   7.003
 2568SOL    HW2 8604   4.368   2.105   0.010
 2569SOL     OW 8605   3.703   0.342   3.780
 2569SOL    HW1 8606   3.675   0.383   3.866
 2569SOL    HW2 8607   3.667   0.395   3.704
 2570SOL     OW 8608   5.577   1.647   6.177
 2570SOL    HW1 8609   5.596   1.716   6.247
 2570SOL    HW2 8610   5.551   1.693   6.092
 2571SOL     OW 8611   1.599   5.013   3.547
 2571SOL    HW1 8612   1.510   4.970   3.535
 2571SOL    HW2 8613   1.654   4.960   3.611
 2572SOL     OW 8614   2.738   5.159   3.219
 2572SOL    HW1 8615   2.813   5.220   3.245
 2572SOL    HW2 8616   2.652   5.196   3.254
 2573SOL     OW 8617   0.291   0.786   1.153
 2573SOL    HW1 8618   0.196   0.802   1.128
 2573SOL    HW2 8619   0.351   0.840   1.093
 2574SOL     OW 8620   6.108   3.413   0.726
 2574SOL    HW1 8621   6.032   3.472   0.696
 2574SOL    HW2 8622   6.082   3.317   0.715
 2575SOL     OW 8623   6.712   5.738   6.596
 2575SOL    HW1 8624   6.754   5.826   6.574
 2575SOL    HW2 8625   6.613   5.744   6.586
 2576SOL     OW 8626   5.336   5.924   3.832
 2576SOL    HW1 8627   5.308   5.833   3.864
 2576SOL    HW2 8628   5.322   5.991   3.905
 2577SOL     OW 8629   2.759   4.903   2.379
 2577SOL    HW1 8630   2.740   4.847   2.298
 2577SOL    HW2 8631   2.852   4.887   2.410
 2578SOL     OW 8632   3.630   1.737   3.749
 2578SOL    HW1 8633   3.553   1.712   3.809
 2578SOL    HW2 8634   3.595   1.789   3.671
 2579SOL     OW 8635   0.482   6.893   3.573
 2579SOL    HW1 8636   0.476   6.950   3.655
 2579SOL    HW2 8637   0.411   6.921   3.508
 2580SOL     OW 8638   2.455   2.736   6.986
 2580SOL    HW1 8639   2.429   2.727   6.890
 2580SOL    HW2 8640   2.537   2.681   7.003
 2581SOL     OW 8641   2.574   0.232   5.446
 2581SOL    HW1 8642   2.613   0.172   5.516
 2581SOL    HW2 8643   2.600   0.199   5.356
 2582SOL     OW 8644   6.894   3.421   1.407
 2582SOL    HW1 8645   6.988   3.434   1.439
 2582SOL    HW2 8646   6.894   3.400   1.310
 2583SOL     OW 8647   6.194   6.626   1.161
 2583SOL    HW1 8648   6.163   6.711   1.203
 2583SOL    HW2 8649   6.261   6.646   1.089
 2584SOL     OW 8650   4.633   4.662   5.203
 2584SOL    HW1 8651   4.668   4.727   5.137
 2584SOL    HW2 8652   4.707   4.600   5.231
 2585SOL     OW 8653   3.272   5.050   6.681
 2585SOL    HW1 8654   3.221   4.964   6.685
 2585SOL    HW2 8655   3.258   5.101   6.766
 2586SOL     OW 8656   1.282   0.764   5.198
 2586SOL    HW1 8657   1.377   0.732   5.196
 2586SOL    HW2 8658   1.254   0.779   5.293
 2587SOL     OW 8659   6.529   1.830   3.297
 2587SOL    HW1 8660   6.472   1.750   3.276
 2587SOL    HW2 8661   6.617   1.799   3.332
 2588SOL     OW 8662   4.502   1.397   4.787
 2588SOL    HW1 8663   4.439   1.451   4.843
 2588SOL    HW2 8664   4.542   1.456   4.717
 2589SOL     OW 8665   1.485   6.913   0.265
 2589SOL    HW1 8666   1.546   6.855   0.210
 2589SOL    HW2 8667   1.393   6.909   0.227
 2590SOL     OW 8668   2.631   5.427   0.027
 2590SOL    HW1 8669   2.713   5.469   7.010
 2590SOL    HW2 8670   2.551   5.463   7.000
 2591SOL     OW 8671   6.068   5.455   4.254
 2591SOL    HW1 8672   5.981   5.474   4.298
 2591SOL    HW2 8673   6.131   5.414   4.320
 2592SOL     OW 8674   2.854   4.836   6.476
 2592SOL    HW1 8675   2.895   4.784   6.401
 2592SOL    HW2 8676   2.760   4.806   6.490
 2593SOL     OW 8677   2.777   4.614   0.732
 2593SOL    HW1 8678   2.687   4.637   0.695
 2593SOL    HW2 8679   2.765   4.553   0.811
 2594SOL     OW 8680   2.144   4.292   4.294
 2594SOL    HW1 8681   2.235   4.332   4.302
 2594SOL    HW2 8682   2.138   4.210   4.351
 2595SOL     OW 8683   2.003   0.392   3.455
 2595SOL    HW1 8684   1.947   0.457   3.404
 2595SOL    HW2 8685   1.946   0.316   3.487
 2596SOL     OW 8686   0.954   2.023   0.343
 2596SOL    HW1 8687   0.930   2.089   0.272
 2596SOL    HW2 8688   0.875   2.007   0.402
 2597SOL     OW 8689   0.254   5.961   6.422
 2597SOL    HW1 8690   0.262   6.057   6.446
 2597SOL    HW2 8691   0.326   5.909   6.468
 2598SOL     OW 8692   5.764   2.648   2.379
 2598SOL    HW1 8693   5.827   2.621   2.451
 2598SOL    HW2 8694   5.736   2.568   2.326
 2599SOL     OW 8695   2.281   6.933   2.315
 2599SOL    HW1 8696   2.292   6.870   2.393
 2599SOL    HW2 8697   2.368   6.941   2.267
 2600SOL     OW 8698   6.261   3.857   4.344
 2600SOL    HW1 8699   6.353   3.849   4.306
 2600SOL    HW2 8700   6.198   3.798   4.293
 2601SOL     OW 8701   0.591   1.984   2.853
 2601SOL    HW1 8702   0.690   1.985   2.844
 2601SOL    HW2 8703   0.549   1.971   2.763
 2602SOL     OW 8704   2.034   5.440   3.832
 2602SOL    HW1 8705   2.074   5.349   3.829
 2602SOL    HW2 8706   2.105   5.509   3.814
 2603SOL     OW 8707   2.805   0.644   2.830
 2603SOL    HW1 8708   2.816   0.659   2.732
 2603SOL    HW2 8709   2.836   0.551   2.853
 2604SOL     OW 8710   4.670   2.044   2.853
 2604SOL    HW1 8711   4.753   2.089   2.887
 2604SOL    HW2 8712   4.652   2.076   2.760
 2605SOL     OW 8713   1.130   3.832   1.912
 2605SOL    HW1 8714   1.050   3.878   1.952
 2605SOL    HW2 8715   1.105   3.793   1.823
 2606SOL     OW 8716   4.361   4.091   0.847
 2606SOL    HW1 8717   4.350   4.154   0.924
 2606SOL    HW2 8718   4.283   4.028   0.844
 2607SOL     OW 8719   2.605   2.114   1.147
 2607SOL    HW1 8720   2.696   2.116   1.106
 2607SOL    HW2 8721   2.542   2.169   1.091
 2608SOL     OW 8722   2.605   5.643   6.363
 2608SOL    HW1 8723   2.617   5.664   6.266
 2608SOL    HW2 8724   2.642   5.551   6.382
 2609SOL     OW 8725   6.996   0.589   1.214
 2609SOL    HW1 8726   6.978   0.687   1.208
 2609SOL    HW2 8727   6.925   0.539   1.165
 2610SOL     OW 8728   1.443   5.081   4.369
 2610SOL    HW1 8729   1.388   5.011   4.322
 2610SOL    HW2 8730   1.533   5.043   4.391
 2611SOL     OW 8731   5.594   6.674   6.642
 2611SOL    HW1 8732   5.559   6.585   6.614
 2611SOL    HW2 8733   5.540   6.707   6.720
 2612SOL     OW 8734   6.125   0.237   5.693
 2612SOL    HW1 8735   6.189   0.304   5.656
 2612SOL    HW2 8736   6.063   0.283   5.757
 2613SOL     OW 8737   1.369   5.635   7.014
 2613SOL    HW1 8738   1.370   5.667   6.920
 2613SOL    HW2 8739   1.462   5.623   0.027
 2614SOL     OW 8740   0.125   1.703   6.983
 2614SOL    HW1 8741   0.166   1.648   0.036
 2614SOL    HW2 8742   0.067   1.774   0.004
 2615SOL     OW 8743   0.952   3.242   0.111
 2615SOL    HW1 8744   0.985   3.292   0.031
 2615SOL    HW2 8745   0.932   3.305   0.185
 2616SOL     OW 8746   1.331   0.568   5.632
 2616SOL    HW1 8747   1.241   0.532   5.659
 2616SOL    HW2 8748   1.402   0.523   5.687
 2617SOL     OW 8749   5.147   0.180   0.883
 2617SOL    HW1 8750   5.214   0.129   0.828
 2617SOL    HW2 8751   5.194   0.222   0.960
 2618SOL     OW 8752   2.252   6.562   6.289
 2618SOL    HW1 8753   2.293   6.475   6.316
 2618SOL    HW2 8754   2.218   6.554   6.195
 2619SOL     OW 8755   4.844   1.158   2.412
 2619SOL    HW1 8756   4.793   1.244   2.412
 2619SOL    HW2 8757   4.815   1.102   2.335
 2620SOL     OW 8758   6.631   6.683   1.172
 2620SOL    HW1 8759   6.716   6.734   1.185
 2620SOL    HW2 8760   6.596   6.654   1.261
 2621SOL     OW 8761   2.001   6.093   2.098
 2621SOL    HW1 8762   2.023   6.190   2.089
 2621SOL    HW2 8763   1.907   6.082   2.130
 2622SOL     OW 8764   3.579   3.297   6.135
 2622SOL    HW1 8765   3.571   3.276   6.037
 2622SOL    HW2 8766   3.580   3.212   6.187
 2623SOL     OW 8767   0.658   6.694   3.607
 2623SOL    HW1 8768   0.739   6.746   3.630
 2623SOL    HW2 8769   0.581   6.756   3.590
 2624SOL     OW 8770   0.099   2.278   4.386
 2624SOL    HW1 8771   0.199   2.272   4.396
 2624SOL    HW2 8772   0.059   2.189   4.408
 2625SOL     OW 8773   1.510   5.385   5.881
 2625SOL    HW1 8774   1.487   5.439   5.962
 2625SOL    HW2 8775   1.510   5.288   5.904
 2626SOL     OW 8776   6.874   5.215   6.102
 2626SOL    HW1 8777   6.865   5.152   6.026
 2626SOL    HW2 8778   6.872   5.309   6.068
 2627SOL     OW 8779   1.551   6.720   5.642
 2627SOL    HW1 8780   1.475   6.718   5.707
 2627SOL    HW2 8781   1.531   6.657   5.567
 2628SOL     OW 8782   0.688   4.742   1.971
 2628SOL    HW1 8783   0.703   4.680   1.894
 2628SOL    HW2 8784   0.608   4.799   1.952
 2629SOL     OW 8785   3.177   3.711   3.579
 2629SOL    HW1 8786   3.178   3.690   3.481
 2629SOL    HW2 8787   3.096   3.672   3.621
 2630SOL     OW 8788   3.898   0.810   4.026
 2630SOL    HW1 8789   3.990   0.789   4.058
 2630SOL    HW2 8790   3.848   0.860   4.096
 2631SOL     OW 8791   5.940   0.898   0.510
 2631SOL    HW1 8792   5.978   0.811   0.542
 2631SOL    HW2 8793   5.844   0.885   0.487
 2632SOL     OW 8794   5.627   4.135   2.246
 2632SOL    HW1 8795   5.628   4.213   2.309
 2632SOL    HW2 8796   5.532   4.110   2.226
 2633SOL     OW 8797   0.117   2.935   6.100
 2633SOL    HW1 8798   0.047   2.917   6.169
 2633SOL    HW2 8799   0.086   3.008   6.040
 2634SOL     OW 8800   6.611   0.885   5.570
 2634SOL    HW1 8801   6.612   0.865   5.667
 2634SOL    HW2 8802   6.576   0.806   5.519
 2635SOL     OW 8803   5.367   5.152   3.681
 2635SOL    HW1 8804   5.313   5.073   3.710
 2635SOL    HW2 8805   5.416   5.189   3.760
 2636SOL     OW 8806   3.796   6.599   5.415
 2636SOL    HW1 8807   3.736   6.571   5.489
 2636SOL    HW2 8808   3.869   6.658   5.451
 2637SOL     OW 8809   1.071   1.720   3.208
 2637SOL    HW1 8810   1.001   1.661   3.170
 2637SOL    HW2 8811   1.068   1.809   3.163
 2638SOL     OW 8812   0.979   6.462   4.334
 2638SOL    HW1 8813   1.034   6.540   4.365
 2638SOL    HW2 8814   1.039   6.392   4.296
 2639SOL     OW 8815   4.159   4.641   5.351
 2639SOL    HW1 8816   4.101   4.565   5.381
 2639SOL    HW2 8817   4.173   4.705   5.427
 2640SOL     OW 8818   1.134   6.486   4.665
 2640SOL    HW1 8819   1.209   6.420   4.673
 2640SOL    HW2 8820   1.152   6.549   4.589
 2641SOL     OW 8821   5.642   2.804   6.484
 2641SOL    HW1 8822   5.729   2.853   6.484
 2641SOL    HW2 8823   5.591   2.825   6.401
 2642SOL     OW 8824   6.510   1.273   3.655
 2642SOL    HW1 8825   6.423   1.297   3.698
 2642SOL    HW2 8826   6.582   1.273   3.724
 2643SOL     OW 8827   2.320   4.668   3.588
 2643SOL    HW1 8828   2.416   4.647   3.575
 2643SOL    HW2 8829   2.291   4.737   3.522
 2644SOL     OW 8830   4.953   5.059   4.327
 2644SOL    HW1 8831   4.929   5.023   4.417
 2644SOL    HW2 8832   4.870   5.086   4.278
 2645SOL     OW 8833   5.000   5.484   2.956
 2645SOL    HW1 8834   4.937   5.505   2.881
 2645SOL    HW2 8835   4.950   5.440   3.031
 2646SOL     OW 8836   0.497   2.915   6.877
 2646SOL    HW1 8837   0.594   2.909   6.853
 2646SOL    HW2 8838   0.461   2.823   6.894
 2647SOL     OW 8839   5.140   0.844   1.690
 2647SOL    HW1 8840   5.083   0.926   1.695
 2647SOL    HW2 8841   5.091   0.766   1.727
 2648SOL     OW 8842   1.207   0.221   6.408
 2648SOL    HW1 8843   1.176   0.251   6.498
 2648SOL    HW2 8844   1.212   0.121   6.406
 2649SOL     OW 8845   5.056   2.239   2.211
 2649SOL    HW1 8846   5.126   2.168   2.214
 2649SOL    HW2 8847   5.070   2.295   2.129
 2650SOL     OW 8848   3.135   6.356   4.463
 2650SOL    HW1 8849   3.046   6.397   4.477
 2650SOL    HW2 8850   3.166   6.313   4.548
 2651SOL     OW 8851   4.048   2.125   4.597
 2651SOL    HW1 8852   4.052   2.209   4.651
 2651SOL    HW2 8853   4.082   2.143   4.505
 2652SOL     OW 8854   4.703   4.585   5.596
 2652SOL    HW1 8855   4.792   4.608   5.556
 2652SOL    HW2 8856   4.713   4.506   5.656
 2653SOL     OW 8857   2.665   5.689   0.364
 2653SOL    HW1 8858   2.668   5.758   0.436
 2653SOL    HW2 8859   2.758   5.664   0.337
 2654SOL     OW 8860   6.540   0.806   0.230
 2654SOL    HW1 8861   6.627   0.848   0.254
 2654SOL    HW2 8862   6.478   0.810   0.308
 2655SOL     OW 8863   4.853   6.200   2.487
 2655SOL    HW1 8864   4.892   6.108   2.495
 2655SOL    HW2 8865   4.897   6.260   2.553
 2656SOL     OW 8866   3.886   6.169   2.900
 2656SOL    HW1 8867   3.880   6.255   2.950
 2656SOL    HW2 8868   3.978   6.158   2.863
 2657SOL     OW 8869   1.391   3.977   0.261
 2657SOL    HW1 8870   1.396   3.893   0.314
 2657SOL    HW2 8871   1.429   4.053   0.314
 2658SOL     OW 8872   4.041   5.363   6.829
 2658SOL    HW1 8873   3.951   5.329   6.800
 2658SOL    HW2 8874   4.103   5.365   6.750
 2659SOL     OW 8875   6.993   2.216   4.755
 2659SOL    HW1 8876   6.983   2.183   4.849
 2659SOL    HW2 8877   7.015   2.140   4.695
 2660SOL     OW 8878   0.735   2.071   2.582
 2660SOL    HW1 8879   0.782   2.084   2.494
 2660SOL    HW2 8880   0.646   2.029   2.566
 2661SOL     OW 8881   1.655   1.039   0.510
 2661SOL    HW1 8882   1.665   1.071   0.605
 2661SOL    HW2 8883   1.690   0.946   0.503
 2662SOL     OW 8884   2.115   0.828   2.041
 2662SOL    HW1 8885   2.018   0.850   2.039
 2662SOL    HW2 8886   2.161   0.871   1.964
 2663SOL     OW 8887   4.463   6.559   0.853
 2663SOL    HW1 8888   4.497   6.573   0.760
 2663SOL    HW2 8889   4.410   6.639   0.881
 2664SOL     OW 8890   4.446   3.688   5.492
 2664SOL    HW1 8891   4.432   3.786   5.512
 2664SOL    HW2 8892   4.520   3.653   5.550
 2665SOL     OW 8893   1.942   3.911   4.345
 2665SOL    HW1 8894   1.938   3.812   4.351
 2665SOL    HW2 8895   1.850   3.948   4.331
 2666SOL     OW 8896   1.931   3.748   2.151
 2666SOL    HW1 8897   1.861   3.801   2.104
 2666SOL    HW2 8898   2.016   3.750   2.097
 2667SOL     OW 8899   6.550   3.507   4.660
 2667SOL    HW1 8900   6.556   3.566   4.740
 2667SOL    HW2 8901   6.526   3.414   4.688
 2668SOL     OW 8902   6.321   0.701   3.883
 2668SOL    HW1 8903   6.245   0.703   3.949
 2668SOL    HW2 8904   6.360   0.609   3.879
 2669SOL     OW 8905   2.593   0.325   0.019
 2669SOL    HW1 8906   2.673   0.289   0.067
 2669SOL    HW2 8907   2.611   0.418   7.008
 2670SOL     OW 8908   0.080   6.822   6.651
 2670SOL    HW1 8909   0.011   6.873   6.599
 2670SOL    HW2 8910   0.133   6.765   6.588
 2671SOL     OW 8911   5.193   4.576   6.327
 2671SOL    HW1 8912   5.095   4.584   6.312
 2671SOL    HW2 8913   5.230   4.500   6.274
 2672SOL     OW 8914   3.361   0.636   1.975
 2672SOL    HW1 8915   3.448   0.635   1.926
 2672SOL    HW2 8916   3.305   0.712   1.940
 2673SOL     OW 8917   4.359   0.192   2.571
 2673SOL    HW1 8918   4.361   0.290   2.591
 2673SOL    HW2 8919   4.370   0.140   2.656
 2674SOL     OW 8920   0.227   5.016   1.966
 2674SOL    HW1 8921   0.187   5.103   1.939
 2674SOL    HW2 8922   0.231   5.010   2.066
 2675SOL     OW 8923   5.627   0.011   3.987
 2675SOL    HW1 8924   5.691   0.016   4.064
 2675SOL    HW2 8925   5.563   6.956   4.002
 2676SOL     OW 8926   3.713   3.893   3.075
 2676SOL    HW1 8927   3.676   3.948   3.150
 2676SOL    HW2 8928   3.812   3.907   3.071
 2677SOL     OW 8929   2.501   4.830   1.455
 2677SOL    HW1 8930   2.458   4.843   1.366
 2677SOL    HW2 8931   2.431   4.804   1.521
 2678SOL     OW 8932   4.238   1.830   2.713
 2678SOL    HW1 8933   4.207   1.924   2.697
 2678SOL    HW2 8934   4.283   1.795   2.631
 2679SOL     OW 8935   2.223   3.951   3.153
 2679SOL    HW1 8936   2.272   4.022   3.204
 2679SOL    HW2 8937   2.204   3.983   3.060
 2680SOL     OW 8938   6.395   1.493   0.207
 2680SOL    HW1 8939   6.466   1.422   0.204
 2680SOL    HW2 8940   6.432   1.576   0.247
 2681SOL     OW 8941   2.151   1.829   4.936
 2681SOL    HW1 8942   2.157   1.905   4.871
 2681SOL    HW2 8943   2.141   1.864   5.029
 2682SOL     OW 8944   4.097   3.896   1.677
 2682SOL    HW1 8945   4.041   3.978   1.668
 2682SOL    HW2 8946   4.037   3.817   1.691
 2683SOL     OW 8947   2.536   4.628   2.121
 2683SOL    HW1 8948   2.494   4.589   2.202
 2683SOL    HW2 8949   2.627   4.665   2.144
 2684SOL     OW 8950   6.450   6.587   3.546
 2684SOL    HW1 8951   6.490   6.576   3.637
 2684SOL    HW2 8952   6.391   6.668   3.545
 2685SOL     OW 8953   1.387   5.714   5.798
 2685SOL    HW1 8954   1.456   5.657   5.753
 2685SOL    HW2 8955   1.319   5.656   5.842
 2686SOL     OW 8956   0.878   1.596   5.089
 2686SOL    HW1 8957   0.923   1.543   5.160
 2686SOL    HW2 8958   0.850   1.685   5.127
 2687SOL     OW 8959   4.082   1.927   1.656
 2687SOL    HW1 8960   4.101   1.831   1.677
 2687SOL    HW2 8961   4.057   1.936   1.560
 2688SOL     OW 8962   3.920   2.865   6.247
 2688SOL    HW1 8963   4.019   2.872   6.259
 2688SOL    HW2 8964   3.898   2.862   6.150
 2689SOL     OW 8965   1.010   3.796   3.259
 2689SOL    HW1 8966   0.968   3.881   3.227
 2689SOL    HW2 8967   1.065   3.815   3.340
 2690SOL     OW 8968   4.162   1.542   5.865
 2690SOL    HW1 8969   4.157   1.588   5.954
 2690SOL    HW2 8970   4.188   1.609   5.795
 2691SOL     OW 8971   6.650   4.203   4.001
 2691SOL    HW1 8972   6.551   4.193   3.991
 2691SOL    HW2 8973   6.694   4.190   3.912
 2692SOL     OW 8974   2.780   5.670   2.373
 2692SOL    HW1 8975   2.859   5.687   2.313
 2692SOL    HW2 8976   2.808   5.682   2.468
 2693SOL     OW 8977   2.075   5.486   3.081
 2693SOL    HW1 8978   2.172   5.510   3.075
 2693SOL    HW2 8979   2.025   5.530   3.007
 2694SOL     OW 8980   3.232   0.471   3.126
 2694SOL    HW1 8981   3.324   0.435   3.139
 2694SOL    HW2 8982   3.166   0.410   3.168
 2695SOL     OW 8983   6.972   5.572   3.057
 2695SOL    HW1 8984   6.968   5.543   3.152
 2695SOL    HW2 8985   6.884   5.610   3.029
 2696SOL     OW 8986   5.610   4.509   6.082
 2696SOL    HW1 8987   5.662   4.425   6.063
 2696SOL    HW2 8988   5.558   4.534   6.001
 2697SOL     OW 8989   4.470   2.493   0.119
 2697SOL    HW1 8990   4.538   2.514   0.049
 2697SOL    HW2 8991   4.388   2.454   0.076
 2698SOL     OW 8992   1.957   4.364   6.221
 2698SOL    HW1 8993   2.030   4.337   6.284
 2698SOL    HW2 8994   1.885   4.294   6.222
 2699SOL     OW 8995   3.020   6.266   2.002
 2699SOL    HW1 8996   2.935   6.310   1.974
 2699SOL    HW2 8997   3.000   6.197   2.072
 2700SOL     OW 8998   3.525   1.702   1.850
 2700SOL    HW1 8999   3.542   1.797   1.878
 2700SOL    HW2 9000   3.592   1.675   1.781
 2701SOL     OW 9001   5.141   3.025   4.936
 2701SOL    HW1 9002   5.142   3.114   4.891
 2701SOL    HW2 9003   5.211   2.966   4.896
 2702SOL     OW 9004   2.584   0.893   4.677
 2702SOL    HW1 9005   2.524   0.898   4.757
 2702SOL    HW2 9006   2.597   0.798   4.650
 2703SOL     OW 9007   1.636   6.548   2.667
 2703SOL    HW1 9008   1.631   6.448   2.674
 2703SOL    HW2 9009   1.544   6.586   2.673
 2704SOL     OW 9010   5.389   0.287   3.810
 2704SOL    HW1 9011   5.319   0.230   3.854
 2704SOL    HW2 9012   5.478   0.269   3.852
 2705SOL     OW 9013   0.042   0.203   5.597
 2705SOL    HW1 9014   0.071   0.294   5.565
 2705SOL    HW2 9015   7.016   0.212   5.685
 2706SOL     OW 9016   0.021   3.616   3.576
 2706SOL    HW1 9017   0.036   3.686   3.506
 2706SOL    HW2 9018   6.958   3.638   3.628
 2707SOL     OW 9019   3.902   1.100   3.248
 2707SOL    HW1 9020   3.856   1.063   3.167
 2707SOL    HW2 9021   3.963   1.031   3.286
 2708SOL     OW 9022   6.080   3.515   6.411
 2708SOL    HW1 9023   6.041   3.429   6.378
 2708SOL    HW2 9024   6.122   3.564   6.335
 2709SOL     OW 9025   5.127   1.229   5.300
 2709SOL    HW1 9026   5.052   1.167   5.279
 2709SOL    HW2 9027   5.091   1.314   5.337
 2710SOL     OW 9028   1.076   2.706   3.996
 2710SOL    HW1 9029   1.086   2.644   3.918
 2710SOL    HW2 9030   1.118   2.665   4.077
 2711SOL     OW 9031   2.994   1.317   1.985
 2711SOL    HW1 9032   3.059   1.346   1.915
 2711SOL    HW2 9033   3.011   1.221   2.008
 2712SOL     OW 9034   3.938   5.778   1.964
 2712SOL    HW1 9035   3.899   5.739   2.047
 2712SOL    HW2 9036   3.924   5.877   1.964
 2713SOL     OW 9037   3.682   4.850   6.137
 2713SOL    HW1 9038   3.616   4.858   6.212
 2713SOL    HW2 9039   3.732   4.936   6.127
 2714SOL     OW 9040   2.874   4.851   6.122
 2714SOL    HW1 9041   2.809   4.786   6.081
 2714SOL    HW2 9042   2.824   4.915   6.180
 2715SOL     OW 9043   4.038   0.973   6.749
 2715SOL    HW1 9044   4.085   0.907   6.689
 2715SOL    HW2 9045   3.940   0.967   6.734
 2716SOL     OW 9046   3.498   1.307   3.234
 2716SOL    HW1 9047   3.581   1.296   3.289
 2716SOL    HW2 9048   3.502   1.394   3.185
 2717SOL     OW 9049   0.831   1.100   2.533
 2717SOL    HW1 9050   0.786   1.011   2.544
 2717SOL    HW2 9051   0.929   1.086   2.517
 2718SOL     OW 9052   0.007   0.767   5.868
 2718SOL    HW1 9053   6.962   0.799   5.800
 2718SOL    HW2 9054   0.059   0.845   5.904
 2719SOL     OW 9055   1.982   4.239   2.154
 2719SOL    HW1 9056   1.900   4.275   2.198
 2719SOL    HW2 9057   1.957   4.175   2.082
 2720SOL     OW 9058   2.541   6.450   6.574
 2720SOL    HW1 9059   2.580   6.432   6.484
 2720SOL    HW2 9060   2.559   6.372   6.634
 2721SOL     OW 9061   3.283   6.142   1.703
 2721SOL    HW1 9062   3.193   6.178   1.677
 2721SOL    HW2 9063   3.307   6.174   1.795
 2722SOL     OW 9064   4.325   6.380   0.331
 2722SOL    HW1 9065   4.230   6.351   0.326
 2722SOL    HW2 9066   4.373   6.327   0.402
 2723SOL     OW 9067   3.301   6.515   6.290
 2723SOL    HW1 9068   3.348   6.583   6.232
 2723SOL    HW2 9069   3.357   6.499   6.371
 2724SOL     OW 9070   1.088   6.439   1.074
 2724SOL    HW1 9071   1.040   6.447   0.987
 2724SOL    HW2 9072   1.066   6.519   1.131
 2725SOL     OW 9073   6.159   3.963   5.055
 2725SOL    HW1 9074   6.144   4.060   5.034
 2725SOL    HW2 9075   6.228   3.927   4.992
 2726SOL     OW 9076   6.739   1.949   2.118
 2726SOL    HW1 9077   6.680   2.006   2.060
 2726SOL    HW2 9078   6.828   1.992   2.127
 2727SOL     OW 9079   1.889   5.133   3.863
 2727SOL    HW1 9080   1.795   5.107   3.840
 2727SOL    HW2 9081   1.943   5.052   3.884
 2728SOL     OW 9082   5.237   4.844   5.826
 2728SOL    HW1 9083   5.333   4.855   5.848
 2728SOL    HW2 9084   5.183   4.839   5.910
 2729SOL     OW 9085   5.511   6.885   6.431
 2729SOL    HW1 9086   5.578   6.957   6.415
 2729SOL    HW2 9087   5.549   6.818   6.496
 2730SOL     OW 9088   0.828   6.102   1.883
 2730SOL    HW1 9089   0.823   6.055   1.971
 2730SOL    HW2 9090   0.742   6.151   1.866
 2731SOL     OW 9091   3.481   3.699   4.006
 2731SOL    HW1 9092   3.443   3.732   3.919
 2731SOL    HW2 9093   3.465   3.768   4.077
 2732SOL     OW 9094   5.440   1.017   1.972
 2732SOL    HW1 9095   5.406   0.927   2.000
 2732SOL    HW2 9096   5.483   1.009   1.882
 2733SOL     OW 9097   1.066   6.653   6.891
 2733SOL    HW1 9098   1.064   6.568   6.943
 2733SOL    HW2 9099   0.980   6.702   6.902
 2734SOL     OW 9100   3.493   6.465   1.916
 2734SOL    HW1 9101   3.469   6.432   1.825
 2734SOL    HW2 9102   3.526   6.388   1.971
 2735SOL     OW 9103   0.813   1.643   1.952
 2735SOL    HW1 9104   0.909   1.660   1.974
 2735SOL    HW2 9105   0.808   1.588   1.869
 2736SOL     OW 9106   5.809   4.291   3.137
 2736SOL    HW1 9107   5.844   4.233   3.063
 2736SOL    HW2 9108   5.789   4.235   3.217
 2737SOL     OW 9109   2.555   1.492   5.391
 2737SOL    HW1 9110   2.573   1.395   5.408
 2737SOL    HW2 9111   2.479   1.501   5.327
 2738SOL     OW 9112   5.226   6.595   1.686
 2738SOL    HW1 9113   5.303   6.632   1.739
 2738SOL    HW2 9114   5.254   6.510   1.641
 2739SOL     OW 9115   6.389   5.547   1.490
 2739SOL    HW1 9116   6.488   5.562   1.484
 2739SOL    HW2 9117   6.343   5.632   1.515
 2740SOL     OW 9118   6.399   5.590   3.887
 2740SOL    HW1 9119   6.360   5.681   3.872
 2740SOL    HW2 9120   6.497   5.599   3.906
 2741SOL     OW 9121   1.398   1.610   5.367
 2741SOL    HW1 9122   1.396   1.517   5.405
 2741SOL    HW2 9123   1.475   1.619   5.304
 2742SOL     OW 9124   3.053   5.924   1.383
 2742SOL    HW1 9125   3.031   5.963   1.472
 2742SOL    HW2 9126   3.070   5.825   1.393
 2743SOL     OW 9127   5.557   3.153   2.858
 2743SOL    HW1 9128   5.497   3.179   2.933
 2743SOL    HW2 9129   5.518   3.184   2.771
 2744SOL     OW 9130   2.972   3.649   3.012
 2744SOL    HW1 9131   2.974   3.739   3.054
 2744SOL    HW2 9132   3.047   3.641   2.946
 2745SOL     OW 9133   0.686   6.673   0.147
 2745SOL    HW1 9134   0.612   6.621   0.104
 2745SOL    HW2 9135   0.653   6.711   0.234
 2746SOL     OW 9136   1.608   1.343   3.521
 2746SOL    HW1 9137   1.617   1.391   3.434
 2746SOL    HW2 9138   1.554   1.260   3.509
 2747SOL     OW 9139   3.916   5.230   0.562
 2747SOL    HW1 9140   3.973   5.257   0.484
 2747SOL    HW2 9141   3.964   5.161   0.616
 2748SOL     OW 9142   4.466   6.612   1.495
 2748SOL    HW1 9143   4.489   6.581   1.403
 2748SOL    HW2 9144   4.399   6.687   1.489
 2749SOL     OW 9145   3.286   3.269   0.001
 2749SOL    HW1 9146   3.227   3.240   6.946
 2749SOL    HW2 9147   3.351   3.197   0.023
 2750SOL     OW 9148   2.397   6.113   2.064
 2750SOL    HW1 9149   2.343   6.034   2.092
 2750SOL    HW2 9150   2.339   6.177   2.013
 2751SOL     OW 9151   6.103   3.730   0.955
 2751SOL    HW1 9152   6.110   3.728   1.055
 2751SOL    HW2 9153   6.007   3.724   0.928
 2752SOL     OW 9154   3.961   4.965   6.960
 2752SOL    HW1 9155   4.041   4.990   6.905
 2752SOL    HW2 9156   3.990   4.905   0.015
 2753SOL     OW 9157   6.180   6.013   5.298
 2753SOL    HW1 9158   6.128   6.084   5.345
 2753SOL    HW2 9159   6.264   6.053   5.259
 2754SOL     OW 9160   1.228   6.937   6.054
 2754SOL    HW1 9161   1.236   6.861   6.119
 2754SOL    HW2 9162   1.133   6.968   6.052
 2755SOL     OW 9163   2.366   0.795   2.496
 2755SOL    HW1 9164   2.355   0.816   2.398
 2755SOL    HW2 9165   2.311   0.716   2.520
 2756SOL     OW 9166   4.640   6.345   0.543
 2756SOL    HW1 9167   4.710   6.279   0.571
 2756SOL    HW2 9168   4.551   6.316   0.576
 2757SOL     OW 9169   0.590   5.230   1.243
 2757SOL    HW1 9170   0.585   5.234   1.143
 2757SOL    HW2 9171   0.658   5.297   1.275
 2758SOL     OW 9172   4.775   0.641   5.942
 2758SOL    HW1 9173   4.726   0.707   5.999
 2758SOL    HW2 9174   4.873   0.656   5.952
 2759SOL     OW 9175   5.770   5.922   5.033
 2759SOL    HW1 9176   5.789   5.944   4.937
 2759SOL    HW2 9177   5.695   5.979   5.066
 2760SOL     OW 9178   2.615   5.649   3.155
 2760SOL    HW1 9179   2.606   5.583   3.229
 2760SOL    HW2 9180   2.653   5.604   3.074
 2761SOL     OW 9181   2.306   6.091   3.085
 2761SOL    HW1 9182   2.293   6.097   3.184
 2761SOL    HW2 9183   2.294   5.996   3.056
 2762SOL     OW 9184   0.593   6.626   4.985
 2762SOL    HW1 9185   0.554   6.674   5.063
 2762SOL    HW2 9186   0.646   6.689   4.929
 2763SOL     OW 9187   5.843   1.833   2.268
 2763SOL    HW1 9188   5.787   1.837   2.186
 2763SOL    HW2 9189   5.811   1.902   2.333
 2764SOL     OW 9190   6.291   1.256   2.318
 2764SOL    HW1 9191   6.293   1.356   2.318
 2764SOL    HW2 9192   6.299   1.222   2.411
 2765SOL     OW 9193   6.163   1.415   1.694
 2765SOL    HW1 9194   6.128   1.382   1.781
 2765SOL    HW2 9195   6.091   1.410   1.625
 2766SOL     OW 9196   6.082   0.820   2.504
 2766SOL    HW1 9197   6.175   0.815   2.468
 2766SOL    HW2 9198   6.036   0.901   2.466
 2767SOL     OW 9199   5.678   4.198   5.992
 2767SOL    HW1 9200   5.711   4.197   6.087
 2767SOL    HW2 9201   5.632   4.112   5.971
 2768SOL     OW 9202   5.752   1.119   6.800
 2768SOL    HW1 9203   5.798   1.204   6.774
 2768SOL    HW2 9204   5.792   1.084   6.884
 2769SOL     OW 9205   0.651   3.701   1.604
 2769SOL    HW1 9206   0.724   3.742   1.549
 2769SOL    HW2 9207   0.571   3.761   1.601
 2770SOL     OW 9208   0.394   5.571   1.470
 2770SOL    HW1 9209   0.378   5.663   1.505
 2770SOL    HW2 9210   0.457   5.575   1.393
 2771SOL     OW 9211   4.763   1.259   1.646
 2771SOL    HW1 9212   4.794   1.195   1.575
 2771SOL    HW2 9213   4.731   1.208   1.725
 2772SOL     OW 9214   3.202   2.667   6.304
 2772SOL    HW1 9215   3.194   2.735   6.232
 2772SOL    HW2 9216   3.170   2.706   6.391
 2773SOL     OW 9217   3.869   3.801   6.334
 2773SOL    HW1 9218   3.899   3.714   6.294
 2773SOL    HW2 9219   3.801   3.783   6.405
 2774SOL     OW 9220   5.724   3.487   2.684
 2774SOL    HW1 9221   5.802   3.547   2.700
 2774SOL    HW2 9222   5.755   3.392   2.681
 2775SOL     OW 9223   6.666   6.286   1.439
 2775SOL    HW1 9224   6.731   6.306   1.365
 2775SOL    HW2 9225   6.696   6.203   1.487
 2776SOL     OW 9226   2.675   5.995   6.164
 2776SOL    HW1 9227   2.709   6.067   6.225
 2776SOL    HW2 9228   2.751   5.957   6.112
 2777SOL     OW 9229   3.388   1.229   2.707
 2777SOL    HW1 9230   3.330   1.250   2.629
 2777SOL    HW2 9231   3.334   1.232   2.791
 2778SOL     OW 9232   2.254   2.163   5.774
 2778SOL    HW1 9233   2.318   2.166   5.850
 2778SOL    HW2 9234   2.304   2.161   5.688
 2779SOL     OW 9235   5.538   0.879   6.841
 2779SOL    HW1 9236   5.452   0.892   6.891
 2779SOL    HW2 9237   5.599   0.956   6.861
 2780SOL     OW 9238   4.784   5.144   6.682
 2780SOL    HW1 9239   4.725   5.223   6.669
 2780SOL    HW2 9240   4.878   5.175   6.695
 2781SOL     OW 9241   5.266   4.576   0.616
 2781SOL    HW1 9242   5.347   4.634   0.627
 2781SOL    HW2 9243   5.249   4.562   0.519
 2782SOL     OW 9244   2.599   2.393   5.940
 2782SOL    HW1 9245   2.607   2.488   5.909
 2782SOL    HW2 9246   2.686   2.363   5.980
 2783SOL     OW 9247   0.222   4.781   5.592
 2783SOL    HW1 9248   0.243   4.874   5.561
 2783SOL    HW2 9249   0.123   4.769   5.599
 2784SOL     OW 9250   2.060   1.808   1.848
 2784SOL    HW1 9251   2.016   1.719   1.855
 2784SOL    HW2 9252   2.057   1.853   1.937
 2785SOL     OW 9253   6.257   0.978   1.012
 2785SOL    HW1 9254   6.241   0.988   0.914
 2785SOL    HW2 9255   6.349   1.009   1.034
 2786SOL     OW 9256   4.187   6.543   1.111
 2786SOL    HW1 9257   4.251   6.470   1.086
 2786SOL    HW2 9258   4.227   6.599   1.184
 2787SOL     OW 9259   2.437   2.895   5.589
 2787SOL    HW1 9260   2.412   2.903   5.493
 2787SOL    HW2 9261   2.355   2.910   5.645
 2788SOL     OW 9262   1.046   3.783   0.551
 2788SOL    HW1 9263   1.092   3.697   0.573
 2788SOL    HW2 9264   1.081   3.819   0.465
 2789SOL     OW 9265   0.523   2.197   4.212
 2789SOL    HW1 9266   0.596   2.154   4.160
 2789SOL    HW2 9267   0.451   2.130   4.232
 2790SOL     OW 9268   4.003   5.634   2.881
 2790SOL    HW1 9269   4.038   5.716   2.835
 2790SOL    HW2 9270   3.904   5.642   2.893
 2791SOL     OW 9271   1.733   3.184   4.497
 2791SOL    HW1 9272   1.637   3.211   4.511
 2791SOL    HW2 9273   1.737   3.110   4.430
 2792SOL     OW 9274   0.914   2.274   5.395
 2792SOL    HW1 9275   0.961   2.194   5.432
 2792SOL    HW2 9276   0.901   2.342   5.467
 2793SOL     OW 9277   4.509   1.292   3.579
 2793SOL    HW1 9278   4.541   1.198   3.594
 2793SOL    HW2 9279   4.587   1.349   3.552
 2794SOL     OW 9280   0.903   0.629   0.940
 2794SOL    HW1 9281   0.813   0.658   0.908
 2794SOL    HW2 9282   0.910   0.644   1.039
 2795SOL     OW 9283   2.764   4.098   1.314
 2795SOL    HW1 9284   2.806   4.189   1.316
 2795SOL    HW2 9285   2.728   4.080   1.223
 2796SOL     OW 9286   5.368   3.976   2.287
 2796SOL    HW1 9287   5.270   3.960   2.276
 2796SOL    HW2 9288   5.391   3.978   2.384
 2797SOL     OW 9289   4.802   4.775   4.823
 2797SOL    HW1 9290   4.851   4.708   4.879
 2797SOL    HW2 9291   4.831   4.767   4.728
 2798SOL     OW 9292   0.764   3.692   4.164
 2798SOL    HW1 9293   0.809   3.637   4.094
 2798SOL    HW2 9294   0.680   3.732   4.128
 2799SOL     OW 9295   6.509   4.863   5.891
 2799SOL    HW1 9296   6.527   4.852   5.989
 2799SOL    HW2 9297   6.464   4.951   5.874
 2800SOL     OW 9298   2.954   4.455   6.654
 2800SOL    HW1 9299   2.869   4.425   6.697
 2800SOL    HW2 9300   2.979   4.392   6.581
 2801SOL     OW 9301   5.556   5.830   2.174
 2801SOL    HW1 9302   5.494   5.899   2.137
 2801SOL    HW2 9303   5.567   5.756   2.108
 2802SOL     OW 9304   4.439   1.631   5.979
 2802SOL    HW1 9305   4.369   1.664   6.041
 2802SOL    HW2 9306   4.398   1.566   5.914
 2803SOL     OW 9307   3.090   6.458   6.524
 2803SOL    HW1 9308   3.078   6.426   6.430
 2803SOL    HW2 9309   3.001   6.480   6.564
 2804SOL     OW 9310   6.984   4.263   3.347
 2804SOL    HW1 9311   6.984   4.182   3.289
 2804SOL    HW2 9312   0.006   4.339   3.297
 2805SOL     OW 9313   5.596   3.331   0.317
 2805SOL    HW1 9314   5.581   3.423   0.282
 2805SOL    HW2 9315   5.508   3.287   0.335
 2806SOL     OW 9316   6.239   5.351   3.310
 2806SOL    HW1 9317   6.262   5.416   3.382
 2806SOL    HW2 9318   6.304   5.361   3.234
 2807SOL     OW 9319   4.482   4.999   3.205
 2807SOL    HW1 9320   4.580   4.994   3.225
 2807SOL    HW2 9321   4.460   4.933   3.133
 2808SOL     OW 9322   5.422   0.515   4.377
 2808SOL    HW1 9323   5.403   0.594   4.435
 2808SOL    HW2 9324   5.336   0.480   4.339
 2809SOL     OW 9325   5.065   2.536   0.947
 2809SOL    HW1 9326   5.049   2.533   0.849
 2809SOL    HW2 9327   4.979   2.556   0.995
 2810SOL     OW 9328   1.996   6.783   5.420
 2810SOL    HW1 9329   2.004   6.864   5.478
 2810SOL    HW2 9330   2.071   6.781   5.354
 2811SOL     OW 9331   6.797   1.836   3.436
 2811SOL    HW1 9332   6.754   1.921   3.467
 2811SOL    HW2 9333   6.888   1.828   3.477
 2812SOL     OW 9334   4.883   3.683   2.227
 2812SOL    HW1 9335   4.862   3.767   2.177
 2812SOL    HW2 9336   4.881   3.702   2.326
 2813SOL     OW 9337   5.938   0.828   6.741
 2813SOL    HW1 9338   5.906   0.749   6.792
 2813SOL    HW2 9339   5.907   0.912   6.786
 2814SOL     OW 9340   4.689   4.064   5.203
 2814SOL    HW1 9341   4.652   4.039   5.292
 2814SOL    HW2 9342   4.639   4.143   5.167
 2815SOL     OW 9343   0.422   0.645   5.172
 2815SOL    HW1 9344   0.513   0.625   5.136
 2815SOL    HW2 9345   0.365   0.681   5.098
 2816SOL     OW 9346   5.737   6.575   3.538
 2816SOL    HW1 9347   5.684   6.659   3.527
 2816SOL    HW2 9348   5.768   6.566   3.633
 2817SOL     OW 9349   0.911   1.748   1.598
 2817SOL    HW1 9350   0.859   1.818   1.549
 2817SOL    HW2 9351   0.937   1.782   1.688
 2818SOL     OW 9352   6.972   4.540   5.198
 2818SOL    HW1 9353   0.001   4.460   5.232
 2818SOL    HW2 9354   6.899   4.564   5.262
 2819SOL     OW 9355   0.126   3.051   1.415
 2819SOL    HW1 9356   0.190   3.087   1.483
 2819SOL    HW2 9357   0.175   3.034   1.330
 2820SOL     OW 9358   6.767   3.155   3.909
 2820SOL    HW1 9359   6.838   3.204   3.959
 2820SOL    HW2 9360   6.793   3.059   3.900
 2821SOL     OW 9361   1.547   4.229   4.542
 2821SOL    HW1 9362   1.494   4.145   4.549
 2821SOL    HW2 9363   1.496   4.296   4.488
 2822SOL     OW 9364   4.840   2.077   6.924
 2822SOL    HW1 9365   4.808   2.094   7.018
 2822SOL    HW2 9366   4.841   2.163   6.873
 2823SOL     OW 9367   1.918   6.563   3.075
 2823SOL    HW1 9368   1.919   6.509   2.991
 2823SOL    HW2 9369   1.835   6.543   3.127
 2824SOL     OW 9370   3.125   1.527   5.357
 2824SOL    HW1 9371   3.151   1.447   5.304
 2824SOL    HW2 9372   3.166   1.523   5.448
 2825SOL     OW 9373   6.239   5.824   1.304
 2825SOL    HW1 9374   6.307   5.893   1.332
 2825SOL    HW2 9375   6.237   5.817   1.205
 2826SOL     OW 9376   4.851   1.390   4.361
 2826SOL    HW1 9377   4.919   1.452   4.400
 2826SOL    HW2 9378   4.785   1.364   4.432
 2827SOL     OW 9379   5.509   1.004   5.144
 2827SOL    HW1 9380   5.457   0.935   5.195
 2827SOL    HW2 9381   5.447   1.064   5.095
 2828SOL     OW 9382   3.737   1.270   5.291
 2828SOL    HW1 9383   3.769   1.252   5.384
 2828SOL    HW2 9384   3.663   1.207   5.268
 2829SOL     OW 9385   2.344   6.833   6.194
 2829SOL    HW1 9386   2.295   6.759   6.239
 2829SOL    HW2 9387   2.423   6.797   6.146
 2830SOL     OW 9388   4.191   3.582   6.866
 2830SOL    HW1 9389   4.231   3.572   6.957
 2830SOL    HW2 9390   4.147   3.671   6.859
 2831SOL     OW 9391   5.874   6.277   4.585
 2831SOL    HW1 9392   5.824   6.284   4.499
 2831SOL    HW2 9393   5.810   6.291   4.661
 2832SOL     OW 9394   0.384   0.906   2.338
 2832SOL    HW1 9395   0.303   0.888   2.394
 2832SOL    HW2 9396   0.397   1.005   2.330
 2833SOL     OW 9397   6.180   2.943   1.975
 2833SOL    HW1 9398   6.090   2.978   2.002
 2833SOL    HW2 9399   6.167   2.858   1.924
 2834SOL     OW 9400   3.894   1.472   5.224
 2834SOL    HW1 9401   3.890   1.483   5.124
 2834SOL    HW2 9402   3.818   1.415   5.254
 2835SOL     OW 9403   0.188   6.636   2.675
 2835SOL    HW1 9404   0.109   6.697   2.665
 2835SOL    HW2 9405   0.228   6.618   2.585
 2836SOL     OW 9406   6.558   0.618   1.252
 2836SOL    HW1 9407   6.575   0.619   1.350
 2836SOL    HW2 9408   6.593   0.702   1.211
 2837SOL     OW 9409   5.105   4.011   3.890
 2837SOL    HW1 9410   5.187   4.047   3.934
 2837SOL    HW2 9411   5.057   4.085   3.842
 2838SOL     OW 9412   3.161   4.918   2.766
 2838SOL    HW1 9413   3.230   4.933   2.695
 2838SOL    HW2 9414   3.205   4.922   2.856
 2839SOL     OW 9415   5.235   2.169   1.340
 2839SOL    HW1 9416   5.253   2.162   1.242
 2839SOL    HW2 9417   5.318   2.146   1.391
 2840SOL     OW 9418   6.719   1.465   5.467
 2840SOL    HW1 9419   6.727   1.373   5.507
 2840SOL    HW2 9420   6.807   1.491   5.426
 2841SOL     OW 9421   0.612   6.274   1.199
 2841SOL    HW1 9422   0.602   6.370   1.176
 2841SOL    HW2 9423   0.689   6.235   1.147
 2842SOL     OW 9424   0.136   3.731   2.839
 2842SOL    HW1 9425   0.221   3.783   2.829
 2842SOL    HW2 9426   0.131   3.694   2.932
 2843SOL     OW 9427   3.939   0.902   4.399
 2843SOL    HW1 9428   3.958   0.974   4.332
 2843SOL    HW2 9429   3.851   0.859   4.378
 2844SOL     OW 9430   0.445   4.043   6.479
 2844SOL    HW1 9431   0.498   3.962   6.505
 2844SOL    HW2 9432   0.452   4.112   6.552
 2845SOL     OW 9433   0.240   4.794   5.927
 2845SOL    HW1 9434   0.204   4.761   5.840
 2845SOL    HW2 9435   0.216   4.890   5.939
 2846SOL     OW 9436   4.955   1.947   6.319
 2846SOL    HW1 9437   4.903   2.017   6.272
 2846SOL    HW2 9438   5.017   1.990   6.385
 2847SOL     OW 9439   5.826   4.598   4.551
 2847SOL    HW1 9440   5.884   4.537   4.498
 2847SOL    HW2 9441   5.857   4.692   4.540
 2848SOL     OW 9442   1.053   5.478   4.507
 2848SOL    HW1 9443   0.975   5.415   4.513
 2848SOL    HW2 9444   1.123   5.452   4.573
 2849SOL     OW 9445   2.722   1.870   1.390
 2849SOL    HW1 9446   2.790   1.854   1.319
 2849SOL    HW2 9447   2.631   1.865   1.350
 2850SOL     OW 9448   3.473   0.613   0.585
 2850SOL    HW1 9449   3.397   0.674   0.604
 2850SOL    HW2 9450   3.523   0.594   0.670
 2851SOL     OW 9451   1.346   4.228   5.509
 2851SOL    HW1 9452   1.428   4.171   5.505
 2851SOL    HW2 9453   1.274   4.180   5.560
 2852SOL     OW 9454   0.036   3.300   6.606
 2852SOL    HW1 9455   0.093   3.218   6.611
 2852SOL    HW2 9456   6.967   3.283   6.649
 2853SOL     OW 9457   3.556   3.536   0.914
 2853SOL    HW1 9458   3.505   3.475   0.853
 2853SOL    HW2 9459   3.517   3.628   0.910
 2854SOL     OW 9460   2.546   0.973   3.811
 2854SOL    HW1 9461   2.582   1.062   3.837
 2854SOL    HW2 9462   2.619   0.905   3.814
 2855SOL     OW 9463   2.102   0.793   5.307
 2855SOL    HW1 9464   2.015   0.841   5.289
 2855SOL    HW2 9465   2.178   0.855   5.288
 2856SOL     OW 9466   2.382   2.799   5.280
 2856SOL    HW1 9467   2.452   2.729   5.267
 2856SOL    HW2 9468   2.407   2.880   5.227
 2857SOL     OW 9469   3.208   3.505   2.052
 2857SOL    HW1 9470   3.286   3.493   1.990
 2857SOL    HW2 9471   3.198   3.423   2.109
 2858SOL     OW 9472   6.936   3.798   2.696
 2858SOL    HW1 9473   0.007   3.755   2.707
 2858SOL    HW2 9474   6.908   3.839   2.782
 2859SOL     OW 9475   5.331   0.337   1.062
 2859SOL    HW1 9476   5.393   0.261   1.080
 2859SOL    HW2 9477   5.326   0.397   1.142
 2860SOL     OW 9478   3.939   1.590   2.319
 2860SOL    HW1 9479   3.866   1.529   2.289
 2860SOL    HW2 9480   3.975   1.641   2.241
 2861SOL     OW 9481   3.731   5.557   5.636
 2861SOL    HW1 9482   3.697   5.464   5.621
 2861SOL    HW2 9483   3.663   5.609   5.688
 2862SOL     OW 9484   6.023   1.452   3.909
 2862SOL    HW1 9485   5.931   1.461   3.873
 2862SOL    HW2 9486   6.020   1.409   4.000
 2863SOL     OW 9487   6.597   2.066   6.762
 2863SOL    HW1 9488   6.569   2.157   6.794
 2863SOL    HW2 9489   6.527   1.999   6.786
 2864SOL     OW 9490   3.621   1.145   0.333
 2864SOL    HW1 9491   3.712   1.184   0.347
 2864SOL    HW2 9492   3.623   1.083   0.255
 2865SOL     OW 9493   4.968   4.208   5.058
 2865SOL    HW1 9494   4.950   4.110   5.072
 2865SOL    HW2 9495   4.883   4.254   5.033
 2866SOL     OW 9496   0.308   6.230   6.487
 2866SOL    HW1 9497   0.407   6.225   6.505
 2866SOL    HW2 9498   0.287   6.318   6.445
 2867SOL     OW 9499   6.440   4.159   3.834
 2867SOL    HW1 9500   6.504   4.204   3.772
 2867SOL    HW2 9501   6.357   4.213   3.843
 2868SOL     OW 9502   1.649   3.931   5.219
 2868SOL    HW1 9503   1.651   3.941   5.120
 2868SOL    HW2 9504   1.740   3.905   5.252
 2869SOL     OW 9505   6.037   1.028   2.222
 2869SOL    HW1 9506   6.130   1.041   2.186
 2869SOL    HW2 9507   5.974   1.014   2.146
 2870SOL     OW 9508   5.679   2.230   2.683
 2870SOL    HW1 9509   5.640   2.312   2.724
 2870SOL    HW2 9510   5.772   2.249   2.652
 2871SOL     OW 9511   1.631   2.150   6.112
 2871SOL    HW1 9512   1.654   2.084   6.041
 2871SOL    HW2 9513   1.587   2.230   6.070
 2872SOL     OW 9514   2.677   0.302   3.780
 2872SOL    HW1 9515   2.751   0.349   3.732
 2872SOL    HW2 9516   2.590   0.318   3.733
 2873SOL     OW 9517   0.523   5.674   1.940
 2873SOL    HW1 9518   0.591   5.724   1.887
 2873SOL    HW2 9519   0.431   5.692   1.904
 2874SOL     OW 9520   6.355   2.734   2.631
 2874SOL    HW1 9521   6.291   2.748   2.556
 2874SOL    HW2 9522   6.352   2.813   2.693
 2875SOL     OW 9523   3.750   5.340   6.597
 2875SOL    HW1 9524   3.685   5.279   6.644
 2875SOL    HW2 9525   3.722   5.435   6.610
 2876SOL     OW 9526   0.156   0.982   1.358
 2876SOL    HW1 9527   0.173   0.943   1.448
 2876SOL    HW2 9528   0.216   0.937   1.291
 2877SOL     OW 9529   3.243   2.777   5.478
 2877SOL    HW1 9530   3.263   2.808   5.385
 2877SOL    HW2 9531   3.308   2.707   5.505
 2878SOL     OW 9532   2.656   4.503   5.561
 2878SOL    HW1 9533   2.737   4.558   5.542
 2878SOL    HW2 9534   2.599   4.550   5.628
 2879SOL     OW 9535   5.124   4.261   0.531
 2879SOL    HW1 9536   5.059   4.185   0.529
 2879SOL    HW2 9537   5.149   4.282   0.625
 2880SOL     OW 9538   1.132   6.229   1.566
 2880SOL    HW1 9539   1.043   6.274   1.579
 2880SOL    HW2 9540   1.129   6.175   1.482
 2881SOL     OW 9541   0.093   6.582   0.653
 2881SOL    HW1 9542   0.077   6.583   0.554
 2881SOL    HW2 9543   0.178   6.534   0.672
 2882SOL     OW 9544   0.325   3.086   3.426
 2882SOL    HW1 9545   0.362   3.131   3.344
 2882SOL    HW2 9546   0.226   3.099   3.428
 2883SOL     OW 9547   3.744   0.429   2.071
 2883SOL    HW1 9548   3.721   0.503   2.008
 2883SOL    HW2 9549   3.671   0.419   2.139
 2884SOL     OW 9550   0.869   5.953   3.393
 2884SOL    HW1 9551   0.898   5.897   3.315
 2884SOL    HW2 9552   0.845   5.894   3.470
 2885SOL     OW 9553   1.076   2.688   3.067
 2885SOL    HW1 9554   0.983   2.654   3.053
 2885SOL    HW2 9555   1.073   2.783   3.099
 2886SOL     OW 9556   2.682   2.055   6.279
 2886SOL    HW1 9557   2.613   2.109   6.233
 2886SOL    HW2 9558   2.706   2.098   6.366
 2887SOL     OW 9559   1.295   0.489   4.862
 2887SOL    HW1 9560   1.225   0.528   4.922
 2887SOL    HW2 9561   1.382   0.482   4.912
 2888SOL     OW 9562   6.058   4.783   6.984
 2888SOL    HW1 9563   6.109   4.741   6.909
 2888SOL    HW2 9564   6.035   4.877   6.959
 2889SOL     OW 9565   0.160   0.131   1.743
 2889SOL    HW1 9566   0.147   0.063   1.815
 2889SOL    HW2 9567   0.232   0.194   1.771
 2890SOL     OW 9568   4.016   0.757   1.888
 2890SOL    HW1 9569   3.993   0.729   1.795
 2890SOL    HW2 9570   4.029   0.856   1.892
 2891SOL     OW 9571   2.553   4.584   3.920
 2891SOL    HW1 9572   2.525   4.530   3.841
 2891SOL    HW2 9573   2.508   4.549   4.002
 2892SOL     OW 9574   4.345   3.940   6.370
 2892SOL    HW1 9575   4.351   4.040   6.372
 2892SOL    HW2 9576   4.410   3.904   6.303
 2893SOL     OW 9577   2.258   0.310   5.129
 2893SOL    HW1 9578   2.327   0.382   5.138
 2893SOL    HW2 9579   2.193   0.316   5.204
 2894SOL     OW 9580   3.617   2.586   0.045
 2894SOL    HW1 9581   3.584   2.503   0.001
 2894SOL    HW2 9582   3.713   2.601   0.021
 2895SOL     OW 9583   3.660   3.547   6.195
 2895SOL    HW1 9584   3.759   3.561   6.188
 2895SOL    HW2 9585   3.635   3.464   6.145
 2896SOL     OW 9586   2.428   4.911   0.953
 2896SOL    HW1 9587   2.513   4.936   0.906
 2896SOL    HW2 9588   2.390   4.828   0.910
 2897SOL     OW 9589   2.154   5.914   4.043
 2897SOL    HW1 9590   2.226   5.860   4.087
 2897SOL    HW2 9591   2.183   5.942   3.952
 2898SOL     OW 9592   3.673   5.482   1.804
 2898SOL    HW1 9593   3.688   5.384   1.817
 2898SOL    HW2 9594   3.663   5.526   1.893
 2899SOL     OW 9595   6.676   0.030   0.158
 2899SOL    HW1 9596   6.746   0.098   0.137
 2899SOL    HW2 9597   6.598   0.074   0.202
 2900SOL     OW 9598   1.303   5.091   5.715
 2900SOL    HW1 9599   1.389   5.049   5.687
 2900SOL    HW2 9600   1.318   5.146   5.798
 2901SOL     OW 9601   2.860   0.462   1.809
 2901SOL    HW1 9602   2.811   0.549   1.805
 2901SOL    HW2 9603   2.796   0.389   1.834
 2902SOL     OW 9604   5.347   6.061   1.121
 2902SOL    HW1 9605   5.403   6.112   1.056
 2902SOL    HW2 9606   5.404   6.029   1.197
 2903SOL     OW 9607   2.178   1.320   1.881
 2903SOL    HW1 9608   2.278   1.318   1.882
 2903SOL    HW2 9609   2.142   1.227   1.876
 2904SOL     OW 9610   2.156   2.653   5.185
 2904SOL    HW1 9611   2.219   2.708   5.239
 2904SOL    HW2 9612   2.209   2.584   5.133
 2905SOL     OW 9613   1.696   1.990   1.855
 2905SOL    HW1 9614   1.757   2.048   1.908
 2905SOL    HW2 9615   1.601   2.017   1.873
 2906SOL     OW 9616   5.579   5.574   2.023
 2906SOL    HW1 9617   5.488   5.593   1.986
 2906SOL    HW2 9618   5.626   5.509   1.964
 2907SOL     OW 9619   6.703   1.476   4.264
 2907SOL    HW1 9620   6.715   1.554   4.326
 2907SOL    HW2 9621   6.625   1.422   4.294
 2908SOL     OW 9622   3.473   6.166   4.551
 2908SOL    HW1 9623   3.423   6.228   4.490
 2908SOL    HW2 9624   3.439   6.073   4.537
 2909SOL     OW 9625   1.286   5.686   4.832
 2909SOL    HW1 9626   1.368   5.713   4.883
 2909SOL    HW2 9627   1.251   5.764   4.781
 2910SOL     OW 9628   4.489   6.087   6.285
 2910SOL    HW1 9629   4.403   6.084   6.337
 2910SOL    HW2 9630   4.566   6.077   6.348
 2911SOL     OW 9631   2.071   4.602   3.439
 2911SOL    HW1 9632   2.065   4.565   3.532
 2911SOL    HW2 9633   1.983   4.643   3.414
 2912SOL     OW 9634   2.745   6.300   0.377
 2912SOL    HW1 9635   2.695   6.334   0.456
 2912SOL    HW2 9636   2.694   6.320   0.293
 2913SOL     OW 9637   1.848   3.883   2.362
 2913SOL    HW1 9638   1.865   3.816   2.289
 2913SOL    HW2 9639   1.934   3.902   2.409
 2914SOL     OW 9640   5.189   5.739   5.861
 2914SOL    HW1 9641   5.179   5.656   5.805
 2914SOL    HW2 9642   5.103   5.789   5.861
 2915SOL     OW 9643   4.493   1.736   3.619
 2915SOL    HW1 9644   4.539   1.724   3.531
 2915SOL    HW2 9645   4.438   1.819   3.617
 2916SOL     OW 9646   5.557   5.768   5.192
 2916SOL    HW1 9647   5.634   5.750   5.254
 2916SOL    HW2 9648   5.593   5.796   5.103
 2917SOL     OW 9649   4.623   0.459   2.097
 2917SOL    HW1 9650   4.527   0.482   2.078
 2917SOL    HW2 9651   4.680   0.487   2.020
 2918SOL     OW 9652   0.488   3.636   3.802
 2918SOL    HW1 9653   0.435   3.669   3.724
 2918SOL    HW2 9654   0.563   3.578   3.769
 2919SOL     OW 9655   5.874   5.784   0.723
 2919SOL    HW1 9656   5.836   5.876   0.729
 2919SOL    HW2 9657   5.819   5.721   0.778
 2920SOL     OW 9658   4.041   2.160   2.921
 2920SOL    HW1 9659   4.133   2.193   2.899
 2920SOL    HW2 9660   4.002   2.215   2.994
 2921SOL     OW 9661   0.077   0.654   2.535
 2921SOL    HW1 9662   7.017   0.608   2.498
 2921SOL    HW2 9663   0.049   0.736   2.585
 2922SOL     OW 9664   4.368   0.182   5.301
 2922SOL    HW1 9665   4.426   0.133   5.235
 2922SOL    HW2 9666   4.326   0.116   5.363
 2923SOL     OW 9667   6.206   4.793   2.110
 2923SOL    HW1 9668   6.146   4.716   2.134
 2923SOL    HW2 9669   6.150   4.871   2.082
 2924SOL     OW 9670   0.453   1.547   5.270
 2924SOL    HW1 9671   0.454   1.536   5.171
 2924SOL    HW2 9672   0.454   1.645   5.293
 2925SOL     OW 9673   5.611   3.169   1.483
 2925SOL    HW1 9674   5.587   3.080   1.521
 2925SOL    HW2 9675   5.546   3.238   1.516
 2926SOL     OW 9676   6.937   2.139   5.005
 2926SOL    HW1 9677   6.914   2.041   5.010
 2926SOL    HW2 9678   0.013   2.152   5.029
 2927SOL     OW 9679   0.827   2.794   2.529
 2927SOL    HW1 9680   0.810   2.707   2.483
 2927SOL    HW2 9681   0.740   2.834   2.558
 2928SOL     OW 9682   5.687   6.868   0.835
 2928SOL    HW1 9683   5.703   6.965   0.816
 2928SOL    HW2 9684   5.647   6.858   0.926
 2929SOL     OW 9685   0.229   6.758   6.088
 2929SOL    HW1 9686   0.180   6.671   6.103
 2929SOL    HW2 9687   0.224   6.782   5.991
 2930SOL     OW 9688   3.860   6.658   4.470
 2930SOL    HW1 9689   3.872   6.692   4.376
 2930SOL    HW2 9690   3.766   6.677   4.500
 2931SOL     OW 9691   4.266   6.988   6.369
 2931SOL    HW1 9692   4.194   7.008   6.302
 2931SOL    HW2 9693   4.266   0.037   6.441
 2932SOL     OW 9694   1.127   3.872   1.447
 2932SOL    HW1 9695   1.192   3.829   1.510
 2932SOL    HW2 9696   1.072   3.800   1.403
 2933SOL     OW 9697   5.378   2.189   3.457
 2933SOL    HW1 9698   5.340   2.102   3.489
 2933SOL    HW2 9699   5.310   2.261   3.468
 2934SOL     OW 9700   2.443   0.868   0.069
 2934SOL    HW1 9701   2.470   0.959   0.100
 2934SOL    HW2 9702   2.519   0.804   0.084
 2935SOL     OW 9703   5.616   2.629   1.286
 2935SOL    HW1 9704   5.649   2.688   1.213
 2935SOL    HW2 9705   5.669   2.647   1.370
 2936SOL     OW 9706   5.119   5.876   0.280
 2936SOL    HW1 9707   5.067   5.835   0.205
 2936SOL    HW2 9708   5.056   5.921   0.343
 2937SOL     OW 9709   3.473   5.560   6.779
 2937SOL    HW1 9710   3.470   5.660   6.779
 2937SOL    HW2 9711   3.498   5.527   6.869
 2938SOL     OW 9712   4.637   5.521   5.247
 2938SOL    HW1 9713   4.568   5.458   5.281
 2938SOL    HW2 9714   4.593   5.602   5.208
 2939SOL     OW 9715   6.637   6.398   5.564
 2939SOL    HW1 9716   6.585   6.468   5.614
 2939SOL    HW2 9717   6.735   6.421   5.567
 2940SOL     OW 9718   5.288   6.925   5.010
 2940SOL    HW1 9719   5.370   6.887   5.051
 2940SOL    HW2 9720   5.284   6.899   4.913
 2941SOL     OW 9721   1.743   1.920   5.377
 2941SOL    HW1 9722   1.807   1.954   5.308
 2941SOL    HW2 9723   1.708   1.996   5.431
 2942SOL     OW 9724   3.417   6.547   3.042
 2942SOL    HW1 9725   3.353   6.517   3.113
 2942SOL    HW2 9726   3.425   6.647   3.045
 2943SOL     OW 9727   6.030   4.039   3.483
 2943SOL    HW1 9728   5.973   3.957   3.487
 2943SOL    HW2 9729   6.114   4.025   3.534
 2944SOL     OW 9730   4.269   5.877   5.750
 2944SOL    HW1 9731   4.222   5.828   5.678
 2944SOL    HW2 9732   4.306   5.813   5.817
 2945SOL     OW 9733   3.092   3.076   3.348
 2945SOL    HW1 9734   3.091   3.144   3.275
 2945SOL    HW2 9735   3.011   3.089   3.407
 2946SOL     OW 9736   6.988   5.905   6.741
 2946SOL    HW1 9737   6.963   5.998   6.765
 2946SOL    HW2 9738   6.933   5.840   6.794
 2947SOL     OW 9739   6.439   4.497   0.432
 2947SOL    HW1 9740   6.458   4.533   0.341
 2947SOL    HW2 9741   6.525   4.487   0.482
 2948SOL     OW 9742   5.756   4.010   4.642
 2948SOL    HW1 9743   5.846   3.970   4.623
 2948SOL    HW2 9744   5.728   4.064   4.563
 2949SOL     OW 9745   1.035   6.622   0.554
 2949SOL    HW1 9746   1.095   6.542   0.546
 2949SOL    HW2 9747   1.059   6.688   0.483
 2950SOL     OW 9748   5.302   3.313   4.190
 2950SOL    HW1 9749   5.331   3.320   4.095
 2950SOL    HW2 9750   5.356   3.376   4.247
 2951SOL     OW 9751   0.640   1.324   1.452
 2951SOL    HW1 9752   0.637   1.229   1.482
 2951SOL    HW2 9753   0.574   1.336   1.377
 2952SOL     OW 9754   1.723   4.183   2.566
 2952SOL    HW1 9755   1.667   4.166   2.485
 2952SOL    HW2 9756   1.665   4.187   2.647
 2953SOL     OW 9757   4.523   2.500   2.193
 2953SOL    HW1 9758   4.607   2.490   2.245
 2953SOL    HW2 9759   4.495   2.596   2.194
 2954SOL     OW 9760   6.505   6.790   3.041
 2954SOL    HW1 9761   6.431   6.725   3.023
 2954SOL    HW2 9762   6.560   6.758   3.118
 2955SOL     OW 9763   0.726   2.988   0.506
 2955SOL    HW1 9764   0.765   3.051   0.439
 2955SOL    HW2 9765   0.664   3.038   0.566
 2956SOL     OW 9766   7.018   5.203   2.649
 2956SOL    HW1 9767   0.026   5.271   2.716
 2956SOL    HW2 9768   6.999   5.116   2.695
 2957SOL     OW 9769   0.677   3.718   1.987
 2957SOL    HW1 9770   0.644   3.677   2.072
 2957SOL    HW2 9771   0.677   3.649   1.914
 2958SOL     OW 9772   1.979   4.588   6.078
 2958SOL    HW1 9773   2.057   4.630   6.124
 2958SOL    HW2 9774   1.961   4.498   6.118
 2959SOL     OW 9775   4.334   5.511   6.479
 2959SOL    HW1 9776   4.417   5.527   6.425
 2959SOL    HW2 9777   4.328   5.580   6.551
 2960SOL     OW 9778   1.827   1.557   0.220
 2960SOL    HW1 9779   1.789   1.593   0.134
 2960SOL    HW2 9780   1.755   1.509   0.270
 2961SOL     OW 9781   5.550   3.882   3.986
 2961SOL    HW1 9782   5.635   3.879   3.933
 2961SOL    HW2 9783   5.528   3.791   4.021
 2962SOL     OW 9784   4.439   0.656   3.496
 2962SOL    HW1 9785   4.530   0.625   3.522
 2962SOL    HW2 9786   4.380   0.657   3.577
 2963SOL     OW 9787   2.216   1.819   5.226
 2963SOL    HW1 9788   2.180   1.726   5.236
 2963SOL    HW2 9789   2.235   1.857   5.317
 2964SOL     OW 9790   3.262   6.319   0.472
 2964SOL    HW1 9791   3.240   6.328   0.569
 2964SOL    HW2 9792   3.179   6.296   0.421
 2965SOL     OW 9793   0.146   1.674   6.222
 2965SOL    HW1 9794   0.049   1.668   6.199
 2965SOL    HW2 9795   0.178   1.584   6.253
 2966SOL     OW 9796   5.044   4.682   4.312
 2966SOL    HW1 9797   5.070   4.587   4.332
 2966SOL    HW2 9798   5.109   4.721   4.247
 2967SOL     OW 9799   6.140   2.871   3.968
 2967SOL    HW1 9800   6.207   2.867   4.042
 2967SOL    HW2 9801   6.099   2.780   3.955
 2968SOL     OW 9802   0.584   4.089   3.573
 2968SOL    HW1 9803   0.670   4.047   3.602
 2968SOL    HW2 9804   0.538   4.028   3.509
 2969SOL     OW 9805   5.008   2.164   4.622
 2969SOL    HW1 9806   5.094   2.121   4.650
 2969SOL    HW2 9807   4.980   2.128   4.533
 2970SOL     OW 9808   1.079   4.283   6.331
 2970SOL    HW1 9809   1.065   4.302   6.429
 2970SOL    HW2 9810   1.109   4.367   6.286
 2971SOL     OW 9811   5.398   2.003   2.816
 2971SOL    HW1 9812   5.372   2.067   2.744
 2971SOL    HW2 9813   5.379   1.909   2.785
 2972SOL     OW 9814   6.766   3.490   5.371
 2972SOL    HW1 9815   6.716   3.541   5.441
 2972SOL    HW2 9816   6.715   3.406   5.348
 2973SOL     OW 9817   4.810   6.291   4.100
 2973SOL    HW1 9818   4.847   6.350   4.028
 2973SOL    HW2 9819   4.726   6.247   4.066
 2974SOL     OW 9820   6.652   4.277   2.878
 2974SOL    HW1 9821   6.730   4.336   2.900
 2974SOL    HW2 9822   6.592   4.323   2.813
 2975SOL     OW 9823   0.137   0.447   5.521
 2975SOL    HW1 9824   0.219   0.465   5.468
 2975SOL    HW2 9825   0.137   0.504   5.604
 2976SOL     OW 9826   3.768   0.675   2.476
 2976SOL    HW1 9827   3.725   0.695   2.387
 2976SOL    HW2 9828   3.867   0.671   2.465
 2977SOL     OW 9829   3.126   6.647   3.974
 2977SOL    HW1 9830   3.054   6.645   4.043
 2977SOL    HW2 9831   3.167   6.556   3.966
 2978SOL     OW 9832   5.505   4.888   7.002
 2978SOL    HW1 9833   5.434   4.901   0.053
 2978SOL    HW2 9834   5.492   4.955   6.929
 2979SOL     OW 9835   3.893   0.393   3.220
 2979SOL    HW1 9836   3.895   0.370   3.317
 2979SOL    HW2 9837   3.900   0.492   3.209
 2980SOL     OW 9838   0.322   5.961   4.540
 2980SOL    HW1 9839   0.264   5.898   4.488
 2980SOL    HW2 9840   0.417   5.953   4.509
 2981SOL     OW 9841   2.050   1.185   5.927
 2981SOL    HW1 9842   1.999   1.161   5.845
 2981SOL    HW2 9843   1.991   1.177   6.007
 2982SOL     OW 9844   4.501   6.173   1.977
 2982SOL    HW1 9845   4.460   6.135   1.894
 2982SOL    HW2 9846   4.590   6.130   1.993
 2983SOL     OW 9847   6.791   1.057   3.924
 2983SOL    HW1 9848   6.749   0.983   3.871
 2983SOL    HW2 9849   6.881   1.028   3.957
 2984SOL     OW 9850   5.615   5.421   1.794
 2984SOL    HW1 9851   5.592   5.378   1.707
 2984SOL    HW2 9852   5.703   5.469   1.785
 2985SOL     OW 9853   6.317   2.251   3.015
 2985SOL    HW1 9854   6.342   2.250   2.918
 2985SOL    HW2 9855   6.224   2.286   3.025
 2986SOL     OW 9856   1.777   3.367   5.353
 2986SOL    HW1 9857   1.805   3.384   5.447
 2986SOL    HW2 9858   1.851   3.394   5.291
 2987SOL     OW 9859   4.327   1.957   4.717
 2987SOL    HW1 9860   4.316   1.983   4.621
 2987SOL    HW2 9861   4.291   2.030   4.775
 2988SOL     OW 9862   1.382   0.192   1.576
 2988SOL    HW1 9863   1.332   0.218   1.659
 2988SOL    HW2 9864   1.476   0.169   1.601
 2989SOL     OW 9865   6.972   5.064   1.170
 2989SOL    HW1 9866   0.042   5.107   1.156
 2989SOL    HW2 9867   6.981   4.965   1.156
 2990SOL     OW 9868   3.813   1.346   1.462
 2990SOL    HW1 9869   3.775   1.303   1.380
 2990SOL    HW2 9870   3.878   1.283   1.505
 2991SOL     OW 9871   6.989   3.810   0.435
 2991SOL    HW1 9872   7.005   3.715   0.408
 2991SOL    HW2 9873   6.943   3.812   0.524
 2992SOL     OW 9874   3.256   5.285   6.197
 2992SOL    HW1 9875   3.280   5.200   6.149
 2992SOL    HW2 9876   3.298   5.285   6.288
 2993SOL     OW 9877   1.416   5.634   1.099
 2993SOL    HW1 9878   1.347   5.567   1.070
 2993SOL    HW2 9879   1.468   5.598   1.176
 2994SOL     OW 9880   4.831   6.614   6.933
 2994SOL    HW1 9881   4.820   6.701   6.981
 2994SOL    HW2 9882   4.885   6.552   6.990
 2995SOL     OW 9883   1.745   1.622   6.492
 2995SOL    HW1 9884   1.793   1.704   6.463
 2995SOL    HW2 9885   1.659   1.648   6.537
 2996SOL     OW 9886   4.143   4.977   6.195
 2996SOL    HW1 9887   4.079   5.051   6.175
 2996SOL    HW2 9888   4.193   4.953   6.112
 2997SOL     OW 9889   5.604   6.644   1.118
 2997SOL    HW1 9890   5.591   6.743   1.112
 2997SOL    HW2 9891   5.526   6.597   1.078
 2998SOL     OW 9892   6.166   5.811   4.095
 2998SOL    HW1 9893   6.067   5.797   4.089
 2998SOL    HW2 9894   6.206   5.741   4.153
 2999SOL     OW 9895   3.449   0.093   3.203
 2999SOL    HW1 9896   3.533   0.094   3.149
 2999SOL    HW2 9897   3.377   0.049   3.150
 3000SOL     OW 9898   1.350   3.000   5.773
 3000SOL    HW1 9899   1.439   3.042   5.756
 3000SOL    HW2 9900   1.334   2.928   5.706
 3001SOL     OW 9901   4.918   6.785   5.632
 3001SOL    HW1 9902   5.006   6.739   5.648
 3001SOL    HW2 9903   4.922   6.877   5.669
 3002SOL     OW 9904   3.724   0.318   6.039
 3002SOL    HW1 9905   3.785   0.381   5.991
 3002SOL    HW2 9906   3.642   0.366   6.068
 3003SOL     OW 9907   2.816   6.660   5.663
 3003SOL    HW1 9908   2.743   6.592   5.667
 3003SOL    HW2 9909   2.859   6.658   5.573
 3004SOL     OW 9910   5.918   3.189   4.426
 3004SOL    HW1 9911   5.879   3.129   4.496
 3004SOL    HW2 9912   5.877   3.169   4.337
 3005SOL     OW 9913   4.038   2.878   1.185
 3005SOL    HW1 9914   4.072   2.916   1.271
 3005SOL    HW2 9915   4.114   2.872   1.119
 3006SOL     OW 9916   5.530   0.855   1.403
 3006SOL    HW1 9917   5.460   0.918   1.438
 3006SOL    HW2 9918   5.568   0.803   1.479
 3007SOL     OW 9919   6.198   4.814   3.031
 3007SOL    HW1 9920   6.221   4.809   2.934
 3007SOL    HW2 9921   6.129   4.885   3.045
 3008SOL     OW 9922   3.301   6.524   5.756
 3008SOL    HW1 9923   3.298   6.545   5.659
 3008SOL    HW2 9924   3.306   6.609   5.808
 3009SOL     OW 9925   1.350   6.866   3.311
 3009SOL    HW1 9926   1.263   6.915   3.300
 3009SOL    HW2 9927   1.355   6.828   3.403
 3010SOL     OW 9928   3.573   6.185   2.878
 3010SOL    HW1 9929   3.672   6.174   2.872
 3010SOL    HW2 9930   3.542   6.159   2.969
 3011SOL     OW 9931   5.360   0.176   0.193
 3011SOL    HW1 9932   5.456   0.171   0.220
 3011SOL    HW2 9933   5.332   0.272   0.193
 3012SOL     OW 9934   0.490   3.760   3.191
 3012SOL    HW1 9935   0.507   3.724   3.283
 3012SOL    HW2 9936   0.528   3.852   3.184
 3013SOL     OW 9937   5.705   5.060   2.134
 3013SOL    HW1 9938   5.724   5.118   2.213
 3013SOL    HW2 9939   5.723   5.113   2.050
 3014SOL     OW 9940   4.459   0.903   4.258
 3014SOL    HW1 9941   4.509   0.883   4.174
 3014SOL    HW2 9942   4.519   0.947   4.324
 3015SOL     OW 9943   3.267   2.195   0.681
 3015SOL    HW1 9944   3.247   2.274   0.622
 3015SOL    HW2 9945   3.225   2.113   0.641
 3016SOL     OW 9946   3.846   7.013   3.380
 3016SOL    HW1 9947   3.752   7.012   3.413
 3016SOL    HW2 9948   3.884   6.921   3.382
 3017SOL     OW 9949   0.683   5.996   1.228
 3017SOL    HW1 9950   0.661   6.094   1.238
 3017SOL    HW2 9951   0.688   5.954   1.319
 3018SOL     OW 9952   4.173   6.404   0.096
 3018SOL    HW1 9953   4.256   6.414   0.151
 3018SOL    HW2 9954   4.115   6.334   0.136
 3019SOL     OW 9955   3.946   6.974   1.307
 3019SOL    HW1 9956   4.041   7.004   1.313
 3019SOL    HW2 9957   3.941   6.888   1.256
 3020SOL     OW 9958   2.638   3.440   1.194
 3020SOL    HW1 9959   2.599   3.508   1.257
 3020SOL    HW2 9960   2.566   3.378   1.162
 3021SOL     OW 9961   2.230   2.265   0.237
 3021SOL    HW1 9962   2.246   2.179   0.189
 3021SOL    HW2 9963   2.264   2.341   0.180
 3022SOL     OW 9964   4.985   6.846   2.825
 3022SOL    HW1 9965   4.959   6.766   2.879
 3022SOL    HW2 9966   5.006   6.922   2.886
 3023SOL     OW 9967   4.691   5.836   2.634
 3023SOL    HW1 9968   4.659   5.742   2.641
 3023SOL    HW2 9969   4.764   5.842   2.566
 3024SOL     OW 9970   3.276   0.342   0.065
 3024SOL    HW1 9971   3.227   0.421   0.102
 3024SOL    HW2 9972   3.373   0.362   0.060
 3025SOL     OW 9973   2.418   2.762   0.950
 3025SOL    HW1 9974   2.403   2.716   1.038
 3025SOL    HW2 9975   2.514   2.791   0.944
 3026SOL     OW 9976   2.300   4.093   0.772
 3026SOL    HW1 9977   2.297   4.138   0.861
 3026SOL    HW2 9978   2.240   4.141   0.708
 3027SOL     OW 9979   2.007   1.954   3.338
 3027SOL    HW1 9980   2.010   1.887   3.413
 3027SOL    HW2 9981   2.007   1.906   3.250
 3028SOL     OW 9982   1.319   6.185   5.597
 3028SOL    HW1 9983   1.280   6.256   5.538
 3028SOL    HW2 9984   1.341   6.105   5.541
 3029SOL     OW 9985   5.938   5.749   5.122
 3029SOL    HW1 9986   5.880   5.821   5.084
 3029SOL    HW2 9987   5.990   5.786   5.199
 3030SOL     OW 9988   1.335   1.899   5.519
 3030SOL    HW1 9989   1.398   1.842   5.466
 3030SOL    HW2 9990   1.307   1.851   5.602
 3031SOL     OW 9991   0.536   4.775   6.065
 3031SOL    HW1 9992   0.543   4.742   6.159
 3031SOL    HW2 9993   0.485   4.709   6.010
 3032SOL     OW 9994   5.373   0.540   5.784
 3032SOL    HW1 9995   5.409   0.478   5.715
 3032SOL    HW2 9996   5.305   0.492   5.840
 3033SOL     OW 9997   0.129   3.943   6.779
 3033SOL    HW1 9998   0.117   3.930   6.681
 3033SOL    HW2 9999   0.199   3.880   6.813
 3034SOL     OW10000   2.764   6.037   4.611
 3034SOL    HW110001   2.742   6.085   4.695
 3034SOL    HW210002   2.689   5.974   4.588
 3035SOL     OW10003   5.495   1.263   0.063
 3035SOL    HW110004   5.421   1.325   0.035
 3035SOL    HW210005   5.568   1.316   0.107
 3036SOL     OW10006   1.082   4.232   0.054
 3036SOL    HW110007   1.142   4.309   0.033
 3036SOL    HW210008   1.132   4.146   0.040
 3037SOL     OW10009   6.910   6.494   5.094
 3037SOL    HW110010   6.856   6.412   5.078
 3037SOL    HW210011   6.926   6.542   5.007
 3038SOL     OW10012   5.565   6.807   6.176
 3038SOL    HW110013   5.498   6.856   6.120
 3038SOL    HW210014   5.545   6.824   6.273
 3039SOL     OW10015   0.665   4.595   1.734
 3039SOL    HW110016   0.570   4.589   1.703
 3039SOL    HW210017   0.719   4.524   1.689
 3040SOL     OW10018   2.783   3.302   6.987
 3040SOL    HW110019   2.851   3.230   6.971
 3040SOL    HW210020   2.691   3.265   6.971
 3041SOL     OW10021   2.083   2.333   6.026
 3041SOL    HW110022   2.107   2.254   6.083
 3041SOL    HW210023   2.167   2.380   5.998
 3042SOL     OW10024   4.354   0.365   2.052
 3042SOL    HW110025   4.341   0.300   2.128
 3042SOL    HW210026   4.276   0.426   2.046
 3043SOL     OW10027   0.652   5.711   0.691
 3043SOL    HW110028   0.585   5.673   0.754
 3043SOL    HW210029   0.666   5.649   0.615
 3044SOL     OW10030   3.300   4.333   6.119
 3044SOL    HW110031   3.359   4.413   6.105
 3044SOL    HW210032   3.342   4.252   6.078
 3045SOL     OW10033   5.658   2.093   2.933
 3045SOL    HW110034   5.671   2.132   2.842
 3045SOL    HW210035   5.562   2.068   2.945
 3046SOL     OW10036   1.569   2.540   5.600
 3046SOL    HW110037   1.654   2.533   5.653
 3046SOL    HW210038   1.496   2.573   5.659
 3047SOL     OW10039   6.262   5.162   2.508
 3047SOL    HW110040   6.223   5.136   2.597
 3047SOL    HW210041   6.189   5.196   2.449
 3048SOL     OW10042   3.057   3.099   1.521
 3048SOL    HW110043   3.082   3.006   1.493
 3048SOL    HW210044   3.047   3.157   1.441
 3049SOL     OW10045   0.868   0.220   2.348
 3049SOL    HW110046   0.900   0.314   2.343
 3049SOL    HW210047   0.946   0.158   2.356
 3050SOL     OW10048   4.552   5.608   3.899
 3050SOL    HW110049   4.636   5.652   3.933
 3050SOL    HW210050   4.575   5.518   3.861
 3051SOL     OW10051   2.828   4.996   0.132
 3051SOL    HW110052   2.925   5.007   0.110
 3051SOL    HW210053   2.791   4.919   0.081
 3052SOL     OW10054   3.867   6.705   3.275
 3052SOL    HW110055   3.782   6.720   3.225
 3052SOL    HW210056   3.945   6.714   3.212
 3053SOL     OW10057   5.827   6.494   0.302
 3053SOL    HW110058   5.744   6.548   0.310
 3053SOL    HW210059   5.833   6.431   0.380
 3054SOL     OW10060   0.564   3.371   0.062
 3054SOL    HW110061   0.572   3.272   0.050
 3054SOL    HW210062   0.631   3.417   0.003
 3055SOL     OW10063   5.570   6.330   3.514
 3055SOL    HW110064   5.562   6.266   3.438
 3055SOL    HW210065   5.579   6.423   3.479
 3056SOL     OW10066   6.994   0.563   0.744
 3056SOL    HW110067   6.922   0.614   0.791
 3056SOL    HW210068   0.051   0.550   0.807
 3057SOL     OW10069   5.957   5.179   2.517
 3057SOL    HW110070   5.946   5.129   2.431
 3057SOL    HW210071   5.987   5.116   2.588
 3058SOL     OW10072   6.780   5.367   1.538
 3058SOL    HW110073   6.849   5.394   1.605
 3058SOL    HW210074   6.762   5.444   1.477
 3059SOL     OW10075   1.671   2.417   4.723
 3059SOL    HW110076   1.602   2.373   4.665
 3059SOL    HW210077   1.738   2.464   4.665
 3060SOL     OW10078   6.488   6.660   1.426
 3060SOL    HW110079   6.444   6.588   1.480
 3060SOL    HW210080   6.458   6.750   1.458
 3061SOL     OW10081   0.310   0.214   5.804
 3061SOL    HW110082   0.217   0.244   5.827
 3061SOL    HW210083   0.341   0.261   5.722
 3062SOL     OW10084   2.952   6.372   0.642
 3062SOL    HW110085   2.867   6.373   0.696
 3062SOL    HW210086   2.929   6.368   0.545
 3063SOL     OW10087   2.007   5.088   1.133
 3063SOL    HW110088   1.942   5.071   1.059
 3063SOL    HW210089   2.099   5.097   1.095
 3064SOL     OW10090   5.977   4.003   3.134
 3064SOL    HW110091   6.013   4.087   3.175
 3064SOL    HW210092   5.936   4.024   3.045
 3065SOL     OW10093   1.768   0.914   0.190
 3065SOL    HW110094   1.758   1.012   0.207
 3065SOL    HW210095   1.716   0.889   0.108
 3066SOL     OW10096   6.340   4.791   1.497
 3066SOL    HW110097   6.290   4.706   1.479
 3066SOL    HW210098   6.286   4.869   1.465
 3067SOL     OW10099   4.716   6.996   4.047
 3067SOL    HW110100   4.811   6.967   4.057
 3067SOL    HW210101   4.698   0.052   4.109
 3068SOL     OW10102   5.566   5.053   0.885
 3068SOL    HW110103   5.640   5.020   0.827
 3068SOL    HW210104   5.603   5.116   0.954
 3069SOL     OW10105   0.444   5.985   2.276
 3069SOL    HW110106   0.404   5.974   2.367
 3069SOL    HW210107   0.494   5.902   2.251
 3070SOL     OW10108   3.208   1.255   4.237
 3070SOL    HW110109   3.222   1.243   4.139
 3070SOL    HW210110   3.174   1.169   4.276
 3071SOL     OW10111   5.552   0.027   3.577
 3071SOL    HW110112   5.483   6.987   3.616
 3071SOL    HW210113   5.564   0.107   3.636
 3072SOL     OW10114   0.560   6.714   2.094
 3072SOL    HW110115   0.639   6.733   2.152
 3072SOL    HW210116   0.591   6.683   2.004
 3073SOL     OW10117   1.519   3.635   5.419
 3073SOL    HW110118   1.608   3.648   5.374
 3073SOL    HW210119   1.463   3.716   5.405
 3074SOL     OW10120   4.766   3.084   5.931
 3074SOL    HW110121   4.735   3.019   5.861
 3074SOL    HW210122   4.766   3.177   5.892
 3075SOL     OW10123   1.526   5.847   0.930
 3075SOL    HW110124   1.487   5.755   0.940
 3075SOL    HW210125   1.572   5.872   1.015
 3076SOL     OW10126   6.320   0.816   4.954
 3076SOL    HW110127   6.415   0.802   4.926
 3076SOL    HW210128   6.317   0.859   5.043
 3077SOL     OW10129   5.286   4.724   4.604
 3077SOL    HW110130   5.348   4.665   4.656
 3077SOL    HW210131   5.336   4.767   4.530
 3078SOL     OW10132   1.536   3.808   1.844
 3078SOL    HW110133   1.627   3.849   1.836
 3078SOL    HW210134   1.536   3.717   1.803
 3079SOL     OW10135   6.929   2.117   5.282
 3079SOL    HW110136   6.896   2.173   5.207
 3079SOL    HW210137   6.984   2.041   5.246
 3080SOL     OW10138   6.463   5.174   0.579
 3080SOL    HW110139   6.375   5.139   0.546
 3080SOL    HW210140   6.478   5.145   0.673
 3081SOL     OW10141   0.369   4.706   5.326
 3081SOL    HW110142   0.309   4.688   5.247
 3081SOL    HW210143   0.313   4.715   5.408
 3082SOL     OW10144   3.341   0.083   2.529
 3082SOL    HW110145   3.305   0.133   2.608
 3082SOL    HW210146   3.384   7.018   2.560
 3083SOL     OW10147   3.117   0.731   2.203
 3083SOL    HW110148   3.129   0.665   2.129
 3083SOL    HW210149   3.099   0.682   2.289
 3084SOL     OW10150   5.417   6.006   4.726
 3084SOL    HW110151   5.459   5.974   4.641
 3084SOL    HW210152   5.476   6.073   4.770
 3085SOL     OW10153   0.528   5.660   2.504
 3085SOL    HW110154   0.432   5.673   2.479
 3085SOL    HW210155   0.585   5.720   2.448
 3086SOL     OW10156   4.690   1.168   3.897
 3086SOL    HW110157   4.693   1.256   3.945
 3086SOL    HW210158   4.753   1.104   3.941
 3087SOL     OW10159   6.242   4.007   2.977
 3087SOL    HW110160   6.231   4.101   3.008
 3087SOL    HW210161   6.305   4.004   2.900
 3088SOL     OW10162   2.499   4.679   5.694
 3088SOL    HW110163   2.441   4.710   5.618
 3088SOL    HW210164   2.544   4.758   5.736
 3089SOL     OW10165   1.503   2.689   0.167
 3089SOL    HW110166   1.523   2.786   0.155
 3089SOL    HW210167   1.583   2.635   0.144
 3090SOL     OW10168   1.111   1.786   1.232
 3090SOL    HW110169   1.156   1.718   1.291
 3090SOL    HW210170   1.122   1.759   1.136
 3091SOL     OW10171   2.940   0.048   0.788
 3091SOL    HW110172   2.970   0.049   0.693
 3091SOL    HW210173   3.019   0.033   0.848
 3092SOL     OW10174   5.575   0.176   1.321
 3092SOL    HW110175   5.639   0.181   1.245
 3092SOL    HW210176   5.597   0.097   1.379
 3093SOL     OW10177   5.792   5.296   5.445
 3093SOL    HW110178   5.763   5.273   5.537
 3093SOL    HW210179   5.717   5.341   5.396
 3094SOL     OW10180   3.042   6.077   5.683
 3094SOL    HW110181   3.131   6.120   5.667
 3094SOL    HW210182   3.019   6.018   5.606
 3095SOL     OW10183   2.739   4.771   4.715
 3095SOL    HW110184   2.756   4.713   4.794
 3095SOL    HW210185   2.696   4.717   4.643
 3096SOL     OW10186   0.461   0.825   5.392
 3096SOL    HW110187   0.461   0.777   5.304
 3096SOL    HW210188   0.388   0.789   5.450
 3097SOL     OW10189   1.223   3.080   0.068
 3097SOL    HW110190   1.202   2.982   0.077
 3097SOL    HW210191   1.144   3.133   0.100
 3098SOL     OW10192   2.605   3.120   0.595
 3098SOL    HW110193   2.690   3.087   0.554
 3098SOL    HW210194   2.619   3.133   0.693
 3099SOL     OW10195   0.982   5.938   5.574
 3099SOL    HW110196   1.072   5.960   5.535
 3099SOL    HW210197   0.921   6.017   5.563
 3100SOL     OW10198   6.741   6.841   6.441
 3100SOL    HW110199   6.743   6.864   6.539
 3100SOL    HW210200   6.811   6.772   6.422
 3101SOL     OW10201   4.987   0.249   6.364
 3101SOL    HW110202   4.985   0.171   6.302
 3101SOL    HW210203   5.014   0.218   6.455
 3102SOL     OW10204   2.023   4.453   0.794
 3102SOL    HW110205   2.113   4.439   0.837
 3102SOL    HW210206   2.034   4.462   0.695
 3103SOL     OW10207   4.039   2.823   1.702
 3103SOL    HW110208   4.002   2.732   1.681
 3103SOL    HW210209   4.135   2.816   1.727
 3104SOL     OW10210   5.862   5.926   4.204
 3104SOL    HW110211   5.896   6.002   4.148
 3104SOL    HW210212   5.765   5.911   4.185
 3105SOL     OW10213   5.655   6.398   4.381
 3105SOL    HW110214   5.711   6.469   4.424
 3105SOL    HW210215   5.598   6.354   4.451
 3106SOL     OW10216   7.017   2.605   3.403
 3106SOL    HW110217   0.039   2.670   3.466
 3106SOL    HW210218   6.917   2.616   3.405
 3107SOL     OW10219   2.475   0.593   4.167
 3107SOL    HW110220   2.515   0.501   4.171
 3107SOL    HW210221   2.438   0.608   4.075
 3108SOL     OW10222   2.725   1.167   3.545
 3108SOL    HW110223   2.663   1.180   3.467
 3108SOL    HW210224   2.803   1.229   3.537
 3109SOL     OW10225   4.926   5.748   2.926
 3109SOL    HW110226   4.987   5.669   2.934
 3109SOL    HW210227   4.835   5.722   2.956
 3110SOL     OW10228   1.284   3.164   2.686
 3110SOL    HW110229   1.289   3.100   2.762
 3110SOL    HW210230   1.325   3.251   2.713
 3111SOL     OW10231   0.496   5.431   3.724
 3111SOL    HW110232   0.586   5.475   3.731
 3111SOL    HW210233   0.498   5.363   3.651
 3112SOL     OW10234   4.517   3.877   6.585
 3112SOL    HW110235   4.570   3.823   6.520
 3112SOL    HW210236   4.423   3.886   6.552
 3113SOL     OW10237   2.773   6.793   3.500
 3113SOL    HW110238   2.821   6.710   3.471
 3113SOL    HW210239   2.798   6.815   3.594
 3114SOL     OW10240   6.454   5.049   0.818
 3114SOL    HW110241   6.422   5.098   0.899
 3114SOL    HW210242   6.530   4.989   0.844
 3115SOL     OW10243   3.203   4.083   0.977
 3115SOL    HW110244   3.180   3.988   0.996
 3115SOL    HW210245   3.242   4.091   0.886
 3116SOL     OW10246   6.415   2.561   0.740
 3116SOL    HW110247   6.469   2.498   0.685
 3116SOL    HW210248   6.329   2.581   0.693
 3117SOL     OW10249   3.934   2.949   5.177
 3117SOL    HW110250   3.855   2.909   5.129
 3117SOL    HW210251   3.903   2.989   5.263
 3118SOL     OW10252   6.341   3.925   0.962
 3118SOL    HW110253   6.440   3.910   0.958
 3118SOL    HW210254   6.299   3.891   0.878
 3119SOL     OW10255   2.167   4.147   5.736
 3119SOL    HW110256   2.181   4.244   5.718
 3119SOL    HW210257   2.139   4.102   5.651
 3120SOL     OW10258   3.048   5.587   5.072
 3120SOL    HW110259   3.117   5.535   5.122
 3120SOL    HW210260   2.973   5.611   5.133
 3121SOL     OW10261   6.405   0.522   2.303
 3121SOL    HW110262   6.411   0.473   2.216
 3121SOL    HW210263   6.422   0.458   2.378
 3122SOL     OW10264   3.161   5.542   6.895
 3122SOL    HW110265   3.085   5.606   6.898
 3122SOL    HW210266   3.217   5.562   6.814
 3123SOL     OW10267   3.275   6.389   3.984
 3123SOL    HW110268   3.216   6.313   4.009
 3123SOL    HW210269   3.331   6.364   3.905
 3124SOL     OW10270   3.999   1.191   5.619
 3124SOL    HW110271   3.924   1.253   5.640
 3124SOL    HW210272   3.973   1.131   5.543
 3125SOL     OW10273   6.776   1.564   5.818
 3125SOL    HW110274   6.720   1.503   5.874
 3125SOL    HW210275   6.717   1.634   5.777
 3126SOL     OW10276   4.444   6.167   7.013
 3126SOL    HW110277   4.518   6.105   6.989
 3126SOL    HW210278   4.403   6.139   0.080
 3127SOL     OW10279   0.725   1.769   4.013
 3127SOL    HW110280   0.762   1.731   4.098
 3127SOL    HW210281   0.797   1.819   3.966
 3128SOL     OW10282   1.531   1.233   1.015
 3128SOL    HW110283   1.615   1.252   0.964
 3128SOL    HW210284   1.456   1.217   0.952
 3129SOL     OW10285   0.159   3.555   5.010
 3129SOL    HW110286   0.077   3.563   5.067
 3129SOL    HW210287   0.151   3.475   4.951
 3130SOL     OW10288   1.460   4.657   2.215
 3130SOL    HW110289   1.377   4.615   2.252
 3130SOL    HW210290   1.440   4.751   2.188
 3131SOL     OW10291   0.060   3.614   3.146
 3131SOL    HW110292   6.982   3.628   3.133
 3131SOL    HW210293   0.085   3.521   3.118
 3132SOL     OW10294   5.325   6.090   5.627
 3132SOL    HW110295   5.233   6.051   5.625
 3132SOL    HW210296   5.383   6.044   5.560
 3133SOL     OW10297   2.901   1.822   3.409
 3133SOL    HW110298   2.941   1.838   3.319
 3133SOL    HW210299   2.885   1.724   3.421
 3134SOL     OW10300   4.956   3.110   1.970
 3134SOL    HW110301   4.979   3.072   2.060
 3134SOL    HW210302   4.872   3.068   1.937
 3135SOL     OW10303   3.432   1.899   3.307
 3135SOL    HW110304   3.492   1.925   3.231
 3135SOL    HW210305   3.348   1.953   3.303
 3136SOL     OW10306   5.765   6.155   5.379
 3136SOL    HW110307   5.836   6.226   5.390
 3136SOL    HW210308   5.730   6.157   5.285
 3137SOL     OW10309   5.640   2.250   3.606
 3137SOL    HW110310   5.554   2.247   3.553
 3137SOL    HW210311   5.717   2.258   3.543
 3138SOL     OW10312   5.597   1.295   4.988
 3138SOL    HW110313   5.497   1.285   4.996
 3138SOL    HW210314   5.638   1.285   5.078
 3139SOL     OW10315   4.966   6.099   5.296
 3139SOL    HW110316   4.957   6.124   5.393
 3139SOL    HW210317   4.905   6.156   5.241
 3140SOL     OW10318   6.717   6.133   6.697
 3140SOL    HW110319   6.652   6.100   6.765
 3140SOL    HW210320   6.798   6.169   6.744
 3141SOL     OW10321   1.055   5.280   0.269
 3141SOL    HW110322   1.019   5.225   0.193
 3141SOL    HW210323   1.119   5.349   0.233
 3142SOL     OW10324   4.782   6.526   6.552
 3142SOL    HW110325   4.719   6.461   6.509
 3142SOL    HW210326   4.734   6.611   6.572
 3143SOL     OW10327   6.594   1.522   0.547
 3143SOL    HW110328   6.648   1.542   0.629
 3143SOL    HW210329   6.609   1.427   0.520
 3144SOL     OW10330   1.804   2.696   6.340
 3144SOL    HW110331   1.707   2.722   6.341
 3144SOL    HW210332   1.812   2.598   6.352
 3145SOL     OW10333   3.224   6.055   2.682
 3145SOL    HW110334   3.322   6.037   2.691
 3145SOL    HW210335   3.210   6.150   2.654
 3146SOL     OW10336   1.126   0.011   3.330
 3146SOL    HW110337   1.132   0.045   3.424
 3146SOL    HW210338   1.030   7.011   3.308
 3147SOL     OW10339   4.950   3.916   0.087
 3147SOL    HW110340   4.943   3.819   0.060
 3147SOL    HW210341   5.043   3.948   0.074
 3148SOL     OW10342   3.405   5.142   4.651
 3148SOL    HW110343   3.413   5.203   4.573
 3148SOL    HW210344   3.373   5.193   4.731
 3149SOL     OW10345   3.587   0.721   5.887
 3149SOL    HW110346   3.616   0.813   5.914
 3149SOL    HW210347   3.663   0.658   5.899
 3150SOL     OW10348   5.498   6.606   4.866
 3150SOL    HW110349   5.399   6.619   4.863
 3150SOL    HW210350   5.543   6.689   4.831
 3151SOL     OW10351   4.437   1.198   6.026
 3151SOL    HW110352   4.429   1.264   5.951
 3151SOL    HW210353   4.506   1.231   6.090
 3152SOL     OW10354   1.268   5.994   0.954
 3152SOL    HW110355   1.235   5.962   1.042
 3152SOL    HW210356   1.355   5.949   0.933
 3153SOL     OW10357   6.822   4.655   2.261
 3153SOL    HW110358   6.883   4.605   2.200
 3153SOL    HW210359   6.826   4.615   2.352
 3154SOL     OW10360   5.759   2.179   5.890
 3154SOL    HW110361   5.747   2.261   5.947
 3154SOL    HW210362   5.673   2.128   5.887
 3155SOL     OW10363   5.730   5.555   1.052
 3155SOL    HW110364   5.655   5.517   0.997
 3155SOL    HW210365   5.727   5.516   1.144
 3156SOL     OW10366   3.511   3.408   3.482
 3156SOL    HW110367   3.596   3.421   3.533
 3156SOL    HW210368   3.491   3.491   3.429
 3157SOL     OW10369   2.107   4.056   4.494
 3157SOL    HW110370   2.129   3.993   4.568
 3157SOL    HW210371   2.032   4.018   4.440
 3158SOL     OW10372   4.901   6.437   0.752
 3158SOL    HW110373   4.923   6.362   0.690
 3158SOL    HW210374   4.806   6.430   0.782
 3159SOL     OW10375   4.995   5.206   0.132
 3159SOL    HW110376   4.991   5.284   0.196
 3159SOL    HW210377   4.949   5.127   0.173
 3160SOL     OW10378   4.895   4.209   6.905
 3160SOL    HW110379   4.829   4.134   6.911
 3160SOL    HW210380   4.984   4.172   6.879
 3161SOL     OW10381   1.081   1.954   3.056
 3161SOL    HW110382   1.166   1.973   3.105
 3161SOL    HW210383   1.095   1.969   2.958
 3162SOL     OW10384   0.468   5.798   6.586
 3162SOL    HW110385   0.529   5.755   6.519
 3162SOL    HW210386   0.441   5.730   6.655
 3163SOL     OW10387   3.155   3.812   5.880
 3163SOL    HW110388   3.074   3.783   5.830
 3163SOL    HW210389   3.190   3.735   5.935
 3164SOL     OW10390   5.194   5.219   6.971
 3164SOL    HW110391   5.217   5.131   6.931
 3164SOL    HW210392   5.119   5.209   0.016
 3165SOL     OW10393   0.382   1.417   1.621
 3165SOL    HW110394   0.334   1.387   1.703
 3165SOL    HW210395   0.443   1.344   1.590
 3166SOL     OW10396   5.482   3.326   6.113
 3166SOL    HW110397   5.467   3.425   6.116
 3166SOL    HW210398   5.507   3.293   6.203
 3167SOL     OW10399   1.161   5.322   1.651
 3167SOL    HW110400   1.201   5.382   1.582
 3167SOL    HW210401   1.235   5.281   1.705
 3168SOL     OW10402   5.735   3.343   1.144
 3168SOL    HW110403   5.643   3.362   1.179
 3168SOL    HW210404   5.795   3.420   1.165
 3169SOL     OW10405   1.127   2.058   5.535
 3169SOL    HW110406   1.087   2.018   5.617
 3169SOL    HW210407   1.195   1.995   5.497
 3170SOL     OW10408   4.199   0.887   6.988
 3170SOL    HW110409   4.209   0.972   0.020
 3170SOL    HW210410   4.189   0.908   6.891
 3171SOL     OW10411   5.821   6.411   3.361
 3171SOL    HW110412   5.856   6.467   3.286
 3171SOL    HW210413   5.796   6.469   3.438
 3172SOL     OW10414   6.120   0.055   4.887
 3172SOL    HW110415   6.206   0.029   4.841
 3172SOL    HW210416   6.098   7.006   4.956
 3173SOL     OW10417   1.960   0.644   1.578
 3173SOL    HW110418   2.007   0.703   1.512
 3173SOL    HW210419   1.939   0.696   1.661
 3174SOL     OW10420   2.166   2.782   6.095
 3174SOL    HW110421   2.091   2.846   6.112
 3174SOL    HW210422   2.253   2.828   6.113
 3175SOL     OW10423   0.556   6.608   0.459
 3175SOL    HW110424   0.565   6.698   0.416
 3175SOL    HW210425   0.639   6.586   0.509
 3176SOL     OW10426   0.729   4.842   6.742
 3176SOL    HW110427   0.779   4.773   6.690
 3176SOL    HW210428   0.631   4.835   6.722
 3177SOL     OW10429   5.972   6.291   6.110
 3177SOL    HW110430   5.932   6.293   6.202
 3177SOL    HW210431   6.051   6.231   6.109
 3178SOL     OW10432   1.215   3.073   1.682
 3178SOL    HW110433   1.308   3.056   1.717
 3178SOL    HW210434   1.212   3.162   1.638
 3179SOL     OW10435   2.020   1.580   2.904
 3179SOL    HW110436   2.116   1.597   2.881
 3179SOL    HW210437   1.994   1.635   2.983
 3180SOL     OW10438   5.574   0.995   6.286
 3180SOL    HW110439   5.634   0.997   6.366
 3180SOL    HW210440   5.531   0.905   6.278
 3181SOL     OW10441   0.591   1.266   2.978
 3181SOL    HW110442   0.674   1.232   2.934
 3181SOL    HW210443   0.573   1.360   2.948
 3182SOL     OW10444   1.951   4.834   5.275
 3182SOL    HW110445   1.948   4.838   5.375
 3182SOL    HW210446   1.969   4.740   5.246
 3183SOL     OW10447   3.630   3.509   1.471
 3183SOL    HW110448   3.723   3.540   1.492
 3183SOL    HW210449   3.622   3.412   1.492
 3184SOL     OW10450   2.199   1.648   2.393
 3184SOL    HW110451   2.293   1.679   2.407
 3184SOL    HW210452   2.187   1.557   2.432
 3185SOL     OW10453   6.921   6.822   5.751
 3185SOL    HW110454   6.904   6.783   5.842
 3185SOL    HW210455   6.945   6.749   5.687
 3186SOL     OW10456   2.747   0.726   1.873
 3186SOL    HW110457   2.795   0.720   1.961
 3186SOL    HW210458   2.721   0.820   1.855
 3187SOL     OW10459   2.986   4.490   0.001
 3187SOL    HW110460   3.010   4.573   6.970
 3187SOL    HW210461   3.068   4.452   0.042
 3188SOL     OW10462   4.245   6.317   3.279
 3188SOL    HW110463   4.219   6.281   3.190
 3188SOL    HW210464   4.331   6.274   3.309
 3189SOL     OW10465   1.193   6.711   2.055
 3189SOL    HW110466   1.227   6.743   1.966
 3189SOL    HW210467   1.111   6.762   2.080
 3190SOL     OW10468   0.462   6.098   2.019
 3190SOL    HW110469   0.450   6.079   2.117
 3190SOL    HW210470   0.376   6.082   1.972
 3191SOL     OW10471   3.734   0.913   1.180
 3191SOL    HW110472   3.645   0.878   1.152
 3191SOL    HW210473   3.790   0.929   1.099
 3192SOL     OW10474   0.068   3.121   2.939
 3192SOL    HW110475   0.156   3.083   2.912
 3192SOL    HW210476   0.019   3.055   2.996
 3193SOL     OW10477   4.889   3.352   6.508
 3193SOL    HW110478   4.859   3.260   6.532
 3193SOL    HW210479   4.827   3.419   6.549
 3194SOL     OW10480   0.722   3.331   6.201
 3194SOL    HW110481   0.636   3.324   6.251
 3194SOL    HW210482   0.779   3.402   6.241
 3195SOL     OW10483   0.559   3.566   3.391
 3195SOL    HW110484   0.471   3.524   3.413
 3195SOL    HW210485   0.615   3.502   3.339
 3196SOL     OW10486   6.874   0.057   5.816
 3196SOL    HW110487   6.888   6.982   5.788
 3196SOL    HW210488   6.809   0.101   5.754
 3197SOL     OW10489   0.996   4.430   4.072
 3197SOL    HW110490   1.059   4.431   3.994
 3197SOL    HW210491   0.920   4.368   4.053
 3198SOL     OW10492   6.819   1.650   6.715
 3198SOL    HW110493   6.831   1.745   6.685
 3198SOL    HW210494   6.796   1.649   6.812
 3199SOL     OW10495   3.933   1.941   2.530
 3199SOL    HW110496   3.948   1.843   2.547
 3199SOL    HW210497   3.904   1.954   2.436
 3200SOL     OW10498   6.842   2.270   1.078
 3200SOL    HW110499   6.938   2.297   1.070
 3200SOL    HW210500   6.837   2.170   1.084
 3201SOL     OW10501   4.740   4.224   2.800
 3201SOL    HW110502   4.672   4.296   2.813
 3201SOL    HW210503   4.819   4.242   2.859
 3202SOL     OW10504   2.148   5.773   1.556
 3202SOL    HW110505   2.075   5.834   1.525
 3202SOL    HW210506   2.165   5.788   1.653
 3203SOL     OW10507   6.377   6.908   1.257
 3203SOL    HW110508   6.429   6.990   1.234
 3203SOL    HW210509   6.438   6.829   1.254
 3204SOL     OW10510   6.456   5.732   1.875
 3204SOL    HW110511   6.430   5.762   1.784
 3204SOL    HW210512   6.478   5.635   1.873
 3205SOL     OW10513   0.766   3.725   3.439
 3205SOL    HW110514   0.843   3.666   3.413
 3205SOL    HW210515   0.681   3.673   3.432
 3206SOL     OW10516   0.983   0.111   6.817
 3206SOL    HW110517   1.082   0.122   6.802
 3206SOL    HW210518   0.933   0.156   6.743
 3207SOL     OW10519   0.406   1.174   3.965
 3207SOL    HW110520   0.310   1.147   3.976
 3207SOL    HW210521   0.418   1.268   3.998
 3208SOL     OW10522   5.911   6.983   5.065
 3208SOL    HW110523   5.811   6.992   5.061
 3208SOL    HW210524   5.951   0.046   5.103
 3209SOL     OW10525   2.409   0.618   3.268
 3209SOL    HW110526   2.485   0.679   3.290
 3209SOL    HW210527   2.369   0.582   3.353
 3210SOL     OW10528   0.260   4.685   3.081
 3210SOL    HW110529   0.190   4.742   3.126
 3210SOL    HW210530   0.349   4.703   3.123
 3211SOL     OW10531   1.553   4.294   1.705
 3211SOL    HW110532   1.643   4.303   1.662
 3211SOL    HW210533   1.560   4.317   1.802
 3212SOL     OW10534   4.821   2.436   5.963
 3212SOL    HW110535   4.736   2.436   5.910
 3212SOL    HW210536   4.839   2.343   5.996
 3213SOL     OW10537   6.213   6.390   1.965
 3213SOL    HW110538   6.216   6.405   2.064
 3213SOL    HW210539   6.211   6.478   1.918
 3214SOL     OW10540   3.989   5.257   6.179
 3214SOL    HW110541   4.010   5.306   6.263
 3214SOL    HW210542   3.924   5.310   6.125
 3215SOL     OW10543   6.199   0.813   6.922
 3215SOL    HW110544   6.138   0.751   6.971
 3215SOL    HW210545   6.190   0.905   6.959
 3216SOL     OW10546   5.523   0.014   4.644
 3216SOL    HW110547   5.425   0.017   4.662
 3216SOL    HW210548   5.549   0.094   4.590
 3217SOL     OW10549   6.971   3.815   1.407
 3217SOL    HW110550   0.022   3.873   1.367
 3217SOL    HW210551   6.901   3.872   1.449
 3218SOL     OW10552   2.814   0.674   2.182
 3218SOL    HW110553   2.909   0.660   2.207
 3218SOL    HW210554   2.777   0.751   2.235
 3219SOL     OW10555   6.449   0.213   4.082
 3219SOL    HW110556   6.390   0.187   4.159
 3219SOL    HW210557   6.416   0.169   3.999
 3220SOL     OW10558   6.151   3.039   5.268
 3220SOL    HW110559   6.090   3.044   5.189
 3220SOL    HW210560   6.103   3.000   5.346
 3221SOL     OW10561   4.052   0.211   3.052
 3221SOL    HW110562   4.148   0.204   3.026
 3221SOL    HW210563   4.036   0.299   3.098
 3222SOL     OW10564   5.886   2.832   2.970
 3222SOL    HW110565   5.862   2.741   3.003
 3222SOL    HW210566   5.823   2.858   2.897
 3223SOL     OW10567   2.461   5.152   5.143
 3223SOL    HW110568   2.451   5.172   5.240
 3223SOL    HW210569   2.503   5.062   5.132
 3224SOL     OW10570   4.364   5.538   0.397
 3224SOL    HW110571   4.454   5.505   0.427
 3224SOL    HW210572   4.375   5.627   0.353
 3225SOL     OW10573   2.702   3.126   0.848
 3225SOL    HW110574   2.711   3.034   0.886
 3225SOL    HW210575   2.787   3.177   0.862
 3226SOL     OW10576   0.606   0.203   3.717
 3226SOL    HW110577   0.567   0.239   3.632
 3226SOL    HW210578   0.700   0.174   3.702
 3227SOL     OW10579   2.662   1.330   5.715
 3227SOL    HW110580   2.604   1.339   5.796
 3227SOL    HW210581   2.609   1.293   5.639
 3228SOL     OW10582   4.845   3.092   4.957
 3228SOL    HW110583   4.936   3.060   4.983
 3228SOL    HW210584   4.838   3.190   4.977
 3229SOL     OW10585   4.429   2.108   5.072
 3229SOL    HW110586   4.412   2.015   5.103
 3229SOL    HW210587   4.494   2.153   5.133
 3230SOL     OW10588   0.941   0.437   3.205
 3230SOL    HW110589   0.991   0.364   3.252
 3230SOL    HW210590   0.851   0.403   3.178
 3231SOL     OW10591   6.275   5.364   1.037
 3231SOL    HW110592   6.333   5.438   1.072
 3231SOL    HW210593   6.330   5.282   1.024
 3232SOL     OW10594   2.336   4.917   3.391
 3232SOL    HW110595   2.269   4.910   3.317
 3232SOL    HW210596   2.419   4.866   3.365
 3233SOL     OW10597   0.791   4.353   1.597
 3233SOL    HW110598   0.880   4.398   1.588
 3233SOL    HW210599   0.795   4.262   1.555
 3234SOL     OW10600   6.916   1.623   5.101
 3234SOL    HW110601   6.829   1.574   5.105
 3234SOL    HW210602   6.901   1.719   5.124
 3235SOL     OW10603   5.644   0.154   2.876
 3235SOL    HW110604   5.657   0.242   2.829
 3235SOL    HW210605   5.583   0.097   2.821
 3236SOL     OW10606   0.882   2.882   1.969
 3236SOL    HW110607   0.960   2.942   1.951
 3236SOL    HW210608   0.798   2.924   1.933
 3237SOL     OW10609   3.081   6.889   4.486
 3237SOL    HW110610   3.132   6.960   4.437
 3237SOL    HW210611   3.142   6.814   4.510
 3238SOL     OW10612   6.542   6.643   6.593
 3238SOL    HW110613   6.594   6.692   6.523
 3238SOL    HW210614   6.542   6.696   6.678
 3239SOL     OW10615   0.179   6.526   5.789
 3239SOL    HW110616   0.123   6.443   5.776
 3239SOL    HW210617   0.275   6.503   5.780
 3240SOL     OW10618   0.602   1.072   4.390
 3240SOL    HW110619   0.530   1.138   4.414
 3240SOL    HW210620   0.683   1.122   4.359
 3241SOL     OW10621   4.923   0.804   4.376
 3241SOL    HW110622   4.864   0.884   4.362
 3241SOL    HW210623   4.896   0.758   4.460
 3242SOL     OW10624   3.283   6.381   0.119
 3242SOL    HW110625   3.356   6.344   0.177
 3242SOL    HW210626   3.208   6.413   0.175
 3243SOL     OW10627   3.432   5.999   0.555
 3243SOL    HW110628   3.508   6.043   0.506
 3243SOL    HW210629   3.366   5.965   0.489
 3244SOL     OW10630   2.662   6.269   5.870
 3244SOL    HW110631   2.609   6.187   5.892
 3244SOL    HW210632   2.662   6.331   5.949
 3245SOL     OW10633   3.492   2.578   6.255
 3245SOL    HW110634   3.463   2.491   6.213
 3245SOL    HW210635   3.415   2.642   6.256
 3246SOL     OW10636   5.200   6.200   3.631
 3246SOL    HW110637   5.104   6.186   3.608
 3246SOL    HW210638   5.257   6.176   3.552
 3247SOL     OW10639   0.212   1.798   4.500
 3247SOL    HW110640   0.291   1.740   4.479
 3247SOL    HW210641   0.201   1.806   4.599
 3248SOL     OW10642   6.057   4.075   2.311
 3248SOL    HW110643   6.104   4.057   2.224
 3248SOL    HW210644   5.973   4.021   2.315
 3249SOL     OW10645   2.841   4.374   5.350
 3249SOL    HW110646   2.860   4.433   5.271
 3249SOL    HW210647   2.743   4.355   5.354
 3250SOL     OW10648   4.059   6.377   1.675
 3250SOL    HW110649   4.022   6.314   1.607
 3250SOL    HW210650   4.104   6.326   1.748
 3251SOL     OW10651   2.903   1.226   3.814
 3251SOL    HW110652   2.905   1.304   3.751
 3251SOL    HW210653   2.817   1.226   3.864
 3252SOL     OW10654   3.238   2.093   3.258
 3252SOL    HW110655   3.152   2.133   3.224
 3252SOL    HW210656   3.314   2.128   3.203
 3253SOL     OW10657   4.827   3.583   0.653
 3253SOL    HW110658   4.752   3.517   0.645
 3253SOL    HW210659   4.824   3.625   0.743
 3254SOL     OW10660   5.503   5.216   2.452
 3254SOL    HW110661   5.504   5.124   2.491
 3254SOL    HW210662   5.593   5.238   2.416
 3255SOL     OW10663   4.015   4.763   0.562
 3255SOL    HW110664   4.025   4.664   0.554
 3255SOL    HW210665   3.924   4.784   0.598
 3256SOL     OW10666   6.400   6.131   5.204
 3256SOL    HW110667   6.367   6.222   5.179
 3256SOL    HW210668   6.463   6.098   5.134
 3257SOL     OW10669   2.250   1.941   1.314
 3257SOL    HW110670   2.282   1.943   1.409
 3257SOL    HW210671   2.164   1.992   1.307
 3258SOL     OW10672   5.424   6.785   1.513
 3258SOL    HW110673   5.373   6.870   1.525
 3258SOL    HW210674   5.522   6.805   1.505
 3259SOL     OW10675   5.966   6.232   3.013
 3259SOL    HW110676   5.953   6.244   2.914
 3259SOL    HW210677   5.905   6.160   3.046
 3260SOL     OW10678   1.354   3.037   6.834
 3260SOL    HW110679   1.274   2.999   6.789
 3260SOL    HW210680   1.330   3.068   6.926
 3261SOL     OW10681   4.506   0.229   3.195
 3261SOL    HW110682   4.500   0.326   3.168
 3261SOL    HW210683   4.433   0.209   3.259
 3262SOL     OW10684   3.186   1.455   3.640
 3262SOL    HW110685   3.193   1.420   3.546
 3262SOL    HW210686   3.277   1.458   3.681
 3263SOL     OW10687   3.296   5.426   1.969
 3263SOL    HW110688   3.263   5.512   1.928
 3263SOL    HW210689   3.225   5.389   2.029
 3264SOL     OW10690   5.337   4.798   6.155
 3264SOL    HW110691   5.293   4.736   6.090
 3264SOL    HW210692   5.275   4.873   6.177
 3265SOL     OW10693   4.376   0.894   6.792
 3265SOL    HW110694   4.349   0.799   6.778
 3265SOL    HW210695   4.358   0.920   6.887
 3266SOL     OW10696   0.540   1.506   6.134
 3266SOL    HW110697   0.621   1.454   6.111
 3266SOL    HW210698   0.544   1.533   6.231
 3267SOL     OW10699   4.527   2.360   1.286
 3267SOL    HW110700   4.460   2.287   1.294
 3267SOL    HW210701   4.619   2.323   1.298
 3268SOL     OW10702   1.215   4.483   6.206
 3268SOL    HW110703   1.204   4.532   6.120
 3268SOL    HW210704   1.307   4.498   6.242
 3269SOL     OW10705   5.050   3.049   0.254
 3269SOL    HW110706   5.128   3.103   0.287
 3269SOL    HW210707   5.001   3.010   0.331
 3270SOL     OW10708   0.690   5.679   4.751
 3270SOL    HW110709   0.778   5.724   4.768
 3270SOL    HW210710   0.702   5.606   4.684
 3271SOL     OW10711   6.123   1.983   1.114
 3271SOL    HW110712   6.184   1.954   1.188
 3271SOL    HW210713   6.178   2.009   1.034
 3272SOL     OW10714   4.923   6.780   0.158
 3272SOL    HW110715   5.018   6.812   0.154
 3272SOL    HW210716   4.883   6.803   0.246
 3273SOL     OW10717   0.108   6.929   2.616
 3273SOL    HW110718   0.080   6.985   2.694
 3273SOL    HW210719   0.027   6.893   2.570
 3274SOL     OW10720   3.795   1.672   6.568
 3274SOL    HW110721   3.699   1.690   6.590
 3274SOL    HW210722   3.852   1.744   6.608
 3275SOL     OW10723   3.485   0.822   6.780
 3275SOL    HW110724   3.493   0.737   6.832
 3275SOL    HW210725   3.410   0.877   6.818
 3276SOL     OW10726   2.988   6.589   0.209
 3276SOL    HW110727   2.914   6.656   0.209
 3276SOL    HW210728   3.074   6.634   0.231
 3277SOL     OW10729   0.018   6.370   5.420
 3277SOL    HW110730   0.113   6.378   5.451
 3277SOL    HW210731   0.005   6.283   5.372
 3278SOL     OW10732   1.497   1.104   0.316
 3278SOL    HW110733   1.553   1.077   0.394
 3278SOL    HW210734   1.535   1.187   0.275
 3279SOL     OW10735   2.067   0.058   1.182
 3279SOL    HW110736   1.998   0.094   1.245
 3279SOL    HW210737   2.043   0.085   1.088
 3280SOL     OW10738   1.917   5.314   5.705
 3280SOL    HW110739   1.819   5.332   5.719
 3280SOL    HW210740   1.933   5.289   5.610
 3281SOL     OW10741   3.010   5.850   0.241
 3281SOL    HW110742   2.989   5.946   0.227
 3281SOL    HW210743   2.984   5.798   0.159
 3282SOL     OW10744   1.683   5.316   2.492
 3282SOL    HW110745   1.637   5.387   2.546
 3282SOL    HW210746   1.756   5.275   2.547
 3283SOL     OW10747   2.077   0.040   3.778
 3283SOL    HW110748   2.169   0.075   3.762
 3283SOL    HW210749   2.056   6.989   3.710
 3284SOL     OW10750   0.047   4.078   6.140
 3284SOL    HW110751   6.977   4.102   6.177
 3284SOL    HW210752   0.119   4.115   6.200
 3285SOL     OW10753   6.552   2.462   4.763
 3285SOL    HW110754   6.615   2.459   4.841
 3285SOL    HW210755   6.581   2.394   4.695
 3286SOL     OW10756   3.587   4.683   5.574
 3286SOL    HW110757   3.490   4.668   5.594
 3286SOL    HW210758   3.643   4.628   5.636
 3287SOL     OW10759   0.621   5.477   1.698
 3287SOL    HW110760   0.641   5.390   1.652
 3287SOL    HW210761   0.646   5.553   1.638
 3288SOL     OW10762   1.436   6.543   0.075
 3288SOL    HW110763   1.409   6.547   0.171
 3288SOL    HW210764   1.465   6.450   0.052
 3289SOL     OW10765   1.184   5.741   4.480
 3289SOL    HW110766   1.273   5.760   4.521
 3289SOL    HW210767   1.149   5.654   4.514
 3290SOL     OW10768   6.814   5.706   1.885
 3290SOL    HW110769   6.783   5.612   1.872
 3290SOL    HW210770   6.763   5.747   1.961
 3291SOL     OW10771   1.772   6.954   1.254
 3291SOL    HW110772   1.681   6.993   1.270
 3291SOL    HW210773   1.790   6.951   1.156
 3292SOL     OW10774   0.550   5.645   5.381
 3292SOL    HW110775   0.624   5.690   5.330
 3292SOL    HW210776   0.567   5.546   5.383
 3293SOL     OW10777   6.440   0.568   3.142
 3293SOL    HW110778   6.400   0.540   3.055
 3293SOL    HW210779   6.519   0.511   3.162
 3294SOL     OW10780   0.513   0.108   6.863
 3294SOL    HW110781   0.420   0.106   6.826
 3294SOL    HW210782   0.559   0.192   6.832
 3295SOL     OW10783   1.369   2.306   6.233
 3295SOL    HW110784   1.427   2.363   6.174
 3295SOL    HW210785   1.375   2.339   6.327
 3296SOL     OW10786   0.716   6.534   1.800
 3296SOL    HW110787   0.732   6.590   1.719
 3296SOL    HW210788   0.802   6.491   1.828
 3297SOL     OW10789   3.117   2.449   5.803
 3297SOL    HW110790   3.059   2.471   5.725
 3297SOL    HW210791   3.074   2.378   5.858
 3298SOL     OW10792   5.841   3.515   3.324
 3298SOL    HW110793   5.906   3.520   3.248
 3298SOL    HW210794   5.760   3.568   3.302
 3299SOL     OW10795   1.183   0.310   4.691
 3299SOL    HW110796   1.103   0.363   4.662
 3299SOL    HW210797   1.245   0.368   4.743
 3300SOL     OW10798   6.467   0.119   4.491
 3300SOL    HW110799   6.456   0.048   4.561
 3300SOL    HW210800   6.558   0.160   4.498
 3301SOL     OW10801   0.863   4.229   2.934
 3301SOL    HW110802   0.775   4.273   2.946
 3301SOL    HW210803   0.916   4.277   2.864
 3302SOL     OW10804   0.880   5.079   3.840
 3302SOL    HW110805   0.925   5.163   3.811
 3302SOL    HW210806   0.789   5.100   3.876
 3303SOL     OW10807   3.258   4.064   3.536
 3303SOL    HW110808   3.304   4.137   3.587
 3303SOL    HW210809   3.180   4.031   3.588
 3304SOL     OW10810   1.070   6.640   3.770
 3304SOL    HW110811   1.025   6.560   3.729
 3304SOL    HW210812   1.133   6.609   3.841
 3305SOL     OW10813   1.174   0.854   1.738
 3305SOL    HW110814   1.179   0.925   1.668
 3305SOL    HW210815   1.118   0.887   1.814
 3306SOL     OW10816   0.942   3.760   2.420
 3306SOL    HW110817   1.019   3.718   2.470
 3306SOL    HW210818   0.861   3.761   2.479
 3307SOL     OW10819   0.468   6.186   0.406
 3307SOL    HW110820   0.426   6.150   0.322
 3307SOL    HW210821   0.457   6.119   0.480
 3308SOL     OW10822   5.191   5.935   0.663
 3308SOL    HW110823   5.093   5.934   0.683
 3308SOL    HW210824   5.240   5.884   0.733
 3309SOL     OW10825   1.506   5.881   2.774
 3309SOL    HW110826   1.417   5.925   2.783
 3309SOL    HW210827   1.498   5.784   2.797
 3310SOL     OW10828   1.075   6.780   1.582
 3310SOL    HW110829   1.152   6.833   1.546
 3310SOL    HW210830   1.106   6.723   1.658
 3311SOL     OW10831   3.781   6.165   0.642
 3311SOL    HW110832   3.794   6.098   0.714
 3311SOL    HW210833   3.870   6.192   0.605
 3312SOL     OW10834   2.127   3.062   0.116
 3312SOL    HW110835   2.190   3.139   0.114
 3312SOL    HW210836   2.033   3.096   0.106
 3313SOL     OW10837   6.805   5.791   4.925
 3313SOL    HW110838   6.884   5.740   4.890
 3313SOL    HW210839   6.721   5.748   4.892
 3314SOL     OW10840   0.932   3.457   6.314
 3314SOL    HW110841   0.942   3.512   6.397
 3314SOL    HW210842   1.022   3.428   6.282
 3315SOL     OW10843   6.743   3.188   2.742
 3315SOL    HW110844   6.756   3.203   2.840
 3315SOL    HW210845   6.683   3.109   2.728
 3316SOL     OW10846   4.430   0.650   0.451
 3316SOL    HW110847   4.346   0.629   0.502
 3316SOL    HW210848   4.448   0.576   0.385
 3317SOL     OW10849   4.589   2.229   1.615
 3317SOL    HW110850   4.517   2.246   1.682
 3317SOL    HW210851   4.677   2.218   1.661
 3318SOL     OW10852   2.403   5.465   5.244
 3318SOL    HW110853   2.438   5.496   5.332
 3318SOL    HW210854   2.477   5.422   5.192
 3319SOL     OW10855   0.273   5.670   6.238
 3319SOL    HW110856   0.205   5.736   6.272
 3319SOL    HW210857   0.227   5.584   6.218
 3320SOL     OW10858   0.274   2.085   5.735
 3320SOL    HW110859   0.270   2.006   5.796
 3320SOL    HW210860   0.186   2.096   5.688
 3321SOL     OW10861   3.232   4.015   3.898
 3321SOL    HW110862   3.170   3.974   3.830
 3321SOL    HW210863   3.179   4.057   3.971
 3322SOL     OW10864   4.627   2.048   1.144
 3322SOL    HW110865   4.651   2.063   1.240
 3322SOL    HW210866   4.684   2.107   1.087
 3323SOL     OW10867   2.725   5.005   0.380
 3323SOL    HW110868   2.787   5.058   0.437
 3323SOL    HW210869   2.761   5.002   0.286
 3324SOL     OW10870   0.428   2.950   0.368
 3324SOL    HW110871   0.487   2.891   0.423
 3324SOL    HW210872   0.355   2.987   0.426
 3325SOL     OW10873   1.632   3.318   0.327
 3325SOL    HW110874   1.548   3.307   0.273
 3325SOL    HW210875   1.694   3.242   0.307
 3326SOL     OW10876   6.368   0.503   1.712
 3326SOL    HW110877   6.327   0.452   1.636
 3326SOL    HW210878   6.295   0.536   1.772
 3327SOL     OW10879   2.971   6.835   2.024
 3327SOL    HW110880   2.966   6.934   2.009
 3327SOL    HW210881   3.067   6.806   2.022
 3328SOL     OW10882   4.361   0.925   2.935
 3328SOL    HW110883   4.444   0.981   2.939
 3328SOL    HW210884   4.291   0.974   2.883
 3329SOL     OW10885   5.092   1.174   5.857
 3329SOL    HW110886   5.064   1.153   5.763
 3329SOL    HW210887   5.172   1.234   5.854
 3330SOL     OW10888   6.596   5.465   3.359
 3330SOL    HW110889   6.510   5.509   3.385
 3330SOL    HW210890   6.611   5.476   3.261
 3331SOL     OW10891   2.109   3.337   3.003
 3331SOL    HW110892   2.024   3.372   3.043
 3331SOL    HW210893   2.145   3.403   2.938
 3332SOL     OW10894   3.415   4.908   0.883
 3332SOL    HW110895   3.466   4.978   0.932
 3332SOL    HW210896   3.460   4.888   0.796
 3333SOL     OW10897   2.599   3.143   1.709
 3333SOL    HW110898   2.602   3.238   1.741
 3333SOL    HW210899   2.693   3.108   1.702
 3334SOL     OW10900   1.801   2.037   1.583
 3334SOL    HW110901   1.751   2.000   1.661
 3334SOL    HW210902   1.813   2.136   1.595
 3335SOL     OW10903   3.760   3.983   5.322
 3335SOL    HW110904   3.674   4.003   5.276
 3335SOL    HW210905   3.772   4.045   5.400
 3336SOL     OW10906   5.292   5.284   4.359
 3336SOL    HW110907   5.251   5.343   4.429
 3336SOL    HW210908   5.317   5.196   4.401
 3337SOL     OW10909   3.185   2.899   2.476
 3337SOL    HW110910   3.217   2.917   2.569
 3337SOL    HW210911   3.166   2.802   2.465
 3338SOL     OW10912   2.744   2.846   1.612
 3338SOL    HW110913   2.653   2.808   1.622
 3338SOL    HW210914   2.808   2.798   1.672
 3339SOL     OW10915   2.022   0.148   6.609
 3339SOL    HW110916   2.109   0.141   6.560
 3339SOL    HW210917   2.009   0.066   6.664
 3340SOL     OW10918   3.675   0.777   4.356
 3340SOL    HW110919   3.628   0.693   4.330
 3340SOL    HW210920   3.609   0.843   4.392
 3341SOL     OW10921   1.297   4.211   2.490
 3341SOL    HW110922   1.382   4.159   2.487
 3341SOL    HW210923   1.309   4.298   2.443
 3342SOL     OW10924   6.394   0.868   2.587
 3342SOL    HW110925   6.480   0.914   2.565
 3342SOL    HW210926   6.412   0.796   2.654
 3343SOL     OW10927   4.734   5.308   0.323
 3343SOL    HW110928   4.688   5.232   0.369
 3343SOL    HW210929   4.719   5.302   0.225
 3344SOL     OW10930   0.690   3.238   2.274
 3344SOL    HW110931   0.652   3.293   2.348
 3344SOL    HW210932   0.788   3.256   2.265
 3345SOL     OW10933   5.657   5.541   6.697
 3345SOL    HW110934   5.672   5.490   6.782
 3345SOL    HW210935   5.737   5.597   6.677
 3346SOL     OW10936   1.795   1.194   0.151
 3346SOL    HW110937   1.751   1.204   0.062
 3346SOL    HW210938   1.789   1.281   0.201
 3347SOL     OW10939   0.464   3.926   5.656
 3347SOL    HW110940   0.429   3.952   5.566
 3347SOL    HW210941   0.408   3.969   5.727
 3348SOL     OW10942   3.081   4.208   5.821
 3348SOL    HW110943   3.079   4.121   5.771
 3348SOL    HW210944   3.054   4.282   5.759
 3349SOL     OW10945   1.657   5.681   3.435
 3349SOL    HW110946   1.652   5.602   3.497
 3349SOL    HW210947   1.740   5.733   3.453
 3350SOL     OW10948   2.168   4.913   4.376
 3350SOL    HW110949   2.099   4.855   4.419
 3350SOL    HW210950   2.204   4.977   4.444
 3351SOL     OW10951   5.299   1.235   1.462
 3351SOL    HW110952   5.380   1.240   1.404
 3351SOL    HW210953   5.315   1.287   1.546
 3352SOL     OW10954   5.888   1.378   0.227
 3352SOL    HW110955   5.879   1.346   0.133
 3352SOL    HW210956   5.920   1.303   0.285
 3353SOL     OW10957   3.888   0.466   0.733
 3353SOL    HW110958   3.909   0.551   0.782
 3353SOL    HW210959   3.801   0.429   0.766
 3354SOL     OW10960   3.304   4.064   5.964
 3354SOL    HW110961   3.254   4.109   5.889
 3354SOL    HW210962   3.296   3.965   5.955
 3355SOL     OW10963   1.598   0.167   5.237
 3355SOL    HW110964   1.567   0.147   5.144
 3355SOL    HW210965   1.591   0.085   5.293
 3356SOL     OW10966   1.894   0.765   6.101
 3356SOL    HW110967   1.886   0.666   6.117
 3356SOL    HW210968   1.976   0.784   6.048
 3357SOL     OW10969   3.534   2.880   2.348
 3357SOL    HW110970   3.522   2.906   2.252
 3357SOL    HW210971   3.467   2.809   2.372
 3358SOL     OW10972   6.979   1.212   1.638
 3358SOL    HW110973   6.992   1.113   1.649
 3358SOL    HW210974   6.992   1.237   1.542
 3359SOL     OW10975   0.590   0.042   4.892
 3359SOL    HW110976   0.497   0.066   4.864
 3359SOL    HW210977   0.613   6.971   4.858
 3360SOL     OW10978   1.859   4.241   4.382
 3360SOL    HW110979   1.951   4.204   4.375
 3360SOL    HW210980   1.830   4.276   4.293
 3361SOL     OW10981   6.329   6.957   5.106
 3361SOL    HW110982   6.337   6.968   5.007
 3361SOL    HW210983   6.387   6.881   5.136
 3362SOL     OW10984   3.596   0.460   4.198
 3362SOL    HW110985   3.542   0.396   4.144
 3362SOL    HW210986   3.539   0.539   4.223
 3363SOL     OW10987   5.707   3.807   0.360
 3363SOL    HW110988   5.611   3.834   0.352
 3363SOL    HW210989   5.747   3.848   0.442
 3364SOL     OW10990   1.755   3.603   3.376
 3364SOL    HW110991   1.788   3.516   3.340
 3364SOL    HW210992   1.701   3.649   3.306
 3365SOL     OW10993   1.375   3.670   3.171
 3365SOL    HW110994   1.464   3.711   3.152
 3365SOL    HW210995   1.373   3.577   3.134
 3366SOL     OW10996   5.565   3.484   4.902
 3366SOL    HW110997   5.552   3.536   4.818
 3366SOL    HW210998   5.650   3.511   4.946
 3367SOL     OW10999   3.066   3.937   3.678
 3367SOL    HW111000   2.966   3.933   3.690
 3367SOL    HW211001   3.100   3.847   3.650
 3368SOL     OW11002   2.091   0.546   2.314
 3368SOL    HW111003   2.161   0.608   2.279
 3368SOL    HW211004   2.036   0.594   2.382
 3369SOL     OW11005   5.262   2.057   1.021
 3369SOL    HW111006   5.235   1.990   1.089
 3369SOL    HW211007   5.184   2.078   0.962
 3370SOL     OW11008   0.492   5.568   2.784
 3370SOL    HW111009   0.522   5.574   2.689
 3370SOL    HW211010   0.572   5.562   2.844
 3371SOL     OW11011   2.282   2.524   2.035
 3371SOL    HW111012   2.289   2.449   1.969
 3371SOL    HW211013   2.374   2.548   2.068
 3372SOL     OW11014   6.593   4.026   2.921
 3372SOL    HW111015   6.531   3.983   2.855
 3372SOL    HW211016   6.615   4.119   2.891
 3373SOL     OW11017   0.115   3.252   1.941
 3373SOL    HW111018   0.143   3.171   1.992
 3373SOL    HW211019   0.107   3.229   1.844
 3374SOL     OW11020   0.341   6.717   3.942
 3374SOL    HW111021   0.405   6.786   3.977
 3374SOL    HW211022   0.392   6.633   3.921
 3375SOL     OW11023   0.211   5.722   5.855
 3375SOL    HW111024   0.228   5.624   5.870
 3375SOL    HW211025   0.120   5.746   5.889
 3376SOL     OW11026   3.309   2.945   4.431
 3376SOL    HW111027   3.269   2.943   4.523
 3376SOL    HW211028   3.237   2.956   4.363
 3377SOL     OW11029   6.766   5.036   3.757
 3377SOL    HW111030   6.699   4.964   3.772
 3377SOL    HW211031   6.745   5.114   3.817
 3378SOL     OW11032   1.204   6.789   0.375
 3378SOL    HW111033   1.162   6.754   0.291
 3378SOL    HW211034   1.266   6.720   0.412
 3379SOL     OW11035   6.593   4.205   3.540
 3379SOL    HW111036   6.657   4.178   3.469
 3379SOL    HW211037   6.574   4.303   3.533
 3380SOL     OW11038   2.709   4.607   0.379
 3380SOL    HW111039   2.622   4.654   0.385
 3380SOL    HW211040   2.696   4.509   0.392
 3381SOL     OW11041   2.309   3.653   5.958
 3381SOL    HW111042   2.300   3.659   5.859
 3381SOL    HW211043   2.304   3.745   5.998
 3382SOL     OW11044   6.738   3.593   0.448
 3382SOL    HW111045   6.765   3.661   0.516
 3382SOL    HW211046   6.719   3.638   0.361
 3383SOL     OW11047   4.129   4.874   0.139
 3383SOL    HW111048   4.172   4.951   0.091
 3383SOL    HW211049   4.169   4.788   0.107
 3384SOL     OW11050   2.745   3.493   6.706
 3384SOL    HW111051   2.808   3.477   6.630
 3384SOL    HW211052   2.697   3.409   6.729
 3385SOL     OW11053   6.776   2.400   3.983
 3385SOL    HW111054   6.798   2.388   3.887
 3385SOL    HW211055   6.838   2.345   4.039
 3386SOL     OW11056   0.118   5.279   4.986
 3386SOL    HW111057   0.128   5.274   4.886
 3386SOL    HW211058   0.199   5.241   5.030
 3387SOL     OW11059   6.083   1.271   3.309
 3387SOL    HW111060   5.999   1.220   3.288
 3387SOL    HW211061   6.099   1.340   3.238
 3388SOL     OW11062   6.634   3.731   0.997
 3388SOL    HW111063   6.663   3.755   1.090
 3388SOL    HW211064   6.545   3.686   1.000
 3389SOL     OW11065   5.352   5.782   6.521
 3389SOL    HW111066   5.448   5.773   6.494
 3389SOL    HW211067   5.336   5.727   6.604
 3390SOL     OW11068   2.965   5.740   6.539
 3390SOL    HW111069   3.049   5.791   6.559
 3390SOL    HW211070   2.986   5.643   6.529
 3391SOL     OW11071   5.817   4.152   4.070
 3391SOL    HW111072   5.753   4.111   4.134
 3391SOL    HW211073   5.827   4.092   3.991
 3392SOL     OW11074   4.949   0.050   6.043
 3392SOL    HW111075   5.046   0.041   6.067
 3392SOL    HW211076   4.894   0.055   6.126
 3393SOL     OW11077   4.040   6.227   0.569
 3393SOL    HW111078   4.103   6.160   0.531
 3393SOL    HW211079   4.092   6.296   0.620
 3394SOL     OW11080   2.535   5.365   1.756
 3394SOL    HW111081   2.517   5.277   1.710
 3394SOL    HW211082   2.568   5.431   1.689
 3395SOL     OW11083   2.413   6.942   3.426
 3395SOL    HW111084   2.382   6.879   3.498
 3395SOL    HW211085   2.466   6.891   3.359
 3396SOL     OW11086   4.548   0.441   4.288
 3396SOL    HW111087   4.597   0.466   4.371
 3396SOL    HW211088   4.602   0.465   4.208
 3397SOL     OW11089   2.377   5.550   6.580
 3397SOL    HW111090   2.425   5.572   6.496
 3397SOL    HW211091   2.288   5.509   6.558
 3398SOL     OW11092   6.125   2.129   4.916
 3398SOL    HW111093   6.150   2.136   5.012
 3398SOL    HW211094   6.207   2.130   4.859
 3399SOL     OW11095   6.520   6.499   1.986
 3399SOL    HW111096   6.462   6.439   2.042
 3399SOL    HW211097   6.550   6.577   2.040
 3400SOL     OW11098   4.306   2.798   5.892
 3400SOL    HW111099   4.345   2.759   5.808
 3400SOL    HW211100   4.309   2.730   5.965
 3401SOL     OW11101   6.510   3.877   5.409
 3401SOL    HW111102   6.500   3.943   5.335
 3401SOL    HW211103   6.495   3.785   5.374
 3402SOL     OW11104   6.675   3.562   0.797
 3402SOL    HW111105   6.588   3.557   0.747
 3402SOL    HW211106   6.701   3.658   0.809
 3403SOL     OW11107   5.281   6.976   6.755
 3403SOL    HW111108   5.239   6.966   6.664
 3403SOL    HW211109   5.326   6.891   6.780
 3404SOL     OW11110   5.134   4.042   4.728
 3404SOL    HW111111   5.163   4.127   4.773
 3404SOL    HW211112   5.177   3.964   4.773
 3405SOL     OW11113   4.728   5.986   0.221
 3405SOL    HW111114   4.670   5.998   0.141
 3405SOL    HW211115   4.808   5.931   0.197
 3406SOL     OW11116   2.831   5.668   1.659
 3406SOL    HW111117   2.828   5.755   1.708
 3406SOL    HW211118   2.744   5.620   1.673
 3407SOL     OW11119   1.042   4.359   6.584
 3407SOL    HW111120   0.945   4.348   6.608
 3407SOL    HW211121   1.080   4.438   6.632
 3408SOL     OW11122   5.159   0.454   3.788
 3408SOL    HW111123   5.214   0.370   3.784
 3408SOL    HW211124   5.207   0.528   3.742
 3409SOL     OW11125   4.204   0.865   0.782
 3409SOL    HW111126   4.287   0.910   0.817
 3409SOL    HW211127   4.161   0.923   0.713
 3410SOL     OW11128   6.136   0.436   3.243
 3410SOL    HW111129   6.228   0.468   3.221
 3410SOL    HW211130   6.072   0.468   3.172
 3411SOL     OW11131   6.635   3.057   5.636
 3411SOL    HW111132   6.722   3.106   5.637
 3411SOL    HW211133   6.601   3.048   5.729
 3412SOL     OW11134   5.805   3.384   2.079
 3412SOL    HW111135   5.764   3.469   2.111
 3412SOL    HW211136   5.760   3.306   2.124
 3413SOL     OW11137   6.841   1.332   0.461
 3413SOL    HW111138   6.894   1.258   0.502
 3413SOL    HW211139   6.887   1.366   0.379
 3414SOL     OW11140   3.280   3.380   1.258
 3414SOL    HW111141   3.368   3.342   1.231
 3414SOL    HW211142   3.294   3.452   1.327
 3415SOL     OW11143   2.194   1.445   5.616
 3415SOL    HW111144   2.249   1.523   5.644
 3415SOL    HW211145   2.204   1.371   5.684
 3416SOL     OW11146   6.960   0.008   6.542
 3416SOL    HW111147   6.955   0.078   6.613
 3416SOL    HW211148   6.917   0.042   6.458
 3417SOL     OW11149   6.003   6.572   3.220
 3417SOL    HW111150   6.086   6.607   3.175
 3417SOL    HW211151   6.009   6.589   3.318
 3418SOL     OW11152   4.016   5.018   0.686
 3418SOL    HW111153   4.036   4.928   0.646
 3418SOL    HW211154   3.960   5.006   0.768
 3419SOL     OW11155   2.764   5.443   5.434
 3419SOL    HW111156   2.754   5.355   5.386
 3419SOL    HW211157   2.854   5.447   5.477
 3420SOL     OW11158   4.780   1.681   2.172
 3420SOL    HW111159   4.822   1.765   2.205
 3420SOL    HW211160   4.737   1.697   2.083
 3421SOL     OW11161   0.189   2.180   5.021
 3421SOL    HW111162   0.251   2.147   4.950
 3421SOL    HW211163   0.231   2.257   5.069
 3422SOL     OW11164   2.124   6.001   0.816
 3422SOL    HW111165   2.039   6.002   0.763
 3422SOL    HW211166   2.200   5.976   0.757
 3423SOL     OW11167   1.928   4.801   5.549
 3423SOL    HW111168   1.977   4.715   5.562
 3423SOL    HW211169   1.973   4.874   5.600
 3424SOL     OW11170   5.345   1.494   1.946
 3424SOL    HW111171   5.330   1.488   1.848
 3424SOL    HW211172   5.285   1.564   1.985
 3425SOL     OW11173   6.574   3.370   6.338
 3425SOL    HW111174   6.673   3.362   6.353
 3425SOL    HW211175   6.558   3.413   6.249
 3426SOL     OW11176   6.767   3.319   6.702
 3426SOL    HW111177   6.692   3.371   6.661
 3426SOL    HW211178   6.756   3.316   6.801
 3427SOL     OW11179   1.215   2.116   0.420
 3427SOL    HW111180   1.140   2.056   0.392
 3427SOL    HW211181   1.273   2.069   0.486
 3428SOL     OW11182   4.436   6.536   4.701
 3428SOL    HW111183   4.422   6.448   4.656
 3428SOL    HW211184   4.425   6.524   4.800
 3429SOL     OW11185   4.568   6.546   1.233
 3429SOL    HW111186   4.644   6.606   1.210
 3429SOL    HW211187   4.569   6.466   1.174
 3430SOL     OW11188   2.824   4.148   5.952
 3430SOL    HW111189   2.769   4.230   5.941
 3430SOL    HW211190   2.914   4.162   5.910
 3431SOL     OW11191   0.325   4.986   2.455
 3431SOL    HW111192   0.398   4.918   2.461
 3431SOL    HW211193   0.249   4.958   2.514
 3432SOL     OW11194   0.317   4.436   0.204
 3432SOL    HW111195   0.339   4.341   0.185
 3432SOL    HW211196   0.282   4.480   0.122
 3433SOL     OW11197   2.404   1.108   6.670
 3433SOL    HW111198   2.497   1.073   6.680
 3433SOL    HW211199   2.407   1.201   6.633
 3434SOL     OW11200   3.654   2.553   1.759
 3434SOL    HW111201   3.606   2.581   1.842
 3434SOL    HW211202   3.656   2.453   1.754
 3435SOL     OW11203   1.303   1.633   1.369
 3435SOL    HW111204   1.391   1.644   1.414
 3435SOL    HW211205   1.232   1.619   1.438
 3436SOL     OW11206   3.414   6.862   6.360
 3436SOL    HW111207   3.490   6.903   6.411
 3436SOL    HW211208   3.345   6.932   6.343
 3437SOL     OW11209   1.492   0.059   6.698
 3437SOL    HW111210   1.508   0.086   6.603
 3437SOL    HW211211   1.480   6.980   6.704
 3438SOL     OW11212   2.267   3.837   0.946
 3438SOL    HW111213   2.223   3.906   0.888
 3438SOL    HW211214   2.363   3.828   0.919
 3439SOL     OW11215   2.584   5.556   1.564
 3439SOL    HW111216   2.505   5.596   1.517
 3439SOL    HW211217   2.636   5.499   1.500
 3440SOL     OW11218   3.676   3.704   5.302
 3440SOL    HW111219   3.579   3.683   5.310
 3440SOL    HW211220   3.691   3.801   5.323
 3441SOL     OW11221   5.837   4.718   5.831
 3441SOL    HW111222   5.808   4.728   5.926
 3441SOL    HW211223   5.928   4.676   5.829
 3442SOL     OW11224   2.346   3.320   1.083
 3442SOL    HW111225   2.256   3.305   1.125
 3442SOL    HW211226   2.346   3.283   0.990
 3443SOL     OW11227   0.084   6.171   2.371
 3443SOL    HW111228   0.157   6.124   2.421
 3443SOL    HW211229   0.043   6.109   2.305
 3444SOL     OW11230   6.701   3.915   5.619
 3444SOL    HW111231   6.791   3.876   5.598
 3444SOL    HW211232   6.644   3.913   5.537
 3445SOL     OW11233   6.457   4.931   4.049
 3445SOL    HW111234   6.396   5.010   4.047
 3445SOL    HW211235   6.530   4.947   4.115
 3446SOL     OW11236   4.385   1.064   1.720
 3446SOL    HW111237   4.397   1.023   1.629
 3446SOL    HW211238   4.333   1.002   1.778
 3447SOL     OW11239   5.399   0.772   6.239
 3447SOL    HW111240   5.417   0.693   6.180
 3447SOL    HW211241   5.302   0.774   6.264
 3448SOL     OW11242   1.667   4.322   5.402
 3448SOL    HW111243   1.630   4.286   5.316
 3448SOL    HW211244   1.699   4.416   5.387
 3449SOL     OW11245   0.791   4.564   5.382
 3449SOL    HW111246   0.783   4.541   5.479
 3449SOL    HW211247   0.881   4.537   5.348
 3450SOL     OW11248   2.389   6.825   1.478
 3450SOL    HW111249   2.302   6.778   1.494
 3450SOL    HW211250   2.372   6.919   1.450
 3451SOL     OW11251   1.475   1.944   1.483
 3451SOL    HW111252   1.437   1.931   1.392
 3451SOL    HW211253   1.570   1.975   1.477
 3452SOL     OW11254   4.736   1.046   5.060
 3452SOL    HW111255   4.726   0.953   5.024
 3452SOL    HW211256   4.718   1.112   4.987
 3453SOL     OW11257   4.185   6.290   6.859
 3453SOL    HW111258   4.229   6.326   6.941
 3453SOL    HW211259   4.100   6.339   6.842
 3454SOL     OW11260   0.229   3.013   1.716
 3454SOL    HW111261   0.310   3.034   1.661
 3454SOL    HW211262   0.154   3.074   1.691
 3455SOL     OW11263   0.501   3.520   6.043
 3455SOL    HW111264   0.491   3.436   6.097
 3455SOL    HW211265   0.425   3.526   5.978
 3456SOL     OW11266   4.893   5.368   3.633
 3456SOL    HW111267   4.958   5.294   3.651
 3456SOL    HW211268   4.934   5.432   3.568
 3457SOL     OW11269   3.659   4.314   6.225
 3457SOL    HW111270   3.612   4.264   6.298
 3457SOL    HW211271   3.614   4.294   6.138
 3458SOL     OW11272   4.669   1.390   2.502
 3458SOL    HW111273   4.625   1.311   2.545
 3458SOL    HW211274   4.642   1.473   2.550
 3459SOL     OW11275   5.606   5.844   2.440
 3459SOL    HW111276   5.601   5.850   2.340
 3459SOL    HW211277   5.688   5.890   2.472
 3460SOL     OW11278   3.527   1.999   4.559
 3460SOL    HW111279   3.595   1.934   4.594
 3460SOL    HW211280   3.461   2.020   4.631
 3461SOL     OW11281   5.651   5.012   4.953
 3461SOL    HW111282   5.725   5.072   4.983
 3461SOL    HW211283   5.577   5.067   4.913
 3462SOL     OW11284   1.309   3.757   6.613
 3462SOL    HW111285   1.223   3.802   6.587
 3462SOL    HW211286   1.336   3.693   6.541
 3463SOL     OW11287   5.628   4.159   0.130
 3463SOL    HW111288   5.616   4.132   0.225
 3463SOL    HW211289   5.539   4.168   0.086
 3464SOL     OW11290   0.246   4.473   4.621
 3464SOL    HW111291   0.209   4.553   4.668
 3464SOL    HW211292   0.309   4.424   4.681
 3465SOL     OW11293   0.907   1.752   2.637
 3465SOL    HW111294   0.857   1.701   2.568
 3465SOL    HW211295   0.866   1.736   2.727
 3466SOL     OW11296   0.136   3.335   4.855
 3466SOL    HW111297   0.196   3.332   4.775
 3466SOL    HW211298   0.116   3.242   4.886
 3467SOL     OW11299   1.858   2.484   5.987
 3467SOL    HW111300   1.941   2.438   6.018
 3467SOL    HW211301   1.784   2.465   6.052
 3468SOL     OW11302   3.979   6.232   2.438
 3468SOL    HW111303   4.047   6.286   2.487
 3468SOL    HW211304   3.920   6.185   2.505
 3469SOL     OW11305   5.456   3.385   1.220
 3469SOL    HW111306   5.406   3.466   1.190
 3469SOL    HW211307   5.392   3.320   1.263
 3470SOL     OW11308   0.416   5.480   0.557
 3470SOL    HW111309   0.317   5.496   0.564
 3470SOL    HW211310   0.453   5.530   0.478
 3471SOL     OW11311   4.496   0.345   4.833
 3471SOL    HW111312   4.573   0.308   4.780
 3471SOL    HW211313   4.451   0.271   4.883
 3472SOL     OW11314   4.400   1.151   5.008
 3472SOL    HW111315   4.435   1.058   5.024
 3472SOL    HW211316   4.463   1.201   4.948
 3473SOL     OW11317   4.637   6.544   4.220
 3473SOL    HW111318   4.549   6.591   4.230
 3473SOL    HW211319   4.623   6.445   4.224
 3474SOL     OW11320   5.510   4.272   1.023
 3474SOL    HW111321   5.440   4.343   1.020
 3474SOL    HW211322   5.553   4.272   1.113
 3475SOL     OW11323   1.697   6.408   4.960
 3475SOL    HW111324   1.711   6.430   5.057
 3475SOL    HW211325   1.782   6.422   4.910
 3476SOL     OW11326   4.854   1.373   4.761
 3476SOL    HW111327   4.799   1.452   4.788
 3476SOL    HW211328   4.796   1.291   4.762
 3477SOL     OW11329   4.412   5.526   1.721
 3477SOL    HW111330   4.501   5.481   1.717
 3477SOL    HW211331   4.419   5.616   1.677
 3478SOL     OW11332   4.164   4.958   6.725
 3478SOL    HW111333   4.257   4.923   6.732
 3478SOL    HW211334   4.143   4.978   6.629
 3479SOL     OW11335   1.463   0.394   1.795
 3479SOL    HW111336   1.432   0.485   1.768
 3479SOL    HW211337   1.442   0.379   1.891
 3480SOL     OW11338   1.195   0.454   4.124
 3480SOL    HW111339   1.154   0.543   4.139
 3480SOL    HW211340   1.291   0.457   4.153
 3481SOL     OW11341   2.499   6.714   6.592
 3481SOL    HW111342   2.562   6.755   6.659
 3481SOL    HW211343   2.507   6.614   6.597
 3482SOL     OW11344   0.770   1.956   1.492
 3482SOL    HW111345   0.680   1.938   1.531
 3482SOL    HW211346   0.776   2.051   1.463
 3483SOL     OW11347   4.412   1.617   0.828
 3483SOL    HW111348   4.500   1.651   0.860
 3483SOL    HW211349   4.343   1.689   0.834
 3484SOL     OW11350   3.128   3.032   4.170
 3484SOL    HW111351   3.068   3.104   4.135
 3484SOL    HW211352   3.195   3.007   4.099
 3485SOL     OW11353   6.922   1.851   4.739
 3485SOL    HW111354   6.943   1.901   4.654
 3485SOL    HW211355   6.948   1.755   4.728
 3486SOL     OW11356   4.819   1.214   3.416
 3486SOL    HW111357   4.806   1.118   3.392
 3486SOL    HW211358   4.914   1.228   3.445
 3487SOL     OW11359   0.637   0.716   0.194
 3487SOL    HW111360   0.663   0.646   0.128
 3487SOL    HW211361   0.663   0.686   0.286
 3488SOL     OW11362   5.981   3.658   3.999
 3488SOL    HW111363   6.019   3.589   3.937
 3488SOL    HW211364   5.881   3.654   3.997
 3489SOL     OW11365   2.208   6.458   0.187
 3489SOL    HW111366   2.201   6.397   0.266
 3489SOL    HW211367   2.128   6.518   0.185
 3490SOL     OW11368   4.625   2.616   1.266
 3490SOL    HW111369   4.580   2.527   1.264
 3490SOL    HW211370   4.556   2.689   1.268
 3491SOL     OW11371   0.334   2.849   5.229
 3491SOL    HW111372   0.316   2.756   5.195
 3491SOL    HW211373   0.348   2.846   5.328
 3492SOL     OW11374   5.048   5.151   6.352
 3492SOL    HW111375   5.026   5.227   6.413
 3492SOL    HW211376   4.968   5.091   6.344
 3493SOL     OW11377   0.430   4.750   1.090
 3493SOL    HW111378   0.333   4.770   1.085
 3493SOL    HW211379   0.463   4.716   1.002
 3494SOL     OW11380   3.178   6.258   1.068
 3494SOL    HW111381   3.274   6.256   1.096
 3494SOL    HW211382   3.171   6.290   0.974
 3495SOL     OW11383   5.431   4.275   0.620
 3495SOL    HW111384   5.411   4.218   0.699
 3495SOL    HW211385   5.346   4.296   0.572
 3496SOL     OW11386   0.551   4.679   0.491
 3496SOL    HW111387   0.451   4.672   0.483
 3496SOL    HW211388   0.593   4.654   0.404
 3497SOL     OW11389   4.497   6.485   3.932
 3497SOL    HW111390   4.459   6.536   4.009
 3497SOL    HW211391   4.468   6.390   3.938
 3498SOL     OW11392   1.334   1.938   1.212
 3498SOL    HW111393   1.328   2.035   1.191
 3498SOL    HW211394   1.243   1.898   1.217
 3499SOL     OW11395   6.502   3.567   3.946
 3499SOL    HW111396   6.479   3.507   4.023
 3499SOL    HW211397   6.422   3.623   3.923
 3500SOL     OW11398   6.712   3.135   0.661
 3500SOL    HW111399   6.619   3.162   0.639
 3500SOL    HW211400   6.713   3.084   0.747
 3501SOL     OW11401   0.950   4.616   3.732
 3501SOL    HW111402   0.880   4.563   3.779
 3501SOL    HW211403   0.914   4.707   3.710
 3502SOL     OW11404   1.007   4.136   1.452
 3502SOL    HW111405   1.042   4.044   1.434
 3502SOL    HW211406   1.045   4.170   1.538
 3503SOL     OW11407   3.616   6.631   3.822
 3503SOL    HW111408   3.602   6.690   3.901
 3503SOL    HW211409   3.709   6.596   3.822
 3504SOL     OW11410   2.146   3.100   2.574
 3504SOL    HW111411   2.148   3.137   2.667
 3504SOL    HW211412   2.180   3.006   2.575
 3505SOL     OW11413   4.173   6.246   4.975
 3505SOL    HW111414   4.083   6.288   4.969
 3505SOL    HW211415   4.204   6.247   5.070
 3506SOL     OW11416   5.594   4.678   2.344
 3506SOL    HW111417   5.535   4.719   2.413
 3506SOL    HW211418   5.685   4.717   2.350
 3507SOL     OW11419   0.269   0.498   6.484
 3507SOL    HW111420   0.176   0.480   6.517
 3507SOL    HW211421   0.264   0.533   6.390
 3508SOL     OW11422   5.853   3.741   0.116
 3508SOL    HW111423   5.831   3.802   0.039
 3508SOL    HW211424   5.794   3.764   0.194
 3509SOL     OW11425   6.596   0.485   0.824
 3509SOL    HW111426   6.628   0.403   0.872
 3509SOL    HW211427   6.648   0.565   0.855
 3510SOL     OW11428   2.122   2.535   2.549
 3510SOL    HW111429   2.033   2.549   2.593
 3510SOL    HW211430   2.108   2.491   2.460
 3511SOL     OW11431   0.874   0.631   5.226
 3511SOL    HW111432   0.777   0.647   5.243
 3511SOL    HW211433   0.923   0.627   5.313
 3512SOL     OW11434   2.924   2.908   0.785
 3512SOL    HW111435   2.852   2.884   0.851
 3512SOL    HW211436   3.012   2.874   0.819
 3513SOL     OW11437   5.773   4.263   1.167
 3513SOL    HW111438   5.786   4.280   1.070
 3513SOL    HW211439   5.720   4.338   1.207
 3514SOL     OW11440   1.559   6.429   1.778
 3514SOL    HW111441   1.496   6.359   1.746
 3514SOL    HW211442   1.600   6.401   1.864
 3515SOL     OW11443   3.840   5.986   3.132
 3515SOL    HW111444   3.858   6.059   3.065
 3515SOL    HW211445   3.829   6.027   3.223
 3516SOL     OW11446   2.714   1.046   0.614
 3516SOL    HW111447   2.675   1.138   0.608
 3516SOL    HW211448   2.812   1.052   0.632
 3517SOL     OW11449   0.833   0.369   6.353
 3517SOL    HW111450   0.834   0.396   6.256
 3517SOL    HW211451   0.749   0.319   6.372
 3518SOL     OW11452   4.972   3.261   5.676
 3518SOL    HW111453   4.886   3.239   5.721
 3518SOL    HW211454   5.045   3.206   5.715
 3519SOL     OW11455   3.019   6.324   0.320
 3519SOL    HW111456   2.943   6.277   0.364
 3519SOL    HW211457   2.987   6.412   0.284
 3520SOL     OW11458   3.877   5.253   1.126
 3520SOL    HW111459   3.811   5.253   1.201
 3520SOL    HW211460   3.917   5.345   1.116
 3521SOL     OW11461   5.770   1.882   6.360
 3521SOL    HW111462   5.762   1.812   6.431
 3521SOL    HW211463   5.827   1.957   6.394
 3522SOL     OW11464   2.963   6.015   1.623
 3522SOL    HW111465   2.915   5.968   1.697
 3522SOL    HW211466   2.969   6.112   1.644
 3523SOL     OW11467   2.098   5.061   5.217
 3523SOL    HW111468   2.039   4.984   5.238
 3523SOL    HW211469   2.121   5.060   5.119
 3524SOL     OW11470   2.319   0.172   1.641
 3524SOL    HW111471   2.336   0.253   1.585
 3524SOL    HW211472   2.230   0.134   1.617
 3525SOL     OW11473   1.810   3.613   2.780
 3525SOL    HW111474   1.749   3.636   2.704
 3525SOL    HW211475   1.886   3.557   2.746
 3526SOL     OW11476   3.483   0.437   3.209
 3526SOL    HW111477   3.505   0.526   3.249
 3526SOL    HW211478   3.527   0.364   3.261
 3527SOL     OW11479   5.711   3.092   5.579
 3527SOL    HW111480   5.699   2.996   5.556
 3527SOL    HW211481   5.725   3.102   5.677
 3528SOL     OW11482   1.119   0.042   4.058
 3528SOL    HW111483   1.080   0.036   4.150
 3528SOL    HW211484   1.204   0.095   4.061
 3529SOL     OW11485   3.466   6.132   6.952
 3529SOL    HW111486   3.466   6.228   6.982
 3529SOL    HW211487   3.455   6.128   6.853
 3530SOL     OW11488   1.392   5.928   3.044
 3530SOL    HW111489   1.341   5.913   2.959
 3530SOL    HW211490   1.429   5.841   3.076
 3531SOL     OW11491   4.983   4.406   6.609
 3531SOL    HW111492   5.078   4.437   6.613
 3531SOL    HW211493   4.939   4.445   6.528
 3532SOL     OW11494   1.988   6.621   0.122
 3532SOL    HW111495   2.010   6.718   0.137
 3532SOL    HW211496   1.968   6.606   0.025
 3533SOL     OW11497   1.097   1.211   4.127
 3533SOL    HW111498   1.034   1.214   4.204
 3533SOL    HW211499   1.162   1.136   4.140
 3534SOL     OW11500   4.862   0.561   5.352
 3534SOL    HW111501   4.850   0.512   5.266
 3534SOL    HW211502   4.780   0.549   5.408
 3535SOL     OW11503   4.327   6.256   6.614
 3535SOL    HW111504   4.335   6.159   6.589
 3535SOL    HW211505   4.279   6.264   6.700
 3536SOL     OW11506   1.223   4.212   2.798
 3536SOL    HW111507   1.255   4.227   2.705
 3536SOL    HW211508   1.150   4.277   2.820
 3537SOL     OW11509   2.722   4.468   0.948
 3537SOL    HW111510   2.687   4.450   1.040
 3537SOL    HW211511   2.815   4.432   0.940
 3538SOL     OW11512   3.265   1.138   3.988
 3538SOL    HW111513   3.180   1.097   3.954
 3538SOL    HW211514   3.309   1.189   3.914
 3539SOL     OW11515   5.280   6.200   6.605
 3539SOL    HW111516   5.226   6.271   6.560
 3539SOL    HW211517   5.219   6.125   6.633
 3540SOL     OW11518   2.639   4.258   6.157
 3540SOL    HW111519   2.628   4.268   6.059
 3540SOL    HW211520   2.736   4.253   6.180
 3541SOL     OW11521   1.977   2.982   1.427
 3541SOL    HW111522   2.057   2.938   1.469
 3541SOL    HW211523   1.912   3.008   1.498
 3542SOL     OW11524   5.865   1.393   6.978
 3542SOL    HW111525   5.836   1.469   6.920
 3542SOL    HW211526   5.944   1.347   6.937
 3543SOL     OW11527   0.574   2.410   4.043
 3543SOL    HW111528   0.666   2.433   4.073
 3543SOL    HW211529   0.541   2.331   4.095
 3544SOL     OW11530   3.280   3.978   6.808
 3544SOL    HW111531   3.290   3.965   6.710
 3544SOL    HW211532   3.214   4.051   6.826
 3545SOL     OW11533   3.996   6.964   0.977
 3545SOL    HW111534   4.096   6.962   0.979
 3545SOL    HW211535   3.962   7.015   1.056
 3546SOL     OW11536   6.251   4.074   2.114
 3546SOL    HW111537   6.264   4.089   2.016
 3546SOL    HW211538   6.320   4.125   2.165
 3547SOL     OW11539   1.368   4.030   4.698
 3547SOL    HW111540   1.413   3.940   4.696
 3547SOL    HW211541   1.417   4.090   4.761
 3548SOL     OW11542   5.549   0.739   5.957
 3548SOL    HW111543   5.603   0.675   6.011
 3548SOL    HW211544   5.480   0.688   5.904
 3549SOL     OW11545   2.897   6.563   6.709
 3549SOL    HW111546   2.930   6.565   6.803
 3549SOL    HW211547   2.827   6.634   6.697
 3550SOL     OW11548   5.002   1.101   5.596
 3550SOL    HW111549   4.999   1.156   5.513
 3550SOL    HW211550   5.095   1.064   5.608
 3551SOL     OW11551   4.888   2.066   4.393
 3551SOL    HW111552   4.890   2.017   4.305
 3551SOL    HW211553   4.797   2.106   4.406
 3552SOL     OW11554   6.049   6.595   3.480
 3552SOL    HW111555   6.047   6.531   3.557
 3552SOL    HW211556   6.122   6.662   3.494
 3553SOL     OW11557   5.906   5.720   6.722
 3553SOL    HW111558   5.990   5.688   6.767
 3553SOL    HW211559   5.856   5.781   6.783
 3554SOL     OW11560   5.557   4.423   6.793
 3554SOL    HW111561   5.650   4.438   6.828
 3554SOL    HW211562   5.491   4.470   6.852
 3555SOL     OW11563   3.228   1.724   5.094
 3555SOL    HW111564   3.144   1.759   5.051
 3555SOL    HW211565   3.275   1.798   5.140
 3556SOL     OW11566   5.675   0.814   0.703
 3556SOL    HW111567   5.710   0.730   0.662
 3556SOL    HW211568   5.583   0.833   0.669
 3557SOL     OW11569   5.613   0.358   1.502
 3557SOL    HW111570   5.585   0.299   1.427
 3557SOL    HW211571   5.686   0.420   1.471
 3558SOL     OW11572   3.900   5.270   2.483
 3558SOL    HW111573   3.970   5.200   2.494
 3558SOL    HW211574   3.905   5.307   2.390
 3559SOL     OW11575   4.578   0.005   6.434
 3559SOL    HW111576   4.602   6.984   6.346
 3559SOL    HW211577   4.479   0.010   6.442
 3560SOL     OW11578   1.355   5.542   4.131
 3560SOL    HW111579   1.415   5.567   4.208
 3560SOL    HW211580   1.262   5.572   4.150
 3561SOL     OW11581   4.505   3.477   5.298
 3561SOL    HW111582   4.531   3.562   5.343
 3561SOL    HW211583   4.571   3.457   5.224
 3562SOL     OW11584   2.735   2.172   0.196
 3562SOL    HW111585   2.770   2.110   0.266
 3562SOL    HW211586   2.694   2.119   0.122
 3563SOL     OW11587   6.296   2.358   5.767
 3563SOL    HW111588   6.221   2.293   5.772
 3563SOL    HW211589   6.356   2.345   5.847
 3564SOL     OW11590   6.266   3.312   2.136
 3564SOL    HW111591   6.211   3.371   2.078
 3564SOL    HW211592   6.206   3.246   2.183
 3565SOL     OW11593   4.309   6.028   5.396
 3565SOL    HW111594   4.238   6.003   5.462
 3565SOL    HW211595   4.363   5.948   5.373
 3566SOL     OW11596   1.036   0.212   4.911
 3566SOL    HW111597   1.093   0.176   4.837
 3566SOL    HW211598   1.021   0.140   4.979
 3567SOL     OW11599   0.341   3.255   6.257
 3567SOL    HW111600   0.269   3.285   6.194
 3567SOL    HW211601   0.375   3.166   6.227
 3568SOL     OW11602   5.769   3.497   6.109
 3568SOL    HW111603   5.792   3.520   6.014
 3568SOL    HW211604   5.671   3.476   6.115
 3569SOL     OW11605   0.975   0.426   3.738
 3569SOL    HW111606   0.944   0.445   3.831
 3569SOL    HW211607   1.065   0.468   3.724
 3570SOL     OW11608   5.499   1.468   3.774
 3570SOL    HW111609   5.431   1.394   3.775
 3570SOL    HW211610   5.453   1.555   3.753
 3571SOL     OW11611   6.489   0.009   5.329
 3571SOL    HW111612   6.420   0.004   5.257
 3571SOL    HW211613   6.565   6.968   5.306
 3572SOL     OW11614   6.266   6.150   4.825
 3572SOL    HW111615   6.267   6.087   4.747
 3572SOL    HW211616   6.311   6.235   4.800
 3573SOL     OW11617   0.923   2.061   2.326
 3573SOL    HW111618   0.873   2.130   2.275
 3573SOL    HW211619   0.900   1.970   2.291
 3574SOL     OW11620   6.111   3.701   6.860
 3574SOL    HW111621   6.099   3.650   6.945
 3574SOL    HW211622   6.030   3.757   6.844
 3575SOL     OW11623   6.075   5.973   1.604
 3575SOL    HW111624   6.071   6.073   1.609
 3575SOL    HW211625   6.024   5.941   1.525
 3576SOL     OW11626   0.565   1.570   6.422
 3576SOL    HW111627   0.594   1.653   6.470
 3576SOL    HW211628   0.589   1.490   6.476
 3577SOL     OW11629   1.790   2.796   0.142
 3577SOL    HW111630   1.788   2.882   0.194
 3577SOL    HW211631   1.814   2.721   0.203
 3578SOL     OW11632   3.427   4.725   1.546
 3578SOL    HW111633   3.390   4.747   1.636
 3578SOL    HW211634   3.354   4.687   1.489
 3579SOL     OW11635   0.883   4.166   5.442
 3579SOL    HW111636   0.886   4.083   5.496
 3579SOL    HW211637   0.970   4.177   5.392
 3580SOL     OW11638   6.951   2.160   1.393
 3580SOL    HW111639   6.992   2.137   1.481
 3580SOL    HW211640   6.924   2.257   1.393
 3581SOL     OW11641   6.005   0.830   3.615
 3581SOL    HW111642   5.949   0.884   3.678
 3581SOL    HW211643   5.962   0.741   3.600
 3582SOL     OW11644   6.879   0.515   5.703
 3582SOL    HW111645   6.965   0.562   5.682
 3582SOL    HW211646   6.886   0.469   5.792
 3583SOL     OW11647   2.657   5.368   0.599
 3583SOL    HW111648   2.732   5.319   0.554
 3583SOL    HW211649   2.596   5.407   0.530
 3584SOL     OW11650   5.431   6.894   5.909
 3584SOL    HW111651   5.345   6.845   5.923
 3584SOL    HW211652   5.443   6.912   5.811
 3585SOL     OW11653   2.998   5.284   4.105
 3585SOL    HW111654   3.021   5.196   4.146
 3585SOL    HW211655   3.080   5.326   4.066
 3586SOL     OW11656   0.169   1.960   5.985
 3586SOL    HW111657   0.236   1.933   6.054
 3586SOL    HW211658   0.091   1.897   5.988
 3587SOL     OW11659   3.713   0.246   6.736
 3587SOL    HW111660   3.657   0.212   6.811
 3587SOL    HW211661   3.810   0.229   6.756
 3588SOL     OW11662   1.858   1.225   5.255
 3588SOL    HW111663   1.882   1.314   5.217
 3588SOL    HW211664   1.929   1.159   5.231
 3589SOL     OW11665   2.919   0.496   5.181
 3589SOL    HW111666   2.932   0.447   5.095
 3589SOL    HW211667   2.979   0.458   5.251
 3590SOL     OW11668   1.315   4.963   0.024
 3590SOL    HW111669   1.256   5.021   6.988
 3590SOL    HW211670   1.332   5.007   0.112
 3591SOL     OW11671   4.921   2.142   5.938
 3591SOL    HW111672   4.976   2.059   5.935
 3591SOL    HW211673   4.943   2.200   5.859
 3592SOL     OW11674   5.145   2.909   1.785
 3592SOL    HW111675   5.063   2.859   1.815
 3592SOL    HW211676   5.158   2.988   1.844
 3593SOL     OW11677   0.978   4.956   3.517
 3593SOL    HW111678   0.911   4.920   3.581
 3593SOL    HW211679   0.936   4.969   3.427
 3594SOL     OW11680   3.186   0.954   4.303
 3594SOL    HW111681   3.195   0.922   4.397
 3594SOL    HW211682   3.277   0.972   4.265
 3595SOL     OW11683   2.214   6.344   5.611
 3595SOL    HW111684   2.310   6.372   5.605
 3595SOL    HW211685   2.156   6.425   5.618
 3596SOL     OW11686   0.018   3.055   3.487
 3596SOL    HW111687   0.041   3.143   3.529
 3596SOL    HW211688   6.938   3.043   3.488
 3597SOL     OW11689   3.500   6.168   3.158
 3597SOL    HW111690   3.438   6.148   3.234
 3597SOL    HW211691   3.559   6.245   3.184
 3598SOL     OW11692   1.245   0.260   0.550
 3598SOL    HW111693   1.251   0.183   0.487
 3598SOL    HW211694   1.337   0.295   0.569
 3599SOL     OW11695   0.136   1.843   4.205
 3599SOL    HW111696   0.126   1.786   4.286
 3599SOL    HW211697   0.066   1.817   4.138
 3600SOL     OW11698   6.302   0.663   1.199
 3600SOL    HW111699   6.324   0.756   1.170
 3600SOL    HW211700   6.386   0.616   1.228
 3601SOL     OW11701   6.300   3.623   5.300
 3601SOL    HW111702   6.236   3.546   5.302
 3601SOL    HW211703   6.264   3.698   5.355
 3602SOL     OW11704   2.077   1.923   0.653
 3602SOL    HW111705   2.038   1.886   0.569
 3602SOL    HW211706   2.034   2.011   0.674
 3603SOL     OW11707   4.375   4.712   4.801
 3603SOL    HW111708   4.329   4.801   4.808
 3603SOL    HW211709   4.354   4.658   4.882
 3604SOL     OW11710   0.379   3.246   3.189
 3604SOL    HW111711   0.342   3.337   3.167
 3604SOL    HW211712   0.434   3.213   3.112
 3605SOL     OW11713   6.331   3.162   6.688
 3605SOL    HW111714   6.405   3.143   6.753
 3605SOL    HW211715   6.295   3.254   6.704
 3606SOL     OW11716   1.435   4.138   4.976
 3606SOL    HW111717   1.429   4.237   4.991
 3606SOL    HW211718   1.526   4.116   4.943
 3607SOL     OW11719   4.504   6.699   7.001
 3607SOL    HW111720   4.577   6.767   7.005
 3607SOL    HW211721   4.545   6.607   6.997
 3608SOL     OW11722   0.876   2.545   2.405
 3608SOL    HW111723   0.935   2.601   2.346
 3608SOL    HW211724   0.826   2.479   2.349
 3609SOL     OW11725   6.716   6.996   4.841
 3609SOL    HW111726   6.671   0.062   4.867
 3609SOL    HW211727   6.656   6.945   4.779
 3610SOL     OW11728   1.591   5.770   4.815
 3610SOL    HW111729   1.574   5.868   4.803
 3610SOL    HW211730   1.673   5.757   4.870
 3611SOL     OW11731   3.855   5.291   4.868
 3611SOL    HW111732   3.927   5.263   4.804
 3611SOL    HW211733   3.767   5.291   4.821
 3612SOL     OW11734   1.269   6.966   1.481
 3612SOL    HW111735   1.316   6.891   1.435
 3612SOL    HW211736   1.334   0.018   1.503
 3613SOL     OW11737   5.191   5.789   7.001
 3613SOL    HW111738   5.191   5.741   0.069
 3613SOL    HW211739   5.105   5.771   6.953
 3614SOL     OW11740   3.942   3.264   3.762
 3614SOL    HW111741   3.971   3.197   3.830
 3614SOL    HW211742   3.885   3.219   3.693
 3615SOL     OW11743   6.427   6.479   6.412
 3615SOL    HW111744   6.330   6.491   6.394
 3615SOL    HW211745   6.457   6.543   6.483
 3616SOL     OW11746   6.807   1.046   4.491
 3616SOL    HW111747   6.887   1.074   4.438
 3616SOL    HW211748   6.795   1.107   4.569
 3617SOL     OW11749   6.618   0.554   6.669
 3617SOL    HW111750   6.555   0.628   6.644
 3617SOL    HW211751   6.636   0.497   6.589
 3618SOL     OW11752   2.698   0.834   6.072
 3618SOL    HW111753   2.717   0.812   6.167
 3618SOL    HW211754   2.656   0.755   6.027
 3619SOL     OW11755   5.444   2.748   3.909
 3619SOL    HW111756   5.388   2.817   3.955
 3619SOL    HW211757   5.534   2.787   3.889
 3620SOL     OW11758   6.218   1.308   4.746
 3620SOL    HW111759   6.135   1.258   4.770
 3620SOL    HW211760   6.227   1.388   4.806
 3621SOL     OW11761   1.802   3.520   6.015
 3621SOL    HW111762   1.714   3.564   5.995
 3621SOL    HW211763   1.873   3.558   5.955
 3622SOL     OW11764   0.497   2.570   1.076
 3622SOL    HW111765   0.571   2.628   1.109
 3622SOL    HW211766   0.534   2.501   1.013
 3623SOL     OW11767   6.925   5.381   4.351
 3623SOL    HW111768   7.002   5.332   4.309
 3623SOL    HW211769   6.851   5.316   4.370
 3624SOL     OW11770   2.160   0.504   1.705
 3624SOL    HW111771   2.090   0.552   1.653
 3624SOL    HW211772   2.211   0.443   1.644
 3625SOL     OW11773   0.724   3.196   4.354
 3625SOL    HW111774   0.768   3.141   4.425
 3625SOL    HW211775   0.703   3.287   4.391
 3626SOL     OW11776   2.594   3.725   5.335
 3626SOL    HW111777   2.538   3.796   5.292
 3626SOL    HW211778   2.546   3.637   5.331
 3627SOL     OW11779   2.992   3.629   3.856
 3627SOL    HW111780   2.946   3.659   3.940
 3627SOL    HW211781   3.088   3.608   3.877
 3628SOL     OW11782   3.214   5.286   2.286
 3628SOL    HW111783   3.201   5.261   2.190
 3628SOL    HW211784   3.140   5.346   2.315
 3629SOL     OW11785   6.523   2.301   5.338
 3629SOL    HW111786   6.520   2.215   5.390
 3629SOL    HW211787   6.586   2.365   5.383
 3630SOL     OW11788   6.105   1.959   4.279
 3630SOL    HW111789   6.081   2.049   4.315
 3630SOL    HW211790   6.098   1.891   4.353
 3631SOL     OW11791   2.175   1.193   4.384
 3631SOL    HW111792   2.189   1.095   4.379
 3631SOL    HW211793   2.120   1.215   4.465
 3632SOL     OW11794   4.435   0.412   6.602
 3632SOL    HW111795   4.486   0.497   6.616
 3632SOL    HW211796   4.457   0.374   6.512
 3633SOL     OW11797   2.354   2.996   6.076
 3633SOL    HW111798   2.368   3.091   6.047
 3633SOL    HW211799   2.426   2.970   6.140
 3634SOL     OW11800   2.036   5.873   5.222
 3634SOL    HW111801   2.056   5.777   5.200
 3634SOL    HW211802   1.958   5.877   5.285
 3635SOL     OW11803   2.364   1.518   5.137
 3635SOL    HW111804   2.275   1.522   5.090
 3635SOL    HW211805   2.435   1.557   5.078
 3636SOL     OW11806   0.950   5.873   6.057
 3636SOL    HW111807   0.894   5.791   6.069
 3636SOL    HW211808   0.893   5.948   6.024
 3637SOL     OW11809   5.602   1.552   2.090
 3637SOL    HW111810   5.522   1.503   2.057
 3637SOL    HW211811   5.679   1.488   2.098
 3638SOL     OW11812   6.672   5.018   4.189
 3638SOL    HW111813   6.709   5.067   4.110
 3638SOL    HW211814   6.699   5.065   4.273
 3639SOL     OW11815   2.043   5.177   6.983
 3639SOL    HW111816   2.062   5.197   0.059
 3639SOL    HW211817   2.113   5.220   6.926
 3640SOL     OW11818   3.504   6.165   0.830
 3640SOL    HW111819   3.531   6.076   0.792
 3640SOL    HW211820   3.405   6.165   0.847
 3641SOL     OW11821   2.503   0.742   5.305
 3641SOL    HW111822   2.520   0.725   5.402
 3641SOL    HW211823   2.492   0.840   5.289
 3642SOL     OW11824   5.882   0.017   3.749
 3642SOL    HW111825   5.839   6.973   3.813
 3642SOL    HW211826   5.893   6.993   3.660
 3643SOL     OW11827   2.542   4.600   5.003
 3643SOL    HW111828   2.642   4.600   4.994
 3643SOL    HW211829   2.516   4.650   5.085
 3644SOL     OW11830   0.158   1.264   0.721
 3644SOL    HW111831   0.155   1.311   0.634
 3644SOL    HW211832   0.177   1.166   0.706
 3645SOL     OW11833   3.461   0.691   3.327
 3645SOL    HW111834   3.388   0.634   3.366
 3645SOL    HW211835   3.517   0.728   3.401
 3646SOL     OW11836   0.162   4.736   5.121
 3646SOL    HW111837   0.141   4.824   5.080
 3646SOL    HW211838   0.077   4.687   5.142
 3647SOL     OW11839   2.956   3.183   0.948
 3647SOL    HW111840   3.039   3.228   0.917
 3647SOL    HW211841   2.969   3.083   0.946
 3648SOL     OW11842   3.030   6.360   2.790
 3648SOL    HW111843   3.118   6.373   2.745
 3648SOL    HW211844   3.017   6.430   2.860
 3649SOL     OW11845   3.248   3.649   1.115
 3649SOL    HW111846   3.236   3.568   1.171
 3649SOL    HW211847   3.217   3.630   1.022
 3650SOL     OW11848   0.061   0.086   1.472
 3650SOL    HW111849   0.103   0.109   1.560
 3650SOL    HW211850   6.983   0.067   1.486
 3651SOL     OW11851   1.814   5.703   2.622
 3651SOL    HW111852   1.902   5.680   2.581
 3651SOL    HW211853   1.775   5.781   2.573
 3652SOL     OW11854   4.603   5.403   3.163
 3652SOL    HW111855   4.559   5.380   3.250
 3652SOL    HW211856   4.550   5.365   3.088
 3653SOL     OW11857   0.065   2.798   3.582
 3653SOL    HW111858   0.046   2.892   3.554
 3653SOL    HW211859   0.000   2.770   3.653
 3654SOL     OW11860   1.912   6.730   1.345
 3654SOL    HW111861   1.859   6.810   1.318
 3654SOL    HW211862   1.873   6.649   1.301
 3655SOL     OW11863   1.552   0.361   4.488
 3655SOL    HW111864   1.488   0.430   4.522
 3655SOL    HW211865   1.645   0.397   4.491
 3656SOL     OW11866   2.029   2.469   1.902
 3656SOL    HW111867   2.084   2.487   1.983
 3656SOL    HW211868   2.088   2.462   1.822
 3657SOL     OW11869   4.076   6.119   1.367
 3657SOL    HW111870   4.167   6.126   1.407
 3657SOL    HW211871   4.015   6.071   1.431
 3658SOL     OW11872   1.676   5.853   6.011
 3658SOL    HW111873   1.685   5.822   6.106
 3658SOL    HW211874   1.579   5.852   5.985
 3659SOL     OW11875   2.525   4.469   6.959
 3659SOL    HW111876   2.616   4.500   6.986
 3659SOL    HW211877   2.484   4.536   6.897
 3660SOL     OW11878   4.786   5.534   1.788
 3660SOL    HW111879   4.853   5.605   1.765
 3660SOL    HW211880   4.759   5.486   1.704
 3661SOL     OW11881   4.320   0.884   0.310
 3661SOL    HW111882   4.222   0.888   0.331
 3661SOL    HW211883   4.363   0.812   0.363
 3662SOL     OW11884   3.058   0.144   5.490
 3662SOL    HW111885   2.984   0.193   5.536
 3662SOL    HW211886   3.096   0.076   5.552
 3663SOL     OW11887   1.270   2.589   6.848
 3663SOL    HW111888   1.273   2.555   6.942
 3663SOL    HW211889   1.179   2.623   6.828
 3664SOL     OW11890   4.807   1.174   0.805
 3664SOL    HW111891   4.775   1.233   0.731
 3664SOL    HW211892   4.906   1.162   0.797
 3665SOL     OW11893   0.910   6.745   5.944
 3665SOL    HW111894   0.909   6.747   5.844
 3665SOL    HW211895   0.932   6.837   5.979
 3666SOL     OW11896   1.387   5.229   3.793
 3666SOL    HW111897   1.363   5.223   3.890
 3666SOL    HW211898   1.318   5.182   3.738
 3667SOL     OW11899   6.572   1.580   6.520
 3667SOL    HW111900   6.657   1.621   6.554
 3667SOL    HW211901   6.588   1.538   6.431
 3668SOL     OW11902   0.932   6.391   2.326
 3668SOL    HW111903   0.879   6.432   2.251
 3668SOL    HW211904   0.985   6.314   2.291
 3669SOL     OW11905   6.632   2.923   3.016
 3669SOL    HW111906   6.650   2.938   2.919
 3669SOL    HW211907   6.571   2.844   3.027
 3670SOL     OW11908   1.752   5.924   5.760
 3670SOL    HW111909   1.738   5.916   5.859
 3670SOL    HW211910   1.722   5.840   5.715
 3671SOL     OW11911   1.053   0.352   2.768
 3671SOL    HW111912   0.991   0.430   2.777
 3671SOL    HW211913   1.121   0.370   2.697
 3672SOL     OW11914   6.942   0.952   0.769
 3672SOL    HW111915   6.960   0.879   0.703
 3672SOL    HW211916   0.003   0.967   0.825
 3673SOL     OW11917   5.238   0.216   6.896
 3673SOL    HW111918   5.248   0.155   6.818
 3673SOL    HW211919   5.274   0.172   6.978
 3674SOL     OW11920   1.388   6.135   1.287
 3674SOL    HW111921   1.379   6.085   1.201
 3674SOL    HW211922   1.326   6.214   1.286
 3675SOL     OW11923   1.562   2.381   5.222
 3675SOL    HW111924   1.661   2.367   5.215
 3675SOL    HW211925   1.542   2.433   5.305
 3676SOL     OW11926   2.574   5.693   3.556
 3676SOL    HW111927   2.557   5.596   3.567
 3676SOL    HW211928   2.528   5.727   3.474
 3677SOL     OW11929   6.549   6.908   4.640
 3677SOL    HW111930   6.624   6.893   4.575
 3677SOL    HW211931   6.516   6.820   4.673
 3678SOL     OW11932   0.898   1.500   3.605
 3678SOL    HW111933   0.993   1.473   3.590
 3678SOL    HW211934   0.885   1.594   3.574
 3679SOL     OW11935   0.117   0.817   1.905
 3679SOL    HW111936   0.124   0.909   1.943
 3679SOL    HW211937   0.208   0.777   1.897
 3680SOL     OW11938   6.718   3.429   4.232
 3680SOL    HW111939   6.642   3.378   4.191
 3680SOL    HW211940   6.688   3.470   4.318
 3681SOL     OW11941   6.500   6.185   5.632
 3681SOL    HW111942   6.428   6.226   5.688
 3681SOL    HW211943   6.550   6.256   5.583
 3682SOL     OW11944   0.138   1.848   6.434
 3682SOL    HW111945   0.155   1.767   6.378
 3682SOL    HW211946   0.224   1.882   6.471
 3683SOL     OW11947   5.339   6.398   4.542
 3683SOL    HW111948   5.283   6.471   4.581
 3683SOL    HW211949   5.296   6.309   4.560
 3684SOL     OW11950   1.290   3.610   0.761
 3684SOL    HW111951   1.239   3.661   0.830
 3684SOL    HW211952   1.347   3.673   0.708
 3685SOL     OW11953   6.465   6.242   6.215
 3685SOL    HW111954   6.491   6.318   6.274
 3685SOL    HW211955   6.366   6.236   6.209
 3686SOL     OW11956   6.036   4.177   1.471
 3686SOL    HW111957   5.987   4.173   1.384
 3686SOL    HW211958   6.118   4.119   1.466
 3687SOL     OW11959   3.218   0.705   0.245
 3687SOL    HW111960   3.146   0.757   0.291
 3687SOL    HW211961   3.186   0.612   0.229
 3688SOL     OW11962   1.461   3.826   0.607
 3688SOL    HW111963   1.557   3.806   0.631
 3688SOL    HW211964   1.422   3.887   0.675
 3689SOL     OW11965   2.237   0.544   3.487
 3689SOL    HW111966   2.231   0.632   3.533
 3689SOL    HW211967   2.153   0.492   3.503
 3690SOL     OW11968   6.274   7.003   5.741
 3690SOL    HW111969   6.365   0.010   5.708
 3690SOL    HW211970   6.210   0.058   5.725
 3691SOL     OW11971   3.427   2.726   6.889
 3691SOL    HW111972   3.515   2.697   6.850
 3691SOL    HW211973   3.382   2.648   6.932
 3692SOL     OW11974   1.799   0.071   5.712
 3692SOL    HW111975   1.857   0.035   5.785
 3692SOL    HW211976   1.843   0.152   5.671
 3693SOL     OW11977   2.985   2.187   3.178
 3693SOL    HW111978   2.951   2.193   3.084
 3693SOL    HW211979   2.917   2.225   3.241
 3694SOL     OW11980   1.732   6.173   3.374
 3694SOL    HW111981   1.656   6.212   3.322
 3694SOL    HW211982   1.699   6.099   3.432
 3695SOL     OW11983   1.754   2.319   2.272
 3695SOL    HW111984   1.674   2.337   2.329
 3695SOL    HW211985   1.743   2.232   2.224
 3696SOL     OW11986   3.964   6.746   6.339
 3696SOL    HW111987   3.940   6.802   6.418
 3696SOL    HW211988   4.054   6.706   6.353
 3697SOL     OW11989   6.502   0.585   4.263
 3697SOL    HW111990   6.556   0.557   4.184
 3697SOL    HW211991   6.435   0.514   4.284
 3698SOL     OW11992   3.071   0.492   5.697
 3698SOL    HW111993   3.023   0.558   5.755
 3698SOL    HW211994   3.135   0.540   5.637
 3699SOL     OW11995   0.527   4.303   2.602
 3699SOL    HW111996   0.457   4.318   2.532
 3699SOL    HW211997   0.517   4.371   2.675
 3700SOL     OW11998   0.127   0.232   4.132
 3700SOL    HW111999   0.149   0.143   4.092
 3700SOL    HW212000   0.140   0.228   4.231
 3701SOL     OW12001   6.283   0.753   4.556
 3701SOL    HW112002   6.344   0.804   4.495
 3701SOL    HW212003   6.337   0.687   4.609
 3702SOL     OW12004   3.327   1.143   0.101
 3702SOL    HW112005   3.334   1.242   0.094
 3702SOL    HW212006   3.235   1.118   0.130
 3703SOL     OW12007   4.200   4.403   6.457
 3703SOL    HW112008   4.176   4.499   6.442
 3703SOL    HW212009   4.119   4.351   6.481
 3704SOL     OW12010   2.108   0.102   2.683
 3704SOL    HW112011   2.054   0.186   2.692
 3704SOL    HW212012   2.101   0.049   2.767
 3705SOL     OW12013   5.747   0.713   3.694
 3705SOL    HW112014   5.760   0.654   3.774
 3705SOL    HW212015   5.774   0.664   3.611
 3706SOL     OW12016   1.708   2.307   3.817
 3706SOL    HW112017   1.756   2.334   3.901
 3706SOL    HW212018   1.763   2.334   3.738
 3707SOL     OW12019   4.358   2.692   5.304
 3707SOL    HW112020   4.421   2.659   5.234
 3707SOL    HW212021   4.279   2.631   5.309
 3708SOL     OW12022   5.572   0.428   6.442
 3708SOL    HW112023   5.502   0.378   6.391
 3708SOL    HW212024   5.536   0.518   6.466
 3709SOL     OW12025   3.845   0.742   6.846
 3709SOL    HW112026   3.943   0.723   6.853
 3709SOL    HW212027   3.820   0.757   6.750
 3710SOL     OW12028   0.226   4.782   0.704
 3710SOL    HW112029   0.226   4.799   0.606
 3710SOL    HW212030   0.205   4.867   0.753
 3711SOL     OW12031   6.033   5.011   2.309
 3711SOL    HW112032   6.125   4.985   2.336
 3711SOL    HW212033   6.033   5.038   2.213
 3712SOL     OW12034   2.299   6.931   0.405
 3712SOL    HW112035   2.306   0.001   0.448
 3712SOL    HW212036   2.352   6.930   0.320
 3713SOL     OW12037   3.728   5.761   5.432
 3713SOL    HW112038   3.727   5.693   5.505
 3713SOL    HW212039   3.767   5.847   5.467
 3714SOL     OW12040   3.567   0.270   4.641
 3714SOL    HW112041   3.517   0.239   4.722
 3714SOL    HW212042   3.665   0.263   4.657
 3715SOL     OW12043   5.500   3.875   4.720
 3715SOL    HW112044   5.531   3.857   4.814
 3715SOL    HW212045   5.572   3.924   4.671
 3716SOL     OW12046   0.190   0.582   4.211
 3716SOL    HW112047   0.178   0.562   4.308
 3716SOL    HW212048   0.242   0.508   4.168
 3717SOL     OW12049   5.603   6.681   0.629
 3717SOL    HW112050   5.510   6.697   0.594
 3717SOL    HW212051   5.626   6.751   0.696
 3718SOL     OW12052   0.952   5.116   0.061
 3718SOL    HW112053   1.039   5.113   0.012
 3718SOL    HW212054   0.877   5.104   7.015
 3719SOL     OW12055   3.192   4.915   5.828
 3719SOL    HW112056   3.173   4.899   5.925
 3719SOL    HW212057   3.138   4.852   5.772
 3720SOL     OW12058   6.377   1.714   6.002
 3720SOL    HW112059   6.393   1.727   5.904
 3720SOL    HW212060   6.298   1.655   6.015
 3721SOL     OW12061   4.930   3.686   0.419
 3721SOL    HW112062   4.887   3.659   0.505
 3721SOL    HW212063   4.903   3.780   0.396
 3722SOL     OW12064   6.499   6.260   2.125
 3722SOL    HW112065   6.597   6.265   2.142
 3722SOL    HW212066   6.451   6.249   2.212
 3723SOL     OW12067   4.467   0.564   0.840
 3723SOL    HW112068   4.499   0.631   0.773
 3723SOL    HW212069   4.493   0.595   0.932
 3724SOL     OW12070   1.408   5.969   5.953
 3724SOL    HW112071   1.346   5.954   6.030
 3724SOL    HW212072   1.388   5.902   5.881
 3725SOL     OW12073   0.340   5.829   0.046
 3725SOL    HW112074   0.419   5.770   0.026
 3725SOL    HW212075   0.307   5.870   6.981
 3726SOL     OW12076   5.351   3.798   1.610
 3726SOL    HW112077   5.422   3.843   1.556
 3726SOL    HW212078   5.306   3.866   1.669
 3727SOL     OW12079   2.247   3.520   5.685
 3727SOL    HW112080   2.282   3.430   5.658
 3727SOL    HW212081   2.236   3.576   5.603
 3728SOL     OW12082   1.808   3.050   6.558
 3728SOL    HW112083   1.846   2.983   6.494
 3728SOL    HW212084   1.741   3.004   6.617
 3729SOL     OW12085   0.577   2.037   3.299
 3729SOL    HW112086   0.499   1.997   3.249
 3729SOL    HW212087   0.657   1.979   3.285
 3730SOL     OW12088   3.021   0.820   0.389
 3730SOL    HW112089   2.939   0.833   0.444
 3730SOL    HW212090   3.086   0.895   0.409
 3731SOL     OW12091   4.094   6.660   0.026
 3731SOL    HW112092   4.119   6.565   0.043
 3731SOL    HW212093   3.999   6.675   0.053
 3732SOL     OW12094   2.186   3.756   5.233
 3732SOL    HW112095   2.170   3.746   5.134
 3732SOL    HW212096   2.271   3.806   5.247
 3733SOL     OW12097   2.793   3.775   1.321
 3733SOL    HW112098   2.770   3.721   1.239
 3733SOL    HW212099   2.776   3.872   1.302
 3734SOL     OW12100   5.437   1.106   2.285
 3734SOL    HW112101   5.392   1.195   2.276
 3734SOL    HW212102   5.370   1.033   2.270
 3735SOL     OW12103   3.167   1.657   2.691
 3735SOL    HW112104   3.180   1.675   2.593
 3735SOL    HW212105   3.228   1.715   2.744
 3736SOL     OW12106   5.791   2.481   6.883
 3736SOL    HW112107   5.827   2.555   6.826
 3736SOL    HW212108   5.851   2.466   6.961
 3737SOL     OW12109   4.738   6.593   3.540
 3737SOL    HW112110   4.831   6.586   3.573
 3737SOL    HW212111   4.714   6.689   3.524
 3738SOL     OW12112   6.697   0.164   3.274
 3738SOL    HW112113   6.732   0.234   3.336
 3738SOL    HW212114   6.667   0.207   3.189
 3739SOL     OW12115   0.702   4.552   2.502
 3739SOL    HW112116   0.700   4.495   2.420
 3739SOL    HW212117   0.728   4.497   2.581
 3740SOL     OW12118   5.620   1.186   0.512
 3740SOL    HW112119   5.713   1.199   0.478
 3740SOL    HW212120   5.557   1.240   0.456
 3741SOL     OW12121   4.253   2.620   6.810
 3741SOL    HW112122   4.174   2.635   6.752
 3741SOL    HW212123   4.307   2.704   6.816
 3742SOL     OW12124   3.646   3.138   5.443
 3742SOL    HW112125   3.672   3.178   5.356
 3742SOL    HW212126   3.555   3.171   5.469
 3743SOL     OW12127   0.052   5.106   6.585
 3743SOL    HW112128   0.083   5.186   6.637
 3743SOL    HW212129   0.016   5.135   6.497
 3744SOL     OW12130   6.970   5.737   3.424
 3744SOL    HW112131   0.034   5.775   3.462
 3744SOL    HW212132   6.895   5.802   3.437
 3745SOL     OW12133   4.495   6.073   2.641
 3745SOL    HW112134   4.495   6.130   2.559
 3745SOL    HW212135   4.568   6.006   2.635
 3746SOL     OW12136   4.447   1.801   2.122
 3746SOL    HW112137   4.524   1.808   2.186
 3746SOL    HW212138   4.362   1.827   2.168
 3747SOL     OW12139   3.082   0.133   0.045
 3747SOL    HW112140   3.164   0.190   0.057
 3747SOL    HW212141   3.105   0.037   0.061
 3748SOL     OW12142   5.748   1.184   2.520
 3748SOL    HW112143   5.718   1.234   2.438
 3748SOL    HW212144   5.846   1.198   2.534
 3749SOL     OW12145   1.295   0.237   5.074
 3749SOL    HW112146   1.211   0.252   5.023
 3749SOL    HW212147   1.347   0.162   5.033
 3750SOL     OW12148   0.014   4.315   0.122
 3750SOL    HW112149   6.945   4.326   0.167
 3750SOL    HW212150   0.001   4.269   0.034
 3751SOL     OW12151   1.030   4.248   2.479
 3751SOL    HW112152   1.126   4.237   2.505
 3751SOL    HW212153   0.995   4.161   2.444
 3752SOL     OW12154   5.954   0.406   6.731
 3752SOL    HW112155   6.043   0.368   6.708
 3752SOL    HW212156   5.886   0.379   6.662
 3753SOL     OW12157   6.279   0.156   4.306
 3753SOL    HW112158   6.364   0.165   4.359
 3753SOL    HW212159   6.232   0.072   4.334
 3754SOL     OW12160   2.123   1.869   1.059
 3754SOL    HW112161   2.121   1.769   1.046
 3754SOL    HW212162   2.169   1.890   1.145
 3755SOL     OW12163   3.153   4.919   3.810
 3755SOL    HW112164   3.065   4.918   3.764
 3755SOL    HW212165   3.204   5.001   3.782
 3756SOL     OW12166   2.889   6.292   6.643
 3756SOL    HW112167   2.790   6.273   6.641
 3756SOL    HW212168   2.906   6.370   6.703
 3757SOL     OW12169   0.065   4.704   1.375
 3757SOL    HW112170   0.099   4.619   1.415
 3757SOL    HW212171   6.988   4.716   1.399
 3758SOL     OW12172   2.203   6.846   4.361
 3758SOL    HW112173   2.146   6.923   4.391
 3758SOL    HW212174   2.149   6.762   4.363
 3759SOL     OW12175   5.258   0.053   4.678
 3759SOL    HW112176   5.167   0.015   4.664
 3759SOL    HW212177   5.256   0.117   4.755
 3760SOL     OW12178   0.146   1.112   3.004
 3760SOL    HW112179   0.047   1.127   3.013
 3760SOL    HW212180   0.186   1.187   2.950
 3761SOL     OW12181   5.572   0.792   4.197
 3761SOL    HW112182   5.558   0.780   4.295
 3761SOL    HW212183   5.669   0.781   4.176
 3762SOL     OW12184   6.665   2.405   3.185
 3762SOL    HW112185   6.704   2.330   3.238
 3762SOL    HW212186   6.688   2.492   3.228
 3763SOL     OW12187   0.834   4.535   0.902
 3763SOL    HW112188   0.775   4.560   0.825
 3763SOL    HW212189   0.852   4.437   0.899
 3764SOL     OW12190   2.440   0.571   2.893
 3764SOL    HW112191   2.475   0.662   2.915
 3764SOL    HW212192   2.512   0.516   2.851
 3765SOL     OW12193   5.326   2.840   2.468
 3765SOL    HW112194   5.226   2.845   2.464
 3765SOL    HW212195   5.356   2.865   2.560
 3766SOL     OW12196   1.276   3.607   3.435
 3766SOL    HW112197   1.183   3.573   3.417
 3766SOL    HW212198   1.315   3.643   3.350
 3767SOL     OW12199   1.252   4.980   6.120
 3767SOL    HW112200   1.155   5.006   6.113
 3767SOL    HW212201   1.302   5.051   6.169
 3768SOL     OW12202   0.662   6.619   3.312
 3768SOL    HW112203   0.674   6.699   3.253
 3768SOL    HW212204   0.654   6.649   3.407
 3769SOL     OW12205   5.988   4.945   5.006
 3769SOL    HW112206   6.036   4.916   5.089
 3769SOL    HW212207   5.914   5.007   5.031
 3770SOL     OW12208   1.975   1.032   0.855
 3770SOL    HW112209   2.002   0.982   0.773
 3770SOL    HW212210   2.034   1.112   0.866
 3771SOL     OW12211   6.410   5.295   6.301
 3771SOL    HW112212   6.374   5.335   6.217
 3771SOL    HW212213   6.338   5.295   6.371
 3772SOL     OW12214   1.378   6.224   0.752
 3772SOL    HW112215   1.290   6.248   0.793
 3772SOL    HW212216   1.398   6.128   0.767
 3773SOL     OW12217   5.550   4.695   6.290
 3773SOL    HW112218   5.571   4.627   6.220
 3773SOL    HW212219   5.465   4.742   6.266
 3774SOL     OW12220   6.751   5.252   1.984
 3774SOL    HW112221   6.706   5.167   1.954
 3774SOL    HW212222   6.718   5.276   2.076
 3775SOL     OW12223   4.747   5.134   4.826
 3775SOL    HW112224   4.810   5.074   4.776
 3775SOL    HW212225   4.753   5.115   4.924
 3776SOL     OW12226   3.438   2.811   5.938
 3776SOL    HW112227   3.413   2.723   5.898
 3776SOL    HW212228   3.485   2.866   5.869
 3777SOL     OW12229   2.472   6.023   4.338
 3777SOL    HW112230   2.539   6.080   4.291
 3777SOL    HW212231   2.385   6.071   4.344
 3778SOL     OW12232   3.542   5.745   5.756
 3778SOL    HW112233   3.457   5.706   5.791
 3778SOL    HW212234   3.531   5.843   5.743
 3779SOL     OW12235   6.811   4.853   6.995
 3779SOL    HW112236   6.897   4.803   7.005
 3779SOL    HW212237   6.771   4.833   6.906
 3780SOL     OW12238   5.516   3.907   1.428
 3780SOL    HW112239   5.544   3.820   1.388
 3780SOL    HW212240   5.456   3.956   1.365
 3781SOL     OW12241   2.726   6.136   4.879
 3781SOL    HW112242   2.649   6.143   4.941
 3781SOL    HW212243   2.805   6.099   4.928
 3782SOL     OW12244   4.763   5.877   1.243
 3782SOL    HW112245   4.678   5.930   1.241
 3782SOL    HW212246   4.747   5.790   1.289
 3783SOL     OW12247   5.089   5.626   4.391
 3783SOL    HW112248   5.010   5.685   4.374
 3783SOL    HW212249   5.094   5.555   4.320
 3784SOL     OW12250   6.335   2.232   4.276
 3784SOL    HW112251   6.285   2.282   4.347
 3784SOL    HW212252   6.323   2.134   4.291
 3785SOL     OW12253   1.845   3.441   3.992
 3785SOL    HW112254   1.772   3.377   3.967
 3785SOL    HW212255   1.805   3.528   4.019
 3786SOL     OW12256   2.522   2.607   4.756
 3786SOL    HW112257   2.609   2.656   4.766
 3786SOL    HW212258   2.461   2.631   4.831
 3787SOL     OW12259   4.395   6.877   3.646
 3787SOL    HW112260   4.421   6.973   3.640
 3787SOL    HW212261   4.455   6.830   3.711
 3788SOL     OW12262   6.021   3.056   5.028
 3788SOL    HW112263   5.999   3.146   4.989
 3788SOL    HW212264   6.039   2.991   4.954
 3789SOL     OW12265   1.395   2.928   2.547
 3789SOL    HW112266   1.379   2.927   2.449
 3789SOL    HW212267   1.339   3.000   2.589
 3790SOL     OW12268   0.177   6.911   1.318
 3790SOL    HW112269   0.129   6.984   1.366
 3790SOL    HW212270   0.134   6.823   1.337
 3791SOL     OW12271   4.933   1.449   5.600
 3791SOL    HW112272   4.865   1.405   5.659
 3791SOL    HW212273   4.943   1.397   5.515
 3792SOL     OW12274   6.803   0.761   4.521
 3792SOL    HW112275   6.837   0.775   4.614
 3792SOL    HW212276   6.826   0.841   4.465
 3793SOL     OW12277   4.986   4.955   0.675
 3793SOL    HW112278   5.050   4.913   0.738
 3793SOL    HW212279   5.036   5.010   0.608
 3794SOL     OW12280   0.790   4.294   6.696
 3794SOL    HW112281   0.783   4.373   6.757
 3794SOL    HW212282   0.704   4.285   6.645
 3795SOL     OW12283   2.394   6.093   1.485
 3795SOL    HW112284   2.443   6.017   1.443
 3795SOL    HW212285   2.452   6.136   1.555
 3796SOL     OW12286   5.276   1.449   7.008
 3796SOL    HW112287   5.286   1.548   6.993
 3796SOL    HW212288   5.181   1.428   0.010
 3797SOL     OW12289   1.190   4.396   2.111
 3797SOL    HW112290   1.176   4.467   2.041
 3797SOL    HW212291   1.159   4.308   2.075
 3798SOL     OW12292   1.587   6.006   3.551
 3798SOL    HW112293   1.509   6.017   3.612
 3798SOL    HW212294   1.630   5.917   3.567
 3799SOL     OW12295   6.800   1.205   3.253
 3799SOL    HW112296   6.779   1.228   3.348
 3799SOL    HW212297   6.728   1.146   3.216
 3800SOL     OW12298   5.030   2.625   2.978
 3800SOL    HW112299   5.038   2.548   3.041
 3800SOL    HW212300   4.940   2.667   2.989
 3801SOL     OW12301   5.595   1.318   1.508
 3801SOL    HW112302   5.623   1.369   1.590
 3801SOL    HW212303   5.645   1.232   1.505
 3802SOL     OW12304   6.447   2.919   1.967
 3802SOL    HW112305   6.348   2.932   1.960
 3802SOL    HW212306   6.471   2.827   1.938
 3803SOL     OW12307   3.272   3.267   4.305
 3803SOL    HW112308   3.354   3.241   4.357
 3803SOL    HW212309   3.208   3.190   4.303
 3804SOL     OW12310   4.353   5.743   3.486
 3804SOL    HW112311   4.398   5.752   3.397
 3804SOL    HW212312   4.416   5.698   3.550
 3805SOL     OW12313   2.628   2.555   0.042
 3805SOL    HW112314   2.576   2.478   0.007
 3805SOL    HW212315   2.722   2.552   0.007
 3806SOL     OW12316   3.202   4.644   1.425
 3806SOL    HW112317   3.145   4.666   1.346
 3806SOL    HW212318   3.143   4.613   1.500
 3807SOL     OW12319   1.701   4.708   4.584
 3807SOL    HW112320   1.708   4.662   4.673
 3807SOL    HW212321   1.695   4.639   4.512
 3808SOL     OW12322   3.190   6.950   6.232
 3808SOL    HW112323   3.104   6.977   6.274
 3808SOL    HW212324   3.216   7.016   6.161
 3809SOL     OW12325   5.171   2.360   1.578
 3809SOL    HW112326   5.219   2.289   1.527
 3809SOL    HW212327   5.138   2.322   1.664
 3810SOL     OW12328   6.125   2.396   1.922
 3810SOL    HW112329   6.168   2.320   1.875
 3810SOL    HW212330   6.126   2.380   2.021
 3811SOL     OW12331   0.115   5.499   5.522
 3811SOL    HW112332   0.144   5.576   5.465
 3811SOL    HW212333   0.193   5.437   5.537
 3812SOL     OW12334   4.682   5.916   0.970
 3812SOL    HW112335   4.702   5.970   1.052
 3812SOL    HW212336   4.760   5.920   0.908
 3813SOL     OW12337   5.982   4.566   6.709
 3813SOL    HW112338   6.058   4.629   6.728
 3813SOL    HW212339   6.018   4.484   6.665
 3814SOL     OW12340   6.593   0.497   4.920
 3814SOL    HW112341   6.689   0.505   4.892
 3814SOL    HW212342   6.576   0.557   4.999
 3815SOL     OW12343   6.788   3.641   5.787
 3815SOL    HW112344   6.766   3.721   5.843
 3815SOL    HW212345   6.809   3.563   5.846
 3816SOL     OW12346   0.347   6.059   0.181
 3816SOL    HW112347   0.354   5.971   0.132
 3816SOL    HW212348   0.274   6.114   0.140
 3817SOL     OW12349   4.851   3.898   2.020
 3817SOL    HW112350   4.857   3.843   1.937
 3817SOL    HW212351   4.818   3.990   1.997
 3818SOL     OW12352   6.004   6.586   2.798
 3818SOL    HW112353   6.073   6.654   2.821
 3818SOL    HW212354   5.948   6.567   2.879
 3819SOL     OW12355   6.671   4.470   3.849
 3819SOL    HW112356   6.707   4.389   3.894
 3819SOL    HW212357   6.663   4.452   3.750
 3820SOL     OW12358   4.072   6.970   4.559
 3820SOL    HW112359   4.145   0.005   4.598
 3820SOL    HW212360   3.991   0.007   4.544
 3821SOL     OW12361   1.999   0.320   0.283
 3821SOL    HW112362   2.011   0.276   0.372
 3821SOL    HW212363   1.901   0.333   0.266
 3822SOL     OW12364   4.625   0.610   1.837
 3822SOL    HW112365   4.649   0.649   1.749
 3822SOL    HW212366   4.633   0.680   1.908
 3823SOL     OW12367   4.919   5.773   0.092
 3823SOL    HW112368   4.920   5.766   7.012
 3823SOL    HW212369   4.875   5.691   0.130
 3824SOL     OW12370   2.446   2.874   0.415
 3824SOL    HW112371   2.407   2.875   0.322
 3824SOL    HW212372   2.495   2.960   0.431
 3825SOL     OW12373   1.286   3.662   5.763
 3825SOL    HW112374   1.253   3.690   5.853
 3825SOL    HW212375   1.327   3.740   5.716
 3826SOL     OW12376   5.872   4.075   3.805
 3826SOL    HW112377   5.891   4.165   3.767
 3826SOL    HW212378   5.954   4.019   3.800
 3827SOL     OW12379   0.916   1.212   1.440
 3827SOL    HW112380   0.881   1.125   1.474
 3827SOL    HW212381   0.888   1.224   1.345
 3828SOL     OW12382   3.328   4.186   4.116
 3828SOL    HW112383   3.350   4.148   4.026
 3828SOL    HW212384   3.354   4.283   4.119
 3829SOL     OW12385   0.930   4.022   2.359
 3829SOL    HW112386   0.964   3.929   2.375
 3829SOL    HW212387   0.847   4.037   2.413
 3830SOL     OW12388   6.489   1.317   4.328
 3830SOL    HW112389   6.490   1.229   4.376
 3830SOL    HW212390   6.480   1.302   4.230
 3831SOL     OW12391   4.715   1.992   3.506
 3831SOL    HW112392   4.672   2.070   3.461
 3831SOL    HW212393   4.785   1.953   3.445
 3832SOL     OW12394   6.404   0.885   3.720
 3832SOL    HW112395   6.478   0.931   3.768
 3832SOL    HW212396   6.354   0.826   3.785
 3833SOL     OW12397   0.856   2.140   5.677
 3833SOL    HW112398   0.919   2.081   5.728
 3833SOL    HW212399   0.817   2.207   5.739
 3834SOL     OW12400   4.899   4.100   0.534
 3834SOL    HW112401   4.858   4.053   0.612
 3834SOL    HW212402   4.887   4.046   0.451
 3835SOL     OW12403   4.209   5.458   4.632
 3835SOL    HW112404   4.134   5.521   4.610
 3835SOL    HW212405   4.172   5.365   4.640
 3836SOL     OW12406   6.966   6.327   5.815
 3836SOL    HW112407   6.931   6.283   5.732
 3836SOL    HW212408   6.904   6.400   5.843
 3837SOL     OW12409   4.518   4.879   5.350
 3837SOL    HW112410   4.594   4.817   5.371
 3837SOL    HW212411   4.509   4.887   5.251
 3838SOL     OW12412   0.710   1.069   3.699
 3838SOL    HW112413   0.662   1.149   3.662
 3838SOL    HW212414   0.644   1.003   3.734
 3839SOL     OW12415   3.988   0.735   3.653
 3839SOL    HW112416   3.998   0.644   3.614
 3839SOL    HW212417   4.069   0.757   3.708
 3840SOL     OW12418   2.347   1.283   6.927
 3840SOL    HW112419   2.280   1.356   6.915
 3840SOL    HW212420   2.300   1.195   6.925
 3841SOL     OW12421   6.271   4.610   4.305
 3841SOL    HW112422   6.200   4.572   4.363
 3841SOL    HW212423   6.312   4.690   4.349
 3842SOL     OW12424   2.014   3.181   5.136
 3842SOL    HW112425   1.977   3.096   5.099
 3842SOL    HW212426   1.979   3.258   5.083
 3843SOL     OW12427   5.417   2.746   6.657
 3843SOL    HW112428   5.508   2.749   6.615
 3843SOL    HW212429   5.402   2.830   6.710
 3844SOL     OW12430   0.959   6.383   0.836
 3844SOL    HW112431   0.902   6.304   0.860
 3844SOL    HW212432   1.005   6.366   0.749
 3845SOL     OW12433   1.954   5.783   0.595
 3845SOL    HW112434   1.897   5.760   0.673
 3845SOL    HW212435   2.045   5.810   0.627
 3846SOL     OW12436   1.327   2.620   3.411
 3846SOL    HW112437   1.396   2.583   3.473
 3846SOL    HW212438   1.241   2.569   3.423
 3847SOL     OW12439   6.972   1.558   6.500
 3847SOL    HW112440   6.905   1.605   6.558
 3847SOL    HW212441   0.018   1.509   6.558
 3848SOL     OW12442   5.604   3.461   2.434
 3848SOL    HW112443   5.663   3.520   2.380
 3848SOL    HW212444   5.629   3.468   2.530
 3849SOL     OW12445   6.348   5.400   6.737
 3849SOL    HW112446   6.306   5.336   6.800
 3849SOL    HW212447   6.445   5.412   6.760
 3850SOL     OW12448   2.243   2.226   1.496
 3850SOL    HW112449   2.328   2.179   1.472
 3850SOL    HW212450   2.168   2.190   1.440
 3851SOL     OW12451   0.282   6.006   2.967
 3851SOL    HW112452   0.303   6.094   2.925
 3851SOL    HW212453   0.332   5.933   2.920
 3852SOL     OW12454   2.811   6.051   5.823
 3852SOL    HW112455   2.895   6.074   5.773
 3852SOL    HW212456   2.760   6.135   5.841
 3853SOL     OW12457   2.434   0.765   3.603
 3853SOL    HW112458   2.377   0.837   3.564
 3853SOL    HW212459   2.530   0.790   3.596
 3854SOL     OW12460   1.814   2.512   2.494
 3854SOL    HW112461   1.826   2.443   2.422
 3854SOL    HW212462   1.794   2.600   2.452
 3855SOL     OW12463   4.401   0.426   0.254
 3855SOL    HW112464   4.315   0.382   0.277
 3855SOL    HW212465   4.476   0.359   0.263
 3856SOL     OW12466   0.480   1.550   6.722
 3856SOL    HW112467   0.496   1.475   6.659
 3856SOL    HW212468   0.562   1.566   6.777
 3857SOL     OW12469   1.756   1.087   5.475
 3857SOL    HW112470   1.680   1.023   5.462
 3857SOL    HW212471   1.778   1.130   5.388
 3858SOL     OW12472   4.210   0.765   4.975
 3858SOL    HW112473   4.225   0.672   5.010
 3858SOL    HW212474   4.295   0.817   4.984
 3859SOL     OW12475   5.461   0.307   1.754
 3859SOL    HW112476   5.524   0.343   1.823
 3859SOL    HW212477   5.502   0.318   1.664
 3860SOL     OW12478   1.522   0.003   4.460
 3860SOL    HW112479   1.538   0.056   4.376
 3860SOL    HW212480   1.433   0.029   4.499
 3861SOL     OW12481   4.220   5.880   1.844
 3861SOL    HW112482   4.260   5.907   1.932
 3861SOL    HW212483   4.134   5.831   1.860
 3862SOL     OW12484   1.164   0.082   3.587
 3862SOL    HW112485   1.156   0.004   3.649
 3862SOL    HW212486   1.196   0.162   3.638
 3863SOL     OW12487   4.106   0.660   0.953
 3863SOL    HW112488   4.148   0.735   0.902
 3863SOL    HW212489   4.007   0.672   0.952
 3864SOL     OW12490   2.501   0.126   4.415
 3864SOL    HW112491   2.419   0.157   4.367
 3864SOL    HW212492   2.493   0.146   4.512
 3865SOL     OW12493   3.426   0.787   0.083
 3865SOL    HW112494   3.354   0.750   0.142
 3865SOL    HW212495   3.386   0.852   0.018
 3866SOL     OW12496   2.708   2.500   6.596
 3866SOL    HW112497   2.622   2.460   6.562
 3866SOL    HW212498   2.708   2.598   6.579
 3867SOL     OW12499   0.668   3.784   2.463
 3867SOL    HW112500   0.575   3.789   2.499
 3867SOL    HW212501   0.666   3.740   2.373
 3868SOL     OW12502   4.083   1.242   6.595
 3868SOL    HW112503   4.018   1.203   6.660
 3868SOL    HW212504   4.161   1.181   6.584
 3869SOL     OW12505   6.522   3.142   3.366
 3869SOL    HW112506   6.432   3.139   3.324
 3869SOL    HW212507   6.565   3.052   3.359
 3870SOL     OW12508   6.462   0.327   3.431
 3870SOL    HW112509   6.478   0.295   3.338
 3870SOL    HW212510   6.379   0.383   3.433
 3871SOL     OW12511   3.688   5.575   4.220
 3871SOL    HW112512   3.628   5.503   4.255
 3871SOL    HW212513   3.648   5.664   4.239
 3872SOL     OW12514   3.625   3.605   4.587
 3872SOL    HW112515   3.585   3.697   4.582
 3872SOL    HW212516   3.701   3.606   4.652
 3873SOL     OW12517   4.366   2.440   1.024
 3873SOL    HW112518   4.423   2.422   1.104
 3873SOL    HW212519   4.414   2.412   0.941
 3874SOL     OW12520   3.084   0.518   0.117
 3874SOL    HW112521   3.065   0.574   0.036
 3874SOL    HW212522   2.999   0.502   0.168
 3875SOL     OW12523   1.217   2.089   5.282
 3875SOL    HW112524   1.158   2.112   5.359
 3875SOL    HW212525   1.307   2.061   5.315
 3876SOL     OW12526   4.240   5.861   1.334
 3876SOL    HW112527   4.165   5.922   1.360
 3876SOL    HW212528   4.232   5.837   1.237
 3877SOL     OW12529   6.876   2.300   0.387
 3877SOL    HW112530   6.962   2.345   0.362
 3877SOL    HW212531   6.893   2.230   0.456
 3878SOL     OW12532   4.066   6.394   4.218
 3878SOL    HW112533   3.971   6.392   4.188
 3878SOL    HW212534   4.118   6.456   4.160
 3879SOL     OW12535   4.843   4.962   6.912
 3879SOL    HW112536   4.895   4.880   6.885
 3879SOL    HW212537   4.837   5.025   6.835
 3880SOL     OW12538   4.678   4.240   4.267
 3880SOL    HW112539   4.736   4.213   4.190
 3880SOL    HW212540   4.685   4.171   4.339
 3881SOL     OW12541   1.255   4.026   0.022
 3881SOL    HW112542   1.298   4.052   6.955
 3881SOL    HW212543   1.326   4.013   0.092
 3882SOL     OW12544   1.005   1.487   0.760
 3882SOL    HW112545   1.029   1.395   0.791
 3882SOL    HW212546   0.909   1.488   0.731
 3883SOL     OW12547   4.608   5.754   3.667
 3883SOL    HW112548   4.568   5.710   3.747
 3883SOL    HW212549   4.630   5.685   3.598
 3884SOL     OW12550   1.049   5.764   3.229
 3884SOL    HW112551   1.132   5.795   3.275
 3884SOL    HW212552   1.041   5.664   3.237
 3885SOL     OW12553   5.488   6.631   2.716
 3885SOL    HW112554   5.416   6.697   2.737
 3885SOL    HW212555   5.555   6.630   2.790
 3886SOL     OW12556   4.080   6.755   6.036
 3886SOL    HW112557   4.040   6.800   6.116
 3886SOL    HW212558   4.063   6.810   5.955
 3887SOL     OW12559   0.160   6.634   1.474
 3887SOL    HW112560   0.177   6.565   1.403
 3887SOL    HW212561   0.062   6.635   1.496
 3888SOL     OW12562   5.815   6.480   4.866
 3888SOL    HW112563   5.728   6.474   4.818
 3888SOL    HW212564   5.804   6.446   4.959
 3889SOL     OW12565   6.024   3.702   6.602
 3889SOL    HW112566   6.086   3.701   6.680
 3889SOL    HW212567   6.047   3.627   6.541
 3890SOL     OW12568   5.615   3.818   4.962
 3890SOL    HW112569   5.692   3.755   4.967
 3890SOL    HW212570   5.551   3.798   5.037
 3891SOL     OW12571   5.584   4.879   3.746
 3891SOL    HW112572   5.619   4.959   3.795
 3891SOL    HW212573   5.509   4.837   3.798
 3892SOL     OW12574   6.875   2.435   1.428
 3892SOL    HW112575   6.817   2.488   1.490
 3892SOL    HW212576   6.970   2.468   1.435
 3893SOL     OW12577   4.563   3.324   1.032
 3893SOL    HW112578   4.505   3.388   1.082
 3893SOL    HW212579   4.543   3.230   1.061
 3894SOL     OW12580   4.913   0.370   6.728
 3894SOL    HW112581   4.953   0.462   6.730
 3894SOL    HW212582   4.959   0.316   6.657
 3895SOL     OW12583   1.385   6.709   4.852
 3895SOL    HW112584   1.408   6.768   4.930
 3895SOL    HW212585   1.346   6.623   4.886
 3896SOL     OW12586   0.998   0.908   6.939
 3896SOL    HW112587   1.079   0.956   6.974
 3896SOL    HW212588   0.953   0.859   7.014
 3897SOL     OW12589   4.716   5.596   2.093
 3897SOL    HW112590   4.723   5.577   1.995
 3897SOL    HW212591   4.677   5.687   2.106
 3898SOL     OW12592   3.778   2.647   6.337
 3898SOL    HW112593   3.692   2.638   6.288
 3898SOL    HW212594   3.822   2.734   6.313
 3899SOL     OW12595   4.621   6.955   6.148
 3899SOL    HW112596   4.582   6.871   6.110
 3899SOL    HW212597   4.597   0.013   6.090
 3900SOL     OW12598   5.427   3.664   3.653
 3900SOL    HW112599   5.364   3.728   3.697
 3900SOL    HW212600   5.493   3.715   3.597
 3901SOL     OW12601   3.031   0.698   6.630
 3901SOL    HW112602   3.058   0.792   6.607
 3901SOL    HW212603   2.977   0.659   6.555
 3902SOL     OW12604   5.977   3.297   2.717
 3902SOL    HW112605   5.903   3.267   2.657
 3902SOL    HW212606   6.037   3.359   2.667
 3903SOL     OW12607   3.519   5.813   6.823
 3903SOL    HW112608   3.450   5.883   6.843
 3903SOL    HW212609   3.587   5.811   6.896
 3904SOL     OW12610   0.899   0.232   6.600
 3904SOL    HW112611   0.833   0.165   6.566
 3904SOL    HW212612   0.944   0.276   6.522
 3905SOL     OW12613   0.047   6.059   6.195
 3905SOL    HW112614   0.069   5.999   6.272
 3905SOL    HW212615   0.011   6.145   6.228
 3906SOL     OW12616   5.528   5.987   5.435
 3906SOL    HW112617   5.468   5.984   5.355
 3906SOL    HW212618   5.611   6.038   5.413
 3907SOL     OW12619   5.948   2.060   3.907
 3907SOL    HW112620   6.007   2.110   3.844
 3907SOL    HW212621   5.911   1.979   3.861
 3908SOL     OW12622   0.587   2.223   6.899
 3908SOL    HW112623   0.660   2.291   6.891
 3908SOL    HW212624   0.506   2.256   6.850
 3909SOL     OW12625   5.241   5.474   4.555
 3909SOL    HW112626   5.177   5.513   4.489
 3909SOL    HW212627   5.191   5.416   4.620
 3910SOL     OW12628   3.131   3.603   2.599
 3910SOL    HW112629   3.086   3.692   2.604
 3910SOL    HW212630   3.070   3.533   2.636
 3911SOL     OW12631   5.585   1.553   4.931
 3911SOL    HW112632   5.553   1.561   4.836
 3911SOL    HW212633   5.604   1.457   4.951
 3912SOL     OW12634   5.575   1.754   5.420
 3912SOL    HW112635   5.612   1.845   5.401
 3912SOL    HW212636   5.623   1.713   5.498
 3913SOL     OW12637   1.138   6.855   6.692
 3913SOL    HW112638   1.138   6.789   6.767
 3913SOL    HW212639   1.070   6.926   6.709
 3914SOL     OW12640   3.372   0.260   6.679
 3914SOL    HW112641   3.373   0.359   6.690
 3914SOL    HW212642   3.396   0.237   6.585
 3915SOL     OW12643   4.925   5.390   1.365
 3915SOL    HW112644   4.915   5.489   1.380
 3915SOL    HW212645   5.017   5.361   1.392
 3916SOL     OW12646   0.964   0.074   2.703
 3916SOL    HW112647   1.016   0.158   2.720
 3916SOL    HW212648   1.015   0.016   2.640
 3917SOL     OW12649   1.870   0.052   0.085
 3917SOL    HW112650   1.898   0.090   7.017
 3917SOL    HW212651   1.814   0.118   0.133
 3918SOL     OW12652   5.417   4.089   1.803
 3918SOL    HW112653   5.389   4.185   1.805
 3918SOL    HW212654   5.338   4.032   1.778
 3919SOL     OW12655   3.811   0.019   0.707
 3919SOL    HW112656   3.898   0.033   0.660
 3919SOL    HW212657   3.828   0.005   0.805
 3920SOL     OW12658   2.098   2.784   0.011
 3920SOL    HW112659   2.096   2.884   0.015
 3920SOL    HW212660   2.032   2.747   0.077
 3921SOL     OW12661   0.874   3.897   1.724
 3921SOL    HW112662   0.867   3.951   1.640
 3921SOL    HW212663   0.917   3.809   1.704
 3922SOL     OW12664   0.115   3.827   1.779
 3922SOL    HW112665   0.030   3.855   1.823
 3922SOL    HW212666   0.193   3.855   1.836
 3923SOL     OW12667   0.773   0.617   0.424
 3923SOL    HW112668   0.702   0.631   0.493
 3923SOL    HW212669   0.830   0.540   0.450
 3924SOL     OW12670   6.464   5.075   4.758
 3924SOL    HW112671   6.516   5.009   4.704
 3924SOL    HW212672   6.378   5.034   4.787
 3925SOL     OW12673   1.724   4.989   1.947
 3925SOL    HW112674   1.796   5.003   1.879
 3925SOL    HW212675   1.751   5.031   2.033
 3926SOL     OW12676   4.454   4.484   2.428
 3926SOL    HW112677   4.464   4.493   2.329
 3926SOL    HW212678   4.377   4.540   2.459
 3927SOL     OW12679   0.596   3.050   6.436
 3927SOL    HW112680   0.559   3.030   6.345
 3927SOL    HW212681   0.581   2.972   6.496
 3928SOL     OW12682   4.630   5.975   6.988
 3928SOL    HW112683   4.599   5.925   6.907
 3928SOL    HW212684   4.717   6.019   6.969
 3929SOL     OW12685   0.690   0.740   5.036
 3929SOL    HW112686   0.689   0.838   5.014
 3929SOL    HW212687   0.784   0.711   5.055
 3930SOL     OW12688   2.598   2.102   3.699
 3930SOL    HW112689   2.652   2.185   3.682
 3930SOL    HW212690   2.644   2.024   3.656
 3931SOL     OW12691   7.017   1.430   2.027
 3931SOL    HW112692   6.948   1.396   2.091
 3931SOL    HW212693   6.984   1.513   1.983
 3932SOL     OW12694   0.406   2.640   4.180
 3932SOL    HW112695   0.479   2.697   4.217
 3932SOL    HW212696   0.319   2.687   4.189
 3933SOL     OW12697   1.528   0.254   6.134
 3933SOL    HW112698   1.583   0.171   6.127
 3933SOL    HW212699   1.541   0.310   6.052
 3934SOL     OW12700   6.062   0.119   6.176
 3934SOL    HW112701   6.125   0.107   6.252
 3934SOL    HW212702   6.053   0.033   6.126
 3935SOL     OW12703   3.572   0.519   0.827
 3935SOL    HW112704   3.538   0.429   0.800
 3935SOL    HW212705   3.523   0.552   0.907
 3936SOL     OW12706   6.425   5.941   4.140
 3936SOL    HW112707   6.494   5.899   4.199
 3936SOL    HW212708   6.334   5.919   4.175
 3937SOL     OW12709   6.918   1.731   2.730
 3937SOL    HW112710   7.007   1.734   2.775
 3937SOL    HW212711   6.854   1.680   2.787
 3938SOL     OW12712   6.902   1.171   3.027
 3938SOL    HW112713   6.868   1.184   3.120
 3938SOL    HW212714   6.849   1.228   2.964
 3939SOL     OW12715   2.889   1.816   1.950
 3939SOL    HW112716   2.790   1.826   1.945
 3939SOL    HW212717   2.914   1.721   1.933
 3940SOL     OW12718   4.116   3.221   1.078
 3940SOL    HW112719   4.160   3.285   1.015
 3940SOL    HW212720   4.086   3.140   1.029
 3941SOL     OW12721   4.614   4.607   5.935
 3941SOL    HW112722   4.689   4.669   5.915
 3941SOL    HW212723   4.620   4.527   5.875
 3942SOL     OW12724   6.541   6.708   6.892
 3942SOL    HW112725   6.513   6.613   6.908
 3942SOL    HW212726   6.606   6.735   6.963
 3943SOL     OW12727   0.696   3.315   4.080
 3943SOL    HW112728   0.627   3.387   4.084
 3943SOL    HW212729   0.706   3.273   4.171
 3944SOL     OW12730   4.602   2.215   4.755
 3944SOL    HW112731   4.665   2.279   4.711
 3944SOL    HW212732   4.576   2.143   4.690
 3945SOL     OW12733   0.204   1.782   0.959
 3945SOL    HW112734   0.280   1.718   0.951
 3945SOL    HW212735   0.154   1.763   1.043
 3946SOL     OW12736   4.676   4.679   3.359
 3946SOL    HW112737   4.695   4.584   3.332
 3946SOL    HW212738   4.592   4.681   3.414
 3947SOL     OW12739   4.378   6.275   0.578
 3947SOL    HW112740   4.307   6.340   0.604
 3947SOL    HW212741   4.350   6.183   0.607
 3948SOL     OW12742   6.571   4.748   1.367
 3948SOL    HW112743   6.487   4.760   1.419
 3948SOL    HW212744   6.569   4.659   1.320
 3949SOL     OW12745   4.472   5.721   2.890
 3949SOL    HW112746   4.413   5.802   2.889
 3949SOL    HW212747   4.441   5.657   2.820
 3950SOL     OW12748   1.550   5.593   1.331
 3950SOL    HW112749   1.497   5.579   1.415
 3950SOL    HW212750   1.627   5.529   1.330
 3951SOL     OW12751   4.468   0.958   1.486
 3951SOL    HW112752   4.487   1.011   1.403
 3951SOL    HW212753   4.456   0.862   1.462
 3952SOL     OW12754   0.160   2.892   1.178
 3952SOL    HW112755   0.189   2.802   1.208
 3952SOL    HW212756   0.082   2.883   1.116
 3953SOL     OW12757   4.092   3.462   2.056
 3953SOL    HW112758   4.136   3.548   2.029
 3953SOL    HW212759   3.999   3.459   2.019
 3954SOL     OW12760   4.121   5.054   5.517
 3954SOL    HW112761   4.055   5.000   5.464
 3954SOL    HW212762   4.091   5.058   5.612
 3955SOL     OW12763   3.534   1.586   5.737
 3955SOL    HW112764   3.601   1.528   5.689
 3955SOL    HW212765   3.463   1.615   5.672
 3956SOL     OW12766   1.295   1.260   2.482
 3956SOL    HW112767   1.302   1.169   2.524
 3956SOL    HW212768   1.303   1.252   2.383
 3957SOL     OW12769   3.669   6.938   4.516
 3957SOL    HW112770   3.716   7.020   4.484
 3957SOL    HW212771   3.586   6.923   4.462
 3958SOL     OW12772   6.058   2.616   3.997
 3958SOL    HW112773   6.131   2.584   4.057
 3958SOL    HW212774   5.973   2.566   4.017
 3959SOL     OW12775   4.835   4.985   0.160
 3959SOL    HW112776   4.837   4.972   0.061
 3959SOL    HW212777   4.857   4.898   0.205
 3960SOL     OW12778   5.102   2.212   5.236
 3960SOL    HW112779   5.040   2.243   5.308
 3960SOL    HW212780   5.186   2.266   5.238
 3961SOL     OW12781   5.292   0.092   3.142
 3961SOL    HW112782   5.301   0.127   3.236
 3961SOL    HW212783   5.325   0.161   3.078
 3962SOL     OW12784   0.519   5.548   6.246
 3962SOL    HW112785   0.435   5.603   6.257
 3962SOL    HW212786   0.534   5.530   6.149
 3963SOL     OW12787   4.809   6.312   1.984
 3963SOL    HW112788   4.859   6.386   1.939
 3963SOL    HW212789   4.847   6.297   2.075
 3964SOL     OW12790   4.809   3.877   3.162
 3964SOL    HW112791   4.742   3.827   3.217
 3964SOL    HW212792   4.861   3.812   3.106
 3965SOL     OW12793   5.417   3.488   4.356
 3965SOL    HW112794   5.371   3.575   4.339
 3965SOL    HW212795   5.373   3.440   4.431
 3966SOL     OW12796   3.641   5.845   6.593
 3966SOL    HW112797   3.575   5.815   6.524
 3966SOL    HW212798   3.595   5.857   6.680
 3967SOL     OW12799   2.089   4.317   1.837
 3967SOL    HW112800   2.024   4.242   1.836
 3967SOL    HW212801   2.051   4.393   1.890
 3968SOL     OW12802   4.227   0.589   0.633
 3968SOL    HW112803   4.262   0.525   0.701
 3968SOL    HW212804   4.262   0.680   0.652
 3969SOL     OW12805   1.591   5.404   2.015
 3969SOL    HW112806   1.545   5.316   2.003
 3969SOL    HW212807   1.534   5.465   2.071
 3970SOL     OW12808   5.830   5.822   1.951
 3970SOL    HW112809   5.849   5.793   2.045
 3970SOL    HW212810   5.904   5.881   1.919
 3971SOL     OW12811   2.861   5.913   4.119
 3971SOL    HW112812   2.802   5.957   4.050
 3971SOL    HW212813   2.883   5.980   4.190
 3972SOL     OW12814   1.251   4.109   6.490
 3972SOL    HW112815   1.217   4.166   6.415
 3972SOL    HW212816   1.279   4.020   6.453
 3973SOL     OW12817   0.981   6.002   1.405
 3973SOL    HW112818   0.896   6.010   1.457
 3973SOL    HW212819   0.960   6.001   1.308
 3974SOL     OW12820   1.783   0.955   5.921
 3974SOL    HW112821   1.782   1.050   5.953
 3974SOL    HW212822   1.829   0.897   5.988
 3975SOL     OW12823   5.118   1.931   6.088
 3975SOL    HW112824   5.212   1.956   6.115
 3975SOL    HW212825   5.059   1.935   6.168
 3976SOL     OW12826   2.067   6.369   2.444
 3976SOL    HW112827   2.137   6.329   2.503
 3976SOL    HW212828   2.049   6.463   2.473
 3977SOL     OW12829   1.348   4.193   6.808
 3977SOL    HW112830   1.302   4.175   6.721
 3977SOL    HW212831   1.313   4.279   6.846
 3978SOL     OW12832   6.743   5.227   3.415
 3978SOL    HW112833   6.667   5.177   3.457
 3978SOL    HW212834   6.717   5.322   3.401
 3979SOL     OW12835   3.485   1.027   6.183
 3979SOL    HW112836   3.404   1.066   6.226
 3979SOL    HW212837   3.536   0.974   6.250
 3980SOL     OW12838   6.145   6.438   6.428
 3980SOL    HW112839   6.159   6.346   6.391
 3980SOL    HW212840   6.161   6.437   6.527
 3981SOL     OW12841   5.393   5.982   0.463
 3981SOL    HW112842   5.318   5.942   0.516
 3981SOL    HW212843   5.371   6.077   0.440
 3982SOL     OW12844   2.057   0.116   2.003
 3982SOL    HW112845   1.968   0.097   2.044
 3982SOL    HW212846   2.082   0.211   2.020
 3983SOL     OW12847   4.416   5.173   3.906
 3983SOL    HW112848   4.342   5.237   3.923
 3983SOL    HW212849   4.415   5.102   3.976
 3984SOL     OW12850   6.032   1.691   2.409
 3984SOL    HW112851   6.116   1.745   2.419
 3984SOL    HW212852   5.964   1.744   2.358
 3985SOL     OW12853   3.556   5.203   6.713
 3985SOL    HW112854   3.541   5.214   6.811
 3985SOL    HW212855   3.506   5.122   6.680
 3986SOL     OW12856   5.388   1.801   2.591
 3986SOL    HW112857   5.331   1.836   2.518
 3986SOL    HW212858   5.485   1.812   2.567
 3987SOL     OW12859   3.084   5.051   4.855
 3987SOL    HW112860   2.993   5.073   4.820
 3987SOL    HW212861   3.139   5.008   4.784
 3988SOL     OW12862   4.681   5.714   0.700
 3988SOL    HW112863   4.689   5.655   0.620
 3988SOL    HW212864   4.690   5.659   0.784
 3989SOL     OW12865   6.129   2.209   0.139
 3989SOL    HW112866   6.139   2.134   0.204
 3989SOL    HW212867   6.171   2.292   0.176
 3990SOL     OW12868   4.985   2.562   1.770
 3990SOL    HW112869   4.965   2.637   1.833
 3990SOL    HW212870   5.081   2.567   1.742
 3991SOL     OW12871   0.724   1.336   2.607
 3991SOL    HW112872   0.783   1.371   2.679
 3991SOL    HW212873   0.756   1.245   2.579
 3992SOL     OW12874   3.477   1.965   0.545
 3992SOL    HW112875   3.495   1.902   0.621
 3992SOL    HW212876   3.434   2.048   0.581
 3993SOL     OW12877   1.275   3.100   2.172
 3993SOL    HW112878   1.249   3.099   2.268
 3993SOL    HW212879   1.193   3.093   2.115
 3994SOL     OW12880   2.308   6.847   5.272
 3994SOL    HW112881   2.347   6.844   5.180
 3994SOL    HW212882   2.325   6.936   5.313
 3995SOL     OW12883   1.785   2.962   5.438
 3995SOL    HW112884   1.846   2.985   5.514
 3995SOL    HW212885   1.757   2.867   5.445
 3996SOL     OW12886   0.164   6.513   5.185
 3996SOL    HW112887   0.067   6.516   5.162
 3996SOL    HW212888   0.180   6.438   5.250
 3997SOL     OW12889   5.620   1.233   4.048
 3997SOL    HW112890   5.597   1.171   4.123
 3997SOL    HW212891   5.593   1.326   4.072
 3998SOL     OW12892   3.668   2.090   3.952
 3998SOL    HW112893   3.604   2.135   4.014
 3998SOL    HW212894   3.681   1.995   3.980
 3999SOL     OW12895   6.294   2.297   4.776
 3999SOL    HW112896   6.378   2.346   4.755
 3999SOL    HW212897   6.219   2.363   4.788
 4000SOL     OW12898   3.858   6.834   3.726
 4000SOL    HW112899   3.797   6.903   3.766
 4000SOL    HW212900   3.805   6.775   3.664
 4001SOL     OW12901   1.877   2.226   3.578
 4001SOL    HW112902   1.807   2.162   3.546
 4001SOL    HW212903   1.960   2.175   3.599
 4002SOL     OW12904   2.130   3.745   1.958
 4002SOL    HW112905   2.200   3.815   1.973
 4002SOL    HW212906   2.172   3.654   1.963
 4003SOL     OW12907   3.209   0.312   4.414
 4003SOL    HW112908   3.198   0.407   4.444
 4003SOL    HW212909   3.306   0.289   4.413
 4004SOL     OW12910   6.363   2.054   4.708
 4004SOL    HW112911   6.278   2.001   4.704
 4004SOL    HW212912   6.342   2.151   4.704
 4005SOL     OW12913   5.071   5.574   6.394
 4005SOL    HW112914   5.063   5.626   6.309
 4005SOL    HW212915   5.164   5.542   6.405
 4006SOL     OW12916   3.954   5.398   2.211
 4006SOL    HW112917   3.856   5.378   2.210
 4006SOL    HW212918   3.968   5.496   2.229
 4007SOL     OW12919   6.784   2.390   6.766
 4007SOL    HW112920   6.857   2.352   6.709
 4007SOL    HW212921   6.695   2.358   6.732
 4008SOL     OW12922   2.616   2.479   4.523
 4008SOL    HW112923   2.576   2.522   4.604
 4008SOL    HW212924   2.567   2.510   4.441
 4009SOL     OW12925   4.110   3.776   2.444
 4009SOL    HW112926   4.209   3.765   2.441
 4009SOL    HW212927   4.072   3.769   2.351
 4010SOL     OW12928   2.059   3.605   0.519
 4010SOL    HW112929   2.077   3.576   0.613
 4010SOL    HW212930   2.095   3.538   0.455
 4011SOL     OW12931   1.269   2.538   1.794
 4011SOL    HW112932   1.186   2.492   1.762
 4011SOL    HW212933   1.347   2.510   1.738
 4012SOL     OW12934   0.041   4.092   3.106
 4012SOL    HW112935   0.106   4.015   3.112
 4012SOL    HW212936   6.968   4.057   3.111
 4013SOL     OW12937   4.508   2.382   3.512
 4013SOL    HW112938   4.566   2.411   3.588
 4013SOL    HW212939   4.422   2.345   3.548
 4014SOL     OW12940   5.466   5.921   3.214
 4014SOL    HW112941   5.379   5.915   3.166
 4014SOL    HW212942   5.482   6.016   3.241
 4015SOL     OW12943   5.191   4.058   5.881
 4015SOL    HW112944   5.282   4.058   5.922
 4015SOL    HW212945   5.172   4.148   5.841
 4016SOL     OW12946   3.267   6.117   6.003
 4016SOL    HW112947   3.310   6.079   6.084
 4016SOL    HW212948   3.169   6.097   6.005
 4017SOL     OW12949   6.500   5.666   6.955
 4017SOL    HW112950   6.553   5.632   6.877
 4017SOL    HW212951   6.522   5.613   0.017
 4018SOL     OW12952   3.976   5.813   1.115
 4018SOL    HW112953   3.907   5.786   1.048
 4018SOL    HW212954   4.062   5.832   1.068
 4019SOL     OW12955   5.014   5.100   3.269
 4019SOL    HW112956   5.087   5.134   3.328
 4019SOL    HW212957   5.036   5.008   3.237
 4020SOL     OW12958   5.376   2.295   5.217
 4020SOL    HW112959   5.352   2.333   5.128
 4020SOL    HW212960   5.362   2.364   5.288
 4021SOL     OW12961   3.287   4.441   5.831
 4021SOL    HW112962   3.204   4.469   5.880
 4021SOL    HW212963   3.273   4.351   5.791
 4022SOL     OW12964   4.838   0.309   0.705
 4022SOL    HW112965   4.903   0.259   0.647
 4022SOL    HW212966   4.887   0.378   0.758
 4023SOL     OW12967   6.032   1.090   6.025
 4023SOL    HW112968   5.987   1.162   5.971
 4023SOL    HW212969   6.006   1.001   5.990
 4024SOL     OW12970   4.259   4.794   4.006
 4024SOL    HW112971   4.198   4.790   3.926
 4024SOL    HW212972   4.205   4.814   4.088
 4025SOL     OW12973   0.761   4.442   3.780
 4025SOL    HW112974   0.717   4.399   3.701
 4025SOL    HW212975   0.782   4.372   3.848
 4026SOL     OW12976   5.278   6.013   4.301
 4026SOL    HW112977   5.288   6.064   4.386
 4026SOL    HW212978   5.307   5.918   4.314
 4027SOL     OW12979   4.263   5.015   1.789
 4027SOL    HW112980   4.263   4.959   1.872
 4027SOL    HW212981   4.356   5.019   1.751
 4028SOL     OW12982   2.423   0.696   3.868
 4028SOL    HW112983   2.414   0.702   3.769
 4028SOL    HW212984   2.520   0.688   3.892
 4029SOL     OW12985   1.718   4.509   4.766
 4029SOL    HW112986   1.728   4.415   4.733
 4029SOL    HW212987   1.736   4.512   4.865
 4030SOL     OW12988   0.131   2.329   5.404
 4030SOL    HW112989   0.092   2.383   5.479
 4030SOL    HW212990   0.082   2.351   5.319
 4031SOL     OW12991   3.817   5.416   4.003
 4031SOL    HW112992   3.805   5.499   4.057
 4031SOL    HW212993   3.741   5.406   3.939
 4032SOL     OW12994   4.715   0.005   4.867
 4032SOL    HW112995   4.805   6.981   4.864
 4032SOL    HW212996   4.644   6.954   4.864
 4033SOL     OW12997   2.802   3.746   5.173
 4033SOL    HW112998   2.866   3.670   5.169
 4033SOL    HW212999   2.718   3.717   5.219
 4034SOL     OW13000   6.955   2.694   3.793
 4034SOL    HW113001   6.924   2.604   3.762
 4034SOL    HW213002   7.011   2.684   3.876
 4035SOL     OW13003   0.088   4.779   0.317
 4035SOL    HW113004   0.168   4.821   0.275
 4035SOL    HW213005   0.053   4.839   0.390
 4036SOL     OW13006   6.731   6.700   3.222
 4036SOL    HW113007   6.752   6.778   3.281
 4036SOL    HW213008   6.703   6.622   3.277
 4037SOL     OW13009   6.802   4.051   6.804
 4037SOL    HW113010   6.744   4.062   6.723
 4037SOL    HW213011   6.815   3.954   6.822
 4038SOL     OW13012   5.390   4.701   3.907
 4038SOL    HW113013   5.364   4.611   3.872
 4038SOL    HW213014   5.347   4.716   3.996
 4039SOL     OW13015   4.664   6.361   0.910
 4039SOL    HW113016   4.596   6.434   0.902
 4039SOL    HW213017   4.634   6.282   0.856
 4040SOL     OW13018   3.906   6.008   1.566
 4040SOL    HW113019   3.834   6.066   1.603
 4040SOL    HW213020   3.881   5.912   1.577
 4041SOL     OW13021   1.520   6.733   4.369
 4041SOL    HW113022   1.614   6.704   4.351
 4041SOL    HW213023   1.520   6.820   4.419
 4042SOL     OW13024   5.955   5.085   1.829
 4042SOL    HW113025   5.874   5.139   1.853
 4042SOL    HW213026   5.928   4.990   1.814
 4043SOL     OW13027   6.742   2.808   1.278
 4043SOL    HW113028   6.803   2.862   1.334
 4043SOL    HW213029   6.650   2.847   1.281
 4044SOL     OW13030   6.423   5.806   3.512
 4044SOL    HW113031   6.516   5.810   3.547
 4044SOL    HW213032   6.379   5.896   3.523
 4045SOL     OW13033   2.476   6.078   5.978
 4045SOL    HW113034   2.441   6.008   5.917
 4045SOL    HW213035   2.542   6.038   6.041
 4046SOL     OW13036   1.725   3.143   0.973
 4046SOL    HW113037   1.726   3.201   1.054
 4046SOL    HW213038   1.819   3.122   0.946
 4047SOL     OW13039   3.336   3.828   1.319
 4047SOL    HW113040   3.276   3.896   1.362
 4047SOL    HW213041   3.281   3.768   1.260
 4048SOL     OW13042   5.373   1.452   0.934
 4048SOL    HW113043   5.435   1.385   0.975
 4048SOL    HW213044   5.278   1.428   0.958
 4049SOL     OW13045   5.911   1.033   5.425
 4049SOL    HW113046   5.852   1.049   5.345
 4049SOL    HW213047   5.893   1.103   5.494
 4050SOL     OW13048   2.554   0.401   1.142
 4050SOL    HW113049   2.644   0.388   1.099
 4050SOL    HW213050   2.560   0.476   1.208
 4051SOL     OW13051   3.297   3.435   0.775
 4051SOL    HW113052   3.325   3.527   0.747
 4051SOL    HW213053   3.296   3.375   0.695
 4052SOL     OW13054   1.960   6.263   1.356
 4052SOL    HW113055   1.911   6.179   1.334
 4052SOL    HW213056   2.034   6.243   1.420
 4053SOL     OW13057   3.527   4.928   3.541
 4053SOL    HW113058   3.601   4.871   3.578
 4053SOL    HW213059   3.565   5.013   3.505
 4054SOL     OW13060   5.568   2.104   0.077
 4054SOL    HW113061   5.555   2.196   0.040
 4054SOL    HW213062   5.480   2.058   0.082
 4055SOL     OW13063   3.649   2.137   0.099
 4055SOL    HW113064   3.657   2.066   0.029
 4055SOL    HW213065   3.740   2.174   0.120
 4056SOL     OW13066   4.159   3.569   0.521
 4056SOL    HW113067   4.138   3.642   0.586
 4056SOL    HW213068   4.110   3.486   0.546
 4057SOL     OW13069   5.736   2.431   6.019
 4057SOL    HW113070   5.767   2.494   6.090
 4057SOL    HW213071   5.677   2.480   5.954
 4058SOL     OW13072   0.865   0.417   4.911
 4058SOL    HW113073   0.931   0.343   4.924
 4058SOL    HW213074   0.789   0.406   4.975
 4059SOL     OW13075   0.126   1.816   4.939
 4059SOL    HW113076   0.069   1.838   4.860
 4059SOL    HW213077   0.215   1.783   4.909
 4060SOL     OW13078   4.647   5.386   3.774
 4060SOL    HW113079   4.581   5.310   3.774
 4060SOL    HW213080   4.728   5.361   3.721
 4061SOL     OW13081   2.869   3.073   1.714
 4061SOL    HW113082   2.938   3.111   1.653
 4061SOL    HW213083   2.855   2.976   1.693
 4062SOL     OW13084   2.865   0.119   3.049
 4062SOL    HW113085   2.867   0.023   3.023
 4062SOL    HW213086   2.939   0.138   3.114
 4063SOL     OW13087   2.903   5.263   6.049
 4063SOL    HW113088   2.991   5.227   6.018
 4063SOL    HW213089   2.831   5.197   6.030
 4064SOL     OW13090   6.249   6.894   3.988
 4064SOL    HW113091   6.328   6.849   3.945
 4064SOL    HW213092   6.263   6.900   4.087
 4065SOL     OW13093   6.171   4.835   6.484
 4065SOL    HW113094   6.202   4.811   6.392
 4065SOL    HW213095   6.085   4.886   6.479
 4066SOL     OW13096   5.898   4.797   1.813
 4066SOL    HW113097   5.875   4.703   1.785
 4066SOL    HW213098   5.841   4.824   1.890
 4067SOL     OW13099   6.273   1.135   1.807
 4067SOL    HW113100   6.300   1.222   1.847
 4067SOL    HW213101   6.283   1.062   1.874
 4068SOL     OW13102   5.664   0.487   3.909
 4068SOL    HW113103   5.617   0.412   3.956
 4068SOL    HW213104   5.760   0.488   3.937
 4069SOL     OW13105   0.030   5.609   1.488
 4069SOL    HW113106   0.125   5.585   1.506
 4069SOL    HW213107   0.000   5.680   1.551
 4070SOL     OW13108   0.897   3.848   2.798
 4070SOL    HW113109   0.909   3.773   2.733
 4070SOL    HW213110   0.802   3.850   2.829
 4071SOL     OW13111   2.029   0.065   4.057
 4071SOL    HW113112   2.017   0.050   3.958
 4071SOL    HW213113   2.003   7.002   4.106
 4072SOL     OW13114   0.799   0.161   4.000
 4072SOL    HW113115   0.828   0.209   3.917
 4072SOL    HW213116   0.810   0.063   3.987
 4073SOL     OW13117   2.911   4.991   0.735
 4073SOL    HW113118   2.913   4.894   0.710
 4073SOL    HW213119   2.934   5.046   0.654
 4074SOL     OW13120   1.583   2.914   0.512
 4074SOL    HW113121   1.517   2.896   0.439
 4074SOL    HW213122   1.539   2.900   0.601
 4075SOL     OW13123   5.226   0.437   4.198
 4075SOL    HW113124   5.237   0.529   4.162
 4075SOL    HW213125   5.285   0.373   4.149
 4076SOL     OW13126   1.690   2.686   3.430
 4076SOL    HW113127   1.759   2.628   3.473
 4076SOL    HW213128   1.719   2.708   3.337
 4077SOL     OW13129   2.564   1.433   0.851
 4077SOL    HW113130   2.558   1.406   0.947
 4077SOL    HW213131   2.553   1.532   0.844
 4078SOL     OW13132   5.556   3.819   2.182
 4078SOL    HW113133   5.566   3.838   2.084
 4078SOL    HW213134   5.487   3.880   2.221
 4079SOL     OW13135   6.820   1.011   3.599
 4079SOL    HW113136   6.916   1.007   3.626
 4079SOL    HW213137   6.766   0.954   3.660
 4080SOL     OW13138   3.982   3.020   2.638
 4080SOL    HW113139   3.964   3.106   2.590
 4080SOL    HW213140   4.079   2.999   2.633
 4081SOL     OW13141   2.460   2.214   6.250
 4081SOL    HW113142   2.404   2.168   6.318
 4081SOL    HW213143   2.427   2.307   6.236
 4082SOL     OW13144   1.305   2.790   5.351
 4082SOL    HW113145   1.264   2.755   5.435
 4082SOL    HW213146   1.272   2.736   5.273
 4083SOL     OW13147   5.916   4.903   2.773
 4083SOL    HW113148   5.833   4.851   2.752
 4083SOL    HW213149   5.895   5.001   2.769
 4084SOL     OW13150   4.517   0.501   3.118
 4084SOL    HW113151   4.544   0.594   3.143
 4084SOL    HW213152   4.477   0.502   3.027
 4085SOL     OW13153   3.941   4.986   1.717
 4085SOL    HW113154   3.921   5.077   1.753
 4085SOL    HW213155   4.039   4.968   1.724
 4086SOL     OW13156   6.187   5.260   5.414
 4086SOL    HW113157   6.134   5.289   5.493
 4086SOL    HW213158   6.143   5.292   5.330
 4087SOL     OW13159   1.779   0.446   2.499
 4087SOL    HW113160   1.812   0.385   2.426
 4087SOL    HW213161   1.812   0.539   2.481
 4088SOL     OW13162   0.383   2.031   5.180
 4088SOL    HW113163   0.453   1.999   5.116
 4088SOL    HW213164   0.307   2.071   5.130
 4089SOL     OW13165   1.253   0.813   2.792
 4089SOL    HW113166   1.159   0.811   2.824
 4089SOL    HW213167   1.310   0.754   2.849
 4090SOL     OW13168   2.782   1.880   6.044
 4090SOL    HW113169   2.706   1.815   6.039
 4090SOL    HW213170   2.776   1.932   6.130
 4091SOL     OW13171   3.540   6.053   1.325
 4091SOL    HW113172   3.604   6.116   1.370
 4091SOL    HW213173   3.468   6.028   1.389
 4092SOL     OW13174   5.502   2.800   4.487
 4092SOL    HW113175   5.492   2.881   4.545
 4092SOL    HW213176   5.568   2.738   4.529
 4093SOL     OW13177   5.338   4.456   3.843
 4093SOL    HW113178   5.258   4.410   3.804
 4093SOL    HW213179   5.420   4.430   3.792
 4094SOL     OW13180   6.781   5.848   0.024
 4094SOL    HW113181   6.816   5.927   0.075
 4094SOL    HW213182   6.755   5.776   0.089
 4095SOL     OW13183   1.360   5.108   0.249
 4095SOL    HW113184   1.432   5.145   0.307
 4095SOL    HW213185   1.284   5.077   0.306
 4096SOL     OW13186   0.294   0.312   6.857
 4096SOL    HW113187   0.377   0.357   6.889
 4096SOL    HW213188   0.303   0.291   6.759
 4097SOL     OW13189   6.580   4.296   4.883
 4097SOL    HW113190   6.616   4.286   4.790
 4097SOL    HW213191   6.634   4.240   4.946
 4098SOL     OW13192   1.566   4.444   2.447
 4098SOL    HW113193   1.476   4.461   2.408
 4098SOL    HW213194   1.614   4.531   2.460
 4099SOL     OW13195   5.417   3.854   6.165
 4099SOL    HW113196   5.476   3.908   6.107
 4099SOL    HW213197   5.324   3.890   6.161
 4100SOL     OW13198   1.761   1.083   3.814
 4100SOL    HW113199   1.707   1.167   3.809
 4100SOL    HW213200   1.857   1.105   3.824
 4101SOL     OW13201   6.386   5.245   0.227
 4101SOL    HW113202   6.392   5.200   0.317
 4101SOL    HW213203   6.348   5.181   0.160
 4102SOL     OW13204   1.944   6.581   0.405
 4102SOL    HW113205   1.996   6.628   0.334
 4102SOL    HW213206   1.929   6.486   0.377
 4103SOL     OW13207   1.742   6.531   4.350
 4103SOL    HW113208   1.797   6.448   4.352
 4103SOL    HW213209   1.652   6.512   4.390
 4104SOL     OW13210   2.136   5.605   4.890
 4104SOL    HW113211   2.088   5.678   4.842
 4104SOL    HW213212   2.096   5.517   4.863
 4105SOL     OW13213   4.498   0.136   1.943
 4105SOL    HW113214   4.441   0.217   1.955
 4105SOL    HW213215   4.595   0.161   1.948
 4106SOL     OW13216   1.156   1.126   2.829
 4106SOL    HW113217   1.150   1.226   2.826
 4106SOL    HW213218   1.196   1.093   2.743
 4107SOL     OW13219   0.996   0.409   0.546
 4107SOL    HW113220   0.979   0.416   0.644
 4107SOL    HW213221   1.088   0.373   0.530
 4108SOL     OW13222   6.083   5.784   5.641
 4108SOL    HW113223   5.989   5.809   5.620
 4108SOL    HW213224   6.091   5.684   5.646
 4109SOL     OW13225   5.520   5.653   3.276
 4109SOL    HW113226   5.529   5.750   3.254
 4109SOL    HW213227   5.537   5.638   3.373
 4110SOL     OW13228   5.297   3.262   0.154
 4110SOL    HW113229   5.329   3.220   0.070
 4110SOL    HW213230   5.299   3.361   0.145
 4111SOL     OW13231   6.419   3.906   3.950
 4111SOL    HW113232   6.354   3.851   3.897
 4111SOL    HW213233   6.416   4.001   3.918
 4112SOL     OW13234   4.512   5.945   4.757
 4112SOL    HW113235   4.422   5.952   4.713
 4112SOL    HW213236   4.508   5.987   4.848
 4113SOL     OW13237   4.424   5.307   4.512
 4113SOL    HW113238   4.382   5.238   4.453
 4113SOL    HW213239   4.352   5.367   4.549
 4114SOL     OW13240   0.263   1.230   1.352
 4114SOL    HW113241   0.204   1.161   1.310
 4114SOL    HW213242   0.274   1.210   1.449
 4115SOL     OW13243   4.084   5.789   3.838
 4115SOL    HW113244   4.157   5.766   3.903
 4115SOL    HW213245   4.084   5.887   3.821
 4116SOL     OW13246   4.927   3.793   2.464
 4116SOL    HW113247   4.957   3.718   2.524
 4116SOL    HW213248   4.878   3.861   2.518
 4117SOL     OW13249   1.072   1.443   3.958
 4117SOL    HW113250   1.079   1.346   3.983
 4117SOL    HW213251   1.112   1.456   3.867
 4118SOL     OW13252   0.417   6.640   0.032
 4118SOL    HW113253   0.435   6.736   0.051
 4118SOL    HW213254   0.333   6.612   0.079
 4119SOL     OW13255   0.191   0.489   4.470
 4119SOL    HW113256   0.288   0.466   4.477
 4119SOL    HW213257   0.137   0.406   4.459
 4120SOL     OW13258   2.133   0.750   6.529
 4120SOL    HW113259   2.159   0.761   6.624
 4120SOL    HW213260   2.033   0.755   6.520
 4121SOL     OW13261   0.086   6.831   2.195
 4121SOL    HW113262   0.057   6.859   2.287
 4121SOL    HW213263   0.186   6.827   2.192
 4122SOL     OW13264   0.733   4.636   3.075
 4122SOL    HW113265   0.664   4.701   3.041
 4122SOL    HW213266   0.743   4.647   3.174
 4123SOL     OW13267   5.198   4.916   1.396
 4123SOL    HW113268   5.199   4.830   1.448
 4123SOL    HW213269   5.181   4.992   1.458
 4124SOL     OW13270   6.207   5.401   0.325
 4124SOL    HW113271   6.145   5.433   0.254
 4124SOL    HW213272   6.277   5.342   0.284
 4125SOL     OW13273   6.286   2.312   0.601
 4125SOL    HW113274   6.304   2.323   0.698
 4125SOL    HW213275   6.252   2.219   0.584
 4126SOL     OW13276   1.240   3.555   2.861
 4126SOL    HW113277   1.293   3.637   2.842
 4126SOL    HW213278   1.209   3.556   2.956
 4127SOL     OW13279   4.300   1.674   4.709
 4127SOL    HW113280   4.279   1.625   4.625
 4127SOL    HW213281   4.294   1.773   4.692
 4128SOL     OW13282   0.736   3.032   6.799
 4128SOL    HW113283   0.805   3.050   6.869
 4128SOL    HW213284   0.770   3.063   6.710
 4129SOL     OW13285   2.880   2.080   0.773
 4129SOL    HW113286   2.951   2.052   0.708
 4129SOL    HW213287   2.838   2.165   0.741
 4130SOL     OW13288   6.150   3.188   0.559
 4130SOL    HW113289   6.128   3.214   0.465
 4130SOL    HW213290   6.214   3.254   0.598
 4131SOL     OW13291   4.989   6.644   3.007
 4131SOL    HW113292   4.923   6.578   3.043
 4131SOL    HW213293   5.046   6.678   3.081
 4132SOL     OW13294   0.114   5.507   3.527
 4132SOL    HW113295   0.029   5.524   3.478
 4132SOL    HW213296   0.173   5.588   3.522
 4133SOL     OW13297   5.647   0.378   2.729
 4133SOL    HW113298   5.635   0.475   2.752
 4133SOL    HW213299   5.603   0.359   2.642
 4134SOL     OW13300   1.326   3.617   1.386
 4134SOL    HW113301   1.263   3.678   1.337
 4134SOL    HW213302   1.342   3.534   1.331
 4135SOL     OW13303   6.449   0.871   1.834
 4135SOL    HW113304   6.471   0.886   1.931
 4135SOL    HW213305   6.377   0.802   1.827
 4136SOL     OW13306   1.037   4.914   0.628
 4136SOL    HW113307   0.987   4.875   0.550
 4136SOL    HW213308   1.041   4.847   0.702
 4137SOL     OW13309   1.168   2.815   0.083
 4137SOL    HW113310   1.242   2.762   0.126
 4137SOL    HW213311   1.099   2.752   0.047
 4138SOL     OW13312   5.053   0.350   0.011
 4138SOL    HW113313   5.128   0.312   6.976
 4138SOL    HW213314   4.978   0.376   6.970
 4139SOL     OW13315   2.167   4.050   2.907
 4139SOL    HW113316   2.118   3.973   2.867
 4139SOL    HW213317   2.139   4.135   2.862
 4140SOL     OW13318   1.799   0.304   6.059
 4140SOL    HW113319   1.758   0.243   5.991
 4140SOL    HW213320   1.751   0.391   6.058
 4141SOL     OW13321   4.917   0.680   6.225
 4141SOL    HW113322   4.980   0.680   6.147
 4141SOL    HW213323   4.851   0.606   6.215
 4142SOL     OW13324   0.441   5.487   2.223
 4142SOL    HW113325   0.455   5.450   2.131
 4142SOL    HW213326   0.493   5.572   2.233
 4143SOL     OW13327   5.975   2.971   6.115
 4143SOL    HW113328   6.048   2.982   6.182
 4143SOL    HW213329   5.888   2.957   6.164
 4144SOL     OW13330   6.154   1.038   0.769
 4144SOL    HW113331   6.178   1.054   0.674
 4144SOL    HW213332   6.055   1.025   0.777
 4145SOL     OW13333   6.765   0.648   1.674
 4145SOL    HW113334   6.857   0.615   1.695
 4145SOL    HW213335   6.769   0.743   1.644
 4146SOL     OW13336   5.031   6.017   2.079
 4146SOL    HW113337   5.075   6.010   1.990
 4146SOL    HW213338   5.089   6.071   2.141
 4147SOL     OW13339   4.624   4.866   6.326
 4147SOL    HW113340   4.605   4.940   6.262
 4147SOL    HW213341   4.598   4.894   6.418
 4148SOL     OW13342   2.310   1.282   5.408
 4148SOL    HW113343   2.267   1.330   5.484
 4148SOL    HW213344   2.408   1.270   5.427
 4149SOL     OW13345   1.665   3.913   6.762
 4149SOL    HW113346   1.584   3.909   6.821
 4149SOL    HW213347   1.636   3.920   6.667
 4150SOL     OW13348   5.463   2.267   6.643
 4150SOL    HW113349   5.501   2.237   6.556
 4150SOL    HW213350   5.529   2.248   6.716
 4151SOL     OW13351   3.045   6.014   4.861
 4151SOL    HW113352   2.980   6.040   4.790
 4151SOL    HW213353   3.004   5.945   4.921
 4152SOL     OW13354   2.867   4.342   1.363
 4152SOL    HW113355   2.966   4.351   1.356
 4152SOL    HW213356   2.838   4.369   1.455
 4153SOL     OW13357   6.694   5.873   1.497
 4153SOL    HW113358   6.651   5.961   1.518
 4153SOL    HW213359   6.624   5.809   1.465
 4154SOL     OW13360   1.506   6.206   3.812
 4154SOL    HW113361   1.431   6.154   3.854
 4154SOL    HW213362   1.592   6.179   3.854
 4155SOL     OW13363   0.265   0.854   1.558
 4155SOL    HW113364   0.302   0.792   1.489
 4155SOL    HW213365   0.288   0.820   1.649
 4156SOL     OW13366   0.580   5.304   6.343
 4156SOL    HW113367   0.544   5.391   6.309
 4156SOL    HW213368   0.512   5.232   6.329
 4157SOL     OW13369   6.061   6.248   1.597
 4157SOL    HW113370   5.961   6.244   1.601
 4157SOL    HW213371   6.091   6.343   1.593
 4158SOL     OW13372   0.938   2.729   1.503
 4158SOL    HW113373   0.902   2.778   1.424
 4158SOL    HW213374   0.966   2.795   1.573
 4159SOL     OW13375   3.017   0.117   3.774
 4159SOL    HW113376   3.045   0.036   3.825
 4159SOL    HW213377   3.063   0.198   3.810
 4160SOL     OW13378   0.132   0.056   6.774
 4160SOL    HW113379   0.190   0.109   6.713
 4160SOL    HW213380   0.127   6.981   6.742
 4161SOL     OW13381   3.726   3.330   2.278
 4161SOL    HW113382   3.721   3.283   2.190
 4161SOL    HW213383   3.652   3.397   2.285
 4162SOL     OW13384   5.233   5.611   1.599
 4162SOL    HW113385   5.245   5.515   1.573
 4162SOL    HW213386   5.210   5.616   1.696
 4163SOL     OW13387   3.602   5.590   2.052
 4163SOL    HW113388   3.641   5.553   2.136
 4163SOL    HW213389   3.521   5.645   2.073
 4164SOL     OW13390   6.685   0.951   6.165
 4164SOL    HW113391   6.701   1.041   6.124
 4164SOL    HW213392   6.764   0.926   6.221
 4165SOL     OW13393   4.853   0.706   4.617
 4165SOL    HW113394   4.885   0.634   4.678
 4165SOL    HW213395   4.754   0.715   4.625
 4166SOL     OW13396   5.874   1.594   1.143
 4166SOL    HW113397   5.785   1.601   1.098
 4166SOL    HW213398   5.939   1.653   1.096
 4167SOL     OW13399   3.389   5.868   4.488
 4167SOL    HW113400   3.312   5.903   4.435
 4167SOL    HW213401   3.379   5.769   4.498
 4168SOL     OW13402   5.180   3.430   6.981
 4168SOL    HW113403   5.103   3.383   0.005
 4168SOL    HW213404   5.212   3.504   0.021
 4169SOL     OW13405   5.309   2.684   5.885
 4169SOL    HW113406   5.299   2.696   5.786
 4169SOL    HW213407   5.225   2.644   5.922
 4170SOL     OW13408   0.186   2.420   4.705
 4170SOL    HW113409   0.133   2.341   4.672
 4170SOL    HW213410   0.202   2.483   4.629
 4171SOL     OW13411   0.789   1.685   0.098
 4171SOL    HW113412   0.866   1.696   0.161
 4171SOL    HW213413   0.764   1.589   0.092
 4172SOL     OW13414   2.873   3.715   0.546
 4172SOL    HW113415   2.926   3.662   0.480
 4172SOL    HW213416   2.895   3.812   0.536
 4173SOL     OW13417   5.126   2.759   6.650
 4173SOL    HW113418   5.214   2.716   6.634
 4173SOL    HW213419   5.053   2.695   6.628
 4174SOL     OW13420   3.497   0.552   4.956
 4174SOL    HW113421   3.545   0.561   4.869
 4174SOL    HW213422   3.399   0.561   4.941
 4175SOL     OW13423   0.585   4.361   6.515
 4175SOL    HW113424   0.572   4.438   6.578
 4175SOL    HW213425   0.514   4.362   6.446
 4176SOL     OW13426   5.446   0.104   6.047
 4176SOL    HW113427   5.433   0.028   5.983
 4176SOL    HW213428   5.518   0.164   6.013
 4177SOL     OW13429   3.961   4.821   2.727
 4177SOL    HW113430   3.961   4.788   2.633
 4177SOL    HW213431   3.874   4.866   2.746
 4178SOL     OW13432   3.826   5.652   1.648
 4178SOL    HW113433   3.749   5.601   1.687
 4178SOL    HW213434   3.823   5.646   1.549
 4179SOL     OW13435   5.299   3.149   5.363
 4179SOL    HW113436   5.313   3.063   5.314
 4179SOL    HW213437   5.206   3.181   5.348
 4180SOL     OW13438   4.611   3.793   0.876
 4180SOL    HW113439   4.567   3.837   0.955
 4180SOL    HW213440   4.541   3.765   0.811
 4181SOL     OW13441   4.503   6.847   4.838
 4181SOL    HW113442   4.479   6.880   4.747
 4181SOL    HW213443   4.437   6.879   4.905
 4182SOL     OW13444   0.136   6.381   4.885
 4182SOL    HW113445   0.149   6.444   4.808
 4182SOL    HW213446   0.212   6.391   4.949
 4183SOL     OW13447   4.301   1.879   0.866
 4183SOL    HW113448   4.320   1.946   0.938
 4183SOL    HW213449   4.206   1.888   0.836
 4184SOL     OW13450   3.388   5.624   4.135
 4184SOL    HW113451   3.332   5.632   4.217
 4184SOL    HW213452   3.419   5.529   4.125
 4185SOL     OW13453   5.535   2.832   3.160
 4185SOL    HW113454   5.439   2.807   3.148
 4185SOL    HW213455   5.545   2.931   3.146
 4186SOL     OW13456   1.996   6.297   0.352
 4186SOL    HW113457   2.093   6.276   0.367
 4186SOL    HW213458   1.969   6.266   0.261
 4187SOL     OW13459   1.618   3.242   6.677
 4187SOL    HW113460   1.661   3.162   6.635
 4187SOL    HW213461   1.631   3.239   6.776
 4188SOL     OW13462   4.537   6.988   0.315
 4188SOL    HW113463   4.478   7.014   0.239
 4188SOL    HW213464   4.584   6.902   0.294
 4189SOL     OW13465   5.074   5.189   3.655
 4189SOL    HW113466   5.059   5.090   3.647
 4189SOL    HW213467   5.171   5.209   3.638
 4190SOL     OW13468   6.709   5.621   1.400
 4190SOL    HW113469   6.725   5.654   1.307
 4190SOL    HW213470   6.770   5.668   1.464
 4191SOL     OW13471   4.362   4.679   6.546
 4191SOL    HW113472   4.280   4.625   6.525
 4191SOL    HW213473   4.343   4.741   6.623
 4192SOL     OW13474   1.726   3.519   1.036
 4192SOL    HW113475   1.630   3.520   1.008
 4192SOL    HW213476   1.758   3.613   1.048
 4193SOL     OW13477   0.509   0.461   0.714
 4193SOL    HW113478   0.485   0.435   0.620
 4193SOL    HW213479   0.506   0.561   0.722
 4194SOL     OW13480   4.425   1.395   5.397
 4194SOL    HW113481   4.433   1.304   5.357
 4194SOL    HW213482   4.431   1.463   5.324
 4195SOL     OW13483   3.635   6.406   0.618
 4195SOL    HW113484   3.671   6.314   0.628
 4195SOL    HW213485   3.711   6.472   0.621
 4196SOL     OW13486   6.480   3.172   1.902
 4196SOL    HW113487   6.511   3.232   1.976
 4196SOL    HW213488   6.458   3.082   1.939
 4197SOL     OW13489   3.591   1.234   6.954
 4197SOL    HW113490   3.565   1.315   6.901
 4197SOL    HW213491   3.592   1.154   6.894
 4198SOL     OW13492   0.009   2.335   2.260
 4198SOL    HW113493   0.017   2.278   2.342
 4198SOL    HW213494   6.980   2.420   2.283
 4199SOL     OW13495   0.847   4.021   6.030
 4199SOL    HW113496   0.824   4.000   5.935
 4199SOL    HW213497   0.764   4.031   6.084
 4200SOL     OW13498   4.628   0.823   4.055
 4200SOL    HW113499   4.588   0.828   3.963
 4200SOL    HW213500   4.657   0.729   4.073
 4201SOL     OW13501   5.444   6.662   3.765
 4201SOL    HW113502   5.539   6.659   3.794
 4201SOL    HW213503   5.412   6.569   3.745
 4202SOL     OW13504   5.342   4.045   1.263
 4202SOL    HW113505   5.334   4.142   1.287
 4202SOL    HW213506   5.339   4.035   1.164
 4203SOL     OW13507   6.046   5.298   5.957
 4203SOL    HW113508   6.016   5.220   6.012
 4203SOL    HW213509   6.146   5.297   5.949
 4204SOL     OW13510   2.201   3.010   6.611
 4204SOL    HW113511   2.144   3.070   6.668
 4204SOL    HW213512   2.144   2.963   6.544
 4205SOL     OW13513   3.631   6.206   5.824
 4205SOL    HW113514   3.723   6.225   5.859
 4205SOL    HW213515   3.568   6.275   5.859
 4206SOL     OW13516   1.893   2.264   4.932
 4206SOL    HW113517   1.821   2.226   4.874
 4206SOL    HW213518   1.868   2.357   4.960
 4207SOL     OW13519   1.314   2.255   2.377
 4207SOL    HW113520   1.249   2.318   2.334
 4207SOL    HW213521   1.264   2.183   2.424
 4208SOL     OW13522   1.975   3.221   4.320
 4208SOL    HW113523   1.892   3.271   4.344
 4208SOL    HW213524   2.038   3.220   4.398
 4209SOL     OW13525   6.671   6.691   2.128
 4209SOL    HW113526   6.679   6.769   2.190
 4209SOL    HW213527   6.761   6.649   2.115
 4210SOL     OW13528   3.865   3.997   4.654
 4210SOL    HW113529   3.899   4.046   4.574
 4210SOL    HW213530   3.779   4.037   4.684
 4211SOL     OW13531   4.095   2.387   5.507
 4211SOL    HW113532   4.158   2.457   5.540
 4211SOL    HW213533   4.081   2.318   5.578
 4212SOL     OW13534   6.409   2.364   3.260
 4212SOL    HW113535   6.502   2.399   3.247
 4212SOL    HW213536   6.371   2.338   3.171
 4213SOL     OW13537   3.286   0.861   3.832
 4213SOL    HW113538   3.200   0.899   3.867
 4213SOL    HW213539   3.348   0.936   3.809
 4214SOL     OW13540   6.846   6.027   3.460
 4214SOL    HW113541   6.944   6.035   3.480
 4214SOL    HW213542   6.822   6.088   3.385
 4215SOL     OW13543   4.491   6.593   5.471
 4215SOL    HW113544   4.507   6.571   5.567
 4215SOL    HW213545   4.539   6.677   5.447
 4216SOL     OW13546   2.625   5.897   2.285
 4216SOL    HW113547   2.680   5.822   2.322
 4216SOL    HW213548   2.638   5.978   2.342
 4217SOL     OW13549   1.087   0.671   2.505
 4217SOL    HW113550   1.187   0.668   2.504
 4217SOL    HW213551   1.056   0.708   2.593
 4218SOL     OW13552   2.998   1.343   1.120
 4218SOL    HW113553   3.032   1.406   1.049
 4218SOL    HW213554   2.919   1.384   1.164
 4219SOL     OW13555   4.421   5.338   2.950
 4219SOL    HW113556   4.331   5.368   2.982
 4219SOL    HW213557   4.431   5.361   2.854
 4220SOL     OW13558   5.415   2.024   1.512
 4220SOL    HW113559   5.491   1.967   1.480
 4220SOL    HW213560   5.357   1.971   1.573
 4221SOL     OW13561   0.688   6.124   0.201
 4221SOL    HW113562   0.661   6.032   0.231
 4221SOL    HW213563   0.652   6.192   0.265
 4222SOL     OW13564   4.882   2.873   4.180
 4222SOL    HW113565   4.949   2.869   4.106
 4222SOL    HW213566   4.842   2.964   4.184
 4223SOL     OW13567   4.150   3.706   1.920
 4223SOL    HW113568   4.174   3.794   1.879
 4223SOL    HW213569   4.186   3.632   1.864
 4224SOL     OW13570   4.911   3.705   4.547
 4224SOL    HW113571   4.847   3.634   4.519
 4224SOL    HW213572   4.937   3.690   4.642
 4225SOL     OW13573   0.400   2.386   5.379
 4225SOL    HW113574   0.305   2.364   5.398
 4225SOL    HW213575   0.452   2.387   5.465
 4226SOL     OW13576   1.096   5.627   5.006
 4226SOL    HW113577   1.154   5.655   4.929
 4226SOL    HW213578   1.152   5.613   5.087
 4227SOL     OW13579   5.126   5.327   2.341
 4227SOL    HW113580   5.052   5.387   2.372
 4227SOL    HW213581   5.175   5.291   2.420
 4228SOL     OW13582   1.683   5.435   3.899
 4228SOL    HW113583   1.684   5.369   3.974
 4228SOL    HW213584   1.778   5.455   3.871
 4229SOL     OW13585   6.753   4.507   5.367
 4229SOL    HW113586   6.722   4.577   5.432
 4229SOL    HW213587   6.763   4.419   5.414
 4230SOL     OW13588   0.483   0.818   2.107
 4230SOL    HW113589   0.437   0.857   2.187
 4230SOL    HW213590   0.462   0.872   2.026
 4231SOL     OW13591   6.021   1.482   5.570
 4231SOL    HW113592   6.100   1.480   5.509
 4231SOL    HW213593   6.050   1.508   5.662
 4232SOL     OW13594   1.692   5.827   3.810
 4232SOL    HW113595   1.618   5.775   3.853
 4232SOL    HW213596   1.745   5.874   3.881
 4233SOL     OW13597   4.236   5.146   3.208
 4233SOL    HW113598   4.332   5.123   3.188
 4233SOL    HW213599   4.210   5.105   3.296
 4234SOL     OW13600   2.996   5.342   6.288
 4234SOL    HW113601   2.965   5.333   6.193
 4234SOL    HW213602   3.096   5.350   6.289
 4235SOL     OW13603   0.334   5.903   5.684
 4235SOL    HW113604   0.297   5.984   5.728
 4235SOL    HW213605   0.310   5.822   5.737
 4236SOL     OW13606   0.275   5.314   2.883
 4236SOL    HW113607   0.306   5.396   2.931
 4236SOL    HW213608   0.322   5.307   2.795
 4237SOL     OW13609   0.066   5.144   3.751
 4237SOL    HW113610   6.986   5.140   3.749
 4237SOL    HW213611   0.101   5.070   3.809
 4238SOL     OW13612   2.912   6.871   2.980
 4238SOL    HW113613   2.906   6.796   3.045
 4238SOL    HW213614   2.996   6.863   2.927
 4239SOL     OW13615   4.272   0.948   3.825
 4239SOL    HW113616   4.217   0.984   3.749
 4239SOL    HW213617   4.318   1.023   3.871
 4240SOL     OW13618   6.674   6.913   1.466
 4240SOL    HW113619   6.644   6.904   1.561
 4240SOL    HW213620   6.649   7.004   1.432
 4241SOL     OW13621   6.308   3.354   0.189
 4241SOL    HW113622   6.305   3.255   0.184
 4241SOL    HW213623   6.292   3.384   0.283
 4242SOL     OW13624   2.439   1.958   3.464
 4242SOL    HW113625   2.393   1.915   3.541
 4242SOL    HW213626   2.513   2.016   3.498
 4243SOL     OW13627   4.757   0.073   3.025
 4243SOL    HW113628   4.674   0.027   3.055
 4243SOL    HW213629   4.766   0.066   2.926
 4244SOL     OW13630   3.751   3.326   2.732
 4244SOL    HW113631   3.727   3.253   2.667
 4244SOL    HW213632   3.844   3.358   2.713
 4245SOL     OW13633   6.334   2.265   6.532
 4245SOL    HW113634   6.245   2.289   6.494
 4245SOL    HW213635   6.403   2.269   6.460
 4246SOL     OW13636   1.063   3.400   1.272
 4246SOL    HW113637   0.974   3.397   1.226
 4246SOL    HW213638   1.059   3.345   1.356
 4247SOL     OW13639   0.096   5.947   4.793
 4247SOL    HW113640   0.067   5.852   4.804
 4247SOL    HW213641   0.100   5.970   4.696
 4248SOL     OW13642   1.544   2.789   5.239
 4248SOL    HW113643   1.471   2.807   5.305
 4248SOL    HW213644   1.573   2.876   5.199
 4249SOL     OW13645   5.898   3.745   5.858
 4249SOL    HW113646   5.907   3.646   5.860
 4249SOL    HW213647   5.814   3.770   5.809
 4250SOL     OW13648   0.380   4.712   2.840
 4250SOL    HW113649   0.342   4.678   2.926
 4250SOL    HW213650   0.454   4.776   2.859
 4251SOL     OW13651   5.934   4.133   0.486
 4251SOL    HW113652   5.941   4.207   0.419
 4251SOL    HW213653   5.954   4.170   0.577
 4252SOL     OW13654   0.452   5.414   5.668
 4252SOL    HW113655   0.461   5.315   5.673
 4252SOL    HW213656   0.371   5.443   5.718
 4253SOL     OW13657   4.244   6.454   2.104
 4253SOL    HW113658   4.221   6.410   2.191
 4253SOL    HW213659   4.237   6.554   2.114
 4254SOL     OW13660   2.661   4.453   1.204
 4254SOL    HW113661   2.738   4.407   1.247
 4254SOL    HW213662   2.578   4.435   1.256
 4255SOL     OW13663   0.344   2.133   4.520
 4255SOL    HW113664   0.390   2.067   4.579
 4255SOL    HW213665   0.364   2.226   4.551
 4256SOL     OW13666   1.847   0.347   1.555
 4256SOL    HW113667   1.863   0.444   1.571
 4256SOL    HW213668   1.783   0.311   1.623
 4257SOL     OW13669   3.745   1.810   4.672
 4257SOL    HW113670   3.761   1.722   4.628
 4257SOL    HW213671   3.833   1.849   4.702
 4258SOL     OW13672   5.322   6.402   2.302
 4258SOL    HW113673   5.288   6.449   2.220
 4258SOL    HW213674   5.319   6.465   2.380
 4259SOL     OW13675   2.273   2.666   0.567
 4259SOL    HW113676   2.340   2.736   0.543
 4259SOL    HW213677   2.184   2.690   0.530
 4260SOL     OW13678   5.096   5.281   3.946
 4260SOL    HW113679   4.998   5.259   3.939
 4260SOL    HW213680   5.135   5.283   3.854
 4261SOL     OW13681   1.558   0.019   1.809
 4261SOL    HW113682   1.557   6.989   1.896
 4261SOL    HW213683   1.609   6.986   1.741
 4262SOL     OW13684   0.541   5.188   6.673
 4262SOL    HW113685   0.496   5.128   6.606
 4262SOL    HW213686   0.495   5.180   6.761
 4263SOL     OW13687   3.144   4.802   5.574
 4263SOL    HW113688   3.107   4.753   5.495
 4263SOL    HW213689   3.173   4.893   5.546
 4264SOL     OW13690   0.009   0.824   0.458
 4264SOL    HW113691   0.100   0.805   0.494
 4264SOL    HW213692   6.993   0.744   0.411
 4265SOL     OW13693   6.759   2.002   1.107
 4265SOL    HW113694   6.770   2.018   1.205
 4265SOL    HW213695   6.769   1.904   1.088
 4266SOL     OW13696   2.658   4.927   0.811
 4266SOL    HW113697   2.615   4.873   0.739
 4266SOL    HW213698   2.755   4.939   0.791
 4267SOL     OW13699   1.958   3.933   5.217
 4267SOL    HW113700   1.916   3.914   5.305
 4267SOL    HW213701   2.045   3.884   5.210
 4268SOL     OW13702   1.708   0.970   0.884
 4268SOL    HW113703   1.699   0.884   0.936
 4268SOL    HW213704   1.803   1.001   0.887
 4269SOL     OW13705   3.472   3.047   6.985
 4269SOL    HW113706   3.565   3.079   7.002
 4269SOL    HW213707   3.475   2.953   6.950
 4270SOL     OW13708   3.285   2.866   5.228
 4270SOL    HW113709   3.307   2.782   5.178
 4270SOL    HW213710   3.325   2.944   5.180
 4271SOL     OW13711   0.837   6.825   6.669
 4271SOL    HW113712   0.792   6.740   6.643
 4271SOL    HW213713   0.833   6.836   6.769
 4272SOL     OW13714   6.971   4.992   4.610
 4272SOL    HW113715   6.875   4.973   4.585
 4272SOL    HW213716   6.977   5.012   4.707
 4273SOL     OW13717   5.909   6.681   5.520
 4273SOL    HW113718   5.994   6.724   5.552
 4273SOL    HW213719   5.856   6.748   5.467
 4274SOL     OW13720   1.664   6.852   4.004
 4274SOL    HW113721   1.582   6.910   4.000
 4274SOL    HW213722   1.719   6.867   3.923
 4275SOL     OW13723   0.958   6.977   6.062
 4275SOL    HW113724   0.918   0.040   6.022
 4275SOL    HW213725   0.903   6.949   6.140
 4276SOL     OW13726   2.104   3.882   2.488
 4276SOL    HW113727   2.120   3.944   2.565
 4276SOL    HW213728   2.149   3.919   2.406
 4277SOL     OW13729   6.699   5.823   3.528
 4277SOL    HW113730   6.756   5.901   3.502
 4277SOL    HW213731   6.672   5.832   3.624
 4278SOL     OW13732   6.863   0.173   5.424
 4278SOL    HW113733   6.839   0.268   5.406
 4278SOL    HW213734   6.952   0.170   5.469
 4279SOL     OW13735   3.182   6.255   5.084
 4279SOL    HW113736   3.093   6.236   5.126
 4279SOL    HW213737   3.214   6.174   5.036
 4280SOL     OW13738   4.945   2.612   3.835
 4280SOL    HW113739   4.918   2.566   3.919
 4280SOL    HW213740   4.891   2.695   3.823
 4281SOL     OW13741   2.273   4.305   5.027
 4281SOL    HW113742   2.295   4.208   5.032
 4281SOL    HW213743   2.284   4.346   5.117
 4282SOL     OW13744   1.490   2.514   1.371
 4282SOL    HW113745   1.516   2.434   1.316
 4282SOL    HW213746   1.571   2.570   1.387
 4283SOL     OW13747   1.462   0.478   4.206
 4283SOL    HW113748   1.527   0.519   4.142
 4283SOL    HW213749   1.511   0.447   4.287
 4284SOL     OW13750   6.004   2.179   2.384
 4284SOL    HW113751   6.021   2.113   2.310
 4284SOL    HW213752   6.048   2.265   2.361
 4285SOL     OW13753   1.214   6.444   6.130
 4285SOL    HW113754   1.166   6.431   6.043
 4285SOL    HW213755   1.165   6.398   6.203
 4286SOL     OW13756   5.072   5.565   0.358
 4286SOL    HW113757   5.053   5.471   0.385
 4286SOL    HW213758   5.168   5.587   0.374
 4287SOL     OW13759   5.021   6.306   4.831
 4287SOL    HW113760   4.989   6.380   4.773
 4287SOL    HW213761   5.011   6.219   4.782
 4288SOL     OW13762   1.332   6.563   3.212
 4288SOL    HW113763   1.238   6.594   3.202
 4288SOL    HW213764   1.344   6.518   3.301
 4289SOL     OW13765   5.487   2.967   1.216
 4289SOL    HW113766   5.584   2.946   1.205
 4289SOL    HW213767   5.473   3.020   1.300
 4290SOL     OW13768   2.227   1.015   1.866
 4290SOL    HW113769   2.183   1.003   1.777
 4290SOL    HW213770   2.316   0.969   1.866
 4291SOL     OW13771   6.620   3.986   0.939
 4291SOL    HW113772   6.660   4.023   1.023
 4291SOL    HW213773   6.640   3.888   0.932
 4292SOL     OW13774   5.766   5.137   6.621
 4292SOL    HW113775   5.734   5.145   6.715
 4292SOL    HW213776   5.752   5.224   6.574
 4293SOL     OW13777   6.947   2.838   6.771
 4293SOL    HW113778   6.987   2.887   6.848
 4293SOL    HW213779   7.012   2.837   6.695
 4294SOL     OW13780   4.265   1.732   5.693
 4294SOL    HW113781   4.245   1.743   5.596
 4294SOL    HW213782   4.355   1.690   5.705
 4295SOL     OW13783   3.465   0.252   4.393
 4295SOL    HW113784   3.512   0.252   4.482
 4295SOL    HW213785   3.510   0.317   4.332
 4296SOL     OW13786   2.194   1.363   1.179
 4296SOL    HW113787   2.186   1.404   1.270
 4296SOL    HW213788   2.105   1.330   1.149
 4297SOL     OW13789   5.741   0.806   5.763
 4297SOL    HW113790   5.668   0.787   5.829
 4297SOL    HW213791   5.727   0.752   5.681
 4298SOL     OW13792   3.229   5.720   1.105
 4298SOL    HW113793   3.218   5.731   1.204
 4298SOL    HW213794   3.177   5.791   1.058
 4299SOL     OW13795   1.029   3.843   6.491
 4299SOL    HW113796   0.992   3.827   6.582
 4299SOL    HW213797   0.957   3.829   6.423
 4300SOL     OW13798   4.956   0.918   6.583
 4300SOL    HW113799   5.050   0.887   6.596
 4300SOL    HW213800   4.939   0.999   6.640
 4301SOL     OW13801   2.840   1.591   0.808
 4301SOL    HW113802   2.785   1.520   0.763
 4301SOL    HW213803   2.880   1.651   0.739
 4302SOL     OW13804   1.079   6.416   0.101
 4302SOL    HW113805   1.019   6.336   0.094
 4302SOL    HW213806   1.159   6.393   0.157
 4303SOL     OW13807   0.132   3.491   2.117
 4303SOL    HW113808   0.129   3.419   2.047
 4303SOL    HW213809   0.087   3.459   2.200
 4304SOL     OW13810   2.939   3.719   4.123
 4304SOL    HW113811   3.023   3.751   4.168
 4304SOL    HW213812   2.863   3.778   4.150
 4305SOL     OW13813   6.016   1.718   3.631
 4305SOL    HW113814   6.055   1.738   3.541
 4305SOL    HW213815   6.011   1.619   3.644
 4306SOL     OW13816   6.635   5.162   5.698
 4306SOL    HW113817   6.634   5.259   5.675
 4306SOL    HW213818   6.621   5.151   5.796
 4307SOL     OW13819   5.340   3.833   6.444
 4307SOL    HW113820   5.366   3.864   6.353
 4307SOL    HW213821   5.402   3.873   6.512
 4308SOL     OW13822   5.248   6.128   4.559
 4308SOL    HW113823   5.318   6.072   4.603
 4308SOL    HW213824   5.157   6.093   4.584
 4309SOL     OW13825   1.305   1.560   0.913
 4309SOL    HW113826   1.375   1.532   0.980
 4309SOL    HW213827   1.297   1.659   0.914
 4310SOL     OW13828   1.672   1.601   2.897
 4310SOL    HW113829   1.667   1.683   2.954
 4310SOL    HW213830   1.683   1.628   2.801
 4311SOL     OW13831   2.065   6.248   3.647
 4311SOL    HW113832   2.106   6.327   3.603
 4311SOL    HW213833   2.013   6.195   3.580
 4312SOL     OW13834   2.026   5.170   1.981
 4312SOL    HW113835   2.104   5.139   1.927
 4312SOL    HW213836   1.963   5.221   1.922
 4313SOL     OW13837   4.996   0.591   2.317
 4313SOL    HW113838   5.036   0.595   2.409
 4313SOL    HW213839   4.922   0.524   2.316
 4314SOL     OW13840   4.880   3.308   2.479
 4314SOL    HW113841   4.930   3.263   2.553
 4314SOL    HW213842   4.794   3.343   2.514
 4315SOL     OW13843   2.249   1.149   2.332
 4315SOL    HW113844   2.169   1.156   2.272
 4315SOL    HW213845   2.325   1.202   2.294
 4316SOL     OW13846   5.907   0.377   2.198
 4316SOL    HW113847   5.978   0.372   2.268
 4316SOL    HW213848   5.939   0.434   2.122
 4317SOL     OW13849   3.623   0.992   3.876
 4317SOL    HW113850   3.674   0.909   3.854
 4317SOL    HW213851   3.654   1.029   3.963
 4318SOL     OW13852   0.357   2.981   3.796
 4318SOL    HW113853   0.442   3.027   3.768
 4318SOL    HW213854   0.300   2.966   3.715
 4319SOL     OW13855   2.359   3.296   6.746
 4319SOL    HW113856   2.331   3.309   6.651
 4319SOL    HW213857   2.427   3.223   6.751
 4320SOL     OW13858   6.994   6.119   2.623
 4320SOL    HW113859   0.014   6.173   2.548
 4320SOL    HW213860   6.905   6.157   2.648
 4321SOL     OW13861   0.216   0.243   5.041
 4321SOL    HW113862   0.162   0.176   4.991
 4321SOL    HW213863   0.260   0.198   5.119
 4322SOL     OW13864   5.914   1.174   0.427
 4322SOL    HW113865   5.988   1.221   0.475
 4322SOL    HW213866   5.925   1.075   0.438
 4323SOL     OW13867   6.705   3.217   3.006
 4323SOL    HW113868   6.606   3.210   3.010
 4323SOL    HW213869   6.746   3.150   3.068
 4324SOL     OW13870   5.905   4.012   5.991
 4324SOL    HW113871   5.882   3.920   6.023
 4324SOL    HW213872   5.905   4.075   6.069
 4325SOL     OW13873   2.024   1.451   6.994
 4325SOL    HW113874   2.024   1.503   0.060
 4325SOL    HW213875   1.999   1.357   7.013
 4326SOL     OW13876   6.059   2.388   5.084
 4326SOL    HW113877   6.033   2.383   4.988
 4326SOL    HW213878   6.156   2.412   5.091
 4327SOL     OW13879   5.943   6.624   2.528
 4327SOL    HW113880   5.980   6.610   2.619
 4327SOL    HW213881   5.966   6.546   2.470
 4328SOL     OW13882   5.658   5.319   0.265
 4328SOL    HW113883   5.693   5.342   0.356
 4328SOL    HW213884   5.572   5.270   0.274
 4329SOL     OW13885   3.877   1.808   5.650
 4329SOL    HW113886   3.846   1.800   5.745
 4329SOL    HW213887   3.956   1.747   5.636
 4330SOL     OW13888   1.046   0.393   5.996
 4330SOL    HW113889   0.968   0.416   6.055
 4330SOL    HW213890   1.111   0.338   6.048
 4331SOL     OW13891   6.182   2.892   6.264
 4331SOL    HW113892   6.182   2.798   6.232
 4331SOL    HW213893   6.258   2.907   6.327
 4332SOL     OW13894   5.159   3.073   1.550
 4332SOL    HW113895   5.094   3.149   1.546
 4332SOL    HW213896   5.158   3.033   1.642
 4333SOL     OW13897   5.284   0.634   4.930
 4333SOL    HW113898   5.201   0.603   4.885
 4333SOL    HW213899   5.351   0.662   4.861
 4334SOL     OW13900   4.254   1.541   2.075
 4334SOL    HW113901   4.322   1.611   2.056
 4334SOL    HW213902   4.164   1.574   2.046
 4335SOL     OW13903   3.558   4.038   5.126
 4335SOL    HW113904   3.488   4.049   5.196
 4335SOL    HW213905   3.515   4.021   5.037
 4336SOL     OW13906   1.257   6.112   4.535
 4336SOL    HW113907   1.285   6.174   4.608
 4336SOL    HW213908   1.298   6.142   4.448
 4337SOL     OW13909   0.160   5.563   0.544
 4337SOL    HW113910   0.100   5.574   0.465
 4337SOL    HW213911   0.151   5.642   0.604
 4338SOL     OW13912   6.727   6.160   4.018
 4338SOL    HW113913   6.645   6.205   4.051
 4338SOL    HW213914   6.737   6.174   3.919
 4339SOL     OW13915   6.209   1.242   5.715
 4339SOL    HW113916   6.130   1.302   5.706
 4339SOL    HW213917   6.279   1.269   5.648
 4340SOL     OW13918   5.253   3.535   1.610
 4340SOL    HW113919   5.297   3.618   1.576
 4340SOL    HW213920   5.205   3.555   1.695
 4341SOL     OW13921   1.342   4.353   1.162
 4341SOL    HW113922   1.391   4.383   1.080
 4341SOL    HW213923   1.402   4.295   1.216
 4342SOL     OW13924   1.149   3.286   3.171
 4342SOL    HW113925   1.064   3.254   3.130
 4342SOL    HW213926   1.166   3.236   3.256
 4343SOL     OW13927   2.215   1.156   1.423
 4343SOL    HW113928   2.197   1.092   1.498
 4343SOL    HW213929   2.207   1.109   1.336
 4344SOL     OW13930   2.046   5.182   3.060
 4344SOL    HW113931   2.005   5.190   3.151
 4344SOL    HW213932   1.996   5.240   2.996
 4345SOL     OW13933   1.383   2.062   5.770
 4345SOL    HW113934   1.286   2.046   5.787
 4345SOL    HW213935   1.400   2.059   5.671
 4346SOL     OW13936   2.053   3.261   1.962
 4346SOL    HW113937   2.096   3.348   1.986
 4346SOL    HW213938   2.060   3.248   1.863
 4347SOL     OW13939   5.840   6.537   3.016
 4347SOL    HW113940   5.891   6.541   3.102
 4347SOL    HW213941   5.781   6.457   3.017
 4348SOL     OW13942   1.938   3.909   6.675
 4348SOL    HW113943   1.944   3.875   6.581
 4348SOL    HW213944   1.842   3.919   6.701
 4349SOL     OW13945   0.150   0.759   3.631
 4349SOL    HW113946   0.106   0.837   3.676
 4349SOL    HW213947   0.157   0.777   3.533
 4350SOL     OW13948   5.160   1.984   3.804
 4350SOL    HW113949   5.103   1.955   3.726
 4350SOL    HW213950   5.233   1.917   3.818
 4351SOL     OW13951   2.827   5.878   1.828
 4351SOL    HW113952   2.790   5.807   1.888
 4351SOL    HW213953   2.782   5.965   1.849
 4352SOL     OW13954   6.329   1.064   2.093
 4352SOL    HW113955   6.383   0.983   2.117
 4352SOL    HW213956   6.318   1.122   2.173
 4353SOL     OW13957   3.481   5.639   6.459
 4353SOL    HW113958   3.468   5.560   6.518
 4353SOL    HW213959   3.435   5.624   6.372
 4354SOL     OW13960   2.267   0.343   0.947
 4354SOL    HW113961   2.327   0.410   0.903
 4354SOL    HW213962   2.323   0.279   1.000
 4355SOL     OW13963   4.795   1.055   0.412
 4355SOL    HW113964   4.763   0.968   0.452
 4355SOL    HW213965   4.838   1.110   0.484
 4356SOL     OW13966   4.259   4.274   0.598
 4356SOL    HW113967   4.187   4.217   0.559
 4356SOL    HW213968   4.280   4.243   0.691
 4357SOL     OW13969   6.050   0.250   0.159
 4357SOL    HW113970   6.128   0.309   0.138
 4357SOL    HW213971   6.055   0.221   0.255
 4358SOL     OW13972   0.687   6.979   1.754
 4358SOL    HW113973   0.640   6.990   1.842
 4358SOL    HW213974   0.786   6.981   1.768
 4359SOL     OW13975   6.502   2.495   3.867
 4359SOL    HW113976   6.512   2.595   3.868
 4359SOL    HW213977   6.580   2.453   3.913
 4360SOL     OW13978   1.315   3.385   1.172
 4360SOL    HW113979   1.328   3.289   1.147
 4360SOL    HW213980   1.227   3.396   1.218
 4361SOL     OW13981   5.047   2.266   1.880
 4361SOL    HW113982   5.090   2.349   1.915
 4361SOL    HW213983   5.110   2.189   1.888
 4362SOL     OW13984   6.435   4.101   4.464
 4362SOL    HW113985   6.443   4.001   4.471
 4362SOL    HW213986   6.377   4.124   4.386
 4363SOL     OW13987   5.216   2.281   5.946
 4363SOL    HW113988   5.209   2.212   6.018
 4363SOL    HW213989   5.126   2.325   5.933
 4364SOL     OW13990   3.256   4.134   4.663
 4364SOL    HW113991   3.250   4.222   4.709
 4364SOL    HW213992   3.164   4.102   4.640
 4365SOL     OW13993   3.609   1.866   2.638
 4365SOL    HW113994   3.681   1.884   2.571
 4365SOL    HW213995   3.603   1.942   2.702
 4366SOL     OW13996   5.881   5.390   0.857
 4366SOL    HW113997   5.844   5.392   0.764
 4366SOL    HW213998   5.827   5.451   0.915
 4367SOL     OW13999   1.483   6.365   6.185
 4367SOL    HW114000   1.390   6.373   6.150
 4367SOL    HW214001   1.536   6.304   6.126
 4368SOL     OW14002   5.485   3.657   1.842
 4368SOL    HW114003   5.552   3.730   1.857
 4368SOL    HW214004   5.426   3.681   1.766
 4369SOL     OW14005   4.197   5.554   2.072
 4369SOL    HW114006   4.257   5.494   2.019
 4369SOL    HW214007   4.108   5.561   2.026
 4370SOL     OW14008   5.599   4.592   3.405
 4370SOL    HW114009   5.688   4.584   3.449
 4370SOL    HW214010   5.574   4.689   3.398
 4371SOL     OW14011   6.286   1.948   1.674
 4371SOL    HW114012   6.221   1.909   1.740
 4371SOL    HW214013   6.266   1.912   1.582
 4372SOL     OW14014   4.061   1.302   3.228
 4372SOL    HW114015   4.002   1.373   3.267
 4372SOL    HW214016   4.025   1.212   3.252
 4373SOL     OW14017   6.780   1.885   6.341
 4373SOL    HW114018   6.711   1.884   6.413
 4373SOL    HW214019   6.773   1.971   6.290
 4374SOL     OW14020   1.962   2.537   1.543
 4374SOL    HW114021   1.898   2.561   1.616
 4374SOL    HW214022   2.056   2.543   1.578
 4375SOL     OW14023   2.564   6.437   4.840
 4375SOL    HW114024   2.634   6.501   4.872
 4375SOL    HW214025   2.607   6.368   4.781
 4376SOL     OW14026   5.649   0.887   3.276
 4376SOL    HW114027   5.738   0.932   3.288
 4376SOL    HW214028   5.625   0.886   3.179
 4377SOL     OW14029   5.613   4.246   6.272
 4377SOL    HW114030   5.553   4.326   6.281
 4377SOL    HW214031   5.643   4.217   6.363
 4378SOL     OW14032   1.726   0.403   3.906
 4378SOL    HW114033   1.744   0.419   4.003
 4378SOL    HW214034   1.802   0.439   3.852
 4379SOL     OW14035   2.616   2.074   5.236
 4379SOL    HW114036   2.643   1.981   5.263
 4379SOL    HW214037   2.686   2.112   5.175
 4380SOL     OW14038   0.272   1.125   1.606
 4380SOL    HW114039   0.232   1.034   1.595
 4380SOL    HW214040   0.237   1.167   1.689
 4381SOL     OW14041   2.164   6.579   5.987
 4381SOL    HW114042   2.082   6.556   6.039
 4381SOL    HW214043   2.194   6.499   5.934
 4382SOL     OW14044   6.990   3.568   5.227
 4382SOL    HW114045   0.042   3.596   5.290
 4382SOL    HW214046   6.911   3.536   5.279
 4383SOL     OW14047   5.803   2.932   6.780
 4383SOL    HW114048   5.873   2.872   6.742
 4383SOL    HW214049   5.738   2.878   6.833
 4384SOL     OW14050   5.995   6.340   4.215
 4384SOL    HW114051   5.990   6.254   4.165
 4384SOL    HW214052   6.042   6.408   4.160
 4385SOL     OW14053   5.357   1.249   4.773
 4385SOL    HW114054   5.395   1.223   4.685
 4385SOL    HW214055   5.390   1.340   4.798
 4386SOL     OW14056   1.114   3.311   5.323
 4386SOL    HW114057   1.071   3.379   5.383
 4386SOL    HW214058   1.214   3.318   5.332
 4387SOL     OW14059   6.485   1.973   0.442
 4387SOL    HW114060   6.405   1.984   0.501
 4387SOL    HW214061   6.504   2.060   0.395
 4388SOL     OW14062   5.407   2.567   6.430
 4388SOL    HW114063   5.435   2.631   6.359
 4388SOL    HW214064   5.392   2.617   6.516
 4389SOL     OW14065   1.010   3.652   1.748
 4389SOL    HW114066   0.990   3.583   1.818
 4389SOL    HW214067   1.087   3.620   1.692
 4390SOL     OW14068   6.564   1.053   1.670
 4390SOL    HW114069   6.514   0.993   1.732
 4390SOL    HW214070   6.499   1.109   1.618
 4391SOL     OW14071   2.200   6.382   6.842
 4391SOL    HW114072   2.175   6.442   6.766
 4391SOL    HW214073   2.203   6.436   6.927
 4392SOL     OW14074   1.853   2.572   5.012
 4392SOL    HW114075   1.869   2.545   5.107
 4392SOL    HW214076   1.759   2.603   5.002
 4393SOL     OW14077   4.993   1.064   1.779
 4393SOL    HW114078   5.054   1.137   1.810
 4393SOL    HW214079   4.908   1.067   1.831
 4394SOL     OW14080   1.060   0.505   1.622
 4394SOL    HW114081   1.037   0.422   1.571
 4394SOL    HW214082   1.059   0.484   1.720
 4395SOL     OW14083   2.852   5.487   0.920
 4395SOL    HW114084   2.831   5.481   1.017
 4395SOL    HW214085   2.860   5.395   0.881
 4396SOL     OW14086   2.625   0.283   3.147
 4396SOL    HW114087   2.714   0.239   3.134
 4396SOL    HW214088   2.639   0.382   3.156
 4397SOL     OW14089   2.912   1.778   4.533
 4397SOL    HW114090   3.003   1.795   4.495
 4397SOL    HW214091   2.847   1.762   4.458
 4398SOL     OW14092   2.073   2.939   5.268
 4398SOL    HW114093   2.163   2.917   5.232
 4398SOL    HW214094   2.049   3.034   5.245
 4399SOL     OW14095   3.062   6.818   2.435
 4399SOL    HW114096   2.963   6.834   2.442
 4399SOL    HW214097   3.103   6.887   2.377
 4400SOL     OW14098   1.932   5.560   4.521
 4400SOL    HW114099   2.008   5.501   4.547
 4400SOL    HW214100   1.910   5.621   4.597
 4401SOL     OW14101   3.775   0.366   6.486
 4401SOL    HW114102   3.741   0.310   6.561
 4401SOL    HW214103   3.707   0.433   6.460
 4402SOL     OW14104   1.249   0.674   3.404
 4402SOL    HW114105   1.269   0.585   3.361
 4402SOL    HW214106   1.236   0.743   3.333
 4403SOL     OW14107   1.652   5.019   1.194
 4403SOL    HW114108   1.717   4.988   1.125
 4403SOL    HW214109   1.682   4.987   1.284
 4404SOL     OW14110   0.439   6.618   6.274
 4404SOL    HW114111   0.432   6.647   6.178
 4404SOL    HW214112   0.384   6.536   6.288
 4405SOL     OW14113   1.787   5.458   3.588
 4405SOL    HW114114   1.717   5.391   3.560
 4405SOL    HW214115   1.877   5.422   3.566
 4406SOL     OW14116   6.450   3.756   1.899
 4406SOL    HW114117   6.350   3.748   1.901
 4406SOL    HW214118   6.476   3.853   1.901
 4407SOL     OW14119   6.027   6.206   1.894
 4407SOL    HW114120   5.995   6.203   1.799
 4407SOL    HW214121   6.077   6.291   1.909
 4408SOL     OW14122   4.019   0.893   0.372
 4408SOL    HW114123   4.007   0.872   0.275
 4408SOL    HW214124   3.941   0.856   0.424
 4409SOL     OW14125   2.832   0.376   2.902
 4409SOL    HW114126   2.740   0.373   2.862
 4409SOL    HW214127   2.849   0.291   2.952
 4410SOL     OW14128   1.552   6.420   1.436
 4410SOL    HW114129   1.545   6.411   1.535
 4410SOL    HW214130   1.461   6.421   1.395
 4411SOL     OW14131   3.294   4.570   5.313
 4411SOL    HW114132   3.354   4.499   5.275
 4411SOL    HW214133   3.318   4.587   5.408
 4412SOL     OW14134   4.950   6.414   2.667
 4412SOL    HW114135   4.925   6.500   2.621
 4412SOL    HW214136   5.027   6.430   2.728
 4413SOL     OW14137   4.460   6.204   4.161
 4413SOL    HW114138   4.383   6.224   4.100
 4413SOL    HW214139   4.507   6.121   4.131
 4414SOL     OW14140   4.308   4.362   1.361
 4414SOL    HW114141   4.352   4.451   1.373
 4414SOL    HW214142   4.350   4.295   1.421
 4415SOL     OW14143   2.568   3.076   1.405
 4415SOL    HW114144   2.486   3.127   1.382
 4415SOL    HW214145   2.586   3.082   1.503
 4416SOL     OW14146   3.986   2.233   3.183
 4416SOL    HW114147   4.082   2.262   3.188
 4416SOL    HW214148   3.939   2.262   3.266
 4417SOL     OW14149   0.240   4.068   3.553
 4417SOL    HW114150   0.141   4.059   3.548
 4417SOL    HW214151   0.267   4.157   3.516
 4418SOL     OW14152   6.055   6.699   6.296
 4418SOL    HW114153   6.067   6.764   6.371
 4418SOL    HW214154   6.080   6.607   6.328
 4419SOL     OW14155   6.231   5.627   6.378
 4419SOL    HW114156   6.320   5.596   6.412
 4419SOL    HW214157   6.162   5.612   6.449
 4420SOL     OW14158   3.779   2.068   0.768
 4420SOL    HW114159   3.708   2.121   0.724
 4420SOL    HW214160   3.754   2.052   0.864
 4421SOL     OW14161   1.158   2.333   5.651
 4421SOL    HW114162   1.157   2.248   5.598
 4421SOL    HW214163   1.104   2.402   5.604
 4422SOL     OW14164   6.777   4.266   6.497
 4422SOL    HW114165   6.869   4.228   6.485
 4422SOL    HW214166   6.716   4.193   6.530
 4423SOL     OW14167   5.460   4.292   4.763
 4423SOL    HW114168   5.464   4.330   4.855
 4423SOL    HW214169   5.548   4.251   4.740
 4424SOL     OW14170   5.132   5.765   3.516
 4424SOL    HW114171   5.100   5.783   3.609
 4424SOL    HW214172   5.224   5.804   3.505
 4425SOL     OW14173   1.915   5.338   1.213
 4425SOL    HW114174   1.928   5.239   1.208
 4425SOL    HW214175   1.995   5.380   1.256
 4426SOL     OW14176   0.528   0.368   4.740
 4426SOL    HW114177   0.431   0.352   4.758
 4426SOL    HW214178   0.575   0.280   4.731
 4427SOL     OW14179   2.827   6.165   2.779
 4427SOL    HW114180   2.901   6.229   2.761
 4427SOL    HW214181   2.739   6.210   2.764
 4428SOL     OW14182   5.569   6.902   3.090
 4428SOL    HW114183   5.561   7.001   3.081
 4428SOL    HW214184   5.520   6.872   3.172
 4429SOL     OW14185   2.416   6.032   3.420
 4429SOL    HW114186   2.417   6.127   3.451
 4429SOL    HW214187   2.505   6.007   3.382
 4430SOL     OW14188   4.938   4.268   5.330
 4430SOL    HW114189   4.968   4.263   5.234
 4430SOL    HW214190   4.894   4.182   5.355
 4431SOL     OW14191   3.469   6.729   3.625
 4431SOL    HW114192   3.542   6.751   3.561
 4431SOL    HW214193   3.508   6.686   3.707
 4432SOL     OW14194   1.137   3.702   6.002
 4432SOL    HW114195   1.042   3.672   6.013
 4432SOL    HW214196   1.168   3.746   6.086
 4433SOL     OW14197   0.231   0.779   5.555
 4433SOL    HW114198   0.203   0.710   5.622
 4433SOL    HW214199   0.162   0.852   5.552
 4434SOL     OW14200   0.322   0.214   2.432
 4434SOL    HW114201   0.299   0.301   2.475
 4434SOL    HW214202   0.334   0.144   2.503
 4435SOL     OW14203   2.348   3.666   0.566
 4435SOL    HW114204   2.280   3.599   0.538
 4435SOL    HW214205   2.437   3.642   0.526
 4436SOL     OW14206   4.001   1.690   2.028
 4436SOL    HW114207   3.985   1.646   1.940
 4436SOL    HW214208   3.939   1.767   2.040
 4437SOL     OW14209   0.143   4.060   0.926
 4437SOL    HW114210   0.114   3.966   0.906
 4437SOL    HW214211   0.152   4.111   0.840
 4438SOL     OW14212   3.804   0.933   5.649
 4438SOL    HW114213   3.729   0.998   5.660
 4438SOL    HW214214   3.855   0.954   5.566
 4439SOL     OW14215   2.726   6.740   2.669
 4439SOL    HW114216   2.738   6.789   2.582
 4439SOL    HW214217   2.809   6.688   2.689
 4440SOL     OW14218   1.778   4.963   0.323
 4440SOL    HW114219   1.803   4.991   0.231
 4440SOL    HW214220   1.700   5.018   0.354
 4441SOL     OW14221   6.960   1.091   0.545
 4441SOL    HW114222   0.013   1.052   0.488
 4441SOL    HW214223   6.968   1.056   0.638
 4442SOL     OW14224   1.952   4.320   6.687
 4442SOL    HW114225   1.950   4.359   6.779
 4442SOL    HW214226   1.901   4.380   6.625
 4443SOL     OW14227   0.557   5.479   5.979
 4443SOL    HW114228   0.505   5.406   5.934
 4443SOL    HW214229   0.575   5.552   5.914
 4444SOL     OW14230   5.430   4.613   6.963
 4444SOL    HW114231   5.342   4.607   6.917
 4444SOL    HW214232   5.464   4.707   6.957
 4445SOL     OW14233   6.799   5.494   0.096
 4445SOL    HW114234   6.802   5.435   0.016
 4445SOL    HW214235   6.726   5.465   0.157
 4446SOL     OW14236   5.216   0.752   0.998
 4446SOL    HW114237   5.124   0.756   1.035
 4446SOL    HW214238   5.283   0.764   1.072
 4447SOL     OW14239   4.842   5.570   5.625
 4447SOL    HW114240   4.873   5.593   5.533
 4447SOL    HW214241   4.882   5.483   5.653
 4448SOL     OW14242   3.849   6.368   2.176
 4448SOL    HW114243   3.904   6.326   2.249
 4448SOL    HW214244   3.873   6.465   2.168
 4449SOL     OW14245   3.464   1.390   5.345
 4449SOL    HW114246   3.477   1.291   5.340
 4449SOL    HW214247   3.412   1.413   5.426
 4450SOL     OW14248   3.529   6.983   0.215
 4450SOL    HW114249   3.578   6.975   0.302
 4450SOL    HW214250   3.440   6.938   0.222
 4451SOL     OW14251   5.219   4.413   2.820
 4451SOL    HW114252   5.217   4.506   2.858
 4451SOL    HW214253   5.214   4.418   2.720
 4452SOL     OW14254   4.634   6.235   4.713
 4452SOL    HW114255   4.718   6.218   4.662
 4452SOL    HW214256   4.556   6.195   4.665
 4453SOL     OW14257   6.835   3.824   0.648
 4453SOL    HW114258   6.871   3.867   0.731
 4453SOL    HW214259   6.737   3.843   0.641
 4454SOL     OW14260   1.131   2.329   6.628
 4454SOL    HW114261   1.044   2.289   6.600
 4454SOL    HW214262   1.118   2.425   6.651
 4455SOL     OW14263   0.670   6.724   5.577
 4455SOL    HW114264   0.669   6.629   5.546
 4455SOL    HW214265   0.599   6.737   5.647
 4456SOL     OW14266   1.961   0.318   4.991
 4456SOL    HW114267   2.032   0.293   5.058
 4456SOL    HW214268   1.997   0.388   4.930
 4457SOL     OW14269   1.428   2.421   4.880
 4457SOL    HW114270   1.517   2.417   4.834
 4457SOL    HW214271   1.357   2.445   4.813
 4458SOL     OW14272   1.974   3.569   6.663
 4458SOL    HW114273   1.895   3.590   6.720
 4458SOL    HW214274   1.972   3.472   6.637
 4459SOL     OW14275   1.292   2.996   2.929
 4459SOL    HW114276   1.379   3.037   2.955
 4459SOL    HW214277   1.300   2.897   2.930
 4460SOL     OW14278   0.127   3.090   4.366
 4460SOL    HW114279   0.068   3.170   4.373
 4460SOL    HW214280   0.223   3.118   4.369
 4461SOL     OW14281   2.494   0.976   1.319
 4461SOL    HW114282   2.419   1.011   1.264
 4461SOL    HW214283   2.462   0.900   1.376
 4462SOL     OW14284   6.603   4.627   3.087
 4462SOL    HW114285   6.621   4.674   3.001
 4462SOL    HW214286   6.558   4.540   3.069
 4463SOL     OW14287   6.133   1.733   0.408
 4463SOL    HW114288   6.044   1.739   0.454
 4463SOL    HW214289   6.194   1.675   0.461
 4464SOL     OW14290   0.509   5.051   0.686
 4464SOL    HW114291   0.562   5.136   0.684
 4464SOL    HW214292   0.567   4.975   0.657
 4465SOL     OW14293   2.949   5.732   0.976
 4465SOL    HW114294   2.866   5.770   1.017
 4465SOL    HW214295   2.932   5.640   0.943
 4466SOL     OW14296   1.555   2.400   3.219
 4466SOL    HW114297   1.585   2.380   3.126
 4466SOL    HW214298   1.525   2.495   3.225
 4467SOL     OW14299   4.509   5.800   3.258
 4467SOL    HW114300   4.562   5.742   3.197
 4467SOL    HW214301   4.559   5.885   3.276
 4468SOL     OW14302   1.683   2.715   1.341
 4468SOL    HW114303   1.661   2.809   1.367
 4468SOL    HW214304   1.777   2.693   1.367
 4469SOL     OW14305   3.058   6.173   1.305
 4469SOL    HW114306   3.048   6.074   1.312
 4469SOL    HW214307   3.072   6.198   1.209
 4470SOL     OW14308   1.824   6.719   2.769
 4470SOL    HW114309   1.770   6.637   2.751
 4470SOL    HW214310   1.791   6.764   2.852
 4471SOL     OW14311   1.129   1.383   6.249
 4471SOL    HW114312   1.100   1.358   6.342
 4471SOL    HW214313   1.072   1.334   6.182
 4472SOL     OW14314   1.594   2.694   1.101
 4472SOL    HW114315   1.537   2.615   1.079
 4472SOL    HW214316   1.614   2.695   1.199
 4473SOL     OW14317   0.665   2.749   4.271
 4473SOL    HW114318   0.726   2.827   4.282
 4473SOL    HW214319   0.678   2.685   4.347
 4474SOL     OW14320   3.274   6.041   0.790
 4474SOL    HW114321   3.341   6.050   0.717
 4474SOL    HW214322   3.213   5.964   0.770
 4475SOL     OW14323   1.067   4.033   1.177
 4475SOL    HW114324   0.979   4.068   1.144
 4475SOL    HW214325   1.089   4.077   1.264
 4476SOL     OW14326   4.902   1.306   3.752
 4476SOL    HW114327   4.954   1.268   3.675
 4476SOL    HW214328   4.833   1.240   3.782
 4477SOL     OW14329   1.652   0.705   5.155
 4477SOL    HW114330   1.604   0.702   5.243
 4477SOL    HW214331   1.592   0.670   5.083
 4478SOL     OW14332   1.921   0.600   0.616
 4478SOL    HW114333   1.966   0.512   0.631
 4478SOL    HW214334   1.918   0.620   0.518
 4479SOL     OW14335   0.908   3.102   0.334
 4479SOL    HW114336   0.951   3.191   0.352
 4479SOL    HW214337   0.889   3.093   0.237
 4480SOL     OW14338   0.843   6.165   4.104
 4480SOL    HW114339   0.869   6.232   4.035
 4480SOL    HW214340   0.745   6.147   4.097
 4481SOL     OW14341   2.077   3.776   6.238
 4481SOL    HW114342   2.153   3.724   6.278
 4481SOL    HW214343   2.092   3.874   6.253
 4482SOL     OW14344   2.664   6.084   6.999
 4482SOL    HW114345   2.686   6.051   0.071
 4482SOL    HW214346   2.587   6.148   7.005
 4483SOL     OW14347   1.404   3.173   0.816
 4483SOL    HW114348   1.461   3.201   0.738
 4483SOL    HW214349   1.453   3.104   0.869
 4484SOL     OW14350   2.483   2.109   0.351
 4484SOL    HW114351   2.533   2.195   0.360
 4484SOL    HW214352   2.465   2.090   0.255
 4485SOL     OW14353   5.892   2.199   5.192
 4485SOL    HW114354   5.825   2.207   5.118
 4485SOL    HW214355   5.973   2.254   5.169
 4486SOL     OW14356   4.398   5.373   5.317
 4486SOL    HW114357   4.460   5.328   5.381
 4486SOL    HW214358   4.348   5.446   5.363
 4487SOL     OW14359   0.648   2.847   0.186
 4487SOL    HW114360   0.623   2.750   0.177
 4487SOL    HW214361   0.576   2.895   0.237
 4488SOL     OW14362   0.053   4.116   4.147
 4488SOL    HW114363   0.151   4.098   4.138
 4488SOL    HW214364   0.028   4.113   4.244
 4489SOL     OW14365   4.451   5.750   5.403
 4489SOL    HW114366   4.351   5.743   5.411
 4489SOL    HW214367   4.492   5.736   5.493
 4490SOL     OW14368   4.994   1.734   0.993
 4490SOL    HW114369   4.937   1.748   1.074
 4490SOL    HW214370   5.002   1.820   0.942
 4491SOL     OW14371   1.130   3.057   3.682
 4491SOL    HW114372   1.149   3.090   3.590
 4491SOL    HW214373   1.163   3.124   3.749
 4492SOL     OW14374   6.299   0.357   2.094
 4492SOL    HW114375   6.268   0.282   2.153
 4492SOL    HW214376   6.372   0.323   2.034
 4493SOL     OW14377   5.010   1.787   4.634
 4493SOL    HW114378   4.914   1.810   4.620
 4493SOL    HW214379   5.059   1.867   4.670
 4494SOL     OW14380   1.396   0.402   0.962
 4494SOL    HW114381   1.479   0.455   0.947
 4494SOL    HW214382   1.317   0.453   0.926
 4495SOL     OW14383   4.969   5.647   1.480
 4495SOL    HW114384   5.057   5.649   1.528
 4495SOL    HW214385   4.927   5.737   1.485
 4496SOL     OW14386   3.770   6.075   6.707
 4496SOL    HW114387   3.676   6.108   6.699
 4496SOL    HW214388   3.769   5.977   6.729
 4497SOL     OW14389   4.552   1.195   6.432
 4497SOL    HW114390   4.538   1.286   6.393
 4497SOL    HW214391   4.623   1.147   6.381
 4498SOL     OW14392   0.820   5.538   5.149
 4498SOL    HW114393   0.883   5.518   5.224
 4498SOL    HW214394   0.744   5.474   5.152
 4499SOL     OW14395   6.076   2.127   2.672
 4499SOL    HW114396   6.064   2.144   2.574
 4499SOL    HW214397   6.173   2.114   2.693
 4500SOL     OW14398   3.948   5.618   6.853
 4500SOL    HW114399   3.969   5.675   6.933
 4500SOL    HW214400   3.982   5.525   6.868
 4501SOL     OW14401   5.990   0.727   2.834
 4501SOL    HW114402   6.049   0.652   2.863
 4501SOL    HW214403   5.934   0.697   2.756
 4502SOL     OW14404   0.044   3.909   6.534
 4502SOL    HW114405   0.032   3.996   6.487
 4502SOL    HW214406   0.073   3.839   6.468
 4503SOL     OW14407   2.756   0.897   2.943
 4503SOL    HW114408   2.799   0.947   3.018
 4503SOL    HW214409   2.799   0.807   2.934
 4504SOL     OW14410   6.951   1.402   2.561
 4504SOL    HW114411   6.945   1.302   2.572
 4504SOL    HW214412   6.910   1.446   2.640
 4505SOL     OW14413   5.940   4.832   4.513
 4505SOL    HW114414   5.932   4.871   4.422
 4505SOL    HW214415   5.988   4.897   4.573
 4506SOL     OW14416   4.941   2.727   4.996
 4506SOL    HW114417   4.974   2.638   5.029
 4506SOL    HW214418   4.989   2.800   5.042
 4507SOL     OW14419   6.385   2.797   3.274
 4507SOL    HW114420   6.449   2.830   3.343
 4507SOL    HW214421   6.325   2.873   3.246
 4508SOL     OW14422   0.456   5.687   0.874
 4508SOL    HW114423   0.373   5.644   0.839
 4508SOL    HW214424   0.435   5.778   0.909
 4509SOL     OW14425   4.918   2.782   1.923
 4509SOL    HW114426   4.827   2.809   1.952
 4509SOL    HW214427   4.976   2.767   2.004
 4510SOL     OW14428   4.397   1.159   3.931
 4510SOL    HW114429   4.363   1.240   3.884
 4510SOL    HW214430   4.497   1.159   3.931
 4511SOL     OW14431   0.518   4.181   0.607
 4511SOL    HW114432   0.599   4.239   0.598
 4511SOL    HW214433   0.437   4.233   0.579
 4512SOL     OW14434   3.366   3.218   5.456
 4512SOL    HW114435   3.288   3.175   5.502
 4512SOL    HW214436   3.362   3.200   5.358
 4513SOL     OW14437   1.292   6.502   0.668
 4513SOL    HW114438   1.274   6.543   0.757
 4513SOL    HW214439   1.250   6.411   0.664
 4514SOL     OW14440   3.239   4.513   6.328
 4514SOL    HW114441   3.238   4.430   6.271
 4514SOL    HW214442   3.236   4.487   6.424
 4515SOL     OW14443   4.673   0.807   6.477
 4515SOL    HW114444   4.691   0.800   6.379
 4515SOL    HW214445   4.692   0.719   6.521
 4516SOL     OW14446   3.526   1.346   5.077
 4516SOL    HW114447   3.576   1.333   5.163
 4516SOL    HW214448   3.472   1.429   5.082
 4517SOL     OW14449   3.949   0.991   5.419
 4517SOL    HW114450   4.037   0.943   5.416
 4517SOL    HW214451   3.911   0.997   5.326
 4518SOL     OW14452   0.991   6.732   1.087
 4518SOL    HW114453   0.975   6.713   0.990
 4518SOL    HW214454   0.958   6.824   1.109
 4519SOL     OW14455   4.647   6.740   6.598
 4519SOL    HW114456   4.674   6.837   6.603
 4519SOL    HW214457   4.555   6.730   6.634
 4520SOL     OW14458   4.041   5.500   5.255
 4520SOL    HW114459   3.978   5.561   5.207
 4520SOL    HW214460   4.050   5.415   5.204
 4521SOL     OW14461   4.401   2.073   4.208
 4521SOL    HW114462   4.341   2.098   4.132
 4521SOL    HW214463   4.468   2.006   4.176
 4522SOL     OW14464   5.492   4.227   3.472
 4522SOL    HW114465   5.443   4.158   3.526
 4522SOL    HW214466   5.508   4.308   3.528
 4523SOL     OW14467   0.299   3.506   5.867
 4523SOL    HW114468   0.231   3.558   5.816
 4523SOL    HW214469   0.364   3.465   5.804
 4524SOL     OW14470   1.449   4.014   2.854
 4524SOL    HW114471   1.399   4.096   2.827
 4524SOL    HW214472   1.477   4.023   2.950
 4525SOL     OW14473   3.479   2.221   5.264
 4525SOL    HW114474   3.490   2.126   5.234
 4525SOL    HW214475   3.388   2.254   5.238
 4526SOL     OW14476   0.860   6.884   5.708
 4526SOL    HW114477   0.802   6.831   5.646
 4526SOL    HW214478   0.828   6.979   5.709
 4527SOL     OW14479   6.601   0.989   2.804
 4527SOL    HW114480   6.613   1.038   2.718
 4527SOL    HW214481   6.690   0.970   2.845
 4528SOL     OW14482   4.670   1.070   5.377
 4528SOL    HW114483   4.727   1.058   5.296
 4528SOL    HW214484   4.576   1.086   5.350
 4529SOL     OW14485   2.161   0.697   3.954
 4529SOL    HW114486   2.258   0.689   3.933
 4529SOL    HW214487   2.130   0.790   3.935
 4530SOL     OW14488   3.680   5.682   6.244
 4530SOL    HW114489   3.623   5.708   6.166
 4530SOL    HW214490   3.623   5.673   6.325
 4531SOL     OW14491   1.048   5.532   5.868
 4531SOL    HW114492   1.089   5.570   5.951
 4531SOL    HW214493   0.993   5.602   5.823
 4532SOL     OW14494   5.857   0.662   2.614
 4532SOL    HW114495   5.790   0.612   2.560
 4532SOL    HW214496   5.923   0.706   2.553
 4533SOL     OW14497   2.896   0.347   1.473
 4533SOL    HW114498   2.825   0.292   1.429
 4533SOL    HW214499   2.882   0.444   1.452
 4534SOL     OW14500   4.519   0.811   3.808
 4534SOL    HW114501   4.421   0.831   3.804
 4534SOL    HW214502   4.538   0.726   3.758
 4535SOL     OW14503   2.248   0.839   1.001
 4535SOL    HW114504   2.277   0.879   0.914
 4535SOL    HW214505   2.318   0.775   1.032
 4536SOL     OW14506   2.857   0.316   5.604
 4536SOL    HW114507   2.765   0.322   5.566
 4536SOL    HW214508   2.887   0.406   5.635
 4537SOL     OW14509   2.910   3.654   3.583
 4537SOL    HW114510   2.887   3.621   3.675
 4537SOL    HW214511   2.894   3.580   3.517
 4538SOL     OW14512   0.347   1.986   0.728
 4538SOL    HW114513   0.410   1.951   0.797
 4538SOL    HW214514   0.288   1.913   0.695
 4539SOL     OW14515   1.203   6.316   5.361
 4539SOL    HW114516   1.112   6.357   5.356
 4539SOL    HW214517   1.264   6.363   5.297
 4540SOL     OW14518   0.902   0.782   0.135
 4540SOL    HW114519   0.954   0.790   0.221
 4540SOL    HW214520   0.805   0.774   0.156
 4541SOL     OW14521   4.522   2.701   5.612
 4541SOL    HW114522   4.515   2.747   5.524
 4541SOL    HW214523   4.544   2.605   5.598
 4542SOL     OW14524   6.839   2.028   0.367
 4542SOL    HW114525   6.749   2.018   0.408
 4542SOL    HW214526   6.895   1.948   0.392
 4543SOL     OW14527   4.050   2.536   0.189
 4543SOL    HW114528   4.075   2.628   0.219
 4543SOL    HW214529   4.058   2.473   0.266
 4544SOL     OW14530   5.365   6.247   0.400
 4544SOL    HW114531   5.315   6.313   0.456
 4544SOL    HW214532   5.359   6.275   0.303
 4545SOL     OW14533   2.178   3.024   4.871
 4545SOL    HW114534   2.089   2.997   4.907
 4545SOL    HW214535   2.248   3.008   4.940
 4546SOL     OW14536   2.682   0.860   5.672
 4546SOL    HW114537   2.667   0.771   5.629
 4546SOL    HW214538   2.701   0.928   5.602
 4547SOL     OW14539   6.820   0.267   0.142
 4547SOL    HW114540   6.891   0.281   0.072
 4547SOL    HW214541   6.735   0.311   0.113
 4548SOL     OW14542   2.390   1.637   3.163
 4548SOL    HW114543   2.346   1.554   3.198
 4548SOL    HW214544   2.431   1.618   3.074
 4549SOL     OW14545   6.825   3.852   4.576
 4549SOL    HW114546   6.868   3.768   4.611
 4549SOL    HW214547   6.759   3.886   4.643
 4550SOL     OW14548   1.760   4.935   3.315
 4550SOL    HW114549   1.772   4.839   3.338
 4550SOL    HW214550   1.674   4.969   3.355
 4551SOL     OW14551   1.213   2.603   5.204
 4551SOL    HW114552   1.113   2.604   5.198
 4551SOL    HW214553   1.248   2.518   5.165
 4552SOL     OW14554   5.432   1.722   0.759
 4552SOL    HW114555   5.445   1.648   0.825
 4552SOL    HW214556   5.456   1.689   0.667
 4553SOL     OW14557   6.666   5.203   6.639
 4553SOL    HW114558   6.661   5.205   6.738
 4553SOL    HW214559   6.754   5.237   6.608
 4554SOL     OW14560   6.252   6.639   3.164
 4554SOL    HW114561   6.315   6.591   3.225
 4554SOL    HW214562   6.250   6.736   3.188
 4555SOL     OW14563   1.907   0.685   0.367
 4555SOL    HW114564   1.988   0.652   0.317
 4555SOL    HW214565   1.855   0.747   0.308
 4556SOL     OW14566   5.836   4.543   4.964
 4556SOL    HW114567   5.889   4.537   5.049
 4556SOL    HW214568   5.855   4.630   4.919
 4557SOL     OW14569   0.020   4.766   3.580
 4557SOL    HW114570   0.030   4.752   3.678
 4557SOL    HW214571   6.947   4.798   3.560
 4558SOL     OW14572   1.181   3.624   4.642
 4558SOL    HW114573   1.190   3.723   4.658
 4558SOL    HW214574   1.102   3.607   4.584
 4559SOL     OW14575   6.748   2.884   3.274
 4559SOL    HW114576   6.781   2.971   3.310
 4559SOL    HW214577   6.725   2.895   3.177
 4560SOL     OW14578   6.107   4.232   2.691
 4560SOL    HW114579   6.025   4.265   2.643
 4560SOL    HW214580   6.103   4.259   2.787
 4561SOL     OW14581   3.554   2.148   4.201
 4561SOL    HW114582   3.615   2.103   4.266
 4561SOL    HW214583   3.468   2.171   4.247
 4562SOL     OW14584   3.374   1.407   1.247
 4562SOL    HW114585   3.320   1.327   1.222
 4562SOL    HW214586   3.413   1.448   1.165
 4563SOL     OW14587   0.923   4.615   2.067
 4563SOL    HW114588   0.918   4.517   2.084
 4563SOL    HW214589   0.831   4.653   2.061
 4564SOL     OW14590   1.630   3.677   2.135
 4564SOL    HW114591   1.669   3.733   2.062
 4564SOL    HW214592   1.539   3.710   2.158
 4565SOL     OW14593   1.922   5.716   5.962
 4565SOL    HW114594   1.831   5.758   5.969
 4565SOL    HW214595   1.990   5.778   6.002
 4566SOL     OW14596   6.162   4.792   2.764
 4566SOL    HW114597   6.222   4.817   2.689
 4566SOL    HW214598   6.069   4.822   2.744
 4567SOL     OW14599   0.018   0.256   6.986
 4567SOL    HW114600   0.018   0.182   6.919
 4567SOL    HW214601   0.091   0.321   6.964
 4568SOL     OW14602   1.469   5.089   3.003
 4568SOL    HW114603   1.527   5.139   2.938
 4568SOL    HW214604   1.452   4.997   2.967
 4569SOL     OW14605   2.200   0.939   3.410
 4569SOL    HW114606   2.284   0.974   3.370
 4569SOL    HW214607   2.140   0.904   3.338
 4570SOL     OW14608   5.476   6.389   1.909
 4570SOL    HW114609   5.383   6.381   1.947
 4570SOL    HW214610   5.510   6.481   1.928
 4571SOL     OW14611   3.093   3.259   6.799
 4571SOL    HW114612   3.081   3.233   6.704
 4571SOL    HW214613   3.024   3.212   6.855
 4572SOL     OW14614   2.982   3.635   1.942
 4572SOL    HW114615   2.965   3.609   1.847
 4572SOL    HW214616   3.057   3.579   1.979
 4573SOL     OW14617   3.081   5.649   1.489
 4573SOL    HW114618   2.994   5.654   1.537
 4573SOL    HW214619   3.104   5.554   1.470
 4574SOL     OW14620   5.098   1.089   1.317
 4574SOL    HW114621   5.147   1.116   1.400
 4574SOL    HW214622   5.006   1.127   1.318
 4575SOL     OW14623   0.469   0.044   5.654
 4575SOL    HW114624   0.405   0.014   5.583
 4575SOL    HW214625   0.418   0.071   5.736
 4576SOL     OW14626   2.622   4.928   5.194
 4576SOL    HW114627   2.689   4.915   5.121
 4576SOL    HW214628   2.627   4.852   5.258
 4577SOL     OW14629   0.850   1.818   2.249
 4577SOL    HW114630   0.920   1.748   2.260
 4577SOL    HW214631   0.766   1.790   2.295
 4578SOL     OW14632   2.021   1.797   2.501
 4578SOL    HW114633   2.083   1.875   2.500
 4578SOL    HW214634   2.055   1.725   2.440
 4579SOL     OW14635   4.860   0.784   3.131
 4579SOL    HW114636   4.777   0.810   3.082
 4579SOL    HW214637   4.937   0.784   3.068
 4580SOL     OW14638   0.185   2.344   0.797
 4580SOL    HW114639   0.139   2.324   0.884
 4580SOL    HW214640   0.119   2.382   0.732
 4581SOL     OW14641   3.232   0.815   0.927
 4581SOL    HW114642   3.177   0.839   1.006
 4581SOL    HW214643   3.177   0.763   0.862
 4582SOL     OW14644   5.806   1.484   3.743
 4582SOL    HW114645   5.827   1.460   3.649
 4582SOL    HW214646   5.707   1.498   3.753
 4583SOL     OW14647   1.171   0.320   0.049
 4583SOL    HW114648   1.202   0.240   0.099
 4583SOL    HW214649   1.246   0.385   0.039
 4584SOL     OW14650   1.297   0.695   4.410
 4584SOL    HW114651   1.265   0.601   4.426
 4584SOL    HW214652   1.228   0.744   4.356
 4585SOL     OW14653   2.105   3.483   3.617
 4585SOL    HW114654   2.129   3.501   3.712
 4585SOL    HW214655   2.095   3.385   3.602
 4586SOL     OW14656   5.523   4.818   6.531
 4586SOL    HW114657   5.532   4.792   6.434
 4586SOL    HW214658   5.601   4.783   6.582
 4587SOL     OW14659   3.010   3.168   4.860
 4587SOL    HW114660   3.096   3.197   4.903
 4587SOL    HW214661   2.937   3.170   4.929
 4588SOL     OW14662   3.199   3.607   6.058
 4588SOL    HW114663   3.285   3.557   6.072
 4588SOL    HW214664   3.142   3.599   6.140
 4589SOL     OW14665   6.328   6.783   2.425
 4589SOL    HW114666   6.352   6.692   2.458
 4589SOL    HW214667   6.294   6.776   2.331
 4590SOL     OW14668   3.496   5.665   0.992
 4590SOL    HW114669   3.499   5.656   0.892
 4590SOL    HW214670   3.406   5.699   1.019
 4591SOL     OW14671   1.818   0.738   5.650
 4591SOL    HW114672   1.810   0.665   5.581
 4591SOL    HW214673   1.750   0.724   5.721
 4592SOL     OW14674   1.669   1.732   3.754
 4592SOL    HW114675   1.575   1.713   3.782
 4592SOL    HW214676   1.698   1.663   3.687
 4593SOL     OW14677   1.452   5.769   4.564
 4593SOL    HW114678   1.515   5.845   4.548
 4593SOL    HW214679   1.472   5.727   4.653
 4594SOL     OW14680   1.671   0.317   3.443
 4594SOL    HW114681   1.630   0.316   3.351
 4594SOL    HW214682   1.730   0.237   3.453
 4595SOL     OW14683   5.568   2.134   6.411
 4595SOL    HW114684   5.562   2.176   6.320
 4595SOL    HW214685   5.520   2.046   6.409
 4596SOL     OW14686   6.560   0.881   2.096
 4596SOL    HW114687   6.649   0.901   2.056
 4596SOL    HW214688   6.572   0.839   2.186
 4597SOL     OW14689   3.125   6.233   6.919
 4597SOL    HW114690   3.037   6.267   6.952
 4597SOL    HW214691   3.197   6.260   6.983
 4598SOL     OW14692   1.766   4.682   0.343
 4598SOL    HW114693   1.821   4.761   0.373
 4598SOL    HW214694   1.742   4.692   0.247
 4599SOL     OW14695   2.211   5.907   2.125
 4599SOL    HW114696   2.132   5.952   2.083
 4599SOL    HW214697   2.179   5.827   2.176
 4600SOL     OW14698   0.275   6.152   5.870
 4600SOL    HW114699   0.315   6.179   5.957
 4600SOL    HW214700   0.182   6.118   5.885
 4601SOL     OW14701   1.866   0.898   5.206
 4601SOL    HW114702   1.896   0.934   5.118
 4601SOL    HW214703   1.773   0.862   5.197
 4602SOL     OW14704   3.160   2.487   6.767
 4602SOL    HW114705   3.066   2.514   6.746
 4602SOL    HW214706   3.223   2.534   6.705
 4603SOL     OW14707   4.841   6.797   0.536
 4603SOL    HW114708   4.758   6.792   0.592
 4603SOL    HW214709   4.838   6.879   0.478
 4604SOL     OW14710   6.149   6.798   5.609
 4604SOL    HW114711   6.198   6.870   5.659
 4604SOL    HW214712   6.155   6.815   5.511
 4605SOL     OW14713   3.587   0.613   1.815
 4605SOL    HW114714   3.604   0.526   1.769
 4605SOL    HW214715   3.583   0.686   1.746
 4606SOL     OW14716   6.827   6.547   4.821
 4606SOL    HW114717   6.801   6.582   4.731
 4606SOL    HW214718   6.812   6.618   4.890
 4607SOL     OW14719   2.181   2.321   1.190
 4607SOL    HW114720   2.158   2.279   1.102
 4607SOL    HW214721   2.268   2.368   1.182
 4608SOL     OW14722   6.917   2.970   4.437
 4608SOL    HW114723   7.006   3.007   4.412
 4608SOL    HW214724   6.857   2.970   4.357
 4609SOL     OW14725   4.404   5.817   6.351
 4609SOL    HW114726   4.308   5.833   6.374
 4609SOL    HW214727   4.421   5.845   6.256
 4610SOL     OW14728   5.567   3.912   6.575
 4610SOL    HW114729   5.654   3.900   6.528
 4610SOL    HW214730   5.583   3.924   6.673
 4611SOL     OW14731   1.195   1.063   6.553
 4611SOL    HW114732   1.226   1.003   6.478
 4611SOL    HW214733   1.270   1.124   6.579
 4612SOL     OW14734   1.994   1.501   1.802
 4612SOL    HW114735   2.077   1.461   1.841
 4612SOL    HW214736   1.915   1.472   1.855
 4613SOL     OW14737   1.615   4.779   1.593
 4613SOL    HW114738   1.543   4.817   1.651
 4613SOL    HW214739   1.582   4.697   1.547
 4614SOL     OW14740   6.621   4.225   4.629
 4614SOL    HW114741   6.705   4.203   4.579
 4614SOL    HW214742   6.541   4.197   4.575
 4615SOL     OW14743   1.082   3.419   6.939
 4615SOL    HW114744   1.155   3.419   7.007
 4615SOL    HW214745   1.096   3.495   6.876
 4616SOL     OW14746   6.582   2.786   6.164
 4616SOL    HW114747   6.609   2.728   6.241
 4616SOL    HW214748   6.614   2.879   6.179
 4617SOL     OW14749   0.024   2.915   3.191
 4617SOL    HW114750   0.062   2.965   3.269
 4617SOL    HW214751   6.973   2.853   3.223
 4618SOL     OW14752   2.101   4.203   6.013
 4618SOL    HW114753   2.049   4.286   6.032
 4618SOL    HW214754   2.079   4.169   5.921
 4619SOL     OW14755   4.823   6.124   6.210
 4619SOL    HW114756   4.799   6.162   6.299
 4619SOL    HW214757   4.899   6.060   6.219
 4620SOL     OW14758   0.566   4.802   2.421
 4620SOL    HW114759   0.615   4.720   2.451
 4620SOL    HW214760   0.631   4.875   2.402
 4621SOL     OW14761   3.686   0.037   2.603
 4621SOL    HW114762   3.782   0.033   2.576
 4621SOL    HW214763   3.629   0.032   2.521
 4622SOL     OW14764   5.364   6.053   1.441
 4622SOL    HW114765   5.330   6.097   1.358
 4622SOL    HW214766   5.439   6.107   1.479
 4623SOL     OW14767   2.898   4.928   1.098
 4623SOL    HW114768   2.863   4.853   1.154
 4623SOL    HW214769   2.844   4.935   1.014
 4624SOL     OW14770   4.208   1.284   2.019
 4624SOL    HW114771   4.211   1.283   1.919
 4624SOL    HW214772   4.213   1.379   2.052
 4625SOL     OW14773   1.823   6.183   1.707
 4625SOL    HW114774   1.879   6.265   1.718
 4625SOL    HW214775   1.879   6.110   1.668
 4626SOL     OW14776   4.693   3.739   1.725
 4626SOL    HW114777   4.779   3.784   1.701
 4626SOL    HW214778   4.712   3.649   1.763
 4627SOL     OW14779   5.636   0.006   4.996
 4627SOL    HW114780   5.643   6.948   4.935
 4627SOL    HW214781   5.636   0.091   4.943
 4628SOL     OW14782   5.516   5.511   4.493
 4628SOL    HW114783   5.420   5.498   4.517
 4628SOL    HW214784   5.533   5.470   4.403
 4629SOL     OW14785   2.620   6.216   6.692
 4629SOL    HW114786   2.566   6.149   6.641
 4629SOL    HW214787   2.624   6.190   6.788
 4630SOL     OW14788   1.902   3.211   2.194
 4630SOL    HW114789   1.834   3.277   2.224
 4630SOL    HW214790   1.959   3.252   2.122
 4631SOL     OW14791   6.890   0.652   3.035
 4631SOL    HW114792   6.837   0.639   3.119
 4631SOL    HW214793   6.976   0.697   3.056
 4632SOL     OW14794   3.405   4.987   2.634
 4632SOL    HW114795   3.475   4.918   2.616
 4632SOL    HW214796   3.414   5.062   2.568
 4633SOL     OW14797   4.752   0.979   4.676
 4633SOL    HW114798   4.685   0.943   4.610
 4633SOL    HW214799   4.841   0.988   4.631
 4634SOL     OW14800   2.880   3.862   4.922
 4634SOL    HW114801   2.813   3.932   4.943
 4634SOL    HW214802   2.880   3.793   4.995
 4635SOL     OW14803   4.856   6.544   1.833
 4635SOL    HW114804   4.899   6.634   1.829
 4635SOL    HW214805   4.806   6.527   1.748
 4636SOL     OW14806   1.870   5.327   0.715
 4636SOL    HW114807   1.922   5.242   0.727
 4636SOL    HW214808   1.800   5.333   0.786
 4637SOL     OW14809   2.849   1.370   3.200
 4637SOL    HW114810   2.840   1.432   3.122
 4637SOL    HW214811   2.940   1.382   3.241
 4638SOL     OW14812   3.674   5.119   0.429
 4638SOL    HW114813   3.756   5.171   0.455
 4638SOL    HW214814   3.664   5.122   0.329
 4639SOL     OW14815   3.698   2.218   1.292
 4639SOL    HW114816   3.695   2.128   1.335
 4639SOL    HW214817   3.606   2.257   1.289
 4640SOL     OW14818   6.395   2.603   6.810
 4640SOL    HW114819   6.416   2.636   6.717
 4640SOL    HW214820   6.405   2.678   6.875
 4641SOL     OW14821   1.103   6.094   4.159
 4641SOL    HW114822   1.113   6.009   4.212
 4641SOL    HW214823   1.007   6.121   4.159
 4642SOL     OW14824   0.169   1.210   3.653
 4642SOL    HW114825   0.210   1.278   3.713
 4642SOL    HW214826   0.227   1.197   3.573
 4643SOL     OW14827   0.239   1.781   0.634
 4643SOL    HW114828   0.180   1.717   0.684
 4643SOL    HW214829   0.326   1.736   0.614
 4644SOL     OW14830   1.417   0.875   0.207
 4644SOL    HW114831   1.409   0.819   0.290
 4644SOL    HW214832   1.452   0.966   0.231
 4645SOL     OW14833   0.948   1.853   3.879
 4645SOL    HW114834   0.888   1.912   3.826
 4645SOL    HW214835   1.043   1.875   3.859
 4646SOL     OW14836   1.957   5.242   3.607
 4646SOL    HW114837   1.907   5.214   3.690
 4646SOL    HW214838   2.036   5.182   3.594
 4647SOL     OW14839   1.149   6.403   2.074
 4647SOL    HW114840   1.159   6.501   2.091
 4647SOL    HW214841   1.141   6.354   2.160
 4648SOL     OW14842   2.812   1.738   4.794
 4648SOL    HW114843   2.860   1.769   4.711
 4648SOL    HW214844   2.748   1.665   4.770
 4649SOL     OW14845   6.610   1.150   6.988
 4649SOL    HW114846   6.576   1.204   6.910
 4649SOL    HW214847   6.664   1.074   6.953
 4650SOL     OW14848   5.181   5.869   1.521
 4650SOL    HW114849   5.263   5.921   1.495
 4650SOL    HW214850   5.208   5.779   1.554
 4651SOL     OW14851   6.874   3.387   6.393
 4651SOL    HW114852   6.925   3.346   6.469
 4651SOL    HW214853   6.852   3.482   6.416
 4652SOL     OW14854   0.381   6.611   5.358
 4652SOL    HW114855   0.299   6.632   5.305
 4652SOL    HW214856   0.457   6.667   5.325
 4653SOL     OW14857   5.547   5.212   0.645
 4653SOL    HW114858   5.453   5.217   0.612
 4653SOL    HW214859   5.550   5.159   0.730
 4654SOL     OW14860   0.974   0.094   5.453
 4654SOL    HW114861   0.971   0.147   5.369
 4654SOL    HW214862   0.895   0.117   5.510
 4655SOL     OW14863   4.953   2.789   1.321
 4655SOL    HW114864   4.884   2.814   1.389
 4655SOL    HW214865   4.966   2.866   1.258
 4656SOL     OW14866   0.701   0.869   1.660
 4656SOL    HW114867   0.686   0.785   1.713
 4656SOL    HW214868   0.797   0.896   1.667
 4657SOL     OW14869   4.803   0.404   2.332
 4657SOL    HW114870   4.747   0.402   2.249
 4657SOL    HW214871   4.822   0.310   2.362
 4658SOL     OW14872   1.635   3.081   5.833
 4658SOL    HW114873   1.632   2.981   5.835
 4658SOL    HW214874   1.646   3.117   5.925
 4659SOL     OW14875   2.030   4.688   0.159
 4659SOL    HW114876   1.962   4.631   0.114
 4659SOL    HW214877   2.112   4.634   0.178
 4660SOL     OW14878   1.070   6.601   4.064
 4660SOL    HW114879   0.999   6.652   4.111
 4660SOL    HW214880   1.159   6.621   4.106
 4661SOL     OW14881   0.971   2.547   5.540
 4661SOL    HW114882   0.965   2.571   5.443
 4661SOL    HW214883   0.879   2.548   5.580
 4662SOL     OW14884   2.455   6.946   5.610
 4662SOL    HW114885   2.390   6.871   5.593
 4662SOL    HW214886   2.405   0.010   5.632
 4663SOL     OW14887   1.741   0.283   0.190
 4663SOL    HW114888   1.662   0.246   0.238
 4663SOL    HW214889   1.712   0.343   0.116
 4664SOL     OW14890   6.896   6.588   6.729
 4664SOL    HW114891   6.829   6.659   6.708
 4664SOL    HW214892   6.985   6.629   6.747
 4665SOL     OW14893   1.968   0.271   4.391
 4665SOL    HW114894   2.054   0.318   4.411
 4665SOL    HW214895   1.895   0.339   4.381
 4666SOL     OW14896   2.675   1.873   4.985
 4666SOL    HW114897   2.728   1.825   4.915
 4666SOL    HW214898   2.668   1.970   4.960
 4667SOL     OW14899   6.456   3.652   1.249
 4667SOL    HW114900   6.540   3.690   1.287
 4667SOL    HW214901   6.435   3.565   1.293
 4668SOL     OW14902   4.261   2.314   3.646
 4668SOL    HW114903   4.162   2.302   3.650
 4668SOL    HW214904   4.296   2.332   3.738
 4669SOL     OW14905   5.562   0.056   6.834
 4669SOL    HW114906   5.618   0.102   6.765
 4669SOL    HW214907   5.517   0.124   6.891
 4670SOL     OW14908   0.359   2.596   0.531
 4670SOL    HW114909   0.435   2.660   0.527
 4670SOL    HW214910   0.372   2.533   0.608
 4671SOL     OW14911   0.778   3.448   0.772
 4671SOL    HW114912   0.724   3.487   0.698
 4671SOL    HW214913   0.849   3.390   0.734
 4672SOL     OW14914   2.384   3.851   6.808
 4672SOL    HW114915   2.392   3.815   6.901
 4672SOL    HW214916   2.333   3.786   6.752
 4673SOL     OW14917   5.857   0.960   0.001
 4673SOL    HW114918   5.784   0.994   0.060
 4673SOL    HW214919   5.891   0.873   0.037
 4674SOL     OW14920   0.978   2.279   1.356
 4674SOL    HW114921   0.995   2.308   1.262
 4674SOL    HW214922   1.009   2.350   1.419
 4675SOL     OW14923   2.400   6.088   0.218
 4675SOL    HW114924   2.369   6.006   0.170
 4675SOL    HW214925   2.495   6.075   0.247
 4676SOL     OW14926   0.477   6.309   4.287
 4676SOL    HW114927   0.491   6.236   4.221
 4676SOL    HW214928   0.538   6.385   4.266
 4677SOL     OW14929   4.335   0.137   6.619
 4677SOL    HW114930   4.403   0.080   6.666
 4677SOL    HW214931   4.367   0.232   6.618
 4678SOL     OW14932   2.254   4.457   6.262
 4678SOL    HW114933   2.216   4.410   6.341
 4678SOL    HW214934   2.218   4.550   6.258
 4679SOL     OW14935   2.707   0.486   5.379
 4679SOL    HW114936   2.773   0.470   5.305
 4679SOL    HW214937   2.646   0.406   5.387
 4680SOL     OW14938   2.074   4.839   0.713
 4680SOL    HW114939   2.065   4.761   0.651
 4680SOL    HW214940   2.000   4.836   0.781
 4681SOL     OW14941   0.562   5.421   5.147
 4681SOL    HW114942   0.508   5.404   5.230
 4681SOL    HW214943   0.523   5.499   5.098
 4682SOL     OW14944   4.564   6.619   0.582
 4682SOL    HW114945   4.597   6.525   0.576
 4682SOL    HW214946   4.521   6.645   0.496
 4683SOL     OW14947   6.790   4.206   3.762
 4683SOL    HW114948   6.719   4.178   3.696
 4683SOL    HW214949   6.858   4.263   3.715
 4684SOL     OW14950   1.387   1.138   4.351
 4684SOL    HW114951   1.470   1.110   4.398
 4684SOL    HW214952   1.400   1.228   4.309
 4685SOL     OW14953   4.980   4.608   4.994
 4685SOL    HW114954   4.990   4.690   5.051
 4685SOL    HW214955   5.065   4.556   4.994
 4686SOL     OW14956   4.503   5.691   0.172
 4686SOL    HW114957   4.450   5.674   0.089
 4686SOL    HW214958   4.596   5.656   0.161
 4687SOL     OW14959   5.583   6.417   4.708
 4687SOL    HW114960   5.541   6.468   4.783
 4687SOL    HW214961   5.518   6.407   4.633
 4688SOL     OW14962   0.423   1.933   6.484
 4688SOL    HW114963   0.496   1.870   6.512
 4688SOL    HW214964   0.421   1.941   6.385
 4689SOL     OW14965   1.380   5.437   5.628
 4689SOL    HW114966   1.405   5.527   5.593
 4689SOL    HW214967   1.431   5.418   5.712
 4690SOL     OW14968   1.472   2.507   0.402
 4690SOL    HW114969   1.549   2.472   0.456
 4690SOL    HW214970   1.501   2.590   0.355
 4691SOL     OW14971   3.324   4.817   0.568
 4691SOL    HW114972   3.292   4.767   0.648
 4691SOL    HW214973   3.379   4.756   0.511
 4692SOL     OW14974   0.169   5.415   3.227
 4692SOL    HW114975   0.129   5.407   3.318
 4692SOL    HW214976   0.136   5.341   3.168
 4693SOL     OW14977   0.370   1.161   3.454
 4693SOL    HW114978   0.452   1.208   3.421
 4693SOL    HW214979   0.347   1.085   3.392
 4694SOL     OW14980   1.553   1.749   6.660
 4694SOL    HW114981   1.481   1.758   6.729
 4694SOL    HW214982   1.636   1.794   6.691
 4695SOL     OW14983   3.264   3.041   1.963
 4695SOL    HW114984   3.357   3.043   2.000
 4695SOL    HW214985   3.203   2.999   2.030
 4696SOL     OW14986   0.058   3.638   6.964
 4696SOL    HW114987   0.078   3.540   6.972
 4696SOL    HW214988   0.032   3.674   0.034
 4697SOL     OW14989   0.921   4.611   0.059
 4697SOL    HW114990   1.005   4.652   0.023
 4697SOL    HW214991   0.936   4.584   0.154
 4698SOL     OW14992   5.648   2.830   1.012
 4698SOL    HW114993   5.743   2.862   1.002
 4698SOL    HW214994   5.587   2.893   0.964
 4699SOL     OW14995   6.554   0.358   3.685
 4699SOL    HW114996   6.522   0.350   3.591
 4699SOL    HW214997   6.645   0.399   3.686
 4700SOL     OW14998   4.683   0.799   1.619
 4700SOL    HW114999   4.607   0.862   1.600
 4700SOL    HW215000   4.752   0.806   1.547
 4701SOL     OW15001   0.979   0.841   0.795
 4701SOL    HW115002   0.957   0.917   0.856
 4701SOL    HW215003   0.957   0.755   0.841
 4702SOL     OW15004   3.377   4.350   6.901
 4702SOL    HW115005   3.297   4.294   6.881
 4702SOL    HW215006   3.456   4.292   6.917
 4703SOL     OW15007   1.844   0.914   2.013
 4703SOL    HW115008   1.828   1.007   2.047
 4703SOL    HW215009   1.782   0.851   2.058
 4704SOL     OW15010   5.106   6.805   0.411
 4704SOL    HW115011   5.036   6.873   0.433
 4704SOL    HW215012   5.084   6.719   0.457
 4705SOL     OW15013   3.245   3.453   4.129
 4705SOL    HW115014   3.267   3.377   4.190
 4705SOL    HW215015   3.207   3.529   4.182
 4706SOL     OW15016   4.085   5.403   1.366
 4706SOL    HW115017   4.057   5.464   1.440
 4706SOL    HW215018   4.142   5.329   1.404
 4707SOL     OW15019   3.178   6.300   0.791
 4707SOL    HW115020   3.194   6.201   0.785
 4707SOL    HW215021   3.096   6.323   0.739
 4708SOL     OW15022   2.347   2.262   2.256
 4708SOL    HW115023   2.336   2.339   2.320
 4708SOL    HW215024   2.396   2.293   2.174
 4709SOL     OW15025   4.043   4.274   5.951
 4709SOL    HW115026   3.984   4.208   5.906
 4709SOL    HW215027   4.005   4.297   6.041
 4710SOL     OW15028   4.876   1.923   0.852
 4710SOL    HW115029   4.782   1.935   0.820
 4710SOL    HW215030   4.939   1.934   0.775
 4711SOL     OW15031   2.934   0.402   2.612
 4711SOL    HW115032   3.030   0.375   2.603
 4711SOL    HW215033   2.905   0.390   2.707
 4712SOL     OW15034   1.422   4.788   0.384
 4712SOL    HW115035   1.377   4.868   0.424
 4712SOL    HW215036   1.492   4.818   0.319
 4713SOL     OW15037   2.238   5.717   0.677
 4713SOL    HW115038   2.302   5.729   0.601
 4713SOL    HW215039   2.281   5.746   0.762
 4714SOL     OW15040   3.684   2.371   0.914
 4714SOL    HW115041   3.641   2.407   0.996
 4714SOL    HW215042   3.672   2.271   0.911
 4715SOL     OW15043   6.563   3.804   3.569
 4715SOL    HW115044   6.535   3.731   3.631
 4715SOL    HW215045   6.493   3.875   3.566
 4716SOL     OW15046   3.467   6.281   0.310
 4716SOL    HW115047   3.515   6.203   0.352
 4716SOL    HW215048   3.395   6.313   0.372
 4717SOL     OW15049   1.463   5.713   3.938
 4717SOL    HW115050   1.401   5.697   4.016
 4717SOL    HW215051   1.435   5.655   3.861
 4718SOL     OW15052   5.880   1.359   6.149
 4718SOL    HW115053   5.963   1.331   6.197
 4718SOL    HW215054   5.860   1.455   6.168
 4719SOL     OW15055   4.635   2.934   1.022
 4719SOL    HW115056   4.732   2.944   1.044
 4719SOL    HW215057   4.580   2.982   1.090
 4720SOL     OW15058   2.303   0.769   4.627
 4720SOL    HW115059   2.345   0.793   4.539
 4720SOL    HW215060   2.371   0.726   4.685
 4721SOL     OW15061   1.587   2.291   1.680
 4721SOL    HW115062   1.650   2.278   1.604
 4721SOL    HW215063   1.587   2.387   1.708
 4722SOL     OW15064   2.204   6.531   1.072
 4722SOL    HW115065   2.116   6.567   1.103
 4722SOL    HW215066   2.225   6.447   1.122
 4723SOL     OW15067   2.883   6.980   6.818
 4723SOL    HW115068   2.888   6.953   6.914
 4723SOL    HW215069   2.971   7.016   6.789
 4724SOL     OW15070   4.469   5.074   1.621
 4724SOL    HW115071   4.527   5.019   1.561
 4724SOL    HW215072   4.384   5.097   1.573
 4725SOL     OW15073   5.813   5.955   3.514
 4725SOL    HW115074   5.770   6.032   3.467
 4725SOL    HW215075   5.743   5.899   3.558
 4726SOL     OW15076   0.169   5.359   6.738
 4726SOL    HW115077   0.114   5.393   6.815
 4726SOL    HW215078   0.150   5.414   6.657
 4727SOL     OW15079   0.118   6.584   0.030
 4727SOL    HW115080   0.136   6.582   6.951
 4727SOL    HW215081   0.093   6.492   0.061
 4728SOL     OW15082   0.281   1.332   0.450
 4728SOL    HW115083   0.237   1.384   0.377
 4728SOL    HW215084   0.295   1.238   0.421
 4729SOL     OW15085   3.622   0.285   1.732
 4729SOL    HW115086   3.716   0.316   1.747
 4729SOL    HW215087   3.599   0.294   1.636
 4730SOL     OW15088   1.569   0.394   5.370
 4730SOL    HW115089   1.477   0.387   5.408
 4730SOL    HW215090   1.587   0.315   5.311
 4731SOL     OW15091   5.580   1.697   5.875
 4731SOL    HW115092   5.563   1.599   5.870
 4731SOL    HW215093   5.626   1.728   5.792
 4732SOL     OW15094   0.286   2.211   0.568
 4732SOL    HW115095   0.262   2.240   0.660
 4732SOL    HW215096   0.355   2.139   0.572
 4733SOL     OW15097   6.817   2.900   3.911
 4733SOL    HW115098   6.865   2.837   3.849
 4733SOL    HW215099   6.852   2.889   4.004
 4734SOL     OW15100   4.121   4.670   6.393
 4734SOL    HW115101   4.200   4.701   6.339
 4734SOL    HW215102   4.038   4.710   6.355
 4735SOL     OW15103   0.728   5.275   3.305
 4735SOL    HW115104   0.800   5.262   3.373
 4735SOL    HW215105   0.724   5.372   3.279
 4736SOL     OW15106   1.427   0.891   0.903
 4736SOL    HW115107   1.364   0.940   0.963
 4736SOL    HW215108   1.499   0.953   0.872
 4737SOL     OW15109   2.594   5.824   2.006
 4737SOL    HW115110   2.507   5.843   1.961
 4737SOL    HW215111   2.588   5.850   2.103
 4738SOL     OW15112   6.784   6.324   2.650
 4738SOL    HW115113   6.769   6.418   2.679
 4738SOL    HW215114   6.760   6.314   2.554
 4739SOL     OW15115   4.883   0.659   1.035
 4739SOL    HW115116   4.788   0.658   1.067
 4739SOL    HW215117   4.922   0.750   1.051
 4740SOL     OW15118   0.500   2.292   3.786
 4740SOL    HW115119   0.501   2.339   3.875
 4740SOL    HW215120   0.473   2.357   3.715
 4741SOL     OW15121   3.870   4.136   1.301
 4741SOL    HW115122   3.897   4.051   1.256
 4741SOL    HW215123   3.773   4.154   1.282
 4742SOL     OW15124   3.593   0.225   0.441
 4742SOL    HW115125   3.501   0.186   0.434
 4742SOL    HW215126   3.589   0.322   0.416
 4743SOL     OW15127   2.150   4.913   1.297
 4743SOL    HW115128   2.075   4.971   1.264
 4743SOL    HW215129   2.201   4.962   1.368
 4744SOL     OW15130   2.456   5.668   0.975
 4744SOL    HW115131   2.377   5.607   0.969
 4744SOL    HW215132   2.514   5.656   0.895
 4745SOL     OW15133   1.284   4.402   6.984
 4745SOL    HW115134   1.379   4.407   7.014
 4745SOL    HW215135   1.241   4.492   6.995
 4746SOL     OW15136   4.707   5.731   4.089
 4746SOL    HW115137   4.674   5.695   4.176
 4746SOL    HW215138   4.807   5.729   4.088
 4747SOL     OW15139   1.602   2.136   0.468
 4747SOL    HW115140   1.596   2.231   0.437
 4747SOL    HW215141   1.548   2.078   0.408
 4748SOL     OW15142   1.862   6.622   2.477
 4748SOL    HW115143   1.809   6.613   2.561
 4748SOL    HW215144   1.829   6.700   2.425
 4749SOL     OW15145   2.381   1.580   6.409
 4749SOL    HW115146   2.456   1.597   6.346
 4749SOL    HW215147   2.294   1.600   6.363
 4750SOL     OW15148   5.059   2.595   5.391
 4750SOL    HW115149   5.040   2.551   5.479
 4750SOL    HW215150   5.092   2.688   5.406
 4751SOL     OW15151   4.260   0.610   3.703
 4751SOL    HW115152   4.230   0.536   3.643
 4751SOL    HW215153   4.213   0.603   3.791
 4752SOL     OW15154   4.754   2.113   6.641
 4752SOL    HW115155   4.765   2.016   6.622
 4752SOL    HW215156   4.704   2.156   6.566
 4753SOL     OW15157   3.444   6.360   5.942
 4753SOL    HW115158   3.378   6.298   5.984
 4753SOL    HW215159   3.398   6.418   5.874
 4754SOL     OW15160   4.758   4.720   6.693
 4754SOL    HW115161   4.806   4.675   6.768
 4754SOL    HW215162   4.703   4.653   6.644
 4755SOL     OW15163   1.306   1.340   1.483
 4755SOL    HW115164   1.257   1.341   1.570
 4755SOL    HW215165   1.241   1.340   1.408
 4756SOL     OW15166   6.515   4.073   6.019
 4756SOL    HW115167   6.490   4.122   6.103
 4756SOL    HW215168   6.588   4.123   5.972
 4757SOL     OW15169   1.856   3.823   1.173
 4757SOL    HW115170   1.824   3.838   1.079
 4757SOL    HW215171   1.939   3.875   1.188
 4758SOL     OW15172   2.630   6.450   3.253
 4758SOL    HW115173   2.662   6.402   3.334
 4758SOL    HW215174   2.570   6.390   3.200
 4759SOL     OW15175   0.753   5.779   1.830
 4759SOL    HW115176   0.792   5.772   1.738
 4759SOL    HW215177   0.821   5.817   1.892
 4760SOL     OW15178   1.196   5.883   1.201
 4760SOL    HW115179   1.265   5.812   1.213
 4760SOL    HW215180   1.165   5.915   1.290
 4761SOL     OW15181   6.312   6.234   1.707
 4761SOL    HW115182   6.219   6.201   1.696
 4761SOL    HW215183   6.322   6.275   1.797
 4762SOL     OW15184   1.392   0.384   2.070
 4762SOL    HW115185   1.426   0.300   2.111
 4762SOL    HW215186   1.334   0.433   2.135
 4763SOL     OW15187   5.508   4.517   1.573
 4763SOL    HW115188   5.536   4.612   1.588
 4763SOL    HW215189   5.576   4.455   1.611
 4764SOL     OW15190   4.987   2.818   0.712
 4764SOL    HW115191   4.943   2.738   0.751
 4764SOL    HW215192   4.926   2.897   0.720
 4765SOL     OW15193   3.502   1.498   4.651
 4765SOL    HW115194   3.516   1.480   4.554
 4765SOL    HW215195   3.479   1.412   4.697
 4766SOL     OW15196   0.624   0.364   4.253
 4766SOL    HW115197   0.601   0.279   4.206
 4766SOL    HW215198   0.612   0.442   4.191
 4767SOL     OW15199   2.037   4.174   3.477
 4767SOL    HW115200   2.000   4.090   3.438
 4767SOL    HW215201   1.966   4.245   3.476
 4768SOL     OW15202   4.627   2.601   6.692
 4768SOL    HW115203   4.629   2.584   6.791
 4768SOL    HW215204   4.591   2.521   6.645
 4769SOL     OW15205   2.621   4.336   0.436
 4769SOL    HW115206   2.545   4.298   0.384
 4769SOL    HW215207   2.586   4.372   0.523
 4770SOL     OW15208   0.534   1.276   5.441
 4770SOL    HW115209   0.460   1.335   5.472
 4770SOL    HW215210   0.501   1.217   5.367
 4771SOL     OW15211   1.659   6.807   4.894
 4771SOL    HW115212   1.743   6.817   4.841
 4771SOL    HW215213   1.582   6.789   4.833
 4772SOL     OW15214   2.949   5.133   2.251
 4772SOL    HW115215   3.017   5.061   2.265
 4772SOL    HW215216   2.901   5.150   2.338
 4773SOL     OW15217   2.049   5.231   4.539
 4773SOL    HW115218   1.979   5.166   4.569
 4773SOL    HW215219   2.139   5.193   4.556
 4774SOL     OW15220   1.552   4.386   0.047
 4774SOL    HW115221   1.532   4.412   0.141
 4774SOL    HW215222   1.631   4.324   0.046
 4775SOL     OW15223   6.500   6.490   5.273
 4775SOL    HW115224   6.589   6.468   5.313
 4775SOL    HW215225   6.428   6.450   5.329
 4776SOL     OW15226   0.002   1.257   6.202
 4776SOL    HW115227   6.950   1.221   6.143
 4776SOL    HW215228   0.058   1.322   6.151
 4777SOL     OW15229   1.514   0.476   2.363
 4777SOL    HW115230   1.453   0.555   2.357
 4777SOL    HW215231   1.579   0.488   2.438
 4778SOL     OW15232   1.948   1.190   6.919
 4778SOL    HW115233   1.970   1.099   6.952
 4778SOL    HW215234   1.851   1.195   6.893
 4779SOL     OW15235   5.526   0.433   4.789
 4779SOL    HW115236   5.508   0.524   4.751
 4779SOL    HW215237   5.612   0.434   4.839
 4780SOL     OW15238   5.676   2.746   4.958
 4780SOL    HW115239   5.646   2.651   4.956
 4780SOL    HW215240   5.617   2.801   4.899
 4781SOL     OW15241   2.092   5.701   2.245
 4781SOL    HW115242   2.167   5.636   2.229
 4781SOL    HW215243   2.006   5.662   2.212
 4782SOL     OW15244   6.724   6.868   4.447
 4782SOL    HW115245   6.807   6.917   4.422
 4782SOL    HW215246   6.679   6.834   4.365
 4783SOL     OW15247   6.834   3.399   5.941
 4783SOL    HW115248   6.885   3.379   6.024
 4783SOL    HW215249   6.737   3.383   5.957
 4784SOL     OW15250   5.291   3.209   6.582
 4784SOL    HW115251   5.332   3.265   6.653
 4784SOL    HW215252   5.264   3.120   6.619
 4785SOL     OW15253   6.928   6.842   4.117
 4785SOL    HW115254   6.898   6.749   4.096
 4785SOL    HW215255   0.008   6.845   4.120
 4786SOL     OW15256   1.248   5.382   6.939
 4786SOL    HW115257   1.305   5.452   6.983
 4786SOL    HW215258   1.174   5.426   6.890
 4787SOL     OW15259   3.473   1.626   4.000
 4787SOL    HW115260   3.464   1.564   4.079
 4787SOL    HW215261   3.443   1.718   4.027
 4788SOL     OW15262   6.135   5.918   0.770
 4788SOL    HW115263   6.070   5.844   0.755
 4788SOL    HW215264   6.221   5.897   0.722
 4789SOL     OW15265   5.711   1.251   2.803
 4789SOL    HW115266   5.710   1.350   2.787
 4789SOL    HW215267   5.748   1.204   2.722
 4790SOL     OW15268   6.741   1.930   5.074
 4790SOL    HW115269   6.722   2.028   5.085
 4790SOL    HW215270   6.752   1.910   4.976
 4791SOL     OW15271   6.890   0.571   0.475
 4791SOL    HW115272   6.913   0.588   0.571
 4791SOL    HW215273   6.941   0.492   0.442
 4792SOL     OW15274   2.132   3.090   2.849
 4792SOL    HW115275   2.052   3.061   2.797
 4792SOL    HW215276   2.107   3.162   2.913
 4793SOL     OW15277   1.057   3.221   5.840
 4793SOL    HW115278   1.114   3.210   5.921
 4793SOL    HW215279   1.104   3.277   5.773
 4794SOL     OW15280   4.191   1.528   4.497
 4794SOL    HW115281   4.134   1.493   4.423
 4794SOL    HW215282   4.276   1.565   4.459
 4795SOL     OW15283   6.907   0.933   6.339
 4795SOL    HW115284   6.986   0.967   6.391
 4795SOL    HW215285   6.824   0.941   6.395
 4796SOL     OW15286   4.411   1.129   5.304
 4796SOL    HW115287   4.345   1.089   5.367
 4796SOL    HW215288   4.382   1.112   5.210
 4797SOL     OW15289   1.418   5.280   5.412
 4797SOL    HW115290   1.460   5.193   5.438
 4797SOL    HW215291   1.384   5.326   5.495
 4798SOL     OW15292   4.391   4.839   6.770
 4798SOL    HW115293   4.416   4.765   6.833
 4798SOL    HW215294   4.471   4.866   6.716
 4799SOL     OW15295   4.067   2.833   0.080
 4799SOL    HW115296   4.044   2.916   0.029
 4799SOL    HW215297   4.088   2.856   0.175
 4800SOL     OW15298   0.863   4.062   0.314
 4800SOL    HW115299   0.935   4.127   0.342
 4800SOL    HW215300   0.797   4.052   0.388
 4801SOL     OW15301   5.497   2.696   1.987
 4801SOL    HW115302   5.406   2.672   1.952
 4801SOL    HW215303   5.509   2.795   1.981
 4802SOL     OW15304   6.454   0.853   4.350
 4802SOL    HW115305   6.482   0.762   4.318
 4802SOL    HW215306   6.447   0.916   4.273
 4803SOL     OW15307   5.640   3.730   5.734
 4803SOL    HW115308   5.611   3.784   5.655
 4803SOL    HW215309   5.572   3.658   5.752
 4804SOL     OW15310   4.835   1.614   0.791
 4804SOL    HW115311   4.882   1.684   0.845
 4804SOL    HW215312   4.902   1.554   0.748
 4805SOL     OW15313   6.542   1.314   6.785
 4805SOL    HW115314   6.603   1.282   6.712
 4805SOL    HW215315   6.452   1.334   6.747
 4806SOL     OW15316   0.989   0.979   3.601
 4806SOL    HW115317   0.944   0.892   3.581
 4806SOL    HW215318   0.931   1.033   3.661
 4807SOL     OW15319   0.542   3.475   5.545
 4807SOL    HW115320   0.563   3.465   5.643
 4807SOL    HW215321   0.559   3.569   5.518
 4808SOL     OW15322   3.745   5.844   1.292
 4808SOL    HW115323   3.807   5.855   1.214
 4808SOL    HW215324   3.685   5.924   1.299
 4809SOL     OW15325   3.487   4.029   1.105
 4809SOL    HW115326   3.534   3.959   1.158
 4809SOL    HW215327   3.391   4.030   1.130
 4810SOL     OW15328   0.554   5.030   3.843
 4810SOL    HW115329   0.543   5.019   3.745
 4810SOL    HW215330   0.538   5.126   3.868
 4811SOL     OW15331   3.113   3.946   4.183
 4811SOL    HW115332   3.208   3.948   4.215
 4811SOL    HW215333   3.064   4.026   4.219
 4812SOL     OW15334   1.321   0.355   2.917
 4812SOL    HW115335   1.307   0.373   2.820
 4812SOL    HW215336   1.403   0.403   2.948
 4813SOL     OW15337   6.492   1.314   5.564
 4813SOL    HW115338   6.554   1.382   5.527
 4813SOL    HW215339   6.479   1.240   5.498
 4814SOL     OW15340   5.793   3.952   1.503
 4814SOL    HW115341   5.693   3.944   1.500
 4814SOL    HW215342   5.829   3.961   1.410
 4815SOL     OW15343   5.807   4.574   1.694
 4815SOL    HW115344   5.769   4.495   1.742
 4815SOL    HW215345   5.877   4.544   1.630
 4816SOL     OW15346   2.278   1.610   2.718
 4816SOL    HW115347   2.247   1.647   2.631
 4816SOL    HW215348   2.256   1.513   2.723
 4817SOL     OW15349   3.995   2.654   0.622
 4817SOL    HW115350   4.032   2.593   0.552
 4817SOL    HW215351   3.917   2.610   0.666
 4818SOL     OW15352   3.533   0.672   5.251
 4818SOL    HW115353   3.491   0.599   5.305
 4818SOL    HW215354   3.530   0.648   5.154
 4819SOL     OW15355   3.525   0.105   1.135
 4819SOL    HW115356   3.517   0.027   1.197
 4819SOL    HW215357   3.454   0.172   1.156
 4820SOL     OW15358   5.864   3.980   1.986
 4820SOL    HW115359   5.933   4.021   1.927
 4820SOL    HW215360   5.907   3.916   2.050
 4821SOL     OW15361   0.365   5.030   1.488
 4821SOL    HW115362   0.442   4.994   1.435
 4821SOL    HW215363   0.329   5.112   1.443
 4822SOL     OW15364   1.568   4.474   2.934
 4822SOL    HW115365   1.583   4.572   2.949
 4822SOL    HW215366   1.543   4.431   3.021
 4823SOL     OW15367   1.628   1.098   4.501
 4823SOL    HW115368   1.660   1.095   4.596
 4823SOL    HW215369   1.704   1.123   4.441
 4824SOL     OW15370   5.456   2.977   2.031
 4824SOL    HW115371   5.496   3.053   2.082
 4824SOL    HW215372   5.445   3.003   1.935
 4825SOL     OW15373   0.534   3.163   2.984
 4825SOL    HW115374   0.485   3.241   2.946
 4825SOL    HW215375   0.626   3.191   3.011
 4826SOL     OW15376   6.336   5.810   0.125
 4826SOL    HW115377   6.404   5.760   0.070
 4826SOL    HW215378   6.245   5.775   0.104
 4827SOL     OW15379   5.324   1.113   1.179
 4827SOL    HW115380   5.227   1.127   1.198
 4827SOL    HW215381   5.342   1.015   1.170
 4828SOL     OW15382   5.096   3.518   6.691
 4828SOL    HW115383   5.043   3.463   6.627
 4828SOL    HW215384   5.183   3.473   6.709
 4829SOL     OW15385   3.396   0.308   5.482
 4829SOL    HW115386   3.403   0.351   5.572
 4829SOL    HW215387   3.478   0.326   5.429
 4830SOL     OW15388   3.926   0.048   5.263
 4830SOL    HW115389   3.984   7.016   5.201
 4830SOL    HW215390   3.834   0.055   5.223
 4831SOL     OW15391   6.315   4.055   5.790
 4831SOL    HW115392   6.338   3.969   5.745
 4831SOL    HW215393   6.337   4.049   5.887
 4832SOL     OW15394   1.952   2.671   6.668
 4832SOL    HW115395   1.860   2.639   6.693
 4832SOL    HW215396   1.954   2.692   6.570
 4833SOL     OW15397   5.023   1.557   3.274
 4833SOL    HW115398   5.021   1.637   3.214
 4833SOL    HW215399   5.023   1.474   3.219
 4834SOL     OW15400   5.649   0.638   2.781
 4834SOL    HW115401   5.708   0.670   2.707
 4834SOL    HW215402   5.586   0.710   2.808
 4835SOL     OW15403   2.097   0.231   6.164
 4835SOL    HW115404   2.129   0.142   6.196
 4835SOL    HW215405   2.007   0.222   6.123
 4836SOL     OW15406   5.355   2.919   2.738
 4836SOL    HW115407   5.448   2.913   2.772
 4836SOL    HW215408   5.293   2.870   2.799
 4837SOL     OW15409   1.416   4.236   0.420
 4837SOL    HW115410   1.345   4.230   0.490
 4837SOL    HW215411   1.430   4.332   0.395
 4838SOL     OW15412   2.938   5.867   2.482
 4838SOL    HW115413   2.867   5.912   2.537
 4838SOL    HW215414   2.969   5.930   2.411
 4839SOL     OW15415   0.548   6.197   6.604
 4839SOL    HW115416   0.545   6.127   6.675
 4839SOL    HW215417   0.638   6.195   6.559
 4840SOL     OW15418   6.784   6.427   6.917
 4840SOL    HW115419   6.689   6.452   6.933
 4840SOL    HW215420   6.822   6.485   6.845
 4841SOL     OW15421   2.390   5.801   2.435
 4841SOL    HW115422   2.348   5.891   2.449
 4841SOL    HW215423   2.416   5.792   2.339
 4842SOL     OW15424   3.644   6.303   1.413
 4842SOL    HW115425   3.572   6.355   1.367
 4842SOL    HW215426   3.729   6.312   1.361
 4843SOL     OW15427   0.067   3.287   0.238
 4843SOL    HW115428   0.080   3.205   0.294
 4843SOL    HW215429   0.031   3.360   0.296
 4844SOL     OW15430   6.624   1.684   5.624
 4844SOL    HW115431   6.658   1.601   5.580
 4844SOL    HW215432   6.659   1.764   5.575
 4845SOL     OW15433   6.034   5.405   3.653
 4845SOL    HW115434   6.020   5.430   3.749
 4845SOL    HW215435   6.053   5.487   3.599
 4846SOL     OW15436   1.083   4.560   0.744
 4846SOL    HW115437   1.165   4.617   0.746
 4846SOL    HW215438   1.048   4.549   0.837
 4847SOL     OW15439   4.265   2.259   4.401
 4847SOL    HW115440   4.288   2.205   4.320
 4847SOL    HW215441   4.334   2.330   4.415
 4848SOL     OW15442   2.957   2.184   2.307
 4848SOL    HW115443   2.919   2.208   2.218
 4848SOL    HW215444   3.057   2.176   2.300
 4849SOL     OW15445   1.414   6.027   0.378
 4849SOL    HW115446   1.451   6.119   0.391
 4849SOL    HW215447   1.488   5.963   0.358
 4850SOL     OW15448   4.137   0.707   2.580
 4850SOL    HW115449   4.176   0.797   2.597
 4850SOL    HW215450   4.142   0.686   2.482
 4851SOL     OW15451   4.935   6.829   4.919
 4851SOL    HW115452   4.988   6.869   4.994
 4851SOL    HW215453   4.906   6.736   4.945
 4852SOL     OW15454   1.572   1.697   1.131
 4852SOL    HW115455   1.533   1.606   1.143
 4852SOL    HW215456   1.537   1.759   1.201
 4853SOL     OW15457   2.750   1.442   1.970
 4853SOL    HW115458   2.753   1.507   2.047
 4853SOL    HW215459   2.837   1.393   1.966
 4854SOL     OW15460   4.751   6.867   0.953
 4854SOL    HW115461   4.823   6.927   0.918
 4854SOL    HW215462   4.687   6.845   0.880
 4855SOL     OW15463   0.356   2.508   2.598
 4855SOL    HW115464   0.392   2.567   2.670
 4855SOL    HW215465   0.275   2.549   2.559
 4856SOL     OW15466   2.594   4.624   3.595
 4856SOL    HW115467   2.672   4.668   3.639
 4856SOL    HW215468   2.581   4.533   3.633
 4857SOL     OW15469   0.198   1.736   5.461
 4857SOL    HW115470   0.276   1.692   5.506
 4857SOL    HW215471   0.212   1.835   5.459
 4858SOL     OW15472   1.223   1.333   3.704
 4858SOL    HW115473   1.312   1.362   3.739
 4858SOL    HW215474   1.213   1.234   3.716
 4859SOL     OW15475   2.839   5.647   5.235
 4859SOL    HW115476   2.759   5.693   5.196
 4859SOL    HW215477   2.808   5.573   5.295
 4860SOL     OW15478   4.663   4.625   0.644
 4860SOL    HW115479   4.684   4.720   0.667
 4860SOL    HW215480   4.748   4.574   0.632
 4861SOL     OW15481   5.179   3.860   5.587
 4861SOL    HW115482   5.160   3.798   5.511
 4861SOL    HW215483   5.127   3.831   5.667
 4862SOL     OW15484   1.630   6.374   2.032
 4862SOL    HW115485   1.725   6.384   2.061
 4862SOL    HW215486   1.603   6.278   2.040
 4863SOL     OW15487   6.135   4.374   6.595
 4863SOL    HW115488   6.157   4.296   6.536
 4863SOL    HW215489   6.204   4.382   6.667
 4864SOL     OW15490   2.811   1.485   4.169
 4864SOL    HW115491   2.900   1.496   4.124
 4864SOL    HW215492   2.807   1.394   4.211
 4865SOL     OW15493   1.728   6.407   5.233
 4865SOL    HW115494   1.689   6.317   5.254
 4865SOL    HW215495   1.797   6.430   5.301
 4866SOL     OW15496   6.323   4.415   6.786
 4866SOL    HW115497   6.319   4.350   6.861
 4866SOL    HW215498   6.414   4.456   6.782
 4867SOL     OW15499   5.239   6.744   2.746
 4867SOL    HW115500   5.228   6.812   2.673
 4867SOL    HW215501   5.156   6.742   2.802
 4868SOL     OW15502   7.003   4.601   0.743
 4868SOL    HW115503   0.064   4.653   0.768
 4868SOL    HW215504   7.014   4.506   0.771
 4869SOL     OW15505   0.568   1.003   0.248
 4869SOL    HW115506   0.594   0.911   0.219
 4869SOL    HW215507   0.639   1.068   0.221
 4870SOL     OW15508   0.834   5.958   2.115
 4870SOL    HW115509   0.775   5.927   2.190
 4870SOL    HW215510   0.915   5.900   2.109
 4871SOL     OW15511   1.366   1.755   4.505
 4871SOL    HW115512   1.381   1.656   4.503
 4871SOL    HW215513   1.454   1.802   4.511
 4872SOL     OW15514   6.055   6.910   3.048
 4872SOL    HW115515   6.097   6.866   2.969
 4872SOL    HW215516   6.020   7.000   3.022
 4873SOL     OW15517   6.510   5.925   5.559
 4873SOL    HW115518   6.501   6.021   5.584
 4873SOL    HW215519   6.580   5.915   5.488
 4874SOL     OW15520   5.492   2.481   2.457
 4874SOL    HW115521   5.543   2.471   2.543
 4874SOL    HW215522   5.552   2.459   2.380
 4875SOL     OW15523   5.813   6.427   5.206
 4875SOL    HW115524   5.815   6.338   5.158
 4875SOL    HW215525   5.902   6.444   5.247
 4876SOL     OW15526   1.736   1.058   3.237
 4876SOL    HW115527   1.772   1.148   3.260
 4876SOL    HW215528   1.741   0.998   3.317
 4877SOL     OW15529   0.050   1.899   5.207
 4877SOL    HW115530   0.092   1.855   5.128
 4877SOL    HW215531   0.108   1.888   5.287
 4878SOL     OW15532   0.493   2.846   2.397
 4878SOL    HW115533   0.396   2.870   2.402
 4878SOL    HW215534   0.533   2.845   2.488
 4879SOL     OW15535   5.422   1.652   3.122
 4879SOL    HW115536   5.510   1.646   3.076
 4879SOL    HW215537   5.421   1.590   3.200
 4880SOL     OW15538   6.941   2.510   6.402
 4880SOL    HW115539   6.970   2.436   6.463
 4880SOL    HW215540   6.927   2.593   6.455
 4881SOL     OW15541   1.581   2.823   1.697
 4881SOL    HW115542   1.652   2.893   1.696
 4881SOL    HW215543   1.526   2.830   1.614
 4882SOL     OW15544   4.372   1.897   4.442
 4882SOL    HW115545   4.345   1.962   4.371
 4882SOL    HW215546   4.371   1.804   4.406
 4883SOL     OW15547   6.454   4.212   1.169
 4883SOL    HW115548   6.544   4.200   1.127
 4883SOL    HW215549   6.396   4.134   1.144
 4884SOL     OW15550   2.223   6.540   1.700
 4884SOL    HW115551   2.222   6.556   1.601
 4884SOL    HW215552   2.297   6.592   1.742
 4885SOL     OW15553   1.050   4.253   0.383
 4885SOL    HW115554   1.093   4.271   0.295
 4885SOL    HW215555   1.112   4.279   0.457
 4886SOL     OW15556   2.643   0.965   1.753
 4886SOL    HW115557   2.712   1.015   1.701
 4886SOL    HW215558   2.584   1.029   1.801
 4887SOL     OW15559   6.698   6.469   0.752
 4887SOL    HW115560   6.621   6.487   0.814
 4887SOL    HW215561   6.709   6.546   0.690
 4888SOL     OW15562   4.101   6.290   3.529
 4888SOL    HW115563   4.156   6.301   3.446
 4888SOL    HW215564   4.096   6.193   3.553
 4889SOL     OW15565   6.773   3.048   3.564
 4889SOL    HW115566   6.759   3.096   3.651
 4889SOL    HW215567   6.687   3.006   3.536
 4890SOL     OW15568   0.743   1.429   4.898
 4890SOL    HW115569   0.791   1.490   4.962
 4890SOL    HW215570   0.791   1.428   4.811
 4891SOL     OW15571   2.721   5.675   6.091
 4891SOL    HW115572   2.769   5.603   6.040
 4891SOL    HW215573   2.782   5.711   6.162
 4892SOL     OW15574   5.201   5.791   2.796
 4892SOL    HW115575   5.151   5.731   2.733
 4892SOL    HW215576   5.250   5.860   2.744
 4893SOL     OW15577   0.542   3.302   1.904
 4893SOL    HW115578   0.482   3.381   1.893
 4893SOL    HW215579   0.637   3.332   1.900
 4894SOL     OW15580   4.998   0.370   1.944
 4894SOL    HW115581   5.057   0.345   1.867
 4894SOL    HW215582   4.996   0.469   1.953
 4895SOL     OW15583   0.019   4.493   4.119
 4895SOL    HW115584   7.004   4.436   4.045
 4895SOL    HW215585   6.964   4.511   4.184
 4896SOL     OW15586   1.777   4.940   4.152
 4896SOL    HW115587   1.872   4.967   4.166
 4896SOL    HW215588   1.732   5.007   4.093
 4897SOL     OW15589   1.395   6.404   5.181
 4897SOL    HW115590   1.437   6.494   5.192
 4897SOL    HW215591   1.461   6.333   5.205
 4898SOL     OW15592   4.527   1.990   3.718
 4898SOL    HW115593   4.572   1.961   3.633
 4898SOL    HW215594   4.552   2.085   3.739
 4899SOL     OW15595   6.976   6.045   1.805
 4899SOL    HW115596   7.009   5.952   1.820
 4899SOL    HW215597   6.987   6.068   1.708
 4900SOL     OW15598   3.461   5.983   5.871
 4900SOL    HW115599   3.534   6.044   5.840
 4900SOL    HW215600   3.378   6.035   5.887
 4901SOL     OW15601   0.463   1.618   5.881
 4901SOL    HW115602   0.458   1.717   5.890
 4901SOL    HW215603   0.515   1.580   5.958
 4902SOL     OW15604   1.669   0.018   6.126
 4902SOL    HW115605   1.697   6.960   6.182
 4902SOL    HW215606   1.730   0.026   6.047
 4903SOL     OW15607   5.268   4.300   2.245
 4903SOL    HW115608   5.253   4.235   2.170
 4903SOL    HW215609   5.205   4.377   2.235
 4904SOL     OW15610   2.277   0.298   0.251
 4904SOL    HW115611   2.178   0.288   0.255
 4904SOL    HW215612   2.314   0.235   0.183
 4905SOL     OW15613   3.246   6.386   2.599
 4905SOL    HW115614   3.312   6.395   2.673
 4905SOL    HW215615   3.249   6.468   2.542
 4906SOL     OW15616   4.901   3.364   5.009
 4906SOL    HW115617   4.927   3.419   4.930
 4906SOL    HW215618   4.844   3.420   5.070
 4907SOL     OW15619   4.776   1.862   6.538
 4907SOL    HW115620   4.741   1.771   6.518
 4907SOL    HW215621   4.847   1.886   6.472
 4908SOL     OW15622   4.044   6.531   6.705
 4908SOL    HW115623   3.981   6.521   6.628
 4908SOL    HW215624   4.005   6.594   6.772
 4909SOL     OW15625   4.992   4.734   4.583
 4909SOL    HW115626   5.083   4.737   4.623
 4909SOL    HW215627   4.999   4.717   4.485
 4910SOL     OW15628   4.511   1.545   5.637
 4910SOL    HW115629   4.581   1.613   5.613
 4910SOL    HW215630   4.484   1.494   5.556
 4911SOL     OW15631   6.944   2.594   2.299
 4911SOL    HW115632   6.924   2.588   2.201
 4911SOL    HW215633   6.881   2.658   2.342
 4912SOL     OW15634   5.618   2.325   3.894
 4912SOL    HW115635   5.624   2.338   3.795
 4912SOL    HW215636   5.694   2.267   3.925
 4913SOL     OW15637   0.033   3.126   5.863
 4913SOL    HW115638   0.109   3.085   5.813
 4913SOL    HW215639   6.975   3.138   5.802
 4914SOL     OW15640   4.762   0.543   3.262
 4914SOL    HW115641   4.663   0.551   3.268
 4914SOL    HW215642   4.798   0.620   3.209
 4915SOL     OW15643   3.374   5.345   5.827
 4915SOL    HW115644   3.443   5.334   5.898
 4915SOL    HW215645   3.399   5.421   5.767
 4916SOL     OW15646   6.261   2.498   4.106
 4916SOL    HW115647   6.335   2.453   4.057
 4916SOL    HW215648   6.239   2.446   4.189
 4917SOL     OW15649   4.480   6.616   0.307
 4917SOL    HW115650   4.506   6.650   0.217
 4917SOL    HW215651   4.411   6.545   0.297
 4918SOL     OW15652   6.189   5.095   2.749
 4918SOL    HW115653   6.191   5.006   2.794
 4918SOL    HW215654   6.178   5.167   2.819
 4919SOL     OW15655   3.775   3.991   2.304
 4919SOL    HW115656   3.779   3.998   2.204
 4919SOL    HW215657   3.683   4.014   2.335
 4920SOL     OW15658   6.179   1.004   5.540
 4920SOL    HW115659   6.150   1.074   5.605
 4920SOL    HW215660   6.101   0.975   5.484
 4921SOL     OW15661   0.356   6.822   2.230
 4921SOL    HW115662   0.432   6.777   2.185
 4921SOL    HW215663   0.378   6.919   2.245
 4922SOL     OW15664   3.530   2.288   6.596
 4922SOL    HW115665   3.503   2.381   6.572
 4922SOL    HW215666   3.578   2.288   6.683
 4923SOL     OW15667   3.306   1.597   1.715
 4923SOL    HW115668   3.382   1.646   1.758
 4923SOL    HW215669   3.341   1.521   1.661
 4924SOL     OW15670   2.459   0.514   5.127
 4924SOL    HW115671   2.529   0.453   5.090
 4924SOL    HW215672   2.501   0.577   5.192
 4925SOL     OW15673   5.615   5.783   3.624
 4925SOL    HW115674   5.612   5.686   3.602
 4925SOL    HW215675   5.524   5.823   3.611
 4926SOL     OW15676   5.501   2.592   0.980
 4926SOL    HW115677   5.434   2.571   1.051
 4926SOL    HW215678   5.559   2.668   1.010
 4927SOL     OW15679   3.480   1.482   6.807
 4927SOL    HW115680   3.389   1.454   6.777
 4927SOL    HW215681   3.541   1.485   6.728
 4928SOL     OW15682   6.960   1.795   0.721
 4928SOL    HW115683   6.895   1.778   0.795
 4928SOL    HW215684   0.008   1.862   0.751
 4929SOL     OW15685   0.597   6.367   5.075
 4929SOL    HW115686   0.651   6.302   5.022
 4929SOL    HW215687   0.591   6.454   5.025
 4930SOL     OW15688   5.209   6.158   2.228
 4930SOL    HW115689   5.266   6.240   2.233
 4930SOL    HW215690   5.233   6.096   2.302
 4931SOL     OW15691   6.358   5.797   0.660
 4931SOL    HW115692   6.444   5.765   0.701
 4931SOL    HW215693   6.284   5.734   0.682
 4932SOL     OW15694   2.848   3.431   2.141
 4932SOL    HW115695   2.862   3.519   2.097
 4932SOL    HW215696   2.848   3.358   2.072
 4933SOL     OW15697   2.628   6.450   5.666
 4933SOL    HW115698   2.574   6.404   5.595
 4933SOL    HW215699   2.641   6.388   5.743
 4934SOL     OW15700   4.185   5.171   2.714
 4934SOL    HW115701   4.133   5.253   2.737
 4934SOL    HW215702   4.138   5.120   2.643
 4935SOL     OW15703   0.206   1.026   6.236
 4935SOL    HW115704   0.223   0.989   6.327
 4935SOL    HW215705   0.121   1.080   6.237
 4936SOL     OW15706   3.447   2.622   0.643
 4936SOL    HW115707   3.395   2.679   0.579
 4936SOL    HW215708   3.541   2.655   0.648
 4937SOL     OW15709   4.455   2.401   4.924
 4937SOL    HW115710   4.455   2.325   4.859
 4937SOL    HW215711   4.361   2.424   4.949
 4938SOL     OW15712   3.976   5.398   6.424
 4938SOL    HW115713   4.047   5.365   6.485
 4938SOL    HW215714   3.887   5.386   6.468
 4939SOL     OW15715   4.732   2.956   6.162
 4939SOL    HW115716   4.765   3.021   6.093
 4939SOL    HW215717   4.754   2.991   6.254
 4940SOL     OW15718   1.852   6.173   4.646
 4940SOL    HW115719   1.865   6.211   4.555
 4940SOL    HW215720   1.851   6.247   4.713
 4941SOL     OW15721   5.415   0.547   0.887
 4941SOL    HW115722   5.354   0.624   0.903
 4941SOL    HW215723   5.372   0.462   0.918
 4942SOL     OW15724   5.570   4.241   5.605
 4942SOL    HW115725   5.538   4.146   5.602
 4942SOL    HW215726   5.648   4.248   5.668
 4943SOL     OW15727   5.044   2.275   1.141
 4943SOL    HW115728   5.086   2.269   1.051
 4943SOL    HW215729   5.088   2.349   1.193
 4944SOL     OW15730   2.390   4.616   2.622
 4944SOL    HW115731   2.348   4.706   2.620
 4944SOL    HW215732   2.440   4.604   2.708
 4945SOL     OW15733   0.751   6.588   4.386
 4945SOL    HW115734   0.723   6.554   4.475
 4945SOL    HW215735   0.831   6.536   4.354
 4946SOL     OW15736   1.008   4.205   1.987
 4946SOL    HW115737   0.965   4.115   1.982
 4946SOL    HW215738   0.946   4.269   2.034
 4947SOL     OW15739   0.313   7.017   0.607
 4947SOL    HW115740   0.406   0.024   0.583
 4947SOL    HW215741   0.314   6.968   0.694
 4948SOL     OW15742   1.783   1.453   2.096
 4948SOL    HW115743   1.744   1.475   2.007
 4948SOL    HW215744   1.845   1.526   2.125
 4949SOL     OW15745   5.129   1.226   4.381
 4949SOL    HW115746   5.056   1.289   4.408
 4949SOL    HW215747   5.101   1.176   4.299
 4950SOL     OW15748   3.035   5.469   5.516
 4950SOL    HW115749   3.090   5.392   5.550
 4950SOL    HW215750   3.055   5.551   5.570
 4951SOL     OW15751   4.347   1.935   3.486
 4951SOL    HW115752   4.313   1.864   3.425
 4951SOL    HW215753   4.270   1.987   3.523
 4952SOL     OW15754   0.470   5.594   4.956
 4952SOL    HW115755   0.536   5.589   4.882
 4952SOL    HW215756   0.407   5.670   4.940
 4953SOL     OW15757   1.732   5.400   1.397
 4953SOL    HW115758   1.776   5.352   1.473
 4953SOL    HW215759   1.778   5.375   1.312
 4954SOL     OW15760   5.366   5.707   6.814
 4954SOL    HW115761   5.296   5.750   6.870
 4954SOL    HW215762   5.454   5.712   6.861
 4955SOL     OW15763   0.772   6.747   1.573
 4955SOL    HW115764   0.721   6.804   1.637
 4955SOL    HW215765   0.863   6.728   1.610
 4956SOL     OW15766   4.967   6.097   4.636
 4956SOL    HW115767   4.936   6.157   4.562
 4956SOL    HW215768   4.920   6.009   4.630
 4957SOL     OW15769   0.886   0.170   3.751
 4957SOL    HW115770   0.957   0.107   3.718
 4957SOL    HW215771   0.920   0.264   3.746
 4958SOL     OW15772   6.935   6.027   0.172
 4958SOL    HW115773   6.929   6.126   0.182
 4958SOL    HW215774   6.986   5.989   0.250
 4959SOL     OW15775   1.004   0.838   1.133
 4959SOL    HW115776   1.098   0.871   1.125
 4959SOL    HW215777   0.970   0.855   1.226
 4960SOL     OW15778   3.626   6.365   5.129
 4960SOL    HW115779   3.682   6.445   5.149
 4960SOL    HW215780   3.685   6.285   5.119
 4961SOL     OW15781   4.457   0.451   5.317
 4961SOL    HW115782   4.467   0.478   5.413
 4961SOL    HW215783   4.419   0.359   5.312
 4962SOL     OW15784   6.830   1.629   1.441
 4962SOL    HW115785   6.918   1.635   1.393
 4962SOL    HW215786   6.790   1.720   1.449
 4963SOL     OW15787   0.013   5.005   1.753
 4963SOL    HW115788   0.107   4.973   1.740
 4963SOL    HW215789   6.985   5.005   1.665
 4964SOL     OW15790   3.715   6.706   3.531
 4964SOL    HW115791   3.782   6.720   3.458
 4964SOL    HW215792   3.725   6.613   3.568
 4965SOL     OW15793   6.803   6.652   4.564
 4965SOL    HW115794   6.753   6.713   4.503
 4965SOL    HW215795   6.844   6.578   4.510
 4966SOL     OW15796   3.731   4.988   3.909
 4966SOL    HW115797   3.640   5.029   3.899
 4966SOL    HW215798   3.735   4.939   3.996
 4967SOL     OW15799   4.387   1.990   5.993
 4967SOL    HW115800   4.447   1.957   5.920
 4967SOL    HW215801   4.294   1.958   5.977
 4968SOL     OW15802   5.861   3.579   5.605
 4968SOL    HW115803   5.862   3.676   5.629
 4968SOL    HW215804   5.799   3.565   5.527
 4969SOL     OW15805   0.676   1.907   2.021
 4969SOL    HW115806   0.711   1.817   1.995
 4969SOL    HW215807   0.685   1.919   2.119
 4970SOL     OW15808   0.691   2.710   6.169
 4970SOL    HW115809   0.680   2.810   6.173
 4970SOL    HW215810   0.621   2.672   6.109
 4971SOL     OW15811   6.308   6.144   4.009
 4971SOL    HW115812   6.358   6.073   4.059
 4971SOL    HW215813   6.371   6.193   3.949
 4972SOL     OW15814   1.003   2.647   6.032
 4972SOL    HW115815   1.011   2.590   5.951
 4972SOL    HW215816   0.908   2.646   6.064
 4973SOL     OW15817   5.753   6.028   3.090
 4973SOL    HW115818   5.811   5.946   3.095
 4973SOL    HW215819   5.685   6.015   3.019
 4974SOL     OW15820   5.025   6.783   1.705
 4974SOL    HW115821   4.978   6.770   1.617
 4974SOL    HW215822   5.103   6.721   1.710
 4975SOL     OW15823   5.636   5.952   0.376
 4975SOL    HW115824   5.540   5.969   0.398
 4975SOL    HW215825   5.694   6.008   0.436
 4976SOL     OW15826   4.109   0.208   4.662
 4976SOL    HW115827   4.175   0.280   4.641
 4976SOL    HW215828   4.045   0.241   4.732
 4977SOL     OW15829   3.552   4.011   0.263
 4977SOL    HW115830   3.570   3.920   0.299
 4977SOL    HW215831   3.472   4.008   0.202
 4978SOL     OW15832   6.296   2.881   5.782
 4978SOL    HW115833   6.348   2.796   5.792
 4978SOL    HW215834   6.335   2.934   5.707
 4979SOL     OW15835   1.914   1.481   5.208
 4979SOL    HW115836   2.003   1.499   5.250
 4979SOL    HW215837   1.848   1.549   5.240
 4980SOL     OW15838   2.689   5.336   2.244
 4980SOL    HW115839   2.729   5.414   2.197
 4980SOL    HW215840   2.749   5.307   2.318
 4981SOL     OW15841   3.916   6.362   5.557
 4981SOL    HW115842   3.912   6.451   5.511
 4981SOL    HW215843   3.982   6.303   5.510
 4982SOL     OW15844   2.448   2.466   0.493
 4982SOL    HW115845   2.372   2.526   0.516
 4982SOL    HW215846   2.512   2.514   0.434
 4983SOL     OW15847   5.157   3.096   4.263
 4983SOL    HW115848   5.133   3.100   4.359
 4983SOL    HW215849   5.219   3.171   4.240
 4984SOL     OW15850   4.976   3.630   2.670
 4984SOL    HW115851   4.936   3.578   2.745
 4984SOL    HW215852   5.042   3.573   2.621
 4985SOL     OW15853   5.569   3.757   2.615
 4985SOL    HW115854   5.638   3.694   2.651
 4985SOL    HW215855   5.612   3.841   2.584
 4986SOL     OW15856   4.880   4.509   1.825
 4986SOL    HW115857   4.921   4.420   1.805
 4986SOL    HW215858   4.895   4.532   1.921
 4987SOL     OW15859   0.445   3.594   1.042
 4987SOL    HW115860   0.501   3.634   0.970
 4987SOL    HW215861   0.374   3.536   1.001
 4988SOL     OW15862   0.413   2.357   5.106
 4988SOL    HW115863   0.491   2.303   5.075
 4988SOL    HW215864   0.410   2.358   5.206
 4989SOL     OW15865   0.327   1.082   0.357
 4989SOL    HW115866   0.258   1.046   0.295
 4989SOL    HW215867   0.417   1.049   0.330
 4990SOL     OW15868   0.711   2.486   5.243
 4990SOL    HW115869   0.637   2.422   5.262
 4990SOL    HW215870   0.758   2.459   5.159
 4991SOL     OW15871   1.618   2.648   4.529
 4991SOL    HW115872   1.716   2.629   4.538
 4991SOL    HW215873   1.584   2.687   4.615
 4992SOL     OW15874   3.287   0.593   5.450
 4992SOL    HW115875   3.282   0.677   5.397
 4992SOL    HW215876   3.353   0.603   5.524
 4993SOL     OW15877   2.984   5.715   3.921
 4993SOL    HW115878   2.915   5.781   3.949
 4993SOL    HW215879   2.949   5.622   3.934
 4994SOL     OW15880   7.014   6.532   2.342
 4994SOL    HW115881   6.983   6.569   2.255
 4994SOL    HW215882   0.090   6.556   2.356
 4995SOL     OW15883   5.887   2.467   5.641
 4995SOL    HW115884   5.948   2.395   5.674
 4995SOL    HW215885   5.832   2.432   5.565
 4996SOL     OW15886   0.668   1.362   4.192
 4996SOL    HW115887   0.569   1.350   4.186
 4996SOL    HW215888   0.701   1.409   4.110
 4997SOL     OW15889   0.368   2.262   3.394
 4997SOL    HW115890   0.454   2.215   3.375
 4997SOL    HW215891   0.315   2.270   3.309
 4998SOL     OW15892   1.257   5.527   5.206
 4998SOL    HW115893   1.307   5.449   5.169
 4998SOL    HW215894   1.301   5.559   5.289
 4999SOL     OW15895   6.187   4.303   1.024
 4999SOL    HW115896   6.127   4.340   0.952
 4999SOL    HW215897   6.281   4.331   1.007
 5000SOL     OW15898   6.987   5.646   4.436
 5000SOL    HW115899   6.957   5.726   4.383
 5000SOL    HW215900   6.948   5.563   4.396
 5001SOL     OW15901   4.684   4.382   5.791
 5001SOL    HW115902   4.704   4.354   5.885
 5001SOL    HW215903   4.720   4.313   5.728
 5002SOL     OW15904   2.251   1.426   1.432
 5002SOL    HW115905   2.332   1.472   1.398
 5002SOL    HW215906   2.270   1.329   1.444
 5003SOL     OW15907   6.358   5.404   3.044
 5003SOL    HW115908   6.431   5.337   3.032
 5003SOL    HW215909   6.391   5.494   3.013
 5004SOL     OW15910   3.646   5.476   0.008
 5004SOL    HW115911   3.732   5.486   6.979
 5004SOL    HW215912   3.631   5.556   0.066
 5005SOL     OW15913   4.680   2.498   6.965
 5005SOL    HW115914   4.721   2.576   7.011
 5005SOL    HW215915   4.753   2.444   6.922
 5006SOL     OW15916   5.003   4.929   3.664
 5006SOL    HW115917   5.065   4.926   3.742
 5006SOL    HW215918   4.966   4.838   3.647
 5007SOL     OW15919   3.852   1.576   4.527
 5007SOL    HW115920   3.868   1.529   4.440
 5007SOL    HW215921   3.888   1.521   4.602
 5008SOL     OW15922   6.853   1.469   3.954
 5008SOL    HW115923   6.896   1.451   4.043
 5008SOL    HW215924   6.913   1.526   3.899
 5009SOL     OW15925   2.049   6.189   4.089
 5009SOL    HW115926   2.014   6.235   4.007
 5009SOL    HW215927   2.059   6.092   4.071
 5010SOL     OW15928   4.005   3.473   4.353
 5010SOL    HW115929   3.914   3.468   4.394
 5010SOL    HW215930   4.026   3.568   4.328
 5011SOL     OW15931   1.482   2.548   2.653
 5011SOL    HW115932   1.510   2.627   2.600
 5011SOL    HW215933   1.396   2.568   2.701
 5012SOL     OW15934   6.253   3.453   6.641
 5012SOL    HW115935   6.222   3.504   6.561
 5012SOL    HW215936   6.176   3.439   6.703
 5013SOL     OW15937   4.630   1.330   6.140
 5013SOL    HW115938   4.627   1.412   6.082
 5013SOL    HW215939   4.709   1.336   6.201
 5014SOL     OW15940   6.221   6.674   0.098
 5014SOL    HW115941   6.140   6.696   0.152
 5014SOL    HW215942   6.211   6.713   0.006
 5015SOL     OW15943   5.233   2.537   3.281
 5015SOL    HW115944   5.214   2.493   3.368
 5015SOL    HW215945   5.232   2.468   3.208
 5016SOL     OW15946   2.467   6.739   2.188
 5016SOL    HW115947   2.367   6.739   2.194
 5016SOL    HW215948   2.503   6.661   2.238
 5017SOL     OW15949   2.444   2.824   1.596
 5017SOL    HW115950   2.410   2.847   1.687
 5017SOL    HW215951   2.490   2.904   1.557
 5018SOL     OW15952   6.747   5.147   4.418
 5018SOL    HW115953   6.664   5.167   4.470
 5018SOL    HW215954   6.827   5.156   4.477
 5019SOL     OW15955   2.732   5.367   6.349
 5019SOL    HW115956   2.693   5.314   6.273
 5019SOL    HW215957   2.828   5.343   6.361
 5020SOL     OW15958   4.933   5.365   6.506
 5020SOL    HW115959   4.862   5.336   6.441
 5020SOL    HW215960   4.958   5.460   6.488
 5021SOL     OW15961   1.979   5.022   6.063
 5021SOL    HW115962   1.966   5.112   6.023
 5021SOL    HW215963   1.991   4.954   5.990
 5022SOL     OW15964   1.701   5.019   0.635
 5022SOL    HW115965   1.706   4.931   0.683
 5022SOL    HW215966   1.783   5.031   0.579
 5023SOL     OW15967   6.668   3.532   2.462
 5023SOL    HW115968   6.650   3.576   2.374
 5023SOL    HW215969   6.668   3.601   2.534
 5024SOL     OW15970   5.114   3.669   5.399
 5024SOL    HW115971   5.067   3.613   5.467
 5024SOL    HW215972   5.093   3.637   5.307
 5025SOL     OW15973   6.319   1.820   2.863
 5025SOL    HW115974   6.348   1.869   2.946
 5025SOL    HW215975   6.223   1.841   2.844
 5026SOL     OW15976   0.486   6.296   2.866
 5026SOL    HW115977   0.391   6.267   2.851
 5026SOL    HW215978   0.489   6.362   2.942
 5027SOL     OW15979   0.900   6.825   3.622
 5027SOL    HW115980   0.929   6.792   3.532
 5027SOL    HW215981   0.964   6.792   3.692
 5028SOL     OW15982   1.434   0.792   3.011
 5028SOL    HW115983   1.499   0.783   3.086
 5028SOL    HW215984   1.413   0.889   2.996
 5029SOL     OW15985   6.914   0.926   2.444
 5029SOL    HW115986   6.937   1.006   2.388
 5029SOL    HW215987   6.903   0.846   2.384
 5030SOL     OW15988   1.799   5.350   6.946
 5030SOL    HW115989   1.706   5.381   6.966
 5030SOL    HW215990   1.855   5.358   0.009
 5031SOL     OW15991   5.567   0.344   5.216
 5031SOL    HW115992   5.613   0.371   5.131
 5031SOL    HW215993   5.488   0.287   5.194
 5032SOL     OW15994   0.909   6.233   1.149
 5032SOL    HW115995   0.868   6.224   1.059
 5032SOL    HW215996   0.987   6.296   1.145
 5033SOL     OW15997   1.419   4.154   5.811
 5033SOL    HW115998   1.501   4.207   5.790
 5033SOL    HW215999   1.402   4.089   5.736
 5034SOL     OW16000   6.734   4.121   0.412
 5034SOL    HW116001   6.825   4.091   0.384
 5034SOL    HW216002   6.665   4.072   0.360
 5035SOL     OW16003   6.133   4.046   1.080
 5035SOL    HW116004   6.154   4.144   1.074
 5035SOL    HW216005   6.202   3.994   1.029
 5036SOL     OW16006   1.919   0.699   2.502
 5036SOL    HW116007   1.966   0.701   2.591
 5036SOL    HW216008   1.863   0.781   2.492
 5037SOL     OW16009   4.733   2.835   3.209
 5037SOL    HW116010   4.729   2.797   3.117
 5037SOL    HW216011   4.645   2.822   3.255
 5038SOL     OW16012   2.728   6.498   6.080
 5038SOL    HW116013   2.795   6.524   6.150
 5038SOL    HW216014   2.655   6.566   6.076
 5039SOL     OW16015   1.828   1.547   3.607
 5039SOL    HW116016   1.766   1.494   3.550
 5039SOL    HW216017   1.914   1.497   3.619
 5040SOL     OW16018   2.984   3.239   6.212
 5040SOL    HW116019   2.933   3.269   6.132
 5040SOL    HW216020   3.080   3.268   6.203
 5041SOL     OW16021   1.276   5.349   1.018
 5041SOL    HW116022   1.347   5.280   1.031
 5041SOL    HW216023   1.273   5.375   0.921
 5042SOL     OW16024   5.973   1.949   6.087
 5042SOL    HW116025   5.948   2.001   6.168
 5042SOL    HW216026   6.070   1.962   6.067
 5043SOL     OW16027   4.523   7.003   3.093
 5043SOL    HW116028   4.437   6.956   3.111
 5043SOL    HW216029   4.523   0.073   3.137
 5044SOL     OW16030   6.179   4.283   3.056
 5044SOL    HW116031   6.137   4.260   3.144
 5044SOL    HW216032   6.128   4.357   3.013
 5045SOL     OW16033   6.311   3.000   6.043
 5045SOL    HW116034   6.296   2.965   6.136
 5045SOL    HW216035   6.278   2.933   5.977
 5046SOL     OW16036   3.322   3.137   5.134
 5046SOL    HW116037   3.235   3.182   5.154
 5046SOL    HW216038   3.340   3.140   5.036
 5047SOL     OW16039   1.339   1.008   2.639
 5047SOL    HW116040   1.433   1.019   2.669
 5047SOL    HW216041   1.298   0.929   2.685
 5048SOL     OW16042   5.807   3.159   1.312
 5048SOL    HW116043   5.738   3.156   1.384
 5048SOL    HW216044   5.778   3.225   1.242
 5049SOL     OW16045   1.265   2.663   2.342
 5049SOL    HW116046   1.348   2.685   2.291
 5049SOL    HW216047   1.203   2.742   2.341
 5050SOL     OW16048   0.956   3.567   0.934
 5050SOL    HW116049   0.918   3.529   1.018
 5050SOL    HW216050   0.909   3.528   0.855
 5051SOL     OW16051   2.833   4.191   0.408
 5051SOL    HW116052   2.742   4.232   0.409
 5051SOL    HW216053   2.862   4.175   0.313
 5052SOL     OW16054   6.088   3.396   1.012
 5052SOL    HW116055   6.147   3.335   1.065
 5052SOL    HW216056   6.124   3.405   0.920
 5053SOL     OW16057   2.142   4.863   0.353
 5053SOL    HW116058   2.090   4.799   0.296
 5053SOL    HW216059   2.125   4.842   0.450
 5054SOL     OW16060   4.000   6.022   5.213
 5054SOL    HW116061   4.059   6.001   5.136
 5054SOL    HW216062   4.050   6.076   5.280
 5055SOL     OW16063   1.842   2.022   3.957
 5055SOL    HW116064   1.844   2.007   3.858
 5055SOL    HW216065   1.833   2.120   3.975
 5056SOL     OW16066   1.813   2.290   5.315
 5056SOL    HW116067   1.880   2.218   5.294
 5056SOL    HW216068   1.858   2.379   5.312
 5057SOL     OW16069   0.769   5.278   3.007
 5057SOL    HW116070   0.730   5.253   2.918
 5057SOL    HW216071   0.695   5.290   3.074
 5058SOL     OW16072   3.484   3.871   6.959
 5058SOL    HW116073   3.416   3.916   6.901
 5058SOL    HW216074   3.456   3.777   6.977
 5059SOL     OW16075   4.260   1.708   3.337
 5059SOL    HW116076   4.238   1.668   3.247
 5059SOL    HW216077   4.175   1.726   3.387
 5060SOL     OW16078   0.182   3.674   5.459
 5060SOL    HW116079   0.165   3.611   5.535
 5060SOL    HW216080   0.280   3.691   5.452
 5061SOL     OW16081   3.834   2.646   5.635
 5061SOL    HW116082   3.918   2.699   5.624
 5061SOL    HW216083   3.765   2.678   5.570
 5062SOL     OW16084   5.310   0.536   3.494
 5062SOL    HW116085   5.369   0.472   3.542
 5062SOL    HW216086   5.358   0.623   3.482
 5063SOL     OW16087   0.940   0.977   1.831
 5063SOL    HW116088   0.949   1.072   1.800
 5063SOL    HW216089   0.897   0.975   1.921
 5064SOL     OW16090   5.229   5.673   0.806
 5064SOL    HW116091   5.149   5.637   0.757
 5064SOL    HW216092   5.199   5.739   0.874
 5065SOL     OW16093   2.233   1.299   2.805
 5065SOL    HW116094   2.162   1.300   2.875
 5065SOL    HW216095   2.294   1.221   2.821
 5066SOL     OW16096   2.312   4.861   2.543
 5066SOL    HW116097   2.405   4.887   2.569
 5066SOL    HW216098   2.258   4.944   2.525
 5067SOL     OW16099   5.408   2.843   0.328
 5067SOL    HW116100   5.343   2.768   0.315
 5067SOL    HW216101   5.496   2.805   0.357
 5068SOL     OW16102   2.929   5.953   0.504
 5068SOL    HW116103   2.966   5.908   0.423
 5068SOL    HW216104   2.983   5.927   0.584
 5069SOL     OW16105   3.536   5.064   5.086
 5069SOL    HW116106   3.453   5.117   5.069
 5069SOL    HW216107   3.513   4.986   5.145
 5070SOL     OW16108   5.933   3.819   4.986
 5070SOL    HW116109   5.932   3.822   4.886
 5070SOL    HW216110   6.005   3.879   5.021
 5071SOL     OW16111   2.617   0.075   4.094
 5071SOL    HW116112   2.544   0.014   4.064
 5071SOL    HW216113   2.657   0.039   4.179
 5072SOL     OW16114   0.665   1.257   0.416
 5072SOL    HW116115   0.588   1.310   0.382
 5072SOL    HW216116   0.714   1.215   0.339
 5073SOL     OW16117   2.293   0.704   2.205
 5073SOL    HW116118   2.243   0.762   2.141
 5073SOL    HW216119   2.366   0.656   2.157
 5074SOL     OW16120   3.392   2.256   1.713
 5074SOL    HW116121   3.476   2.262   1.767
 5074SOL    HW216122   3.360   2.161   1.712
 5075SOL     OW16123   0.801   3.452   6.933
 5075SOL    HW116124   0.899   3.462   6.914
 5075SOL    HW216125   0.755   3.539   6.917
 5076SOL     OW16126   5.952   0.070   6.608
 5076SOL    HW116127   5.882   0.120   6.659
 5076SOL    HW216128   5.908   0.008   6.542
 5077SOL     OW16129   0.591   4.677   3.825
 5077SOL    HW116130   0.635   4.587   3.818
 5077SOL    HW216131   0.598   4.710   3.919
 5078SOL     OW16132   0.351   2.006   4.259
 5078SOL    HW116133   0.263   1.966   4.234
 5078SOL    HW216134   0.358   2.012   4.359
 5079SOL     OW16135   1.996   2.960   5.906
 5079SOL    HW116136   1.930   2.891   5.936
 5079SOL    HW216137   1.969   2.995   5.816
 5080SOL     OW16138   5.586   5.685   6.974
 5080SOL    HW116139   5.642   5.603   6.968
 5080SOL    HW216140   5.617   5.741   0.030
 5081SOL     OW16141   2.982   5.680   5.656
 5081SOL    HW116142   2.891   5.717   5.674
 5081SOL    HW216143   3.051   5.740   5.696
 5082SOL     OW16144   5.553   6.107   1.630
 5082SOL    HW116145   5.571   6.094   1.727
 5082SOL    HW216146   5.595   6.032   1.578
 5083SOL     OW16147   1.530   0.248   3.204
 5083SOL    HW116148   1.567   0.219   3.116
 5083SOL    HW216149   1.511   0.167   3.260
 5084SOL     OW16150   2.320   4.728   5.477
 5084SOL    HW116151   2.332   4.716   5.378
 5084SOL    HW216152   2.232   4.689   5.504
 5085SOL     OW16153   0.610   4.431   5.231
 5085SOL    HW116154   0.691   4.460   5.282
 5085SOL    HW216155   0.638   4.376   5.153
 5086SOL     OW16156   1.824   5.325   1.893
 5086SOL    HW116157   1.732   5.338   1.932
 5086SOL    HW216158   1.816   5.300   1.797
 5087SOL     OW16159   6.455   4.610   2.119
 5087SOL    HW116160   6.512   4.537   2.080
 5087SOL    HW216161   6.359   4.587   2.108
 5088SOL     OW16162   5.349   5.970   2.063
 5088SOL    HW116163   5.288   5.966   1.984
 5088SOL    HW216164   5.301   6.010   2.141
 5089SOL     OW16165   5.167   5.522   5.690
 5089SOL    HW116166   5.225   5.467   5.630
 5089SOL    HW216167   5.079   5.475   5.704
 5090SOL     OW16168   2.832   0.050   5.371
 5090SOL    HW116169   2.927   0.081   5.373
 5090SOL    HW216170   2.788   0.081   5.287
 5091SOL     OW16171   6.497   6.963   6.342
 5091SOL    HW116172   6.573   6.914   6.384
 5091SOL    HW216173   6.533   0.002   6.269
 5092SOL     OW16174   2.902   3.471   4.201
 5092SOL    HW116175   2.917   3.560   4.158
 5092SOL    HW216176   2.908   3.481   4.301
 5093SOL     OW16177   2.556   1.918   2.540
 5093SOL    HW116178   2.530   1.966   2.623
 5093SOL    HW216179   2.614   1.978   2.484
 5094SOL     OW16180   1.978   5.484   5.310
 5094SOL    HW116181   2.052   5.423   5.337
 5094SOL    HW216182   2.016   5.560   5.257
 5095SOL     OW16183   6.268   1.625   3.022
 5095SOL    HW116184   6.321   1.548   2.987
 5095SOL    HW216185   6.281   1.704   2.962
 5096SOL     OW16186   5.975   2.712   5.694
 5096SOL    HW116187   5.908   2.781   5.722
 5096SOL    HW216188   5.930   2.623   5.688
 5097SOL     OW16189   1.140   0.418   5.740
 5097SOL    HW116190   1.098   0.430   5.829
 5097SOL    HW216191   1.201   0.339   5.741
 5098SOL     OW16192   3.236   3.215   0.930
 5098SOL    HW116193   3.244   3.129   0.880
 5098SOL    HW216194   3.270   3.290   0.872
 5099SOL     OW16195   1.623   0.126   2.169
 5099SOL    HW116196   1.620   0.030   2.139
 5099SOL    HW216197   1.571   0.136   2.253
 5100SOL     OW16198   5.322   3.642   2.190
 5100SOL    HW116199   5.396   3.704   2.166
 5100SOL    HW216200   5.276   3.676   2.272
 5101SOL     OW16201   3.799   0.763   6.557
 5101SOL    HW116202   3.725   0.820   6.522
 5101SOL    HW216203   3.801   0.676   6.508
 5102SOL     OW16204   4.793   4.732   4.280
 5102SOL    HW116205   4.758   4.676   4.204
 5102SOL    HW216206   4.893   4.730   4.279
 5103SOL     OW16207   0.665   1.197   6.179
 5103SOL    HW116208   0.734   1.235   6.240
 5103SOL    HW216209   0.688   1.219   6.084
 5104SOL     OW16210   3.832   3.449   1.913
 5104SOL    HW116211   3.843   3.409   1.822
 5104SOL    HW216212   3.756   3.403   1.960
 5105SOL     OW16213   4.301   3.253   6.088
 5105SOL    HW116214   4.346   3.163   6.084
 5105SOL    HW216215   4.209   3.242   6.124
 5106SOL     OW16216   4.445   2.383   0.761
 5106SOL    HW116217   4.404   2.474   0.766
 5106SOL    HW216218   4.442   2.350   0.667
 5107SOL     OW16219   4.747   3.666   6.835
 5107SOL    HW116220   4.789   3.721   6.907
 5107SOL    HW216221   4.651   3.650   6.857
 5108SOL     OW16222   4.025   4.461   0.534
 5108SOL    HW116223   3.978   4.375   0.513
 5108SOL    HW216224   4.114   4.442   0.576
 5109SOL     OW16225   1.036   3.185   1.025
 5109SOL    HW116226   0.987   3.248   1.085
 5109SOL    HW216227   1.100   3.236   0.967
 5110SOL     OW16228   4.874   7.016   5.779
 5110SOL    HW116229   4.892   0.062   5.706
 5110SOL    HW216230   4.916   0.028   5.864
 5111SOL     OW16231   0.456   6.581   4.716
 5111SOL    HW116232   0.524   6.515   4.682
 5111SOL    HW216233   0.479   6.608   4.809
 5112SOL     OW16234   6.772   6.600   3.485
 5112SOL    HW116235   6.708   6.548   3.542
 5112SOL    HW216236   6.775   6.695   3.516
 5113SOL     OW16237   1.726   3.627   6.761
 5113SOL    HW116238   1.712   3.726   6.763
 5113SOL    HW216239   1.675   3.585   6.836
 5114SOL     OW16240   4.909   5.102   1.130
 5114SOL    HW116241   4.877   5.022   1.181
 5114SOL    HW216242   4.968   5.158   1.189
 5115SOL     OW16243   1.766   4.107   0.825
 5115SOL    HW116244   1.816   4.159   0.894
 5115SOL    HW216245   1.736   4.168   0.752
 5116SOL     OW16246   1.230   0.874   6.368
 5116SOL    HW116247   1.207   0.784   6.405
 5116SOL    HW216248   1.329   0.881   6.359
 5117SOL     OW16249   1.159   2.408   3.803
 5117SOL    HW116250   1.219   2.333   3.828
 5117SOL    HW216251   1.064   2.383   3.822
 5118SOL     OW16252   4.613   5.471   6.139
 5118SOL    HW116253   4.615   5.540   6.067
 5118SOL    HW216254   4.530   5.416   6.131
 5119SOL     OW16255   5.625   0.996   0.139
 5119SOL    HW116256   5.589   0.925   0.079
 5119SOL    HW216257   5.582   1.084   0.116
 5120SOL     OW16258   5.570   6.252   6.619
 5120SOL    HW116259   5.471   6.242   6.631
 5120SOL    HW216260   5.607   6.167   6.583
 5121SOL     OW16261   1.375   3.595   6.420
 5121SOL    HW116262   1.397   3.636   6.332
 5121SOL    HW216263   1.458   3.556   6.461
 5122SOL     OW16264   5.428   4.864   4.345
 5122SOL    HW116265   5.379   4.942   4.384
 5122SOL    HW216266   5.506   4.898   4.292
 5123SOL     OW16267   4.852   3.175   1.316
 5123SOL    HW116268   4.779   3.237   1.346
 5123SOL    HW216269   4.941   3.211   1.345
 5124SOL     OW16270   2.178   6.088   5.409
 5124SOL    HW116271   2.155   6.015   5.345
 5124SOL    HW216272   2.095   6.133   5.440
 5125SOL     OW16273   6.686   2.068   3.833
 5125SOL    HW116274   6.680   1.969   3.841
 5125SOL    HW216275   6.657   2.110   3.919
 5126SOL     OW16276   1.987   0.261   1.017
 5126SOL    HW116277   2.076   0.306   1.008
 5126SOL    HW216278   1.961   0.257   1.114
 5127SOL     OW16279   2.242   5.318   6.849
 5127SOL    HW116280   2.303   5.397   6.848
 5127SOL    HW216281   2.297   5.234   6.846
 5128SOL     OW16282   6.232   0.095   2.207
 5128SOL    HW116283   6.291   0.038   2.150
 5128SOL    HW216284   6.143   0.107   2.161
 5129SOL     OW16285   5.441   0.076   1.047
 5129SOL    HW116286   5.373   0.025   1.100
 5129SOL    HW216287   5.423   0.065   0.949
 5130SOL     OW16288   0.132   4.827   3.320
 5130SOL    HW116289   0.132   4.807   3.418
 5130SOL    HW216290   0.086   4.915   3.304
 5131SOL     OW16291   2.798   2.362   2.711
 5131SOL    HW116292   2.744   2.335   2.631
 5131SOL    HW216293   2.737   2.395   2.783
 5132SOL     OW16294   2.911   6.262   5.140
 5132SOL    HW116295   2.863   6.313   5.212
 5132SOL    HW216296   2.871   6.171   5.132
 5133SOL     OW16297   3.953   6.549   6.174
 5133SOL    HW116298   3.948   6.629   6.233
 5133SOL    HW216299   4.017   6.567   6.099
 5134SOL     OW16300   6.340   4.218   6.985
 5134SOL    HW116301   6.439   4.204   6.995
 5134SOL    HW216302   6.293   4.131   6.999
 5135SOL     OW16303   5.931   1.775   4.361
 5135SOL    HW116304   5.946   1.680   4.389
 5135SOL    HW216305   5.833   1.795   4.367
 5136SOL     OW16306   4.036   1.069   4.170
 5136SOL    HW116307   4.091   1.101   4.247
 5136SOL    HW216308   4.037   1.137   4.097
 5137SOL     OW16309   3.247   4.535   6.598
 5137SOL    HW116310   3.282   4.624   6.627
 5137SOL    HW216311   3.152   4.524   6.627
 5138SOL     OW16312   2.574   3.278   6.355
 5138SOL    HW116313   2.550   3.281   6.258
 5138SOL    HW216314   2.499   3.316   6.410
 5139SOL     OW16315   0.690   0.175   3.193
 5139SOL    HW116316   0.776   0.147   3.150
 5139SOL    HW216317   0.614   0.146   3.135
 5140SOL     OW16318   3.734   2.840   1.504
 5140SOL    HW116319   3.826   2.867   1.532
 5140SOL    HW216320   3.731   2.740   1.493
 5141SOL     OW16321   6.525   3.453   6.613
 5141SOL    HW116322   6.548   3.425   6.520
 5141SOL    HW216323   6.426   3.451   6.625
 5142SOL     OW16324   5.548   3.156   4.002
 5142SOL    HW116325   5.571   3.121   3.911
 5142SOL    HW216326   5.480   3.228   3.994
 5143SOL     OW16327   6.881   4.585   4.567
 5143SOL    HW116328   6.910   4.542   4.652
 5143SOL    HW216329   6.938   4.551   4.492
 5144SOL     OW16330   1.623   1.158   4.895
 5144SOL    HW116331   1.706   1.130   4.847
 5144SOL    HW216332   1.559   1.081   4.898
 5145SOL     OW16333   3.132   5.871   5.876
 5145SOL    HW116334   3.174   5.901   5.790
 5145SOL    HW216335   3.044   5.919   5.888
 5146SOL     OW16336   2.615   4.188   7.016
 5146SOL    HW116337   2.592   4.283   6.993
 5146SOL    HW216338   2.536   4.144   0.038
 5147SOL     OW16339   5.978   5.024   6.865
 5147SOL    HW116340   5.927   5.025   6.779
 5147SOL    HW216341   5.930   5.080   6.933
 5148SOL     OW16342   0.375   6.497   1.773
 5148SOL    HW116343   0.390   6.592   1.744
 5148SOL    HW216344   0.389   6.489   1.871
 5149SOL     OW16345   6.734   1.065   4.991
 5149SOL    HW116346   6.766   1.008   5.067
 5149SOL    HW216347   6.656   1.021   4.947
 5150SOL     OW16348   1.559   5.339   4.351
 5150SOL    HW116349   1.485   5.406   4.349
 5150SOL    HW216350   1.521   5.247   4.348
 5151SOL     OW16351   4.445   0.972   6.296
 5151SOL    HW116352   4.507   0.918   6.353
 5151SOL    HW216353   4.459   1.069   6.314
 5152SOL     OW16354   0.712   4.992   0.218
 5152SOL    HW116355   0.685   4.960   0.127
 5152SOL    HW216356   0.788   5.056   0.210
 5153SOL     OW16357   1.731   1.758   0.862
 5153SOL    HW116358   1.681   1.725   0.942
 5153SOL    HW216359   1.815   1.802   0.891
 5154SOL     OW16360   2.185   3.290   4.538
 5154SOL    HW116361   2.182   3.299   4.638
 5154SOL    HW216362   2.204   3.195   4.514
 5155SOL     OW16363   3.190   1.140   2.234
 5155SOL    HW116364   3.240   1.222   2.260
 5155SOL    HW216365   3.222   1.062   2.288
 5156SOL     OW16366   5.802   3.126   5.845
 5156SOL    HW116367   5.766   3.106   5.936
 5156SOL    HW216368   5.896   3.095   5.838
 5157SOL     OW16369   5.789   3.154   3.512
 5157SOL    HW116370   5.871   3.175   3.460
 5157SOL    HW216371   5.768   3.056   3.504
 5158SOL     OW16372   4.107   1.145   0.929
 5158SOL    HW116373   4.155   1.162   0.843
 5158SOL    HW216374   4.027   1.087   0.911
 5159SOL     OW16375   1.183   2.624   4.224
 5159SOL    HW116376   1.282   2.613   4.234
 5159SOL    HW216377   1.154   2.707   4.271
 5160SOL     OW16378   2.170   2.885   4.337
 5160SOL    HW116379   2.071   2.869   4.330
 5160SOL    HW216380   2.192   2.911   4.431
 5161SOL     OW16381   1.602   2.934   6.723
 5161SOL    HW116382   1.676   2.883   6.766
 5161SOL    HW216383   1.523   2.936   6.784
 5162SOL     OW16384   6.259   6.369   5.093
 5162SOL    HW116385   6.304   6.454   5.069
 5162SOL    HW216386   6.172   6.389   5.139
 5163SOL     OW16387   5.887   3.219   0.931
 5163SOL    HW116388   5.807   3.243   0.985
 5163SOL    HW216389   5.967   3.267   0.966
 5164SOL     OW16390   5.709   4.853   6.102
 5164SOL    HW116391   5.743   4.909   6.178
 5164SOL    HW216392   5.635   4.794   6.135
 5165SOL     OW16393   6.481   4.393   4.250
 5165SOL    HW116394   6.424   4.470   4.279
 5165SOL    HW216395   6.426   4.309   4.250
 5166SOL     OW16396   1.096   0.472   1.913
 5166SOL    HW116397   1.024   0.541   1.901
 5166SOL    HW216398   1.090   0.435   2.006
 5167SOL     OW16399   0.681   6.410   5.801
 5167SOL    HW116400   0.772   6.374   5.825
 5167SOL    HW216401   0.657   6.484   5.863
 5168SOL     OW16402   3.823   2.016   3.105
 5168SOL    HW116403   3.844   2.015   3.007
 5168SOL    HW216404   3.877   2.088   3.150
 5169SOL     OW16405   3.649   4.587   6.278
 5169SOL    HW116406   3.580   4.632   6.221
 5169SOL    HW216407   3.643   4.488   6.267
 5170SOL     OW16408   5.074   4.073   4.420
 5170SOL    HW116409   5.036   4.152   4.371
 5170SOL    HW216410   5.052   4.081   4.517
 5171SOL     OW16411   2.545   4.549   4.611
 5171SOL    HW116412   2.551   4.479   4.541
 5171SOL    HW216413   2.524   4.507   4.700
 5172SOL     OW16414   2.224   5.310   0.843
 5172SOL    HW116415   2.151   5.379   0.845
 5172SOL    HW216416   2.199   5.238   0.779
 5173SOL     OW16417   6.162   3.808   5.779
 5173SOL    HW116418   6.205   3.861   5.852
 5173SOL    HW216419   6.062   3.811   5.790
 5174SOL     OW16420   1.379   4.517   5.760
 5174SOL    HW116421   1.368   4.477   5.851
 5174SOL    HW216422   1.295   4.504   5.708
 5175SOL     OW16423   0.442   4.809   6.690
 5175SOL    HW116424   0.358   4.770   6.729
 5175SOL    HW216425   0.418   4.880   6.624
 5176SOL     OW16426   5.246   3.764   0.300
 5176SOL    HW116427   5.276   3.837   0.361
 5176SOL    HW216428   5.157   3.730   0.331
 5177SOL     OW16429   5.482   6.815   6.830
 5177SOL    HW116430   5.441   6.804   6.920
 5177SOL    HW216431   5.535   6.900   6.827
 5178SOL     OW16432   2.332   1.927   1.573
 5178SOL    HW116433   2.331   1.984   1.656
 5178SOL    HW216434   2.316   1.831   1.599
 5179SOL     OW16435   2.732   5.791   5.718
 5179SOL    HW116436   2.752   5.851   5.795
 5179SOL    HW216437   2.636   5.799   5.693
 5180SOL     OW16438   3.272   2.460   1.089
 5180SOL    HW116439   3.316   2.523   1.025
 5180SOL    HW216440   3.299   2.482   1.183
 5181SOL     OW16441   3.223   5.312   2.724
 5181SOL    HW116442   3.209   5.367   2.807
 5181SOL    HW216443   3.187   5.220   2.739
 5182SOL     OW16444   5.076   4.296   1.807
 5182SOL    HW116445   5.088   4.281   1.906
 5182SOL    HW216446   5.164   4.314   1.765
 5183SOL     OW16447   4.581   0.533   2.839
 5183SOL    HW116448   4.664   0.490   2.803
 5183SOL    HW216449   4.570   0.623   2.797
 5184SOL     OW16450   0.786   1.663   2.923
 5184SOL    HW116451   0.820   1.622   3.008
 5184SOL    HW216452   0.687   1.678   2.931
 5185SOL     OW16453   4.176   0.098   2.387
 5185SOL    HW116454   4.231   0.147   2.455
 5185SOL    HW216455   4.219   0.010   2.367
 5186SOL     OW16456   6.109   4.388   0.778
 5186SOL    HW116457   6.017   4.387   0.739
 5186SOL    HW216458   6.171   4.337   0.718
 5187SOL     OW16459   5.288   1.266   3.770
 5187SOL    HW116460   5.235   1.349   3.752
 5187SOL    HW216461   5.236   1.186   3.739
 5188SOL     OW16462   1.109   3.549   4.896
 5188SOL    HW116463   1.150   3.630   4.854
 5188SOL    HW216464   1.111   3.473   4.831
 5189SOL     OW16465   4.595   5.381   6.622
 5189SOL    HW116466   4.523   5.330   6.668
 5189SOL    HW216467   4.559   5.419   6.537
 5190SOL     OW16468   1.254   2.296   3.439
 5190SOL    HW116469   1.182   2.359   3.469
 5190SOL    HW216470   1.338   2.316   3.488
 5191SOL     OW16471   3.918   0.293   1.744
 5191SOL    HW116472   3.968   0.222   1.696
 5191SOL    HW216473   3.941   0.383   1.705
 5192SOL     OW16474   6.014   4.326   2.418
 5192SOL    HW116475   5.955   4.355   2.343
 5192SOL    HW216476   6.020   4.226   2.420
 5193SOL     OW16477   5.249   3.686   3.005
 5193SOL    HW116478   5.258   3.587   2.995
 5193SOL    HW216479   5.327   3.732   2.962
 5194SOL     OW16480   5.802   1.228   5.916
 5194SOL    HW116481   5.826   1.290   5.991
 5194SOL    HW216482   5.735   1.161   5.948
 5195SOL     OW16483   6.326   6.880   5.980
 5195SOL    HW116484   6.297   6.919   5.892
 5195SOL    HW216485   6.250   6.888   6.045
 5196SOL     OW16486   1.012   3.357   1.778
 5196SOL    HW116487   1.021   3.401   1.867
 5196SOL    HW216488   0.936   3.292   1.780
 5197SOL     OW16489   2.998   6.418   4.919
 5197SOL    HW116490   3.093   6.441   4.941
 5197SOL    HW216491   2.962   6.356   4.988
 5198SOL     OW16492   4.271   6.974   5.468
 5198SOL    HW116493   4.172   6.972   5.464
 5198SOL    HW216494   4.309   6.922   5.391
 5199SOL     OW16495   1.268   4.993   1.300
 5199SOL    HW116496   1.232   4.955   1.216
 5199SOL    HW216497   1.231   4.943   1.378
 5200SOL     OW16498   6.876   0.698   5.189
 5200SOL    HW116499   6.871   0.791   5.225
 5200SOL    HW216500   6.784   0.664   5.170
 5201SOL     OW16501   6.203   4.962   4.802
 5201SOL    HW116502   6.205   4.874   4.754
 5201SOL    HW216503   6.123   4.964   4.863
 5202SOL     OW16504   3.826   2.816   5.996
 5202SOL    HW116505   3.809   2.729   5.949
 5202SOL    HW216506   3.842   2.888   5.928
 5203SOL     OW16507   1.904   0.503   6.750
 5203SOL    HW116508   1.827   0.451   6.787
 5203SOL    HW216509   1.943   0.561   6.822
 5204SOL     OW16510   2.725   0.195   0.949
 5204SOL    HW116511   2.802   0.134   0.934
 5204SOL    HW216512   2.645   0.162   0.900
 5205SOL     OW16513   0.160   6.431   1.217
 5205SOL    HW116514   0.174   6.523   1.180
 5205SOL    HW216515   0.065   6.421   1.247
 5206SOL     OW16516   1.216   4.889   3.816
 5206SOL    HW116517   1.128   4.877   3.861
 5206SOL    HW216518   1.202   4.907   3.719
 5207SOL     OW16519   6.417   0.138   3.831
 5207SOL    HW116520   6.436   0.209   3.762
 5207SOL    HW216521   6.347   0.076   3.796
 5208SOL     OW16522   5.653   2.147   0.850
 5208SOL    HW116523   5.574   2.170   0.792
 5208SOL    HW216524   5.665   2.218   0.920
 5209SOL     OW16525   5.721   5.558   3.102
 5209SOL    HW116526   5.769   5.476   3.135
 5209SOL    HW216527   5.647   5.581   3.165
 5210SOL     OW16528   5.443   3.977   0.367
 5210SOL    HW116529   5.495   4.057   0.396
 5210SOL    HW216530   5.412   3.927   0.448
 5211SOL     OW16531   5.623   2.446   4.973
 5211SOL    HW116532   5.526   2.423   4.960
 5211SOL    HW216533   5.678   2.393   4.909
 5212SOL     OW16534   0.820   3.665   0.230
 5212SOL    HW116535   0.847   3.733   0.161
 5212SOL    HW216536   0.799   3.712   0.316
 5213SOL     OW16537   3.701   3.615   3.074
 5213SOL    HW116538   3.754   3.615   3.159
 5213SOL    HW216539   3.692   3.709   3.040
 5214SOL     OW16540   5.648   3.748   5.292
 5214SOL    HW116541   5.573   3.742   5.226
 5214SOL    HW216542   5.685   3.656   5.308
 5215SOL     OW16543   0.681   3.627   5.033
 5215SOL    HW116544   0.773   3.602   5.064
 5215SOL    HW216545   0.634   3.545   5.002
 5216SOL     OW16546   5.540   5.229   1.282
 5216SOL    HW116547   5.627   5.187   1.309
 5216SOL    HW216548   5.475   5.157   1.259
 5217SOL     OW16549   4.637   6.027   3.390
 5217SOL    HW116550   4.728   6.058   3.362
 5217SOL    HW216551   4.645   5.963   3.466
 5218SOL     OW16552   6.705   0.256   0.928
 5218SOL    HW116553   6.636   0.194   0.892
 5218SOL    HW216554   6.795   0.212   0.925
 5219SOL     OW16555   3.130   1.258   5.261
 5219SOL    HW116556   3.129   1.168   5.305
 5219SOL    HW216557   3.179   1.253   5.174
 5220SOL     OW16558   2.564   5.041   3.967
 5220SOL    HW116559   2.608   5.089   4.043
 5220SOL    HW216560   2.620   4.962   3.940
 5221SOL     OW16561   6.396   5.557   1.164
 5221SOL    HW116562   6.406   5.630   1.232
 5221SOL    HW216563   6.481   5.549   1.112
 5222SOL     OW16564   6.222   3.826   1.249
 5222SOL    HW116565   6.185   3.902   1.196
 5222SOL    HW216566   6.311   3.800   1.211
 5223SOL     OW16567   0.054   3.011   0.305
 5223SOL    HW116568   6.977   3.034   0.318
 5223SOL    HW216569   0.098   3.005   0.395
 5224SOL     OW16570   6.771   2.370   4.967
 5224SOL    HW116571   6.840   2.298   4.968
 5224SOL    HW216572   6.815   2.458   4.952
 5225SOL     OW16573   0.066   1.619   4.676
 5225SOL    HW116574   0.050   1.560   4.755
 5225SOL    HW216575   0.134   1.577   4.617
 5226SOL     OW16576   0.738   6.476   3.740
 5226SOL    HW116577   0.685   6.539   3.683
 5226SOL    HW216578   0.815   6.440   3.687
 5227SOL     OW16579   0.713   3.099   5.722
 5227SOL    HW116580   0.792   3.045   5.693
 5227SOL    HW216581   0.738   3.154   5.802
 5228SOL     OW16582   0.981   1.500   5.484
 5228SOL    HW116583   1.017   1.531   5.396
 5228SOL    HW216584   0.885   1.475   5.473
 5229SOL     OW16585   3.422   1.741   6.239
 5229SOL    HW116586   3.519   1.717   6.228
 5229SOL    HW216587   3.413   1.840   6.250
 5230SOL     OW16588   6.978   6.946   1.888
 5230SOL    HW116589   7.015   6.872   1.945
 5230SOL    HW216590   6.925   6.907   1.813
 5231SOL     OW16591   6.688   2.990   2.134
 5231SOL    HW116592   6.609   2.949   2.089
 5231SOL    HW216593   6.756   3.016   2.065
 5232SOL     OW16594   1.618   2.809   5.841
 5232SOL    HW116595   1.529   2.766   5.828
 5232SOL    HW216596   1.654   2.783   5.931
 5233SOL     OW16597   3.347   6.786   2.630
 5233SOL    HW116598   3.443   6.771   2.607
 5233SOL    HW216599   3.294   6.705   2.607
 5234SOL     OW16600   2.792   2.299   6.951
 5234SOL    HW116601   2.884   2.264   6.936
 5234SOL    HW216602   2.771   2.295   0.029
 5235SOL     OW16603   1.820   2.310   1.529
 5235SOL    HW116604   1.839   2.279   1.436
 5235SOL    HW216605   1.830   2.410   1.533
 5236SOL     OW16606   3.205   5.231   1.229
 5236SOL    HW116607   3.294   5.195   1.259
 5236SOL    HW216608   3.155   5.159   1.182
 5237SOL     OW16609   2.034   2.231   2.629
 5237SOL    HW116610   2.062   2.323   2.655
 5237SOL    HW216611   1.951   2.206   2.678
 5238SOL     OW16612   0.453   6.480   3.071
 5238SOL    HW116613   0.375   6.507   3.127
 5238SOL    HW216614   0.535   6.527   3.103
 5239SOL     OW16615   2.788   3.927   0.835
 5239SOL    HW116616   2.854   3.926   0.760
 5239SOL    HW216617   2.761   3.833   0.856
 5240SOL     OW16618   2.418   3.904   6.091
 5240SOL    HW116619   2.395   3.945   6.003
 5240SOL    HW216620   2.515   3.881   6.094
 5241SOL     OW16621   0.810   6.219   2.501
 5241SOL    HW116622   0.869   6.283   2.452
 5241SOL    HW216623   0.856   6.130   2.507
 5242SOL     OW16624   4.374   1.076   0.107
 5242SOL    HW116625   4.369   1.021   0.190
 5242SOL    HW216626   4.469   1.101   0.089
 5243SOL     OW16627   2.458   5.902   1.749
 5243SOL    HW116628   2.428   5.997   1.744
 5243SOL    HW216629   2.531   5.887   1.682
 5244SOL     OW16630   4.961   1.719   0.129
 5244SOL    HW116631   4.945   1.719   0.031
 5244SOL    HW216632   4.968   1.625   0.162
 5245SOL     OW16633   3.158   3.799   1.582
 5245SOL    HW116634   3.232   3.732   1.577
 5245SOL    HW216635   3.070   3.753   1.566
 5246SOL     OW16636   6.732   4.507   6.226
 5246SOL    HW116637   6.691   4.597   6.233
 5246SOL    HW216638   6.777   4.484   6.313
 5247SOL     OW16639   4.170   2.211   6.543
 5247SOL    HW116640   4.073   2.229   6.554
 5247SOL    HW216641   4.220   2.241   6.625
 5248SOL     OW16642   5.484   0.751   3.467
 5248SOL    HW116643   5.527   0.723   3.553
 5248SOL    HW216644   5.554   0.771   3.399
 5249SOL     OW16645   0.528   4.416   0.388
 5249SOL    HW116646   0.435   4.432   0.357
 5249SOL    HW216647   0.587   4.490   0.356
 5250SOL     OW16648   1.777   6.057   0.741
 5250SOL    HW116649   1.834   6.102   0.672
 5250SOL    HW216650   1.730   6.127   0.795
 5251SOL     OW16651   0.852   4.848   0.418
 5251SOL    HW116652   0.788   4.865   0.493
 5251SOL    HW216653   0.817   4.889   0.334
 5252SOL     OW16654   3.713   6.392   2.567
 5252SOL    HW116655   3.757   6.307   2.596
 5252SOL    HW216656   3.688   6.446   2.647
 5253SOL     OW16657   6.622   5.559   4.893
 5253SOL    HW116658   6.559   5.514   4.831
 5253SOL    HW216659   6.683   5.491   4.934
 5254SOL     OW16660   4.980   6.437   3.652
 5254SOL    HW116661   4.991   6.344   3.617
 5254SOL    HW216662   4.971   6.435   3.751
 5255SOL     OW16663   6.699   1.771   5.275
 5255SOL    HW116664   6.682   1.680   5.237
 5255SOL    HW216665   6.715   1.836   5.201
 5256SOL     OW16666   6.839   1.448   2.232
 5256SOL    HW116667   6.836   1.542   2.199
 5256SOL    HW216668   6.910   1.440   2.302
 5257SOL     OW16669   4.145   1.469   6.308
 5257SOL    HW116670   4.168   1.375   6.282
 5257SOL    HW216671   4.048   1.474   6.333
 5258SOL     OW16672   4.297   1.355   3.708
 5258SOL    HW116673   4.372   1.349   3.642
 5258SOL    HW216674   4.227   1.418   3.672
 5259SOL     OW16675   6.427   4.831   3.543
 5259SOL    HW116676   6.505   4.784   3.502
 5259SOL    HW216677   6.445   4.848   3.640
 5260SOL     OW16678   2.033   0.867   0.648
 5260SOL    HW116679   2.025   0.876   0.548
 5260SOL    HW216680   2.000   0.777   0.675
 5261SOL     OW16681   5.714   4.346   6.503
 5261SOL    HW116682   5.687   4.441   6.519
 5261SOL    HW216683   5.719   4.297   6.590
 5262SOL     OW16684   1.796   1.282   2.772
 5262SOL    HW116685   1.823   1.271   2.868
 5262SOL    HW216686   1.869   1.327   2.722
 5263SOL     OW16687   1.517   6.511   2.346
 5263SOL    HW116688   1.600   6.456   2.339
 5263SOL    HW216689   1.539   6.607   2.330
 5264SOL     OW16690   6.382   1.372   1.868
 5264SOL    HW116691   6.460   1.435   1.866
 5264SOL    HW216692   6.329   1.382   1.784
 5265SOL     OW16693   6.603   4.812   5.456
 5265SOL    HW116694   6.624   4.774   5.366
 5265SOL    HW216695   6.683   4.861   5.491
 5266SOL     OW16696   1.904   0.534   6.494
 5266SOL    HW116697   1.886   0.506   6.589
 5266SOL    HW216698   1.893   0.633   6.486
 5267SOL     OW16699   5.533   2.237   4.149
 5267SOL    HW116700   5.583   2.278   4.072
 5267SOL    HW216701   5.443   2.208   4.118
 5268SOL     OW16702   5.205   0.050   6.179
 5268SOL    HW116703   5.293   0.082   6.145
 5268SOL    HW216704   5.214   0.020   6.274
 5269SOL     OW16705   0.295   7.011   3.400
 5269SOL    HW116706   0.280   0.011   3.303
 5269SOL    HW216707   0.209   0.003   3.449
 5270SOL     OW16708   0.434   1.224   6.319
 5270SOL    HW116709   0.384   1.151   6.272
 5270SOL    HW216710   0.514   1.250   6.264
 5271SOL     OW16711   0.440   5.133   3.025
 5271SOL    HW116712   0.347   5.167   3.010
 5271SOL    HW216713   0.499   5.165   2.950
 5272SOL     OW16714   4.402   0.414   6.957
 5272SOL    HW116715   4.414   0.446   0.031
 5272SOL    HW216716   4.314   0.447   6.922
 5273SOL     OW16717   2.325   2.026   2.710
 5273SOL    HW116718   2.284   2.019   2.619
 5273SOL    HW216719   2.330   2.123   2.736
 5274SOL     OW16720   5.367   5.027   1.219
 5274SOL    HW116721   5.376   4.976   1.134
 5274SOL    HW216722   5.307   4.978   1.282
 5275SOL     OW16723   4.524   1.881   6.761
 5275SOL    HW116724   4.603   1.903   6.704
 5275SOL    HW216725   4.440   1.905   6.711
 5276SOL     OW16726   4.300   6.810   1.568
 5276SOL    HW116727   4.341   6.898   1.587
 5276SOL    HW216728   4.259   6.772   1.651
 5277SOL     OW16729   2.255   2.766   1.809
 5277SOL    HW116730   2.239   2.688   1.871
 5277SOL    HW216731   2.200   2.844   1.839
 5278SOL     OW16732   4.399   3.650   1.612
 5278SOL    HW116733   4.360   3.716   1.548
 5278SOL    HW216734   4.486   3.685   1.647
 5279SOL     OW16735   1.958   5.645   2.890
 5279SOL    HW116736   2.041   5.622   2.839
 5279SOL    HW216737   1.887   5.675   2.826
 5280SOL     OW16738   4.522   0.050   5.127
 5280SOL    HW116739   4.613   0.081   5.101
 5280SOL    HW216740   4.458   0.064   5.051
 5281SOL     OW16741   0.240   2.933   2.457
 5281SOL    HW116742   0.194   2.901   2.540
 5281SOL    HW216743   0.179   2.920   2.378
 5282SOL     OW16744   5.160   1.702   2.014
 5282SOL    HW116745   5.190   1.797   2.004
 5282SOL    HW216746   5.068   1.693   1.975
 5283SOL     OW16747   5.348   5.469   6.340
 5283SOL    HW116748   5.331   5.371   6.347
 5283SOL    HW216749   5.442   5.489   6.371
 5284SOL     OW16750   5.197   2.868   3.431
 5284SOL    HW116751   5.279   2.866   3.375
 5284SOL    HW216752   5.210   2.810   3.511
 5285SOL     OW16753   3.670   5.916   2.581
 5285SOL    HW116754   3.588   5.926   2.639
 5285SOL    HW216755   3.648   5.860   2.501
 5286SOL     OW16756   2.465   5.313   2.107
 5286SOL    HW116757   2.546   5.356   2.146
 5286SOL    HW216758   2.491   5.255   2.031
 5287SOL     OW16759   0.757   2.126   1.885
 5287SOL    HW116760   0.717   2.048   1.935
 5287SOL    HW216761   0.820   2.092   1.815
 5288SOL     OW16762   4.671   1.288   0.572
 5288SOL    HW116763   4.673   1.386   0.550
 5288SOL    HW216764   4.583   1.250   0.547
 5289SOL     OW16765   2.435   6.131   0.873
 5289SOL    HW116766   2.401   6.222   0.851
 5289SOL    HW216767   2.443   6.121   0.973
 5290SOL     OW16768   4.594   6.122   0.795
 5290SOL    HW116769   4.630   6.048   0.852
 5290SOL    HW216770   4.568   6.085   0.706
 5291SOL     OW16771   2.044   4.747   6.720
 5291SOL    HW116772   2.094   4.793   6.794
 5291SOL    HW216773   2.110   4.703   6.659
 5292SOL     OW16774   5.314   2.375   6.294
 5292SOL    HW116775   5.356   2.459   6.330
 5292SOL    HW216776   5.256   2.334   6.364
 5293SOL     OW16777   0.999   1.127   4.378
 5293SOL    HW116778   0.977   1.222   4.399
 5293SOL    HW216779   1.054   1.088   4.451
 5294SOL     OW16780   5.062   2.494   5.127
 5294SOL    HW116781   4.994   2.426   5.098
 5294SOL    HW216782   5.039   2.526   5.219
 5295SOL     OW16783   5.825   1.052   1.924
 5295SOL    HW116784   5.843   0.956   1.946
 5295SOL    HW216785   5.762   1.057   1.846
 5296SOL     OW16786   0.661   3.580   0.564
 5296SOL    HW116787   0.678   3.679   0.568
 5296SOL    HW216788   0.614   3.558   0.479
 5297SOL     OW16789   1.741   3.056   1.681
 5297SOL    HW116790   1.817   2.993   1.701
 5297SOL    HW216791   1.759   3.145   1.723
 5298SOL     OW16792   1.163   5.574   1.477
 5298SOL    HW116793   1.237   5.534   1.422
 5298SOL    HW216794   1.081   5.583   1.421
 5299SOL     OW16795   3.264   0.250   1.681
 5299SOL    HW116796   3.339   0.206   1.631
 5299SOL    HW216797   3.263   0.219   1.776
 5300SOL     OW16798   6.680   5.371   3.772
 5300SOL    HW116799   6.684   5.450   3.711
 5300SOL    HW216800   6.588   5.332   3.770
 5301SOL     OW16801   4.982   0.446   0.296
 5301SOL    HW116802   5.009   0.541   0.283
 5301SOL    HW216803   4.976   0.400   0.207
 5302SOL     OW16804   6.828   4.519   3.200
 5302SOL    HW116805   6.752   4.566   3.155
 5302SOL    HW216806   6.795   4.433   3.238
 5303SOL     OW16807   0.664   5.548   3.261
 5303SOL    HW116808   0.566   5.557   3.241
 5303SOL    HW216809   0.690   5.614   3.330
 5304SOL     OW16810   4.869   2.289   5.389
 5304SOL    HW116811   4.851   2.380   5.352
 5304SOL    HW216812   4.817   2.277   5.473
 5305SOL     OW16813   2.714   0.998   2.538
 5305SOL    HW116814   2.618   1.016   2.519
 5305SOL    HW216815   2.765   0.992   2.452
 5306SOL     OW16816   2.546   0.154   4.690
 5306SOL    HW116817   2.588   0.244   4.706
 5306SOL    HW216818   2.494   0.127   4.771
 5307SOL     OW16819   4.484   7.017   6.796
 5307SOL    HW116820   4.472   6.934   6.850
 5307SOL    HW216821   4.512   0.073   6.856
 5308SOL     OW16822   0.112   1.082   2.024
 5308SOL    HW116823   0.084   1.068   2.119
 5308SOL    HW216824   0.115   1.180   2.004
 5309SOL     OW16825   4.016   3.862   4.070
 5309SOL    HW116826   4.073   3.781   4.072
 5309SOL    HW216827   3.964   3.865   3.985
 5310SOL     OW16828   6.029   1.927   0.722
 5310SOL    HW116829   5.986   1.989   0.787
 5310SOL    HW216830   5.972   1.921   0.639
 5311SOL     OW16831   1.922   5.638   6.979
 5311SOL    HW116832   1.954   5.603   6.891
 5311SOL    HW216833   1.967   5.587   0.033
 5312SOL     OW16834   0.093   2.963   1.985
 5312SOL    HW116835   0.136   2.966   1.895
 5312SOL    HW216836   0.149   2.908   2.047
 5313SOL     OW16837   1.207   5.594   0.226
 5313SOL    HW116838   1.233   5.582   0.130
 5313SOL    HW216839   1.290   5.609   0.281
 5314SOL     OW16840   3.558   4.639   0.767
 5314SOL    HW116841   3.615   4.676   0.841
 5314SOL    HW216842   3.472   4.605   0.805
 5315SOL     OW16843   5.199   2.993   2.121
 5315SOL    HW116844   5.194   3.068   2.188
 5315SOL    HW216845   5.293   2.986   2.087
 5316SOL     OW16846   5.821   5.436   4.983
 5316SOL    HW116847   5.875   5.455   4.901
 5316SOL    HW216848   5.856   5.490   5.059
 5317SOL     OW16849   6.036   5.574   2.805
 5317SOL    HW116850   6.018   5.672   2.809
 5317SOL    HW216851   6.003   5.537   2.718
 5318SOL     OW16852   0.523   2.346   4.658
 5318SOL    HW116853   0.479   2.370   4.744
 5318SOL    HW216854   0.583   2.267   4.672
 5319SOL     OW16855   3.543   0.534   1.453
 5319SOL    HW116856   3.480   0.460   1.431
 5319SOL    HW216857   3.587   0.567   1.370
 5320SOL     OW16858   6.235   3.788   5.527
 5320SOL    HW116859   6.206   3.784   5.623
 5320SOL    HW216860   6.196   3.870   5.484
 5321SOL     OW16861   1.344   5.191   6.351
 5321SOL    HW116862   1.411   5.225   6.417
 5321SOL    HW216863   1.294   5.268   6.312
 5322SOL     OW16864   3.366   6.487   0.784
 5322SOL    HW116865   3.313   6.403   0.793
 5322SOL    HW216866   3.437   6.476   0.715
 5323SOL     OW16867   6.069   3.525   0.066
 5323SOL    HW116868   5.996   3.575   0.113
 5323SOL    HW216869   6.122   3.474   0.133
 5324SOL     OW16870   3.818   3.279   1.658
 5324SOL    HW116871   3.877   3.202   1.682
 5324SOL    HW216872   3.735   3.244   1.614
 5325SOL     OW16873   4.565   5.974   4.382
 5325SOL    HW116874   4.662   5.996   4.388
 5325SOL    HW216875   4.526   5.973   4.474
 5326SOL     OW16876   0.399   0.064   2.220
 5326SOL    HW116877   0.454   0.112   2.152
 5326SOL    HW216878   0.368   0.128   2.290
 5327SOL     OW16879   6.549   0.822   4.008
 5327SOL    HW116880   6.475   0.759   3.983
 5327SOL    HW216881   6.510   0.905   4.046
 5328SOL     OW16882   3.889   5.008   0.951
 5328SOL    HW116883   3.828   4.948   1.003
 5328SOL    HW216884   3.864   5.103   0.969
 5329SOL     OW16885   6.616   5.616   0.433
 5329SOL    HW116886   6.601   5.671   0.514
 5329SOL    HW216887   6.672   5.667   0.367
 5330SOL     OW16888   3.846   5.110   0.150
 5330SOL    HW116889   3.857   5.051   0.230
 5330SOL    HW216890   3.885   5.066   0.069
 5331SOL     OW16891   4.890   2.825   6.416
 5331SOL    HW116892   4.972   2.821   6.359
 5331SOL    HW216893   4.895   2.755   6.488
 5332SOL     OW16894   5.694   3.228   0.081
 5332SOL    HW116895   5.664   3.294   0.149
 5332SOL    HW216896   5.661   3.255   7.011
 5333SOL     OW16897   1.225   1.843   4.270
 5333SOL    HW116898   1.271   1.805   4.350
 5333SOL    HW216899   1.268   1.808   4.187
 5334SOL     OW16900   3.525   5.756   1.842
 5334SOL    HW116901   3.617   5.718   1.851
 5334SOL    HW216902   3.485   5.727   1.755
 5335SOL     OW16903   0.583   4.698   1.424
 5335SOL    HW116904   0.680   4.673   1.416
 5335SOL    HW216905   0.571   4.793   1.394
 5336SOL     OW16906   1.868   2.971   4.966
 5336SOL    HW116907   1.858   2.871   4.961
 5336SOL    HW216908   1.820   3.005   5.047
 5337SOL     OW16909   6.752   4.617   0.872
 5337SOL    HW116910   6.680   4.612   0.802
 5337SOL    HW216911   6.841   4.615   0.828
 5338SOL     OW16912   6.430   3.707   0.224
 5338SOL    HW116913   6.412   3.766   0.145
 5338SOL    HW216914   6.432   3.612   0.195
 5339SOL     OW16915   5.380   3.227   2.632
 5339SOL    HW116916   5.306   3.163   2.610
 5339SOL    HW216917   5.367   3.311   2.579
 5340SOL     OW16918   4.782   3.464   1.871
 5340SOL    HW116919   4.799   3.368   1.848
 5340SOL    HW216920   4.813   3.481   1.965
 5341SOL     OW16921   4.452   4.608   3.517
 5341SOL    HW116922   4.363   4.633   3.479
 5341SOL    HW216923   4.453   4.626   3.615
 5342SOL     OW16924   6.275   5.669   5.027
 5342SOL    HW116925   6.264   5.762   4.991
 5342SOL    HW216926   6.362   5.662   5.076
 5343SOL     OW16927   3.596   3.062   6.316
 5343SOL    HW116928   3.669   3.050   6.383
 5343SOL    HW216929   3.601   2.987   6.249
 5344SOL     OW16930   0.243   1.542   6.627
 5344SOL    HW116931   0.261   1.513   6.534
 5344SOL    HW216932   0.329   1.562   6.674
 5345SOL     OW16933   5.383   1.452   6.101
 5345SOL    HW116934   5.437   1.501   6.169
 5345SOL    HW216935   5.443   1.416   6.030
 5346SOL     OW16936   3.376   5.788   2.899
 5346SOL    HW116937   3.442   5.751   2.965
 5346SOL    HW216938   3.284   5.774   2.934
 5347SOL     OW16939   5.590   1.524   4.067
 5347SOL    HW116940   5.661   1.594   4.076
 5347SOL    HW216941   5.572   1.507   3.970
 5348SOL     OW16942   5.182   2.657   4.701
 5348SOL    HW116943   5.096   2.618   4.735
 5348SOL    HW216944   5.164   2.714   4.621
 5349SOL     OW16945   1.247   3.578   1.648
 5349SOL    HW116946   1.323   3.573   1.712
 5349SOL    HW216947   1.277   3.621   1.563
 5350SOL     OW16948   1.632   6.201   0.094
 5350SOL    HW116949   1.570   6.259   0.041
 5350SOL    HW216950   1.583   6.121   0.127
 5351SOL     OW16951   6.325   6.058   3.545
 5351SOL    HW116952   6.319   6.091   3.450
 5351SOL    HW216953   6.318   6.135   3.608
 5352SOL     OW16954   1.252   2.986   6.030
 5352SOL    HW116955   1.222   3.081   6.045
 5352SOL    HW216956   1.308   2.981   5.948
 5353SOL     OW16957   3.780   4.891   3.637
 5353SOL    HW116958   3.866   4.842   3.621
 5353SOL    HW216959   3.773   4.916   3.733
 5354SOL     OW16960   3.632   5.627   1.409
 5354SOL    HW116961   3.684   5.701   1.368
 5354SOL    HW216962   3.587   5.573   1.337
 5355SOL     OW16963   5.558   5.386   5.329
 5355SOL    HW116964   5.509   5.451   5.270
 5355SOL    HW216965   5.550   5.294   5.291
 5356SOL     OW16966   0.735   6.215   0.921
 5356SOL    HW116967   0.716   6.117   0.911
 5356SOL    HW216968   0.658   6.268   0.886
 5357SOL     OW16969   6.414   3.976   2.746
 5357SOL    HW116970   6.364   3.891   2.730
 5357SOL    HW216971   6.394   4.040   2.672
 5358SOL     OW16972   4.973   1.189   6.672
 5358SOL    HW116973   5.071   1.177   6.687
 5358SOL    HW216974   4.958   1.257   6.600
 5359SOL     OW16975   3.519   2.365   6.951
 5359SOL    HW116976   3.582   2.376   6.874
 5359SOL    HW216977   3.539   2.279   6.999
 5360SOL     OW16978   5.961   4.819   4.058
 5360SOL    HW116979   5.909   4.844   4.140
 5360SOL    HW216980   6.018   4.896   4.030
 5361SOL     OW16981   1.380   5.197   2.554
 5361SOL    HW116982   1.399   5.112   2.505
 5361SOL    HW216983   1.323   5.256   2.498
 5362SOL     OW16984   5.883   1.447   2.405
 5362SOL    HW116985   5.937   1.531   2.406
 5362SOL    HW216986   5.786   1.471   2.400
 5363SOL     OW16987   5.415   5.152   3.157
 5363SOL    HW116988   5.369   5.160   3.068
 5363SOL    HW216989   5.434   5.243   3.193
 5364SOL     OW16990   4.366   1.754   2.469
 5364SOL    HW116991   4.376   1.655   2.463
 5364SOL    HW216992   4.456   1.796   2.479
 5365SOL     OW16993   2.961   3.513   4.459
 5365SOL    HW116994   2.973   3.424   4.504
 5365SOL    HW216995   2.918   3.576   4.523
 5366SOL     OW16996   6.002   5.876   3.341
 5366SOL    HW116997   5.951   5.908   3.421
 5366SOL    HW216998   6.030   5.955   3.286
 5367SOL     OW16999   5.966   5.939   1.359
 5367SOL    HW117000   5.922   6.010   1.304
 5367SOL    HW217001   6.063   5.933   1.336
 5368SOL     OW17002   0.142   6.319   4.547
 5368SOL    HW117003   0.161   6.393   4.482
 5368SOL    HW217004   0.173   6.347   4.638
 5369SOL     OW17005   4.210   5.898   2.874
 5369SOL    HW117006   4.161   5.888   2.960
 5369SOL    HW217007   4.281   5.968   2.884
 5370SOL     OW17008   1.827   2.957   0.381
 5370SOL    HW117009   1.734   2.942   0.414
 5370SOL    HW217010   1.860   3.046   0.414
 5371SOL     OW17011   6.414   5.695   4.595
 5371SOL    HW117012   6.511   5.672   4.606
 5371SOL    HW217013   6.359   5.633   4.650
 5372SOL     OW17014   1.813   6.851   3.050
 5372SOL    HW117015   1.772   6.884   3.135
 5372SOL    HW217016   1.831   6.753   3.057
 5373SOL     OW17017   2.424   1.261   6.292
 5373SOL    HW117018   2.353   1.289   6.227
 5373SOL    HW217019   2.382   1.227   6.375
 5374SOL     OW17020   1.848   3.950   1.608
 5374SOL    HW117021   1.895   3.974   1.524
 5374SOL    HW217022   1.833   3.851   1.611
 5375SOL     OW17023   2.206   4.447   5.280
 5375SOL    HW117024   2.118   4.403   5.299
 5375SOL    HW217025   2.235   4.499   5.360
 5376SOL     OW17026   0.707   0.028   6.620
 5376SOL    HW117027   0.637   0.011   6.689
 5376SOL    HW217028   0.786   6.988   6.637
 5377SOL     OW17029   1.236   1.377   3.089
 5377SOL    HW117030   1.202   1.345   3.177
 5377SOL    HW217031   1.310   1.442   3.103
 5378SOL     OW17032   4.562   0.020   2.450
 5378SOL    HW117033   4.564   7.011   2.355
 5378SOL    HW217034   4.489   0.088   2.463
 5379SOL     OW17035   2.236   1.920   4.425
 5379SOL    HW117036   2.308   1.963   4.480
 5379SOL    HW217037   2.153   1.912   4.481
 5380SOL     OW17038   4.516   5.800   1.693
 5380SOL    HW117039   4.556   5.778   1.782
 5380SOL    HW217040   4.545   5.891   1.665
 5381SOL     OW17041   2.933   0.758   3.198
 5381SOL    HW117042   2.900   0.852   3.205
 5381SOL    HW217043   3.030   0.759   3.175
 5382SOL     OW17044   4.520   0.800   2.749
 5382SOL    HW117045   4.592   0.870   2.750
 5382SOL    HW217046   4.450   0.825   2.816
 5383SOL     OW17047   2.246   3.003   4.596
 5383SOL    HW117048   2.211   3.045   4.680
 5383SOL    HW217049   2.311   2.931   4.620
 5384SOL     OW17050   5.299   5.782   5.531
 5384SOL    HW117051   5.395   5.757   5.538
 5384SOL    HW217052   5.249   5.742   5.608
 5385SOL     OW17053   4.289   3.455   6.373
 5385SOL    HW117054   4.338   3.500   6.299
 5385SOL    HW217055   4.260   3.523   6.441
 5386SOL     OW17056   4.666   4.458   4.102
 5386SOL    HW117057   4.589   4.518   4.123
 5386SOL    HW217058   4.669   4.383   4.168
 5387SOL     OW17059   0.973   1.648   4.088
 5387SOL    HW117060   0.978   1.722   4.021
 5387SOL    HW217061   0.997   1.561   4.044
 5388SOL     OW17062   6.486   6.800   3.893
 5388SOL    HW117063   6.582   6.786   3.919
 5388SOL    HW217064   6.480   6.820   3.795
 5389SOL     OW17065   5.299   0.773   3.808
 5389SOL    HW117066   5.232   0.823   3.753
 5389SOL    HW217067   5.366   0.730   3.747
 5390SOL     OW17068   0.003   3.800   3.412
 5390SOL    HW117069   0.062   3.788   3.332
 5390SOL    HW217070   6.942   3.853   3.386
 5391SOL     OW17071   2.833   2.571   1.039
 5391SOL    HW117072   2.793   2.514   1.112
 5391SOL    HW217073   2.863   2.512   0.964
 5392SOL     OW17074   5.856   0.710   4.258
 5392SOL    HW117075   5.822   0.772   4.328
 5392SOL    HW217076   5.904   0.634   4.302
 5393SOL     OW17077   4.266   2.371   3.904
 5393SOL    HW117078   4.193   2.374   3.972
 5393SOL    HW217079   4.352   2.347   3.949
 5394SOL     OW17080   0.231   2.749   1.668
 5394SOL    HW117081   0.167   2.737   1.592
 5394SOL    HW217082   0.224   2.843   1.703
 5395SOL     OW17083   6.778   1.719   1.058
 5395SOL    HW117084   6.831   1.657   1.001
 5395SOL    HW217085   6.689   1.679   1.078
 5396SOL     OW17086   4.337   3.450   0.341
 5396SOL    HW117087   4.344   3.359   0.383
 5396SOL    HW217088   4.266   3.502   0.387
 5397SOL     OW17089   6.856   0.561   2.783
 5397SOL    HW117090   6.861   0.587   2.880
 5397SOL    HW217091   6.855   0.643   2.727
 5398SOL     OW17092   6.803   3.297   2.510
 5398SOL    HW117093   6.771   3.391   2.520
 5398SOL    HW217094   6.816   3.256   2.600
 5399SOL     OW17095   1.854   2.805   0.670
 5399SOL    HW117096   1.822   2.747   0.745
 5399SOL    HW217097   1.782   2.871   0.646
 5400SOL     OW17098   4.708   3.348   1.498
 5400SOL    HW117099   4.748   3.270   1.546
 5400SOL    HW217100   4.619   3.369   1.539
 5401SOL     OW17101   5.494   2.390   1.382
 5401SOL    HW117102   5.487   2.329   1.303
 5401SOL    HW217103   5.491   2.485   1.350
 5402SOL     OW17104   1.240   5.936   2.806
 5402SOL    HW117105   1.155   5.903   2.766
 5402SOL    HW217106   1.222   6.019   2.858
 5403SOL     OW17107   5.113   2.412   6.925
 5403SOL    HW117108   5.189   2.475   6.906
 5403SOL    HW217109   5.083   2.425   0.000
 5404SOL     OW17110   4.722   6.869   0.013
 5404SOL    HW117111   4.747   6.903   6.942
 5404SOL    HW217112   4.803   6.870   0.071
 5405SOL     OW17113   0.291   4.876   0.188
 5405SOL    HW117114   0.343   4.930   0.255
 5405SOL    HW217115   0.353   4.814   0.141
 5406SOL     OW17116   2.249   1.322   6.082
 5406SOL    HW117117   2.196   1.246   6.044
 5406SOL    HW217118   2.224   1.407   6.037
 5407SOL     OW17119   1.383   6.816   3.587
 5407SOL    HW117120   1.480   6.794   3.584
 5407SOL    HW217121   1.370   6.906   3.629
 5408SOL     OW17122   2.478   1.544   4.361
 5408SOL    HW117123   2.554   1.597   4.322
 5408SOL    HW217124   2.515   1.469   4.416
 5409SOL     OW17125   0.989   2.441   2.045
 5409SOL    HW117126   1.032   2.421   1.957
 5409SOL    HW217127   0.907   2.385   2.055
 5410SOL     OW17128   6.084   2.500   0.736
 5410SOL    HW117129   6.101   2.422   0.675
 5410SOL    HW217130   6.125   2.582   0.697
 5411SOL     OW17131   3.956   5.368   0.158
 5411SOL    HW117132   4.030   5.311   0.121
 5411SOL    HW217133   3.881   5.309   0.189
 5412SOL     OW17134   0.462   2.253   5.640
 5412SOL    HW117135   0.522   2.183   5.600
 5412SOL    HW217136   0.385   2.208   5.684
 5413SOL     OW17137   0.879   4.851   4.892
 5413SOL    HW117138   0.928   4.792   4.957
 5413SOL    HW217139   0.787   4.868   4.925
 5414SOL     OW17140   5.712   4.446   5.472
 5414SOL    HW117141   5.668   4.371   5.521
 5414SOL    HW217142   5.811   4.434   5.476
 5415SOL     OW17143   3.146   1.437   0.328
 5415SOL    HW117144   3.092   1.399   0.403
 5415SOL    HW217145   3.235   1.391   0.324
 5416SOL     OW17146   3.700   5.786   0.036
 5416SOL    HW117147   3.644   5.856   0.081
 5416SOL    HW217148   3.793   5.820   0.024
 5417SOL     OW17149   4.998   6.806   3.875
 5417SOL    HW117150   5.078   6.767   3.920
 5417SOL    HW217151   4.920   6.744   3.883
 5418SOL     OW17152   6.792   3.015   5.401
 5418SOL    HW117153   6.866   3.015   5.334
 5418SOL    HW217154   6.738   2.932   5.392
 5419SOL     OW17155   4.365   1.538   6.458
 5419SOL    HW117156   4.294   1.509   6.393
 5419SOL    HW217157   4.327   1.538   6.551
 5420SOL     OW17158   1.431   2.088   1.815
 5420SOL    HW117159   1.487   2.160   1.775
 5420SOL    HW217160   1.348   2.129   1.855
 5421SOL     OW17161   3.682   5.042   2.005
 5421SOL    HW117162   3.654   5.087   2.090
 5421SOL    HW217163   3.642   4.950   2.002
 5422SOL     OW17164   2.842   4.860   3.710
 5422SOL    HW117165   2.810   4.827   3.799
 5422SOL    HW217166   2.822   4.958   3.703
 5423SOL     OW17167   4.839   0.012   1.739
 5423SOL    HW117168   4.759   7.000   1.688
 5423SOL    HW217169   4.914   6.967   1.726
 5424SOL     OW17170   4.261   3.814   5.246
 5424SOL    HW117171   4.217   3.736   5.291
 5424SOL    HW217172   4.309   3.784   5.164
 5425SOL     OW17173   1.367   4.338   5.996
 5425SOL    HW117174   1.374   4.271   5.922
 5425SOL    HW217175   1.287   4.318   6.051
 5426SOL     OW17176   6.970   4.996   1.464
 5426SOL    HW117177   6.954   5.036   1.374
 5426SOL    HW217178   6.929   4.905   1.468
 5427SOL     OW17179   4.532   3.235   0.459
 5427SOL    HW117180   4.488   3.146   0.476
 5427SOL    HW217181   4.614   3.221   0.404
 5428SOL     OW17182   5.023   4.771   3.184
 5428SOL    HW117183   5.116   4.734   3.188
 5428SOL    HW217184   4.962   4.703   3.143
 5429SOL     OW17185   2.935   6.907   4.172
 5429SOL    HW117186   2.939   6.969   4.251
 5429SOL    HW217187   2.948   6.959   4.088
 5430SOL     OW17188   2.174   3.733   5.537
 5430SOL    HW117189   2.093   3.785   5.563
 5430SOL    HW217190   2.173   3.715   5.439
 5431SOL     OW17191   4.929   4.486   0.219
 5431SOL    HW117192   4.856   4.447   0.276
 5431SOL    HW217193   4.936   4.584   0.236
 5432SOL     OW17194   0.349   5.045   6.530
 5432SOL    HW117195   0.334   5.006   6.439
 5432SOL    HW217196   0.262   5.058   6.576
 5433SOL     OW17197   3.810   6.987   1.551
 5433SOL    HW117198   3.842   0.049   1.600
 5433SOL    HW217199   3.864   6.975   1.468
 5434SOL     OW17200   4.656   0.153   4.255
 5434SOL    HW117201   4.606   0.238   4.237
 5434SOL    HW217202   4.738   0.174   4.308
 5435SOL     OW17203   6.627   4.986   0.163
 5435SOL    HW117204   6.645   4.978   0.261
 5435SOL    HW217205   6.680   4.918   0.113
 5436SOL     OW17206   1.776   4.881   2.363
 5436SOL    HW117207   1.847   4.814   2.343
 5436SOL    HW217208   1.763   4.940   2.283
 5437SOL     OW17209   3.424   6.663   1.006
 5437SOL    HW117210   3.423   6.748   0.954
 5437SOL    HW217211   3.423   6.585   0.942
 5438SOL     OW17212   4.677   6.490   1.646
 5438SOL    HW117213   4.629   6.483   1.734
 5438SOL    HW217214   4.613   6.520   1.575
 5439SOL     OW17215   0.773   4.077   1.102
 5439SOL    HW117216   0.724   4.041   1.181
 5439SOL    HW217217   0.708   4.098   1.029
 5440SOL     OW17218   5.360   6.399   3.711
 5440SOL    HW117219   5.422   6.375   3.636
 5440SOL    HW217220   5.284   6.334   3.714
 5441SOL     OW17221   5.616   2.323   4.557
 5441SOL    HW117222   5.570   2.387   4.495
 5441SOL    HW217223   5.551   2.290   4.625
 5442SOL     OW17224   2.697   0.453   6.395
 5442SOL    HW117225   2.625   0.472   6.328
 5442SOL    HW217226   2.662   0.393   6.466
 5443SOL     OW17227   5.232   0.696   2.934
 5443SOL    HW117228   5.315   0.744   2.905
 5443SOL    HW217229   5.258   0.608   2.975
 5444SOL     OW17230   6.807   1.347   6.366
 5444SOL    HW117231   6.887   1.305   6.323
 5444SOL    HW217232   6.835   1.431   6.412
 5445SOL     OW17233   5.929   6.515   5.919
 5445SOL    HW117234   5.939   6.441   5.986
 5445SOL    HW217235   5.845   6.566   5.939
 5446SOL     OW17236   0.342   4.562   5.699
 5446SOL    HW117237   0.316   4.657   5.682
 5446SOL    HW217238   0.406   4.532   5.628
 5447SOL     OW17239   6.810   1.458   1.632
 5447SOL    HW117240   6.865   1.374   1.627
 5447SOL    HW217241   6.836   1.520   1.558
 5448SOL     OW17242   5.515   4.943   2.549
 5448SOL    HW117243   5.600   4.890   2.550
 5448SOL    HW217244   5.492   4.971   2.642
 5449SOL     OW17245   2.903   0.820   1.636
 5449SOL    HW117246   2.968   0.883   1.679
 5449SOL    HW217247   2.871   0.754   1.704
 5450SOL     OW17248   4.589   5.840   2.162
 5450SOL    HW117249   4.622   5.933   2.147
 5450SOL    HW217250   4.513   5.840   2.227
 5451SOL     OW17251   6.163   6.199   3.709
 5451SOL    HW117252   6.101   6.127   3.741
 5451SOL    HW217253   6.135   6.230   3.618
 5452SOL     OW17254   2.033   3.827   2.808
 5452SOL    HW117255   2.019   3.749   2.746
 5452SOL    HW217256   1.973   3.902   2.780
 5453SOL     OW17257   6.767   4.752   4.183
 5453SOL    HW117258   6.729   4.838   4.148
 5453SOL    HW217259   6.706   4.676   4.158
 5454SOL     OW17260   6.049   4.219   3.288
 5454SOL    HW117261   6.000   4.305   3.305
 5454SOL    HW217262   6.045   4.162   3.370
 5455SOL     OW17263   2.716   1.921   3.585
 5455SOL    HW117264   2.705   1.842   3.645
 5455SOL    HW217265   2.775   1.896   3.508
 5456SOL     OW17266   5.814   2.453   0.550
 5456SOL    HW117267   5.750   2.504   0.607
 5456SOL    HW217268   5.866   2.388   0.607
 5457SOL     OW17269   5.920   1.050   6.496
 5457SOL    HW117270   5.929   1.150   6.502
 5457SOL    HW217271   5.839   1.021   6.547
 5458SOL     OW17272   5.842   4.219   7.007
 5458SOL    HW117273   5.825   4.317   7.005
 5458SOL    HW217274   5.777   4.175   0.051
 5459SOL     OW17275   2.166   3.292   4.810
 5459SOL    HW117276   2.212   3.203   4.820
 5459SOL    HW217277   2.068   3.280   4.825
 5460SOL     OW17278   0.340   0.640   1.390
 5460SOL    HW117279   0.294   0.554   1.369
 5460SOL    HW217280   0.329   0.703   1.313
 5461SOL     OW17281   6.316   1.152   6.104
 5461SOL    HW117282   6.219   1.161   6.127
 5461SOL    HW217283   6.359   1.086   6.166
 5462SOL     OW17284   5.339   4.589   6.549
 5462SOL    HW117285   5.276   4.596   6.471
 5462SOL    HW217286   5.404   4.665   6.546
 5463SOL     OW17287   0.899   3.610   6.103
 5463SOL    HW117288   0.837   3.584   6.029
 5463SOL    HW217289   0.916   3.531   6.162
 5464SOL     OW17290   1.596   5.575   5.704
 5464SOL    HW117291   1.664   5.519   5.657
 5464SOL    HW217292   1.579   5.538   5.795
 5465SOL     OW17293   0.499   0.012   4.535
 5465SOL    HW117294   0.534   6.938   4.541
 5465SOL    HW217295   0.464   0.040   4.625
 5466SOL     OW17296   5.761   1.727   4.048
 5466SOL    HW117297   5.775   1.748   3.952
 5466SOL    HW217298   5.848   1.737   4.097
 5467SOL     OW17299   4.918   3.190   4.137
 5467SOL    HW117300   4.910   3.289   4.144
 5467SOL    HW217301   5.004   3.160   4.177
 5468SOL     OW17302   0.329   1.432   1.180
 5468SOL    HW117303   0.372   1.380   1.106
 5468SOL    HW217304   0.315   1.372   1.259
 5469SOL     OW17305   3.444   0.702   4.186
 5469SOL    HW117306   3.453   0.684   4.088
 5469SOL    HW217307   3.457   0.800   4.204
 5470SOL     OW17308   4.602   4.915   4.326
 5470SOL    HW117309   4.669   4.843   4.311
 5470SOL    HW217310   4.581   4.922   4.424
 5471SOL     OW17311   5.267   0.345   2.769
 5471SOL    HW117312   5.187   0.359   2.827
 5471SOL    HW217313   5.284   0.247   2.758
 5472SOL     OW17314   3.166   3.735   6.618
 5472SOL    HW117315   3.220   3.652   6.630
 5472SOL    HW217316   3.112   3.753   6.700
 5473SOL     OW17317   3.042   5.090   1.852
 5473SOL    HW117318   3.114   5.138   1.902
 5473SOL    HW217319   3.039   4.994   1.881
 5474SOL     OW17320   1.019   4.917   2.475
 5474SOL    HW117321   0.985   4.984   2.541
 5474SOL    HW217322   1.041   4.832   2.522
 5475SOL     OW17323   1.083   1.005   5.423
 5475SOL    HW117324   1.063   1.041   5.332
 5475SOL    HW217325   1.181   0.990   5.432
 5476SOL     OW17326   1.885   0.111   5.350
 5476SOL    HW117327   1.959   0.062   5.304
 5476SOL    HW217328   1.806   0.051   5.361
 5477SOL     OW17329   1.996   3.823   3.932
 5477SOL    HW117330   1.909   3.815   3.980
 5477SOL    HW217331   2.047   3.737   3.940
 5478SOL     OW17332   4.974   4.768   5.748
 5478SOL    HW117333   4.977   4.722   5.659
 5478SOL    HW217334   5.066   4.766   5.788
 5479SOL     OW17335   5.279   2.179   4.092
 5479SOL    HW117336   5.185   2.211   4.085
 5479SOL    HW217337   5.304   2.130   4.009
 5480SOL     OW17338   1.152   3.204   4.137
 5480SOL    HW117339   1.122   3.109   4.133
 5480SOL    HW217340   1.170   3.238   4.045
 5481SOL     OW17341   4.570   1.667   6.336
 5481SOL    HW117342   4.494   1.620   6.382
 5481SOL    HW217343   4.555   1.766   6.342
 5482SOL     OW17344   5.449   3.347   1.604
 5482SOL    HW117345   5.508   3.390   1.671
 5482SOL    HW217346   5.367   3.403   1.590
 5483SOL     OW17347   6.669   2.860   6.818
 5483SOL    HW117348   6.635   2.944   6.776
 5483SOL    HW217349   6.765   2.848   6.795
 5484SOL     OW17350   6.840   6.803   4.967
 5484SOL    HW117351   6.781   6.879   4.939
 5484SOL    HW217352   6.886   6.827   5.052
 5485SOL     OW17353   3.526   0.358   5.162
 5485SOL    HW117354   3.588   0.385   5.235
 5485SOL    HW217355   3.526   0.426   5.090
 5486SOL     OW17356   1.197   0.914   3.955
 5486SOL    HW117357   1.199   0.911   4.055
 5486SOL    HW217358   1.113   0.872   3.922
 5487SOL     OW17359   4.581   5.078   0.388
 5487SOL    HW117360   4.565   5.079   0.487
 5487SOL    HW217361   4.506   5.030   0.343
 5488SOL     OW17362   5.041   0.682   5.975
 5488SOL    HW117363   5.115   0.616   5.970
 5488SOL    HW217364   5.078   0.775   5.969
 5489SOL     OW17365   0.545   4.228   3.227
 5489SOL    HW117366   0.579   4.134   3.237
 5489SOL    HW217367   0.477   4.246   3.298
 5490SOL     OW17368   2.300   2.476   0.057
 5490SOL    HW117369   2.384   2.447   0.012
 5490SOL    HW217370   2.266   2.560   0.015
 5491SOL     OW17371   0.274   5.415   1.682
 5491SOL    HW117372   0.345   5.369   1.735
 5491SOL    HW217373   0.315   5.487   1.626
 5492SOL     OW17374   1.563   1.184   5.213
 5492SOL    HW117375   1.489   1.142   5.161
 5492SOL    HW217376   1.649   1.137   5.193
 5493SOL     OW17377   3.128   2.943   0.124
 5493SOL    HW117378   3.035   2.904   0.121
 5493SOL    HW217379   3.192   2.874   0.158
 5494SOL     OW17380   5.935   2.852   2.309
 5494SOL    HW117381   5.871   2.776   2.316
 5494SOL    HW217382   5.932   2.890   2.216
 5495SOL     OW17383   3.593   2.953   2.619
 5495SOL    HW117384   3.597   2.898   2.535
 5495SOL    HW217385   3.632   3.043   2.601
 5496SOL     OW17386   3.716   5.257   1.336
 5496SOL    HW117387   3.771   5.233   1.416
 5496SOL    HW217388   3.680   5.349   1.346
 5497SOL     OW17389   6.595   6.908   1.762
 5497SOL    HW117390   6.554   6.819   1.781
 5497SOL    HW217391   6.689   6.909   1.796
 5498SOL     OW17392   3.821   0.329   5.322
 5498SOL    HW117393   3.899   0.392   5.313
 5498SOL    HW217394   3.855   0.238   5.346
 5499SOL     OW17395   7.013   2.026   4.527
 5499SOL    HW117396   6.939   2.037   4.460
 5499SOL    HW217397   0.054   1.952   4.497
 5500SOL     OW17398   1.939   5.971   1.476
 5500SOL    HW117399   1.845   6.003   1.469
 5500SOL    HW217400   1.999   6.048   1.498
 5501SOL     OW17401   1.681   6.904   2.573
 5501SOL    HW117402   1.735   6.965   2.514
 5501SOL    HW217403   1.743   6.844   2.624
 5502SOL     OW17404   4.553   3.839   0.153
 5502SOL    HW117405   4.577   3.765   0.215
 5502SOL    HW217406   4.529   3.802   0.064
 5503SOL     OW17407   0.833   5.763   4.482
 5503SOL    HW117408   0.898   5.687   4.485
 5503SOL    HW217409   0.882   5.850   4.483
 5504SOL     OW17410   3.322   2.084   4.713
 5504SOL    HW117411   3.323   2.183   4.727
 5504SOL    HW217412   3.237   2.046   4.749
 5505SOL     OW17413   3.135   4.906   6.084
 5505SOL    HW117414   3.039   4.880   6.079
 5505SOL    HW217415   3.151   4.956   6.169
 5506SOL     OW17416   6.485   0.065   5.599
 5506SOL    HW117417   6.489   0.051   5.500
 5506SOL    HW217418   6.550   0.137   5.625
 5507SOL     OW17419   3.067   5.660   4.424
 5507SOL    HW117420   3.006   5.702   4.491
 5507SOL    HW217421   3.159   5.653   4.463
 5508SOL     OW17422   2.226   0.665   6.164
 5508SOL    HW117423   2.153   0.603   6.194
 5508SOL    HW217424   2.194   0.719   6.086
 5509SOL     OW17425   6.032   6.028   6.570
 5509SOL    HW117426   6.038   6.115   6.619
 5509SOL    HW217427   6.076   5.956   6.624
 5510SOL     OW17428   4.779   0.411   5.791
 5510SOL    HW117429   4.776   0.488   5.855
 5510SOL    HW217430   4.860   0.356   5.808
 5511SOL     OW17431   0.476   1.682   1.965
 5511SOL    HW117432   0.528   1.744   1.906
 5511SOL    HW217433   0.380   1.711   1.967
 5512SOL     OW17434   1.247   6.998   0.978
 5512SOL    HW117435   1.255   0.065   1.027
 5512SOL    HW217436   1.270   6.923   1.040
 5513SOL     OW17437   3.350   4.912   4.316
 5513SOL    HW117438   3.291   4.876   4.244
 5513SOL    HW217439   3.424   4.965   4.276
 5514SOL     OW17440   6.155   5.218   3.529
 5514SOL    HW117441   6.103   5.299   3.555
 5514SOL    HW217442   6.206   5.237   3.445
 5515SOL     OW17443   6.901   3.278   2.144
 5515SOL    HW117444   6.954   3.322   2.072
 5515SOL    HW217445   6.950   3.198   2.178
 5516SOL     OW17446   1.348   3.439   6.032
 5516SOL    HW117447   1.293   3.521   6.016
 5516SOL    HW217448   1.394   3.446   6.121
 5517SOL     OW17449   2.455   1.104   2.545
 5517SOL    HW117450   2.416   1.093   2.637
 5517SOL    HW217451   2.380   1.110   2.478
 5518SOL     OW17452   5.839   4.892   5.365
 5518SOL    HW117453   5.883   4.818   5.416
 5518SOL    HW217454   5.741   4.875   5.358
 5519SOL     OW17455   5.153   3.422   3.699
 5519SOL    HW117456   5.215   3.408   3.622
 5519SOL    HW217457   5.204   3.458   3.777
 5520SOL     OW17458   1.611   3.450   1.477
 5520SOL    HW117459   1.570   3.359   1.486
 5520SOL    HW217460   1.578   3.493   1.393
 5521SOL     OW17461   5.309   5.519   1.886
 5521SOL    HW117462   5.271   5.476   1.968
 5521SOL    HW217463   5.376   5.458   1.844
 5522SOL     OW17464   2.100   3.505   2.209
 5522SOL    HW117465   2.145   3.492   2.121
 5522SOL    HW217466   2.035   3.581   2.203
 5523SOL     OW17467   2.822   0.617   1.430
 5523SOL    HW117468   2.853   0.705   1.465
 5523SOL    HW217469   2.778   0.630   1.341
 5524SOL     OW17470   6.665   5.499   6.144
 5524SOL    HW117471   6.605   5.579   6.154
 5524SOL    HW217472   6.680   5.458   6.233
 5525SOL     OW17473   6.923   5.494   5.046
 5525SOL    HW117474   6.848   5.496   5.112
 5525SOL    HW217475   6.916   5.411   4.990
 5526SOL     OW17476   5.892   2.690   4.776
 5526SOL    HW117477   5.834   2.699   4.857
 5526SOL    HW217478   5.868   2.606   4.728
 5527SOL     OW17479   2.201   3.530   1.303
 5527SOL    HW117480   2.104   3.522   1.280
 5527SOL    HW217481   2.255   3.529   1.219
 5528SOL     OW17482   0.816   3.473   3.060
 5528SOL    HW117483   0.806   3.378   3.089
 5528SOL    HW217484   0.906   3.507   3.086
 5529SOL     OW17485   1.554   1.390   5.028
 5529SOL    HW117486   1.588   1.347   4.944
 5529SOL    HW217487   1.571   1.330   5.106
 5530SOL     OW17488   1.208   2.976   0.699
 5530SOL    HW117489   1.242   3.065   0.730
 5530SOL    HW217490   1.283   2.910   0.700
 5531SOL     OW17491   2.930   2.866   5.946
 5531SOL    HW117492   2.961   2.856   5.851
 5531SOL    HW217493   2.875   2.786   5.971
 5532SOL     OW17494   2.483   1.440   1.119
 5532SOL    HW117495   2.396   1.390   1.117
 5532SOL    HW217496   2.512   1.453   1.214
 5533SOL     OW17497   4.277   0.528   1.195
 5533SOL    HW117498   4.198   0.507   1.252
 5533SOL    HW217499   4.245   0.561   1.106
 5534SOL     OW17500   0.023   4.546   5.728
 5534SOL    HW117501   0.098   4.512   5.785
 5534SOL    HW217502   0.005   4.481   5.655
 5535SOL     OW17503   5.729   3.427   3.548
 5535SOL    HW117504   5.771   3.468   3.467
 5535SOL    HW217505   5.733   3.328   3.540
 5536SOL     OW17506   1.886   0.708   3.600
 5536SOL    HW117507   1.845   0.706   3.692
 5536SOL    HW217508   1.815   0.729   3.533
 5537SOL     OW17509   4.461   1.031   4.582
 5537SOL    HW117510   4.395   1.105   4.595
 5537SOL    HW217511   4.415   0.943   4.601
 5538SOL     OW17512   5.657   1.876   0.698
 5538SOL    HW117513   5.579   1.827   0.737
 5538SOL    HW217514   5.662   1.968   0.739
 5539SOL     OW17515   3.523   6.909   6.959
 5539SOL    HW117516   3.523   6.997   6.911
 5539SOL    HW217517   3.517   6.924   0.038
 5540SOL     OW17518   5.456   0.666   6.496
 5540SOL    HW117519   5.368   0.626   6.519
 5540SOL    HW217520   5.449   0.713   6.407
 5541SOL     OW17521   4.982   3.555   5.614
 5541SOL    HW117522   4.921   3.476   5.620
 5541SOL    HW217523   5.053   3.547   5.684
 5542SOL     OW17524   3.995   4.404   6.801
 5542SOL    HW117525   3.951   4.330   6.853
 5542SOL    HW217526   3.930   4.479   6.790
 5543SOL     OW17527   1.497   0.348   0.550
 5543SOL    HW117528   1.520   0.379   0.458
 5543SOL    HW217529   1.566   0.381   0.615
 5544SOL     OW17530   3.823   5.412   5.998
 5544SOL    HW117531   3.872   5.499   6.004
 5544SOL    HW217532   3.848   5.365   5.913
 5545SOL     OW17533   4.350   0.223   2.952
 5545SOL    HW117534   4.449   0.223   2.969
 5545SOL    HW217535   4.313   0.314   2.972
 5546SOL     OW17536   0.628   4.860   5.034
 5546SOL    HW117537   0.608   4.798   5.110
 5546SOL    HW217538   0.593   4.951   5.055
 5547SOL     OW17539   5.186   0.848   4.339
 5547SOL    HW117540   5.093   0.816   4.357
 5547SOL    HW217541   5.182   0.931   4.283
 5548SOL     OW17542   7.002   3.946   4.924
 5548SOL    HW117543   6.988   3.901   5.012
 5548SOL    HW217544   6.915   3.953   4.875
 5549SOL     OW17545   4.393   2.655   0.735
 5549SOL    HW117546   4.298   2.681   0.721
 5549SOL    HW217547   4.425   2.690   0.823
 5550SOL     OW17548   1.884   4.121   1.824
 5550SOL    HW117549   1.821   4.112   1.902
 5550SOL    HW217550   1.874   4.042   1.763
 5551SOL     OW17551   1.877   5.728   3.624
 5551SOL    HW117552   1.820   5.784   3.684
 5551SOL    HW217553   1.851   5.632   3.633
 5552SOL     OW17554   0.160   6.161   6.731
 5552SOL    HW117555   0.170   6.069   6.770
 5552SOL    HW217556   0.212   6.166   6.646
 5553SOL     OW17557   4.580   0.577   6.809
 5553SOL    HW117558   4.516   0.525   6.865
 5553SOL    HW217559   4.584   0.671   6.843
 5554SOL     OW17560   5.319   2.230   1.813
 5554SOL    HW117561   5.399   2.222   1.873
 5554SOL    HW217562   5.343   2.198   1.721
 5555SOL     OW17563   1.538   4.406   2.018
 5555SOL    HW117564   1.467   4.463   2.058
 5555SOL    HW217565   1.608   4.464   1.976
 5556SOL     OW17566   0.040   0.918   4.679
 5556SOL    HW117567   0.073   1.013   4.676
 5556SOL    HW217568   0.105   0.859   4.630
 5557SOL     OW17569   3.263   6.220   2.352
 5557SOL    HW117570   3.232   6.296   2.411
 5557SOL    HW217571   3.362   6.223   2.344
 5558SOL     OW17572   3.756   4.544   7.003
 5558SOL    HW117573   3.684   4.593   0.032
 5558SOL    HW217574   3.781   4.594   6.921
 5559SOL     OW17575   1.904   0.039   2.478
 5559SOL    HW117576   1.982   0.048   2.540
 5559SOL    HW217577   1.898   0.121   2.421
 5560SOL     OW17578   1.020   6.453   2.694
 5560SOL    HW117579   0.944   6.517   2.685
 5560SOL    HW217580   1.060   6.436   2.604
 5561SOL     OW17581   3.274   6.935   3.616
 5561SOL    HW117582   3.352   6.874   3.598
 5561SOL    HW217583   3.229   6.956   3.529
 5562SOL     OW17584   4.159   3.953   1.141
 5562SOL    HW117585   4.073   3.912   1.173
 5562SOL    HW217586   4.217   3.973   1.220
 5563SOL     OW17587   2.680   4.671   3.083
 5563SOL    HW117588   2.624   4.641   3.160
 5563SOL    HW217589   2.768   4.705   3.117
 5564SOL     OW17590   5.423   0.507   6.152
 5564SOL    HW117591   5.509   0.466   6.119
 5564SOL    HW217592   5.393   0.458   6.234
 5565SOL     OW17593   3.221   2.217   6.723
 5565SOL    HW117594   3.235   2.312   6.749
 5565SOL    HW217595   3.224   2.209   6.623
 5566SOL     OW17596   1.544   3.914   6.515
 5566SOL    HW117597   1.466   3.883   6.570
 5566SOL    HW217598   1.509   3.962   6.434
 5567SOL     OW17599   6.913   4.231   1.675
 5567SOL    HW117600   6.935   4.234   1.578
 5567SOL    HW217601   6.994   4.201   1.726
 5568SOL     OW17602   4.394   6.170   1.726
 5568SOL    HW117603   4.462   6.124   1.669
 5568SOL    HW217604   4.304   6.129   1.710
 5569SOL     OW17605   2.117   3.098   4.125
 5569SOL    HW117606   2.175   3.023   4.156
 5569SOL    HW217607   2.069   3.138   4.203
 5570SOL     OW17608   0.587   4.031   2.726
 5570SOL    HW117609   0.647   4.101   2.764
 5570SOL    HW217610   0.496   4.069   2.712
 5571SOL     OW17611   6.186   4.864   1.792
 5571SOL    HW117612   6.093   4.836   1.812
 5571SOL    HW217613   6.188   4.913   1.704
 5572SOL     OW17614   1.260   3.053   5.037
 5572SOL    HW117615   1.182   3.116   5.047
 5572SOL    HW217616   1.327   3.093   4.975
 5573SOL     OW17617   3.084   5.230   4.461
 5573SOL    HW117618   3.074   5.174   4.543
 5573SOL    HW217619   3.071   5.173   4.379
 5574SOL     OW17620   7.016   2.285   6.509
 5574SOL    HW117621   7.007   2.226   6.589
 5574SOL    HW217622   0.008   2.228   6.427
 5575SOL     OW17623   0.443   0.031   1.663
 5575SOL    HW117624   0.426   0.106   1.727
 5575SOL    HW217625   0.530   7.007   1.686
 5576SOL     OW17626   2.245   4.227   3.291
 5576SOL    HW117627   2.214   4.183   3.376
 5576SOL    HW217628   2.166   4.266   3.243
 5577SOL     OW17629   1.638   3.265   6.046
 5577SOL    HW117630   1.674   3.357   6.036
 5577SOL    HW217631   1.621   3.245   6.142
 5578SOL     OW17632   4.141   3.515   3.206
 5578SOL    HW117633   4.123   3.602   3.252
 5578SOL    HW217634   4.152   3.531   3.107
 5579SOL     OW17635   0.816   3.139   1.683
 5579SOL    HW117636   0.857   3.048   1.683
 5579SOL    HW217637   0.736   3.139   1.742
 5580SOL     OW17638   4.956   1.859   5.426
 5580SOL    HW117639   4.892   1.893   5.357
 5580SOL    HW217640   5.048   1.889   5.403
 5581SOL     OW17641   0.891   1.627   6.845
 5581SOL    HW117642   0.894   1.714   6.796
 5581SOL    HW217643   0.849   1.640   6.935
 5582SOL     OW17644   2.755   2.807   6.511
 5582SOL    HW117645   2.717   2.898   6.494
 5582SOL    HW217646   2.769   2.759   6.425
 5583SOL     OW17647   5.633   1.218   2.062
 5583SOL    HW117648   5.549   1.168   2.084
 5583SOL    HW217649   5.688   1.164   1.998
 5584SOL     OW17650   0.657   3.914   5.099
 5584SOL    HW117651   0.734   3.919   5.035
 5584SOL    HW217652   0.616   3.823   5.094
 5585SOL     OW17653   4.877   4.857   1.965
 5585SOL    HW117654   4.811   4.819   2.029
 5585SOL    HW217655   4.926   4.933   2.008
 5586SOL     OW17656   6.812   3.083   6.586
 5586SOL    HW117657   6.909   3.070   6.568
 5586SOL    HW217658   6.798   3.172   6.630
 5587SOL     OW17659   5.312   0.330   6.382
 5587SOL    HW117660   5.319   0.276   6.466
 5587SOL    HW217661   5.236   0.296   6.327
 5588SOL     OW17662   3.427   6.645   1.632
 5588SOL    HW117663   3.488   6.652   1.711
 5588SOL    HW217664   3.432   6.553   1.594
 5589SOL     OW17665   5.693   5.016   6.347
 5589SOL    HW117666   5.627   5.013   6.422
 5589SOL    HW217667   5.785   5.000   6.382
 5590SOL     OW17668   5.904   5.684   4.537
 5590SOL    HW117669   5.907   5.767   4.480
 5590SOL    HW217670   5.837   5.696   4.610
 5591SOL     OW17671   6.011   1.374   1.256
 5591SOL    HW117672   5.936   1.308   1.255
 5591SOL    HW217673   5.974   1.467   1.246
 5592SOL     OW17674   0.828   4.667   3.389
 5592SOL    HW117675   0.810   4.726   3.467
 5592SOL    HW217676   0.862   4.578   3.421
 5593SOL     OW17677   6.604   2.225   0.352
 5593SOL    HW117678   6.693   2.269   0.340
 5593SOL    HW217679   6.566   2.201   0.263
 5594SOL     OW17680   5.492   2.570   5.198
 5594SOL    HW117681   5.529   2.615   5.279
 5594SOL    HW217682   5.565   2.522   5.149
 5595SOL     OW17683   0.691   2.422   5.599
 5595SOL    HW117684   0.711   2.495   5.664
 5595SOL    HW217685   0.610   2.371   5.631
 5596SOL     OW17686   4.486   6.454   2.647
 5596SOL    HW117687   4.538   6.413   2.572
 5596SOL    HW217688   4.391   6.465   2.618
 5597SOL     OW17689   5.245   3.453   3.285
 5597SOL    HW117690   5.199   3.539   3.304
 5597SOL    HW217691   5.291   3.421   3.368
 5598SOL     OW17692   5.364   2.329   4.938
 5598SOL    HW117693   5.322   2.241   4.961
 5598SOL    HW217694   5.339   2.355   4.845
 5599SOL     OW17695   0.465   1.793   3.878
 5599SOL    HW117696   0.472   1.755   3.785
 5599SOL    HW217697   0.557   1.816   3.911
 5600SOL     OW17698   1.356   2.407   4.055
 5600SOL    HW117699   1.397   2.485   4.008
 5600SOL    HW217700   1.257   2.422   4.064
 5601SOL     OW17701   2.155   1.102   5.575
 5601SOL    HW117702   2.083   1.144   5.630
 5601SOL    HW217703   2.154   1.140   5.483
 5602SOL     OW17704   1.139   2.059   0.834
 5602SOL    HW117705   1.127   2.130   0.904
 5602SOL    HW217706   1.211   2.088   0.770
 5603SOL     OW17707   5.791   2.310   6.472
 5603SOL    HW117708   5.771   2.402   6.506
 5603SOL    HW217709   5.705   2.261   6.454
 5604SOL     OW17710   6.173   1.812   5.626
 5604SOL    HW117711   6.128   1.803   5.537
 5604SOL    HW217712   6.149   1.733   5.683
 5605SOL     OW17713   0.496   1.922   4.696
 5605SOL    HW117714   0.445   1.868   4.763
 5605SOL    HW217715   0.594   1.900   4.703
 5606SOL     OW17716   4.402   0.058   1.668
 5606SOL    HW117717   4.465   7.010   1.630
 5606SOL    HW217718   4.447   0.107   1.743
 5607SOL     OW17719   5.856   1.776   1.360
 5607SOL    HW117720   5.845   1.697   1.299
 5607SOL    HW217721   5.924   1.755   1.430
 5608SOL     OW17722   4.012   6.937   5.031
 5608SOL    HW117723   4.004   6.841   5.007
 5608SOL    HW217724   3.944   6.990   4.981
 5609SOL     OW17725   2.630   6.358   6.342
 5609SOL    HW117726   2.662   6.413   6.265
 5609SOL    HW217727   2.682   6.273   6.346
 5610SOL     OW17728   4.737   0.918   0.168
 5610SOL    HW117729   4.768   0.982   0.239
 5610SOL    HW217730   4.745   0.961   0.078
 5611SOL     OW17731   1.831   4.642   3.355
 5611SOL    HW117732   1.752   4.659   3.414
 5611SOL    HW217733   1.824   4.551   3.315
 5612SOL     OW17734   2.702   0.075   5.623
 5612SOL    HW117735   2.632   0.004   5.618
 5612SOL    HW217736   2.774   0.056   5.556
 5613SOL     OW17737   4.081   4.693   1.818
 5613SOL    HW117738   4.105   4.598   1.839
 5613SOL    HW217739   4.024   4.729   1.892
 5614SOL     OW17740   4.807   2.377   3.008
 5614SOL    HW117741   4.875   2.323   2.958
 5614SOL    HW217742   4.783   2.329   3.093
 5615SOL     OW17743   1.625   0.757   0.663
 5615SOL    HW117744   1.605   0.848   0.701
 5615SOL    HW217745   1.717   0.730   0.688
 5616SOL     OW17746   1.885   0.879   4.587
 5616SOL    HW117747   1.906   0.809   4.519
 5616SOL    HW217748   1.806   0.851   4.642
 5617SOL     OW17749   2.058   0.521   4.800
 5617SOL    HW117750   1.988   0.579   4.841
 5617SOL    HW217751   2.050   0.524   4.701
 5618SOL     OW17752   0.333   4.312   3.383
 5618SOL    HW117753   0.353   4.409   3.400
 5618SOL    HW217754   0.249   4.304   3.331
 5619SOL     OW17755   2.418   3.815   5.679
 5619SOL    HW117756   2.336   3.769   5.644
 5619SOL    HW217757   2.495   3.796   5.617
 5620SOL     OW17758   3.408   1.965   6.699
 5620SOL    HW117759   3.308   1.960   6.695
 5620SOL    HW217760   3.437   2.059   6.679
 5621SOL     OW17761   1.652   2.155   5.501
 5621SOL    HW117762   1.570   2.212   5.506
 5621SOL    HW217763   1.717   2.195   5.437
 5622SOL     OW17764   5.593   1.080   6.010
 5622SOL    HW117765   5.590   1.008   6.079
 5622SOL    HW217766   5.501   1.099   5.977
 5623SOL     OW17767   1.301   6.086   6.948
 5623SOL    HW117768   1.384   6.029   6.950
 5623SOL    HW217769   1.229   6.038   6.899
 5624SOL     OW17770   1.222   4.682   3.527
 5624SOL    HW117771   1.138   4.643   3.563
 5624SOL    HW217772   1.238   4.647   3.435
 5625SOL     OW17773   6.728   2.846   4.816
 5625SOL    HW117774   6.789   2.925   4.818
 5625SOL    HW217775   6.704   2.820   4.910
 5626SOL     OW17776   3.730   6.990   4.799
 5626SOL    HW117777   3.702   6.951   4.711
 5626SOL    HW217778   3.650   6.995   4.860
 5627SOL     OW17779   1.394   6.276   1.655
 5627SOL    HW117780   1.309   6.266   1.602
 5627SOL    HW217781   1.437   6.187   1.667
 5628SOL     OW17782   2.029   1.763   4.559
 5628SOL    HW117783   2.052   1.726   4.469
 5628SOL    HW217784   2.005   1.688   4.620
 5629SOL     OW17785   3.440   3.721   2.468
 5629SOL    HW117786   3.499   3.790   2.427
 5629SOL    HW217787   3.368   3.696   2.403
 5630SOL     OW17788   0.435   4.579   1.627
 5630SOL    HW117789   0.352   4.631   1.646
 5630SOL    HW217790   0.483   4.619   1.548
 5631SOL     OW17791   4.555   0.798   7.014
 5631SOL    HW117792   4.627   0.811   0.062
 5631SOL    HW217793   4.483   0.867   0.009
 5632SOL     OW17794   4.245   3.616   6.597
 5632SOL    HW117795   4.239   3.609   6.697
 5632SOL    HW217796   4.200   3.700   6.567
 5633SOL     OW17797   6.450   2.721   4.735
 5633SOL    HW117798   6.532   2.767   4.701
 5633SOL    HW217799   6.466   2.622   4.738
 5634SOL     OW17800   4.180   5.363   4.122
 5634SOL    HW117801   4.160   5.350   4.025
 5634SOL    HW217802   4.131   5.444   4.155
 5635SOL     OW17803   2.693   2.168   4.830
 5635SOL    HW117804   2.741   2.222   4.761
 5635SOL    HW217805   2.598   2.155   4.802
 5636SOL     OW17806   4.217   5.527   3.025
 5636SOL    HW117807   4.304   5.564   2.993
 5636SOL    HW217808   4.143   5.559   2.966
 5637SOL     OW17809   5.635   6.819   3.443
 5637SOL    HW117810   5.706   6.837   3.376
 5637SOL    HW217811   5.621   6.900   3.500
 5638SOL     OW17812   5.270   3.062   6.273
 5638SOL    HW117813   5.246   3.115   6.353
 5638SOL    HW217814   5.260   3.118   6.191
 5639SOL     OW17815   2.010   1.445   6.218
 5639SOL    HW117816   2.007   1.453   6.317
 5639SOL    HW217817   2.067   1.367   6.192
 5640SOL     OW17818   2.761   0.528   3.127
 5640SOL    HW117819   2.782   0.491   3.036
 5640SOL    HW217820   2.816   0.609   3.143
 5641SOL     OW17821   6.311   5.239   4.998
 5641SOL    HW117822   6.285   5.315   5.056
 5641SOL    HW217823   6.315   5.155   5.052
 5642SOL     OW17824   1.179   2.210   6.044
 5642SOL    HW117825   1.209   2.115   6.041
 5642SOL    HW217826   1.213   2.253   6.127
 5643SOL     OW17827   5.837   2.477   4.599
 5643SOL    HW117828   5.744   2.446   4.584
 5643SOL    HW217829   5.875   2.511   4.514
 5644SOL     OW17830   3.643   0.573   6.902
 5644SOL    HW117831   3.580   0.563   6.825
 5644SOL    HW217832   3.725   0.621   6.871
 5645SOL     OW17833   5.640   2.842   4.159
 5645SOL    HW117834   5.685   2.822   4.072
 5645SOL    HW217835   5.572   2.771   4.178
 5646SOL     OW17836   1.878   4.529   2.980
 5646SOL    HW117837   1.834   4.594   2.918
 5646SOL    HW217838   1.954   4.574   3.027
 5647SOL     OW17839   6.741   5.733   2.763
 5647SOL    HW117840   6.785   5.789   2.833
 5647SOL    HW217841   6.802   5.660   2.735
 5648SOL     OW17842   4.120   6.607   2.867
 5648SOL    HW117843   4.097   6.680   2.931
 5648SOL    HW217844   4.201   6.558   2.899
 5649SOL     OW17845   0.526   6.518   3.917
 5649SOL    HW117846   0.577   6.502   4.001
 5649SOL    HW217847   0.585   6.505   3.838
 5650SOL     OW17848   6.635   4.210   7.000
 5650SOL    HW117849   6.697   4.244   0.050
 5650SOL    HW217850   6.683   4.145   6.940
 5651SOL     OW17851   1.566   0.745   1.820
 5651SOL    HW117852   1.599   0.703   1.904
 5651SOL    HW217853   1.489   0.693   1.784
 5652SOL     OW17854   1.278   5.821   1.858
 5652SOL    HW117855   1.219   5.893   1.822
 5652SOL    HW217856   1.286   5.748   1.790
 5653SOL     OW17857   6.965   6.869   0.939
 5653SOL    HW117858   6.963   6.838   0.844
 5653SOL    HW217859   6.929   6.797   0.998
 5654SOL     OW17860   2.435   6.160   5.311
 5654SOL    HW117861   2.348   6.127   5.348
 5654SOL    HW217862   2.505   6.089   5.321
 5655SOL     OW17863   6.530   2.895   4.315
 5655SOL    HW117864   6.537   2.878   4.413
 5655SOL    HW217865   6.462   2.966   4.298
 5656SOL     OW17866   0.115   3.390   7.013
 5656SOL    HW117867   0.153   3.313   6.963
 5656SOL    HW217868   0.077   3.357   0.081
 5657SOL     OW17869   4.263   5.499   5.496
 5657SOL    HW117870   4.171   5.518   5.531
 5657SOL    HW217871   4.328   5.505   5.572
 5658SOL     OW17872   1.999   2.215   5.657
 5658SOL    HW117873   2.081   2.207   5.714
 5658SOL    HW217874   2.009   2.292   5.594
 5659SOL     OW17875   3.945   4.276   6.211
 5659SOL    HW117876   3.957   4.210   6.285
 5659SOL    HW217877   3.850   4.309   6.210
 5660SOL     OW17878   4.263   0.540   6.207
 5660SOL    HW117879   4.218   0.485   6.277
 5660SOL    HW217880   4.196   0.598   6.161
 5661SOL     OW17881   1.121   5.207   5.490
 5661SOL    HW117882   1.105   5.303   5.513
 5661SOL    HW217883   1.167   5.162   5.567
 5662SOL     OW17884   2.571   6.510   2.310
 5662SOL    HW117885   2.670   6.497   2.312
 5662SOL    HW217886   2.528   6.432   2.264
 5663SOL     OW17887   0.908   2.748   0.163
 5663SOL    HW117888   0.924   2.793   0.075
 5663SOL    HW217889   0.820   2.780   0.201
 5664SOL     OW17890   5.147   3.629   4.201
 5664SOL    HW117891   5.079   3.697   4.227
 5664SOL    HW217892   5.177   3.645   4.107
 5665SOL     OW17893   2.097   1.600   1.043
 5665SOL    HW117894   2.176   1.546   1.074
 5665SOL    HW217895   2.017   1.574   1.096
 5666SOL     OW17896   5.216   0.993   4.891
 5666SOL    HW117897   5.142   0.926   4.897
 5666SOL    HW217898   5.183   1.074   4.842
 5667SOL     OW17899   2.236   5.198   4.984
 5667SOL    HW117900   2.323   5.197   5.034
 5667SOL    HW217901   2.240   5.131   4.910
 5668SOL     OW17902   5.394   3.173   3.679
 5668SOL    HW117903   5.487   3.140   3.692
 5668SOL    HW217904   5.329   3.106   3.716
 5669SOL     OW17905   6.443   4.562   6.587
 5669SOL    HW117906   6.346   4.570   6.609
 5669SOL    HW217907   6.456   4.493   6.517
 5670SOL     OW17908   0.494   1.929   2.610
 5670SOL    HW117909   0.487   1.830   2.603
 5670SOL    HW217910   0.404   1.971   2.597
 5671SOL     OW17911   0.033   6.648   3.493
 5671SOL    HW117912   6.967   6.600   3.511
 5671SOL    HW217913   0.104   6.581   3.472
 5672SOL     OW17914   5.046   3.226   5.405
 5672SOL    HW117915   4.992   3.154   5.362
 5672SOL    HW217916   5.010   3.245   5.497
 5673SOL     OW17917   0.620   0.730   0.871
 5673SOL    HW117918   0.622   0.822   0.911
 5673SOL    HW217919   0.599   0.663   0.943
 5674SOL     OW17920   1.982   5.288   5.980
 5674SOL    HW117921   1.942   5.287   5.889
 5674SOL    HW217922   2.050   5.361   5.986
 5675SOL     OW17923   2.378   1.862   0.425
 5675SOL    HW117924   2.355   1.902   0.513
 5675SOL    HW217925   2.395   1.936   0.359
 5676SOL     OW17926   2.809   2.019   1.659
 5676SOL    HW117927   2.828   1.943   1.597
 5676SOL    HW217928   2.745   1.990   1.729
 5677SOL     OW17929   6.607   0.879   1.150
 5677SOL    HW117930   6.699   0.898   1.183
 5677SOL    HW217931   6.578   0.952   1.088
 5678SOL     OW17932   3.256   2.039   2.010
 5678SOL    HW117933   3.196   2.077   1.939
 5678SOL    HW217934   3.201   2.017   2.091
 5679SOL     OW17935   6.040   3.368   5.048
 5679SOL    HW117936   6.131   3.384   5.009
 5679SOL    HW217937   6.044   3.386   5.147
 5680SOL     OW17938   1.609   6.171   5.287
 5680SOL    HW117939   1.653   6.115   5.216
 5680SOL    HW217940   1.638   6.138   5.377
 5681SOL     OW17941   1.166   3.864   3.460
 5681SOL    HW117942   1.232   3.934   3.434
 5681SOL    HW217943   1.214   3.787   3.501
 5682SOL     OW17944   2.024   4.539   1.984
 5682SOL    HW117945   2.006   4.518   2.080
 5682SOL    HW217946   2.121   4.556   1.971
 5683SOL     OW17947   6.130   1.345   6.278
 5683SOL    HW117948   6.105   1.405   6.353
 5683SOL    HW217949   6.211   1.292   6.303
 5684SOL     OW17950   1.924   2.545   5.275
 5684SOL    HW117951   1.855   2.615   5.295
 5684SOL    HW217952   2.009   2.590   5.246
 5685SOL     OW17953   2.640   1.913   3.096
 5685SOL    HW117954   2.641   1.861   3.182
 5685SOL    HW217955   2.712   1.877   3.036
 5686SOL     OW17956   3.741   6.157   6.230
 5686SOL    HW117957   3.798   6.074   6.231
 5686SOL    HW217958   3.647   6.132   6.206
 5687SOL     OW17959   2.099   6.278   6.520
 5687SOL    HW117960   2.084   6.351   6.586
 5687SOL    HW217961   2.181   6.297   6.465
 5688SOL     OW17962   2.417   2.589   3.209
 5688SOL    HW117963   2.317   2.580   3.217
 5688SOL    HW217964   2.440   2.625   3.119
 5689SOL     OW17965   0.568   2.360   1.507
 5689SOL    HW117966   0.537   2.301   1.582
 5689SOL    HW217967   0.547   2.456   1.529
 5690SOL     OW17968   1.672   5.684   0.065
 5690SOL    HW117969   1.655   5.615   0.135
 5690SOL    HW217970   1.752   5.658   0.011
 5691SOL     OW17971   3.124   1.355   2.572
 5691SOL    HW117972   3.042   1.357   2.514
 5691SOL    HW217973   3.116   1.426   2.642
 5692SOL     OW17974   4.636   4.835   1.531
 5692SOL    HW117975   4.559   4.773   1.551
 5692SOL    HW217976   4.707   4.822   1.600
 5693SOL     OW17977   3.930   0.760   1.247
 5693SOL    HW117978   3.846   0.812   1.231
 5693SOL    HW217979   4.002   0.823   1.279
 5694SOL     OW17980   0.954   6.378   1.855
 5694SOL    HW117981   1.027   6.392   1.922
 5694SOL    HW217982   0.924   6.283   1.859
 5695SOL     OW17983   1.546   0.172   0.890
 5695SOL    HW117984   1.489   0.254   0.881
 5695SOL    HW217985   1.540   0.119   0.805
 5696SOL     OW17986   1.563   0.374   3.690
 5696SOL    HW117987   1.605   0.318   3.618
 5696SOL    HW217988   1.622   0.374   3.771
 5697SOL     OW17989   6.498   2.713   0.291
 5697SOL    HW117990   6.407   2.678   0.268
 5697SOL    HW217991   6.512   2.705   0.390
 5698SOL     OW17992   2.392   2.560   3.928
 5698SOL    HW117993   2.414   2.657   3.928
 5698SOL    HW217994   2.454   2.511   3.867
 5699SOL     OW17995   1.998   2.494   2.967
 5699SOL    HW117996   1.922   2.559   2.974
 5699SOL    HW217997   1.963   2.401   2.980
 5700SOL     OW17998   6.258   0.857   3.513
 5700SOL    HW117999   6.300   0.910   3.586
 5700SOL    HW218000   6.164   0.834   3.538
 5701SOL     OW18001   0.394   0.982   0.969
 5701SOL    HW118002   0.432   0.994   0.878
 5701SOL    HW218003   0.443   1.039   1.034
 5702SOL     OW18004   2.528   6.638   4.400
 5702SOL    HW118005   2.527   6.737   4.413
 5702SOL    HW218006   2.568   6.616   4.311
 5703SOL     OW18007   0.119   2.866   6.529
 5703SOL    HW118008   0.192   2.798   6.542
 5703SOL    HW218009   0.065   2.843   6.448
 5704SOL     OW18010   4.965   4.595   3.905
 5704SOL    HW118011   4.869   4.608   3.878
 5704SOL    HW218012   5.000   4.679   3.947
 5705SOL     OW18013   6.156   6.822   5.317
 5705SOL    HW118014   6.170   6.830   5.218
 5705SOL    HW218015   6.107   6.902   5.351
 5706SOL     OW18016   4.763   2.080   0.174
 5706SOL    HW118017   4.696   2.009   0.153
 5706SOL    HW218018   4.823   2.048   0.248
 5707SOL     OW18019   5.839   5.624   2.165
 5707SOL    HW118020   5.806   5.603   2.256
 5707SOL    HW218021   5.763   5.622   2.100
 5708SOL     OW18022   4.400   6.078   2.903
 5708SOL    HW118023   4.436   6.118   2.987
 5708SOL    HW218024   4.469   6.083   2.831
 5709SOL     OW18025   0.423   1.489   2.137
 5709SOL    HW118026   0.452   1.555   2.068
 5709SOL    HW218027   0.385   1.537   2.216
 5710SOL     OW18028   2.863   2.105   1.050
 5710SOL    HW118029   2.882   2.085   0.954
 5710SOL    HW218030   2.932   2.167   1.086
 5711SOL     OW18031   5.492   2.009   1.920
 5711SOL    HW118032   5.553   2.070   1.870
 5711SOL    HW218033   5.546   1.936   1.962
 5712SOL     OW18034   6.357   6.398   1.274
 5712SOL    HW118035   6.383   6.391   1.371
 5712SOL    HW218036   6.276   6.455   1.265
 5713SOL     OW18037   2.600   6.415   0.582
 5713SOL    HW118038   2.540   6.495   0.581
 5713SOL    HW218039   2.652   6.414   0.667
 5714SOL     OW18040   6.083   6.915   1.197
 5714SOL    HW118041   6.020   6.910   1.275
 5714SOL    HW218042   6.177   6.916   1.231
 5715SOL     OW18043   0.468   0.160   1.419
 5715SOL    HW118044   0.417   0.228   1.472
 5715SOL    HW218045   0.487   0.080   1.477
 5716SOL     OW18046   6.759   4.931   5.786
 5716SOL    HW118047   6.739   5.016   5.738
 5716SOL    HW218048   6.673   4.886   5.810
 5717SOL     OW18049   1.218   5.194   3.022
 5717SOL    HW118050   1.138   5.136   3.040
 5717SOL    HW218051   1.301   5.138   3.024
 5718SOL     OW18052   0.555   3.544   0.284
 5718SOL    HW118053   0.528   3.461   0.233
 5718SOL    HW218054   0.631   3.589   0.237
 5719SOL     OW18055   2.740   3.710   1.062
 5719SOL    HW118056   2.784   3.633   1.017
 5719SOL    HW218057   2.641   3.700   1.059
 5720SOL     OW18058   2.521   4.489   6.254
 5720SOL    HW118059   2.423   4.473   6.240
 5720SOL    HW218060   2.571   4.403   6.239
 5721SOL     OW18061   3.227   3.989   0.636
 5721SOL    HW118062   3.300   4.056   0.651
 5721SOL    HW218063   3.213   3.975   0.538
 5722SOL     OW18064   1.132   1.242   5.994
 5722SOL    HW118065   1.205   1.241   5.926
 5722SOL    HW218066   1.070   1.165   5.978
 5723SOL     OW18067   4.447   3.225   6.782
 5723SOL    HW118068   4.488   3.135   6.766
 5723SOL    HW218069   4.464   3.284   6.704
 5724SOL     OW18070   6.383   2.760   4.071
 5724SOL    HW118071   6.416   2.806   4.153
 5724SOL    HW218072   6.348   2.670   4.094
 5725SOL     OW18073   6.844   3.991   4.078
 5725SOL    HW118074   6.929   4.039   4.102
 5725SOL    HW218075   6.777   4.057   4.045
 5726SOL     OW18076   5.156   4.555   2.514
 5726SOL    HW118077   5.121   4.580   2.424
 5726SOL    HW218078   5.099   4.482   2.553
 5727SOL     OW18079   0.639   2.218   5.052
 5727SOL    HW118080   0.645   2.211   5.151
 5727SOL    HW218081   0.721   2.179   5.010
 5728SOL     OW18082   4.888   6.617   5.114
 5728SOL    HW118083   4.874   6.631   5.212
 5728SOL    HW218084   4.804   6.638   5.065
 5729SOL     OW18085   2.079   2.178   5.316
 5729SOL    HW118086   2.080   2.253   5.382
 5729SOL    HW218087   2.172   2.143   5.303
 5730SOL     OW18088   6.663   3.982   4.767
 5730SOL    HW118089   6.611   3.952   4.847
 5730SOL    HW218090   6.624   4.068   4.733
 5731SOL     OW18091   0.267   6.591   2.348
 5731SOL    HW118092   0.343   6.526   2.351
 5731SOL    HW218093   0.298   6.677   2.307
 5732SOL     OW18094   0.482   0.195   3.419
 5732SOL    HW118095   0.429   0.111   3.412
 5732SOL    HW218096   0.575   0.178   3.388
 5733SOL     OW18097   3.456   0.675   5.655
 5733SOL    HW118098   3.481   0.709   5.745
 5733SOL    HW218099   3.446   0.751   5.591
 5734SOL     OW18100   2.272   6.528   2.833
 5734SOL    HW118101   2.330   6.577   2.768
 5734SOL    HW218102   2.303   6.433   2.840
 5735SOL     OW18103   2.666   1.237   1.822
 5735SOL    HW118104   2.688   1.322   1.871
 5735SOL    HW218105   2.748   1.205   1.774
 5736SOL     OW18106   1.340   5.240   6.702
 5736SOL    HW118107   1.303   5.312   6.760
 5736SOL    HW218108   1.406   5.279   6.638
 5737SOL     OW18109   5.177   4.364   0.799
 5737SOL    HW118110   5.203   4.449   0.752
 5737SOL    HW218111   5.201   4.371   0.896
 5738SOL     OW18112   1.666   3.746   6.341
 5738SOL    HW118113   1.608   3.800   6.402
 5738SOL    HW218114   1.759   3.744   6.376
 5739SOL     OW18115   0.712   1.207   1.090
 5739SOL    HW118116   0.736   1.303   1.074
 5739SOL    HW218117   0.624   1.201   1.136
 5740SOL     OW18118   3.962   5.635   6.273
 5740SOL    HW118119   3.863   5.646   6.261
 5740SOL    HW218120   3.980   5.552   6.326
 5741SOL     OW18121   0.429   4.765   3.269
 5741SOL    HW118122   0.484   4.843   3.241
 5741SOL    HW218123   0.340   4.797   3.303
 5742SOL     OW18124   6.608   6.459   4.457
 5742SOL    HW118125   6.697   6.414   4.446
 5742SOL    HW218126   6.545   6.398   4.504
 5743SOL     OW18127   1.820   6.737   5.101
 5743SOL    HW118128   1.770   6.661   5.144
 5743SOL    HW218129   1.756   6.790   5.045
 5744SOL     OW18130   5.789   6.496   2.028
 5744SOL    HW118131   5.759   6.579   2.075
 5744SOL    HW218132   5.812   6.518   1.933
 5745SOL     OW18133   1.282   1.727   3.716
 5745SOL    HW118134   1.264   1.817   3.756
 5745SOL    HW218135   1.212   1.707   3.648
 5746SOL     OW18136   6.083   4.009   0.009
 5746SOL    HW118137   5.985   4.018   7.016
 5746SOL    HW218138   6.103   3.993   0.105
 5747SOL     OW18139   1.234   6.163   2.964
 5747SOL    HW118140   1.271   6.143   3.055
 5747SOL    HW218141   1.290   6.234   2.920
 5748SOL     OW18142   2.528   6.280   3.065
 5748SOL    HW118143   2.477   6.194   3.064
 5748SOL    HW218144   2.549   6.307   2.971
 5749SOL     OW18145   2.275   1.744   3.578
 5749SOL    HW118146   2.297   1.723   3.673
 5749SOL    HW218147   2.321   1.678   3.518
 5750SOL     OW18148   6.385   5.618   2.513
 5750SOL    HW118149   6.287   5.639   2.511
 5750SOL    HW218150   6.402   5.533   2.463
 5751SOL     OW18151   2.511   3.534   6.502
 5751SOL    HW118152   2.591   3.499   6.453
 5751SOL    HW218153   2.530   3.533   6.601
 5752SOL     OW18154   6.460   0.528   6.894
 5752SOL    HW118155   6.490   0.620   6.920
 5752SOL    HW218156   6.503   0.461   6.955
 5753SOL     OW18157   3.837   2.263   0.503
 5753SOL    HW118158   3.839   2.335   0.573
 5753SOL    HW218159   3.918   2.204   0.514
 5754SOL     OW18160   6.051   4.608   0.912
 5754SOL    HW118161   6.096   4.530   0.868
 5754SOL    HW218162   6.081   4.615   1.007
 5755SOL     OW18163   3.527   3.752   1.612
 5755SOL    HW118164   3.534   3.664   1.566
 5755SOL    HW218165   3.579   3.820   1.561
 5756SOL     OW18166   0.259   6.484   4.318
 5756SOL    HW118167   0.251   6.526   4.228
 5756SOL    HW218168   0.328   6.411   4.314
 5757SOL     OW18169   0.532   4.953   1.300
 5757SOL    HW118170   0.498   4.898   1.224
 5757SOL    HW218171   0.564   5.041   1.266
 5758SOL     OW18172   0.914   1.699   5.665
 5758SOL    HW118173   0.940   1.613   5.622
 5758SOL    HW218174   0.836   1.738   5.616
 5759SOL     OW18175   5.239   2.095   5.017
 5759SOL    HW118176   5.321   2.045   5.045
 5759SOL    HW218177   5.167   2.081   5.085
 5760SOL     OW18178   1.682   5.594   1.836
 5760SOL    HW118179   1.778   5.596   1.807
 5760SOL    HW218180   1.673   5.532   1.914
 5761SOL     OW18181   4.770   0.211   5.048
 5761SOL    HW118182   4.855   0.238   5.093
 5761SOL    HW218183   4.788   0.130   4.992
 5762SOL     OW18184   5.382   6.314   1.265
 5762SOL    HW118185   5.458   6.249   1.265
 5762SOL    HW218186   5.407   6.395   1.317
 5763SOL     OW18187   1.049   1.475   1.201
 5763SOL    HW118188   1.048   1.507   1.295
 5763SOL    HW218189   1.104   1.537   1.145
 5764SOL     OW18190   4.709   3.586   5.530
 5764SOL    HW118191   4.803   3.599   5.561
 5764SOL    HW218192   4.697   3.490   5.501
 5765SOL     OW18193   5.540   4.738   0.652
 5765SOL    HW118194   5.611   4.751   0.583
 5765SOL    HW218195   5.484   4.820   0.658
 5766SOL     OW18196   3.036   1.013   3.898
 5766SOL    HW118197   2.965   0.968   3.953
 5766SOL    HW218198   2.996   1.088   3.845
 5767SOL     OW18199   6.966   6.612   0.971
 5767SOL    HW118200   6.900   6.554   1.019
 5767SOL    HW218201   0.020   6.555   0.935
 5768SOL     OW18202   6.434   0.680   2.763
 5768SOL    HW118203   6.352   0.642   2.806
 5768SOL    HW218204   6.502   0.608   2.750
 5769SOL     OW18205   2.313   5.628   3.891
 5769SOL    HW118206   2.389   5.589   3.839
 5769SOL    HW218207   2.262   5.692   3.834
 5770SOL     OW18208   6.116   0.129   1.588
 5770SOL    HW118209   6.112   0.031   1.606
 5770SOL    HW218210   6.057   0.151   1.510
 5771SOL     OW18211   0.768   1.561   2.480
 5771SOL    HW118212   0.725   1.478   2.514
 5771SOL    HW218213   0.722   1.591   2.396
 5772SOL     OW18214   6.591   4.523   6.886
 5772SOL    HW118215   6.592   4.432   6.927
 5772SOL    HW218216   6.671   4.535   6.827
 5773SOL     OW18217   5.906   5.692   4.080
 5773SOL    HW118218   5.882   5.774   4.131
 5773SOL    HW218219   5.901   5.612   4.140
 5774SOL     OW18220   2.674   5.479   2.918
 5774SOL    HW118221   2.712   5.529   2.840
 5774SOL    HW218222   2.577   5.459   2.901
 5775SOL     OW18223   0.007   0.360   0.345
 5775SOL    HW118224   6.961   0.339   0.272
 5775SOL    HW218225   0.030   0.276   0.394
 5776SOL     OW18226   5.216   1.225   6.159
 5776SOL    HW118227   5.122   1.260   6.153
 5776SOL    HW218228   5.279   1.298   6.135
 5777SOL     OW18229   5.975   0.551   5.094
 5777SOL    HW118230   5.890   0.596   5.065
 5777SOL    HW218231   6.042   0.620   5.121
 5778SOL     OW18232   2.623   0.030   3.765
 5778SOL    HW118233   2.656   0.118   3.797
 5778SOL    HW218234   2.623   0.028   3.665
 5779SOL     OW18235   4.254   1.080   2.208
 5779SOL    HW118236   4.226   1.133   2.288
 5779SOL    HW218237   4.250   1.138   2.126
 5780SOL     OW18238   6.065   3.591   1.387
 5780SOL    HW118239   6.129   3.669   1.388
 5780SOL    HW218240   6.069   3.544   1.476
 5781SOL     OW18241   2.246   4.889   4.984
 5781SOL    HW118242   2.313   4.913   4.914
 5781SOL    HW218243   2.157   4.875   4.942
 5782SOL     OW18244   2.888   1.089   3.110
 5782SOL    HW118245   2.856   1.173   3.153
 5782SOL    HW218246   2.986   1.097   3.089
 5783SOL     OW18247   2.496   6.592   1.169
 5783SOL    HW118248   2.509   6.691   1.160
 5783SOL    HW218249   2.403   6.568   1.141
 5784SOL     OW18250   2.005   5.426   0.161
 5784SOL    HW118251   2.007   5.478   0.246
 5784SOL    HW218252   2.097   5.389   0.143
 5785SOL     OW18253   2.416   1.577   0.513
 5785SOL    HW118254   2.401   1.672   0.485
 5785SOL    HW218255   2.453   1.576   0.606
 5786SOL     OW18256   0.900   3.433   0.295
 5786SOL    HW118257   0.995   3.461   0.285
 5786SOL    HW218258   0.840   3.505   0.260
 5787SOL     OW18259   0.346   3.239   5.639
 5787SOL    HW118260   0.283   3.276   5.571
 5787SOL    HW218261   0.423   3.194   5.594
 5788SOL     OW18262   1.616   2.654   2.122
 5788SOL    HW118263   1.561   2.574   2.103
 5788SOL    HW218264   1.710   2.626   2.143
 5789SOL     OW18265   3.224   5.174   6.945
 5789SOL    HW118266   3.292   5.164   7.018
 5789SOL    HW218267   3.143   5.219   6.981
 5790SOL     OW18268   6.038   5.627   3.466
 5790SOL    HW118269   6.030   5.705   3.404
 5790SOL    HW218270   5.948   5.587   3.481
 5791SOL     OW18271   4.137   1.609   1.399
 5791SOL    HW118272   4.130   1.699   1.356
 5791SOL    HW218273   4.102   1.614   1.493
 5792SOL     OW18274   4.282   2.220   2.814
 5792SOL    HW118275   4.353   2.290   2.806
 5792SOL    HW218276   4.250   2.194   2.723
 5793SOL     OW18277   3.975   2.565   6.632
 5793SOL    HW118278   3.926   2.534   6.550
 5793SOL    HW218279   3.909   2.586   6.704
 5794SOL     OW18280   3.478   6.402   6.963
 5794SOL    HW118281   3.485   6.493   6.921
 5794SOL    HW218282   3.391   6.396   7.012
 5795SOL     OW18283   2.041   6.019   1.799
 5795SOL    HW118284   2.105   5.945   1.820
 5795SOL    HW218285   1.990   6.044   1.882
 5796SOL     OW18286   4.945   0.651   6.604
 5796SOL    HW118287   4.872   0.593   6.569
 5796SOL    HW218288   4.910   0.743   6.621
 5797SOL     OW18289   6.920   2.702   0.689
 5797SOL    HW118290   6.991   2.756   0.733
 5797SOL    HW218291   6.839   2.698   0.749
 5798SOL     OW18292   1.634   3.609   4.384
 5798SOL    HW118293   1.719   3.604   4.331
 5798SOL    HW218294   1.569   3.668   4.337
 5799SOL     OW18295   2.917   0.424   3.660
 5799SOL    HW118296   2.861   0.486   3.606
 5799SOL    HW218297   2.929   0.337   3.611
 5800SOL     OW18298   1.282   0.345   1.354
 5800SOL    HW118299   1.350   0.412   1.325
 5800SOL    HW218300   1.311   0.303   1.440
 5801SOL     OW18301   1.950   1.663   2.229
 5801SOL    HW118302   2.043   1.630   2.217
 5801SOL    HW218303   1.948   1.762   2.217
 5802SOL     OW18304   0.827   0.099   2.070
 5802SOL    HW118305   0.841   0.167   1.999
 5802SOL    HW218306   0.822   0.144   2.159
 5803SOL     OW18307   0.571   6.095   4.430
 5803SOL    HW118308   0.653   6.101   4.488
 5803SOL    HW218309   0.537   6.187   4.412
 5804SOL     OW18310   6.060   1.901   2.817
 5804SOL    HW118311   6.048   1.976   2.752
 5804SOL    HW218312   5.970   1.875   2.854
 5805SOL     OW18313   1.322   2.835   2.059
 5805SOL    HW118314   1.419   2.847   2.039
 5805SOL    HW218315   1.285   2.917   2.101
 5806SOL     OW18316   6.546   4.032   1.950
 5806SOL    HW118317   6.623   4.061   1.892
 5806SOL    HW218318   6.563   4.061   2.044
 5807SOL     OW18319   1.514   1.200   2.268
 5807SOL    HW118320   1.471   1.283   2.231
 5807SOL    HW218321   1.560   1.222   2.353
 5808SOL     OW18322   6.519   0.610   5.774
 5808SOL    HW118323   6.571   0.631   5.691
 5808SOL    HW218324   6.511   0.693   5.830
 5809SOL     OW18325   0.293   2.857   4.695
 5809SOL    HW118326   0.214   2.810   4.656
 5809SOL    HW218327   0.359   2.876   4.623
 5810SOL     OW18328   3.373   6.461   5.212
 5810SOL    HW118329   3.329   6.409   5.139
 5810SOL    HW218330   3.472   6.449   5.206
 5811SOL     OW18331   3.988   4.267   6.564
 5811SOL    HW118332   3.891   4.251   6.543
 5811SOL    HW218333   3.995   4.332   6.640
 5812SOL     OW18334   5.757   2.802   5.833
 5812SOL    HW118335   5.691   2.729   5.846
 5812SOL    HW218336   5.746   2.870   5.905
 5813SOL     OW18337   4.997   5.544   0.693
 5813SOL    HW118338   4.911   5.508   0.730
 5813SOL    HW218339   4.982   5.637   0.659
 5814SOL     OW18340   5.913   1.339   1.890
 5814SOL    HW118341   5.897   1.241   1.905
 5814SOL    HW218342   5.928   1.384   1.978
 5815SOL     OW18343   6.249   3.189   4.081
 5815SOL    HW118344   6.224   3.184   3.984
 5815SOL    HW218345   6.194   3.259   4.126
 5816SOL     OW18346   0.357   3.768   2.529
 5816SOL    HW118347   0.286   3.699   2.512
 5816SOL    HW218348   0.410   3.743   2.610
 5817SOL     OW18349   6.006   3.739   3.211
 5817SOL    HW118350   6.013   3.838   3.204
 5817SOL    HW218351   5.957   3.704   3.131
 5818SOL     OW18352   2.721   0.384   4.333
 5818SOL    HW118353   2.708   0.405   4.237
 5818SOL    HW218354   2.789   0.311   4.342
 5819SOL     OW18355   3.870   4.068   0.567
 5819SOL    HW118356   3.956   4.029   0.533
 5819SOL    HW218357   3.804   3.994   0.581
 5820SOL     OW18358   6.217   6.466   2.484
 5820SOL    HW118359   6.163   6.399   2.536
 5820SOL    HW218360   6.273   6.520   2.547
 5821SOL     OW18361   6.846   0.321   1.822
 5821SOL    HW118362   6.885   0.271   1.899
 5821SOL    HW218363   6.764   0.370   1.853
 5822SOL     OW18364   1.499   4.350   3.187
 5822SOL    HW118365   1.408   4.379   3.218
 5822SOL    HW218366   1.493   4.261   3.143
 5823SOL     OW18367   1.746   6.526   3.797
 5823SOL    HW118368   1.697   6.527   3.884
 5823SOL    HW218369   1.681   6.510   3.723
 5824SOL     OW18370   1.570   6.765   2.280
 5824SOL    HW118371   1.661   6.803   2.296
 5824SOL    HW218372   1.513   6.833   2.234
 5825SOL     OW18373   4.734   1.803   3.797
 5825SOL    HW118374   4.724   1.727   3.732
 5825SOL    HW218375   4.657   1.866   3.786
 5826SOL     OW18376   1.441   0.004   5.445
 5826SOL    HW118377   1.368   6.956   5.432
 5826SOL    HW218378   1.401   0.096   5.446
 5827SOL     OW18379   2.166   4.304   3.668
 5827SOL    HW118380   2.144   4.232   3.733
 5827SOL    HW218381   2.127   4.280   3.578
 5828SOL     OW18382   4.299   0.837   5.419
 5828SOL    HW118383   4.349   0.860   5.502
 5828SOL    HW218384   4.360   0.789   5.356
 5829SOL     OW18385   2.213   0.420   2.874
 5829SOL    HW118386   2.295   0.444   2.823
 5829SOL    HW218387   2.162   0.350   2.825
 5830SOL     OW18388   4.288   5.187   4.294
 5830SOL    HW118389   4.251   5.249   4.225
 5830SOL    HW218390   4.325   5.105   4.249
 5831SOL     OW18391   1.904   2.052   5.138
 5831SOL    HW118392   1.876   2.124   5.075
 5831SOL    HW218393   1.981   2.085   5.194
 5832SOL     OW18394   3.021   5.324   2.052
 5832SOL    HW118395   2.944   5.355   1.997
 5832SOL    HW218396   2.988   5.269   2.128
 5833SOL     OW18397   3.703   5.558   0.355
 5833SOL    HW118398   3.645   5.635   0.383
 5833SOL    HW218399   3.646   5.479   0.333
 5834SOL     OW18400   6.411   2.919   6.393
 5834SOL    HW118401   6.501   2.920   6.437
 5834SOL    HW218402   6.384   3.013   6.371
 5835SOL     OW18403   4.901   1.727   3.101
 5835SOL    HW118404   4.908   1.654   3.033
 5835SOL    HW218405   4.859   1.808   3.060
 5836SOL     OW18406   5.300   5.976   2.397
 5836SOL    HW118407   5.373   5.911   2.376
 5836SOL    HW218408   5.309   6.006   2.492
 5837SOL     OW18409   2.714   5.033   6.243
 5837SOL    HW118410   2.662   5.013   6.327
 5837SOL    HW218411   2.680   5.119   6.204
 5838SOL     OW18412   4.131   2.769   0.332
 5838SOL    HW118413   4.225   2.741   0.350
 5838SOL    HW218414   4.098   2.826   0.408
 5839SOL     OW18415   1.766   2.341   0.763
 5839SOL    HW118416   1.779   2.398   0.844
 5839SOL    HW218417   1.675   2.300   0.766
 5840SOL     OW18418   0.303   3.644   3.593
 5840SOL    HW118419   0.204   3.658   3.603
 5840SOL    HW218420   0.321   3.551   3.561
 5841SOL     OW18421   5.296   1.250   0.732
 5841SOL    HW118422   5.240   1.178   0.774
 5841SOL    HW218423   5.389   1.246   0.768
 5842SOL     OW18424   2.769   1.646   1.069
 5842SOL    HW118425   2.691   1.609   1.119
 5842SOL    HW218426   2.765   1.616   0.974
 5843SOL     OW18427   3.282   2.999   0.791
 5843SOL    HW118428   3.379   3.001   0.765
 5843SOL    HW218429   3.256   2.906   0.815
 5844SOL     OW18430   0.317   5.824   4.930
 5844SOL    HW118431   0.261   5.827   5.013
 5844SOL    HW218432   0.274   5.878   4.858
 5845SOL     OW18433   1.399   6.873   2.532
 5845SOL    HW118434   1.494   6.872   2.499
 5845SOL    HW218435   1.348   6.801   2.485
 5846SOL     OW18436   0.675   3.893   5.381
 5846SOL    HW118437   0.676   3.927   5.287
 5846SOL    HW218438   0.648   3.967   5.443
 5847SOL     OW18439   1.479   4.072   6.301
 5847SOL    HW118440   1.485   4.025   6.213
 5847SOL    HW218441   1.560   4.130   6.314
 5848SOL     OW18442   1.951   5.584   1.778
 5848SOL    HW118443   2.002   5.571   1.693
 5848SOL    HW218444   2.014   5.581   1.855
 5849SOL     OW18445   2.905   5.850   6.300
 5849SOL    HW118446   2.891   5.793   6.380
 5849SOL    HW218447   2.903   5.946   6.326
 5850SOL     OW18448   0.614   1.427   1.879
 5850SOL    HW118449   0.570   1.510   1.913
 5850SOL    HW218450   0.666   1.449   1.797
 5851SOL     OW18451   6.248   3.732   4.590
 5851SOL    HW118452   6.241   3.763   4.495
 5851SOL    HW218453   6.293   3.642   4.593
 5852SOL     OW18454   4.959   4.114   2.413
 5852SOL    HW118455   4.927   4.168   2.336
 5852SOL    HW218456   5.005   4.032   2.380
 5853SOL     OW18457   4.661   4.590   6.191
 5853SOL    HW118458   4.633   4.600   6.095
 5853SOL    HW218459   4.615   4.658   6.247
 5854SOL     OW18460   3.508   4.930   5.487
 5854SOL    HW118461   3.439   4.915   5.416
 5854SOL    HW218462   3.567   4.849   5.494
 5855SOL     OW18463   2.401   2.622   2.896
 5855SOL    HW118464   2.373   2.716   2.877
 5855SOL    HW218465   2.330   2.559   2.863
 5856SOL     OW18466   1.025   6.314   2.949
 5856SOL    HW118467   1.101   6.258   2.983
 5856SOL    HW218468   1.042   6.337   2.853
 5857SOL     OW18469   5.463   5.001   6.757
 5857SOL    HW118470   5.468   4.938   6.679
 5857SOL    HW218471   5.418   5.086   6.728
 5858SOL     OW18472   1.690   0.818   2.836
 5858SOL    HW118473   1.632   0.801   2.916
 5858SOL    HW218474   1.674   0.911   2.802
 5859SOL     OW18475   5.489   5.702   1.487
 5859SOL    HW118476   5.474   5.678   1.391
 5859SOL    HW218477   5.419   5.659   1.544
 5860SOL     OW18478   0.644   4.374   3.021
 5860SOL    HW118479   0.682   4.467   3.023
 5860SOL    HW218480   0.641   4.337   3.113
 5861SOL     OW18481   4.851   0.851   5.482
 5861SOL    HW118482   4.893   0.763   5.507
 5861SOL    HW218483   4.861   0.915   5.558
 5862SOL     OW18484   6.135   5.284   2.931
 5862SOL    HW118485   6.059   5.349   2.940
 5862SOL    HW218486   6.221   5.331   2.954
 5863SOL     OW18487   3.909   6.932   6.816
 5863SOL    HW118488   4.005   6.959   6.820
 5863SOL    HW218489   3.860   6.971   6.894
 5864SOL     OW18490   3.499   4.007   2.319
 5864SOL    HW118491   3.525   4.017   2.223
 5864SOL    HW218492   3.400   4.020   2.329
 5865SOL     OW18493   6.687   0.361   6.486
 5865SOL    HW118494   6.722   0.292   6.550
 5865SOL    HW218495   6.595   0.335   6.456
 5866SOL     OW18496   3.334   2.920   2.731
 5866SOL    HW118497   3.334   2.924   2.831
 5866SOL    HW218498   3.429   2.922   2.698
 5867SOL     OW18499   2.818   1.683   1.569
 5867SOL    HW118500   2.901   1.723   1.609
 5867SOL    HW218501   2.764   1.754   1.525
 5868SOL     OW18502   0.755   1.176   6.583
 5868SOL    HW118503   0.769   1.252   6.647
 5868SOL    HW218504   0.805   1.096   6.616
 5869SOL     OW18505   1.153   5.888   3.589
 5869SOL    HW118506   1.163   5.893   3.489
 5869SOL    HW218507   1.167   5.794   3.619
 5870SOL     OW18508   3.661   6.257   4.711
 5870SOL    HW118509   3.610   6.220   4.633
 5870SOL    HW218510   3.601   6.316   4.765
 5871SOL     OW18511   3.375   3.181   3.823
 5871SOL    HW118512   3.330   3.267   3.847
 5871SOL    HW218513   3.336   3.147   3.737
 5872SOL     OW18514   4.904   5.997   0.415
 5872SOL    HW118515   4.893   5.900   0.438
 5872SOL    HW218516   4.820   6.031   0.374
 5873SOL     OW18517   4.311   5.975   2.088
 5873SOL    HW118518   4.396   6.024   2.065
 5873SOL    HW218519   4.253   6.035   2.144
 5874SOL     OW18520   1.118   4.042   5.669
 5874SOL    HW118521   1.042   4.007   5.613
 5874SOL    HW218522   1.091   4.129   5.710
 5875SOL     OW18523   3.684   1.987   1.450
 5875SOL    HW118524   3.750   1.987   1.526
 5875SOL    HW218525   3.592   1.997   1.486
 5876SOL     OW18526   3.350   3.134   1.551
 5876SOL    HW118527   3.271   3.090   1.509
 5876SOL    HW218528   3.322   3.222   1.591
 5877SOL     OW18529   5.826   4.597   1.282
 5877SOL    HW118530   5.749   4.559   1.232
 5877SOL    HW218531   5.801   4.686   1.321
 5878SOL     OW18532   2.082   4.390   2.586
 5878SOL    HW118533   2.169   4.390   2.633
 5878SOL    HW218534   2.046   4.484   2.581
 5879SOL     OW18535   0.784   4.273   4.029
 5879SOL    HW118536   0.783   4.173   4.024
 5879SOL    HW218537   0.698   4.305   4.069
 5880SOL     OW18538   3.441   5.622   0.492
 5880SOL    HW118539   3.350   5.661   0.475
 5880SOL    HW218540   3.448   5.532   0.449
 5881SOL     OW18541   1.500   5.650   4.336
 5881SOL    HW118542   1.479   5.706   4.417
 5881SOL    HW218543   1.595   5.619   4.341
 5882SOL     OW18544   4.961   0.835   2.801
 5882SOL    HW118545   5.045   0.781   2.804
 5882SOL    HW218546   4.942   0.863   2.707
 5883SOL     OW18547   0.773   3.443   5.302
 5883SOL    HW118548   0.797   3.443   5.399
 5883SOL    HW218549   0.845   3.487   5.249
 5884SOL     OW18550   0.438   1.108   3.718
 5884SOL    HW118551   0.422   1.161   3.802
 5884SOL    HW218552   0.375   1.139   3.647
 5885SOL     OW18553   5.642   6.926   1.119
 5885SOL    HW118554   5.734   6.955   1.091
 5885SOL    HW218555   5.577   7.000   1.103
 5886SOL     OW18556   0.334   0.846   6.462
 5886SOL    HW118557   0.299   0.793   6.384
 5886SOL    HW218558   0.347   0.785   6.540
 5887SOL     OW18559   4.618   6.501   3.328
 5887SOL    HW118560   4.610   6.566   3.253
 5887SOL    HW218561   4.663   6.545   3.405
 5888SOL     OW18562   1.000   0.649   2.838
 5888SOL    HW118563   0.905   0.661   2.867
 5888SOL    HW218564   1.052   0.607   2.912
 5889SOL     OW18565   2.826   0.240   0.116
 5889SOL    HW118566   2.851   0.231   0.212
 5889SOL    HW218567   2.901   0.207   0.059
 5890SOL     OW18568   3.438   4.887   5.950
 5890SOL    HW118569   3.344   4.883   5.916
 5890SOL    HW218570   3.500   4.901   5.873
 5891SOL     OW18571   2.057   3.228   6.803
 5891SOL    HW118572   2.008   3.259   6.722
 5891SOL    HW218573   2.133   3.290   6.821
 5892SOL     OW18574   1.553   0.102   2.714
 5892SOL    HW118575   1.464   0.085   2.757
 5892SOL    HW218576   1.594   0.015   2.687
 5893SOL     OW18577   2.014   0.876   3.218
 5893SOL    HW118578   2.063   0.917   3.141
 5893SOL    HW218579   1.926   0.922   3.230
 5894SOL     OW18580   0.646   3.486   3.670
 5894SOL    HW118581   0.623   3.533   3.584
 5894SOL    HW218582   0.682   3.395   3.649
 5895SOL     OW18583   5.170   3.794   3.719
 5895SOL    HW118584   5.149   3.816   3.624
 5895SOL    HW218585   5.158   3.876   3.776
 5896SOL     OW18586   4.536   1.851   5.835
 5896SOL    HW118587   4.493   1.766   5.865
 5896SOL    HW218588   4.610   1.831   5.770
 5897SOL     OW18589   4.310   0.295   1.494
 5897SOL    HW118590   4.328   0.210   1.543
 5897SOL    HW218591   4.382   0.311   1.427
 5898SOL     OW18592   2.082   6.782   2.692
 5898SOL    HW118593   1.999   6.737   2.724
 5898SOL    HW218594   2.105   6.858   2.753
 5899SOL     OW18595   5.711   0.235   3.753
 5899SOL    HW118596   5.783   0.166   3.751
 5899SOL    HW218597   5.734   0.306   3.820
 5900SOL     OW18598   4.079   5.024   2.199
 5900SOL    HW118599   4.079   4.926   2.181
 5900SOL    HW218600   4.100   5.041   2.296
 5901SOL     OW18601   3.358   6.734   5.221
 5901SOL    HW118602   3.343   6.637   5.202
 5901SOL    HW218603   3.289   6.766   5.286
 5902SOL     OW18604   6.335   1.038   0.079
 5902SOL    HW118605   6.433   1.029   0.065
 5902SOL    HW218606   6.309   1.134   0.077
 5903SOL     OW18607   0.322   3.142   6.510
 5903SOL    HW118608   0.313   3.044   6.492
 5903SOL    HW218609   0.323   3.192   6.423
 5904SOL     OW18610   0.375   4.049   2.527
 5904SOL    HW118611   0.362   3.952   2.549
 5904SOL    HW218612   0.333   4.068   2.438
 5905SOL     OW18613   6.422   4.925   1.929
 5905SOL    HW118614   6.473   4.890   1.850
 5905SOL    HW218615   6.327   4.941   1.904
 5906SOL     OW18616   6.942   1.341   4.222
 5906SOL    HW118617   6.958   1.275   4.296
 5906SOL    HW218618   6.863   1.398   4.246
 5907SOL     OW18619   1.833   6.850   2.330
 5907SOL    HW118620   1.864   6.936   2.371
 5907SOL    HW218621   1.869   6.844   2.237
 5908SOL     OW18622   0.235   2.432   6.221
 5908SOL    HW118623   0.255   2.348   6.172
 5908SOL    HW218624   0.144   2.465   6.196
 5909SOL     OW18625   6.958   4.063   1.102
 5909SOL    HW118626   6.990   4.052   1.196
 5909SOL    HW218627   0.014   4.051   1.039
 5910SOL     OW18628   2.092   1.749   3.864
 5910SOL    HW118629   2.071   1.652   3.880
 5910SOL    HW218630   2.053   1.803   3.938
 5911SOL     OW18631   0.028   5.808   6.432
 5911SOL    HW118632   6.978   5.837   6.496
 5911SOL    HW218633   0.103   5.875   6.431
 5912SOL     OW18634   0.985   0.763   3.920
 5912SOL    HW118635   0.992   0.675   3.967
 5912SOL    HW218636   0.888   0.785   3.905
 5913SOL     OW18637   6.076   1.710   6.922
 5913SOL    HW118638   6.061   1.667   7.011
 5913SOL    HW218639   6.173   1.732   6.911
 5914SOL     OW18640   0.673   6.352   0.377
 5914SOL    HW118641   0.631   6.442   0.362
 5914SOL    HW218642   0.601   6.285   0.397
 5915SOL     OW18643   4.190   1.689   6.125
 5915SOL    HW118644   4.160   1.777   6.163
 5915SOL    HW218645   4.189   1.620   6.197
 5916SOL     OW18646   0.812   6.473   2.092
 5916SOL    HW118647   0.760   6.407   2.039
 5916SOL    HW218648   0.904   6.481   2.053
 5917SOL     OW18649   3.390   4.543   0.332
 5917SOL    HW118650   3.360   4.632   0.298
 5917SOL    HW218651   3.344   4.523   0.418
 5918SOL     OW18652   2.797   6.354   5.371
 5918SOL    HW118653   2.854   6.326   5.449
 5918SOL    HW218654   2.701   6.353   5.398
 5919SOL     OW18655   3.375   3.534   4.655
 5919SOL    HW118656   3.448   3.554   4.589
 5919SOL    HW218657   3.299   3.598   4.640
 5920SOL     OW18658   5.746   0.362   5.715
 5920SOL    HW118659   5.836   0.368   5.758
 5920SOL    HW218660   5.756   0.361   5.616
 5921SOL     OW18661   2.762   4.143   6.638
 5921SOL    HW118662   2.731   4.236   6.655
 5921SOL    HW218663   2.693   4.094   6.586
 5922SOL     OW18664   5.020   3.256   2.273
 5922SOL    HW118665   4.951   3.267   2.345
 5922SOL    HW218666   5.101   3.212   2.312
 5923SOL     OW18667   6.242   0.490   3.523
 5923SOL    HW118668   6.234   0.584   3.554
 5923SOL    HW218669   6.168   0.469   3.459
 5924SOL     OW18670   5.384   6.904   3.300
 5924SOL    HW118671   5.341   6.989   3.330
 5924SOL    HW218672   5.420   6.855   3.379
 5925SOL     OW18673   4.557   0.397   1.135
 5925SOL    HW118674   4.461   0.393   1.161
 5925SOL    HW218675   4.569   0.353   1.045
 5926SOL     OW18676   4.685   4.562   3.870
 5926SOL    HW118677   4.679   4.510   3.954
 5926SOL    HW218678   4.678   4.500   3.791
 5927SOL     OW18679   0.456   4.881   1.872
 5927SOL    HW118680   0.368   4.918   1.900
 5927SOL    HW218681   0.446   4.832   1.786
 5928SOL     OW18682   2.600   0.434   0.333
 5928SOL    HW118683   2.693   0.460   0.308
 5928SOL    HW218684   2.535   0.483   0.276
 5929SOL     OW18685   1.739   0.719   6.978
 5929SOL    HW118686   1.829   0.761   6.986
 5929SOL    HW218687   1.682   0.772   6.915
 5930SOL     OW18688   1.639   3.434   2.304
 5930SOL    HW118689   1.566   3.417   2.370
 5930SOL    HW218690   1.625   3.524   2.261
 5931SOL     OW18691   5.167   6.491   2.840
 5931SOL    HW118692   5.111   6.549   2.900
 5931SOL    HW218693   5.231   6.549   2.790
 5932SOL     OW18694   3.003   1.061   6.069
 5932SOL    HW118695   3.004   1.152   6.111
 5932SOL    HW218696   2.934   1.059   5.997
 5933SOL     OW18697   6.044   6.456   4.707
 5933SOL    HW118698   6.026   6.367   4.664
 5933SOL    HW218699   5.974   6.474   4.776
 5934SOL     OW18700   3.327   3.526   6.717
 5934SOL    HW118701   3.294   3.433   6.731
 5934SOL    HW218702   3.395   3.549   6.786
 5935SOL     OW18703   1.229   6.252   5.858
 5935SOL    HW118704   1.203   6.216   5.769
 5935SOL    HW218705   1.280   6.183   5.909
 5936SOL     OW18706   3.033   2.978   2.080
 5936SOL    HW118707   2.974   2.989   2.161
 5936SOL    HW218708   3.014   3.051   2.015
 5937SOL     OW18709   0.318   3.294   1.106
 5937SOL    HW118710   0.312   3.348   1.190
 5937SOL    HW218711   0.342   3.355   1.030
 5938SOL     OW18712   0.547   4.357   4.156
 5938SOL    HW118713   0.471   4.374   4.093
 5938SOL    HW218714   0.513   4.308   4.236
 5939SOL     OW18715   3.848   1.536   4.953
 5939SOL    HW118716   3.759   1.580   4.969
 5939SOL    HW218717   3.842   1.476   4.874
 5940SOL     OW18718   4.948   5.444   2.032
 5940SOL    HW118719   4.886   5.484   2.099
 5940SOL    HW218720   4.896   5.393   1.964
 5941SOL     OW18721   0.066   2.357   2.884
 5941SOL    HW118722   0.145   2.320   2.834
 5941SOL    HW218723   0.055   2.308   2.970
 5942SOL     OW18724   5.428   2.923   6.012
 5942SOL    HW118725   5.383   3.012   6.016
 5942SOL    HW218726   5.387   2.868   5.939
 5943SOL     OW18727   3.040   4.180   1.758
 5943SOL    HW118728   3.011   4.255   1.817
 5943SOL    HW218729   2.969   4.161   1.690
 5944SOL     OW18730   6.749   3.733   6.590
 5944SOL    HW118731   6.816   3.731   6.664
 5944SOL    HW218732   6.777   3.803   6.523
 5945SOL     OW18733   6.739   6.042   4.828
 5945SOL    HW118734   6.747   5.942   4.837
 5945SOL    HW218735   6.830   6.082   4.814
 5946SOL     OW18736   2.916   3.977   0.609
 5946SOL    HW118737   2.874   4.018   0.528
 5946SOL    HW218738   2.998   4.029   0.634
 5947SOL     OW18739   3.868   3.567   4.710
 5947SOL    HW118740   3.914   3.623   4.642
 5947SOL    HW218741   3.914   3.577   4.798
 5948SOL     OW18742   5.028   3.330   1.442
 5948SOL    HW118743   5.123   3.354   1.421
 5948SOL    HW218744   4.985   3.405   1.492
 5949SOL     OW18745   0.134   4.245   2.530
 5949SOL    HW118746   0.164   4.186   2.605
 5949SOL    HW218747   0.208   4.307   2.504
 5950SOL     OW18748   4.096   0.218   5.060
 5950SOL    HW118749   4.055   0.172   5.139
 5950SOL    HW218750   4.051   0.307   5.047
 5951SOL     OW18751   0.550   3.762   6.491
 5951SOL    HW118752   0.505   3.736   6.405
 5951SOL    HW218753   0.647   3.780   6.475
 5952SOL     OW18754   4.185   4.546   0.767
 5952SOL    HW118755   4.243   4.579   0.693
 5952SOL    HW218756   4.242   4.522   0.846
 5953SOL     OW18757   6.492   2.970   4.998
 5953SOL    HW118758   6.540   2.900   5.052
 5953SOL    HW218759   6.396   2.973   5.026
 5954SOL     OW18760   1.598   6.113   4.204
 5954SOL    HW118761   1.520   6.051   4.201
 5954SOL    HW218762   1.644   6.114   4.116
 5955SOL     OW18763   5.512   3.336   0.709
 5955SOL    HW118764   5.478   3.258   0.657
 5955SOL    HW218765   5.486   3.327   0.805
 5956SOL     OW18766   5.317   2.919   5.191
 5956SOL    HW118767   5.389   2.979   5.155
 5956SOL    HW218768   5.318   2.832   5.142
 5957SOL     OW18769   0.047   1.904   3.020
 5957SOL    HW118770   0.063   1.950   3.107
 5957SOL    HW218771   6.998   1.832   3.032
 5958SOL     OW18772   3.087   0.073   2.349
 5958SOL    HW118773   3.054   0.157   2.306
 5958SOL    HW218774   3.160   0.096   2.414
 5959SOL     OW18775   4.842   2.445   4.040
 5959SOL    HW118776   4.831   2.433   4.139
 5959SOL    HW218777   4.764   2.495   4.003
 5960SOL     OW18778   4.163   0.093   6.135
 5960SOL    HW118779   4.193   0.186   6.116
 5960SOL    HW218780   4.153   0.043   6.049
 5961SOL     OW18781   2.778   2.232   3.362
 5961SOL    HW118782   2.825   2.252   3.448
 5961SOL    HW218783   2.690   2.279   3.360
 5962SOL     OW18784   5.186   5.884   0.980
 5962SOL    HW118785   5.128   5.857   1.056
 5962SOL    HW218786   5.243   5.961   1.007
 5963SOL     OW18787   2.858   4.279   6.890
 5963SOL    HW118788   2.780   4.241   6.939
 5963SOL    HW218789   2.889   4.362   6.936
 5964SOL     OW18790   2.745   6.794   2.404
 5964SOL    HW118791   2.745   6.870   2.339
 5964SOL    HW218792   2.666   6.735   2.386
 5965SOL     OW18793   2.068   0.361   0.005
 5965SOL    HW118794   1.998   0.310   6.974
 5965SOL    HW218795   2.081   0.318   0.094
 5966SOL     OW18796   2.468   1.119   4.551
 5966SOL    HW118797   2.459   1.076   4.461
 5966SOL    HW218798   2.533   1.067   4.606
 5967SOL     OW18799   3.118   1.794   4.327
 5967SOL    HW118800   3.085   1.717   4.271
 5967SOL    HW218801   3.159   1.863   4.268
 5968SOL     OW18802   5.608   2.647   1.651
 5968SOL    HW118803   5.515   2.632   1.617
 5968SOL    HW218804   5.670   2.659   1.573
 5969SOL     OW18805   5.583   0.629   0.392
 5969SOL    HW118806   5.485   0.628   0.413
 5969SOL    HW218807   5.614   0.724   0.384
 5970SOL     OW18808   0.071   3.293   0.839
 5970SOL    HW118809   0.108   3.235   0.767
 5970SOL    HW218810   7.003   3.331   0.810
 5971SOL     OW18811   6.739   6.670   3.836
 5971SOL    HW118812   6.802   6.739   3.799
 5971SOL    HW218813   6.778   6.630   3.919
 5972SOL     OW18814   5.001   4.771   1.098
 5972SOL    HW118815   4.946   4.804   1.175
 5972SOL    HW218816   4.941   4.732   1.029
 5973SOL     OW18817   2.992   1.920   2.557
 5973SOL    HW118818   3.020   1.887   2.647
 5973SOL    HW218819   2.985   2.020   2.558
 5974SOL     OW18820   5.214   2.062   5.615
 5974SOL    HW118821   5.189   2.014   5.531
 5974SOL    HW218822   5.222   1.997   5.690
 5975SOL     OW18823   4.772   4.889   0.514
 5975SOL    HW118824   4.859   4.903   0.561
 5975SOL    HW218825   4.748   4.971   0.462
 5976SOL     OW18826   2.259   2.947   5.824
 5976SOL    HW118827   2.299   2.957   5.915
 5976SOL    HW218828   2.163   2.919   5.833
 5977SOL     OW18829   6.307   4.281   0.630
 5977SOL    HW118830   6.390   4.252   0.676
 5977SOL    HW218831   6.328   4.351   0.562
 5978SOL     OW18832   2.582   3.598   0.412
 5978SOL    HW118833   2.638   3.654   0.473
 5978SOL    HW218834   2.638   3.564   0.337
 5979SOL     OW18835   5.616   0.637   1.581
 5979SOL    HW118836   5.594   0.548   1.542
 5979SOL    HW218837   5.707   0.634   1.622
 5980SOL     OW18838   2.623   2.831   1.306
 5980SOL    HW118839   2.620   2.925   1.340
 5980SOL    HW218840   2.696   2.781   1.354
 5981SOL     OW18841   2.949   2.510   0.798
 5981SOL    HW118842   2.915   2.542   0.709
 5981SOL    HW218843   3.026   2.449   0.783
 5982SOL     OW18844   5.656   3.045   0.406
 5982SOL    HW118845   5.659   3.007   0.314
 5982SOL    HW218846   5.687   3.141   0.403
 5983SOL     OW18847   0.106   0.796   3.371
 5983SOL    HW118848   0.157   0.875   3.338
 5983SOL    HW218849   0.008   0.818   3.374
 5984SOL     OW18850   5.961   6.832   4.307
 5984SOL    HW118851   6.045   6.867   4.348
 5984SOL    HW218852   5.914   6.772   4.372
 5985SOL     OW18853   6.196   3.122   2.570
 5985SOL    HW118854   6.180   3.170   2.656
 5985SOL    HW218855   6.294   3.106   2.558
 5986SOL     OW18856   4.147   3.546   4.674
 5986SOL    HW118857   4.105   3.630   4.640
 5986SOL    HW218858   4.189   3.497   4.598
 5987SOL     OW18859   0.079   6.847   5.404
 5987SOL    HW118860   0.084   6.755   5.443
 5987SOL    HW218861   0.005   6.850   5.336
 5988SOL     OW18862   1.071   2.441   6.219
 5988SOL    HW118863   1.061   2.514   6.151
 5988SOL    HW218864   1.125   2.474   6.296
 5989SOL     OW18865   0.658   5.958   5.814
 5989SOL    HW118866   0.644   5.979   5.717
 5989SOL    HW218867   0.571   5.961   5.862
 5990SOL     OW18868   3.309   4.785   1.793
 5990SOL    HW118869   3.390   4.748   1.838
 5990SOL    HW218870   3.321   4.884   1.781
 5991SOL     OW18871   4.635   0.261   0.885
 5991SOL    HW118872   4.549   0.230   0.843
 5991SOL    HW218873   4.704   0.274   0.814
 5992SOL     OW18874   3.795   6.401   1.867
 5992SOL    HW118875   3.833   6.492   1.883
 5992SOL    HW218876   3.830   6.337   1.936
 5993SOL     OW18877   5.861   2.097   0.446
 5993SOL    HW118878   5.782   2.149   0.411
 5993SOL    HW218879   5.900   2.042   0.373
 5994SOL     OW18880   0.282   3.376   0.442
 5994SOL    HW118881   0.253   3.446   0.377
 5994SOL    HW218882   0.345   3.313   0.398
 5995SOL     OW18883   4.917   3.918   1.687
 5995SOL    HW118884   4.872   4.006   1.700
 5995SOL    HW218885   4.900   3.885   1.595
 5996SOL     OW18886   2.817   5.468   1.193
 5996SOL    HW118887   2.759   5.392   1.225
 5996SOL    HW218888   2.911   5.452   1.223
 5997SOL     OW18889   6.288   0.426   4.276
 5997SOL    HW118890   6.272   0.328   4.261
 5997SOL    HW218891   6.201   0.471   4.298
 5998SOL     OW18892   5.835   6.029   0.912
 5998SOL    HW118893   5.890   6.085   0.851
 5998SOL    HW218894   5.889   5.950   0.942
 5999SOL     OW18895   5.080   2.522   1.325
 5999SOL    HW118896   5.110   2.462   1.399
 5999SOL    HW218897   5.030   2.600   1.365
 6000SOL     OW18898   0.521   3.919   1.083
 6000SOL    HW118899   0.554   3.861   1.009
 6000SOL    HW218900   0.521   3.868   1.169
 6001SOL     OW18901   6.656   5.476   5.684
 6001SOL    HW118902   6.614   5.518   5.604
 6001SOL    HW218903   6.747   5.514   5.698
 6002SOL     OW18904   6.260   4.674   5.059
 6002SOL    HW118905   6.329   4.673   4.986
 6002SOL    HW218906   6.254   4.582   5.099
 6003SOL     OW18907   1.136   2.567   4.833
 6003SOL    HW118908   1.166   2.636   4.898
 6003SOL    HW218909   1.040   2.584   4.807
 6004SOL     OW18910   4.584   2.101   4.458
 6004SOL    HW118911   4.537   2.179   4.418
 6004SOL    HW218912   4.528   2.019   4.447
 6005SOL     OW18913   3.898   4.800   6.592
 6005SOL    HW118914   3.927   4.764   6.504
 6005SOL    HW218915   3.966   4.866   6.625
 6006SOL     OW18916   2.980   6.092   6.018
 6006SOL    HW118917   2.910   6.062   5.954
 6006SOL    HW218918   2.989   6.191   6.016
 6007SOL     OW18919   2.691   5.751   6.601
 6007SOL    HW118920   2.784   5.752   6.565
 6007SOL    HW218921   2.628   5.718   6.531
 6008SOL     OW18922   3.252   3.958   6.234
 6008SOL    HW118923   3.341   3.921   6.260
 6008SOL    HW218924   3.265   4.041   6.180
 6009SOL     OW18925   3.628   5.422   2.915
 6009SOL    HW118926   3.559   5.443   2.984
 6009SOL    HW218927   3.689   5.350   2.950
 6010SOL     OW18928   0.475   5.411   4.759
 6010SOL    HW118929   0.411   5.338   4.735
 6010SOL    HW218930   0.444   5.458   4.842
 6011SOL     OW18931   6.564   1.955   1.636
 6011SOL    HW118932   6.565   1.866   1.590
 6011SOL    HW218933   6.476   1.968   1.681
 6012SOL     OW18934   0.151   0.229   6.341
 6012SOL    HW118935   0.079   0.275   6.393
 6012SOL    HW218936   0.123   0.134   6.323
 6013SOL     OW18937   5.896   1.486   2.125
 6013SOL    HW118938   5.867   1.451   2.214
 6013SOL    HW218939   5.987   1.525   2.133
 6014SOL     OW18940   3.726   3.642   3.867
 6014SOL    HW118941   3.647   3.646   3.927
 6014SOL    HW218942   3.745   3.733   3.831
 6015SOL     OW18943   5.908   1.228   4.085
 6015SOL    HW118944   5.938   1.144   4.040
 6015SOL    HW218945   5.810   1.242   4.068
 6016SOL     OW18946   4.620   1.231   4.500
 6016SOL    HW118947   4.559   1.164   4.541
 6016SOL    HW218948   4.590   1.251   4.407
 6017SOL     OW18949   0.214   2.019   5.396
 6017SOL    HW118950   0.287   2.028   5.328
 6017SOL    HW218951   0.174   2.108   5.414
 6018SOL     OW18952   2.264   1.149   4.734
 6018SOL    HW118953   2.339   1.143   4.668
 6018SOL    HW218954   2.214   1.063   4.736
 6019SOL     OW18955   6.419   3.915   0.021
 6019SOL    HW118956   6.378   3.904   6.950
 6019SOL    HW218957   6.518   3.924   0.011
 6020SOL     OW18958   0.963   4.959   6.119
 6020SOL    HW118959   0.937   5.056   6.127
 6020SOL    HW218960   0.896   4.912   6.062
 6021SOL     OW18961   5.719   6.602   3.865
 6021SOL    HW118962   5.728   6.503   3.876
 6021SOL    HW218963   5.783   6.649   3.926
 6022SOL     OW18964   6.570   1.748   1.478
 6022SOL    HW118965   6.567   1.651   1.503
 6022SOL    HW218966   6.584   1.757   1.379
 6023SOL     OW18967   3.762   0.743   1.980
 6023SOL    HW118968   3.698   0.735   1.904
 6023SOL    HW218969   3.856   0.738   1.945
 6024SOL     OW18970   1.106   6.315   0.594
 6024SOL    HW118971   1.139   6.221   0.602
 6024SOL    HW218972   1.039   6.320   0.520
 6025SOL     OW18973   3.430   0.616   4.446
 6025SOL    HW118974   3.341   0.600   4.489
 6025SOL    HW218975   3.417   0.661   4.357
 6026SOL     OW18976   6.062   5.246   4.840
 6026SOL    HW118977   6.160   5.235   4.860
 6026SOL    HW218978   6.008   5.203   4.912
 6027SOL     OW18979   5.937   4.100   6.482
 6027SOL    HW118980   6.005   4.101   6.555
 6027SOL    HW218981   5.864   4.165   6.504
 6028SOL     OW18982   5.572   5.537   6.449
 6028SOL    HW118983   5.615   5.623   6.421
 6028SOL    HW218984   5.587   5.523   6.547
 6029SOL     OW18985   2.391   1.069   2.820
 6029SOL    HW118986   2.474   1.013   2.818
 6029SOL    HW218987   2.311   1.010   2.821
 6030SOL     OW18988   5.865   3.826   4.421
 6030SOL    HW118989   5.843   3.730   4.408
 6030SOL    HW218990   5.796   3.883   4.377
 6031SOL     OW18991   0.423   5.968   5.276
 6031SOL    HW118992   0.483   5.925   5.344
 6031SOL    HW218993   0.367   6.037   5.321
 6032SOL     OW18994   3.424   5.882   3.256
 6032SOL    HW118995   3.355   5.950   3.230
 6032SOL    HW218996   3.471   5.913   3.339
 6033SOL     OW18997   1.525   1.798   2.516
 6033SOL    HW118998   1.526   1.710   2.563
 6033SOL    HW218999   1.464   1.861   2.564
 6034SOL     OW19000   0.783   0.105   0.307
 6034SOL    HW119001   0.710   0.094   0.239
 6034SOL    HW219002   0.825   0.195   0.296
 6035SOL     OW19003   2.287   0.532   2.539
 6035SOL    HW119004   2.240   0.506   2.455
 6035SOL    HW219005   2.365   0.471   2.554
 6036SOL     OW19006   6.965   2.982   1.029
 6036SOL    HW119007   6.893   3.018   0.968
 6036SOL    HW219008   6.980   3.046   1.104
 6037SOL     OW19009   5.208   2.097   7.018
 6037SOL    HW119010   5.145   2.134   0.067
 6037SOL    HW219011   5.196   2.147   6.932
 6038SOL     OW19012   0.551   1.881   5.859
 6038SOL    HW119013   0.564   1.971   5.901
 6038SOL    HW219014   0.628   1.822   5.883
 6039SOL     OW19015   3.786   3.156   3.548
 6039SOL    HW119016   3.860   3.136   3.483
 6039SOL    HW219017   3.700   3.121   3.512
 6040SOL     OW19018   0.708   1.443   0.092
 6040SOL    HW119019   0.608   1.445   0.087
 6040SOL    HW219020   0.737   1.357   0.132
 6041SOL     OW19021   2.674   3.115   5.566
 6041SOL    HW119022   2.764   3.071   5.561
 6041SOL    HW219023   2.603   3.044   5.566
 6042SOL     OW19024   3.358   6.034   3.571
 6042SOL    HW119025   3.404   5.945   3.581
 6042SOL    HW219026   3.327   6.066   3.660
 6043SOL     OW19027   2.707   0.558   3.529
 6043SOL    HW119028   2.696   0.657   3.519
 6043SOL    HW219029   2.626   0.511   3.494
 6044SOL     OW19030   1.153   3.323   1.559
 6044SOL    HW119031   1.078   3.330   1.625
 6044SOL    HW219032   1.205   3.409   1.559
 6045SOL     OW19033   4.843   1.781   3.362
 6045SOL    HW119034   4.751   1.754   3.388
 6045SOL    HW219035   4.849   1.791   3.263
 6046SOL     OW19036   3.847   3.086   2.098
 6046SOL    HW119037   3.933   3.120   2.059
 6046SOL    HW219038   3.782   3.070   2.025
 6047SOL     OW19039   6.261   2.050   0.902
 6047SOL    HW119040   6.361   2.047   0.903
 6047SOL    HW219041   6.230   2.145   0.890
 6048SOL     OW19042   5.861   5.971   4.764
 6048SOL    HW119043   5.856   6.002   4.669
 6048SOL    HW219044   5.935   5.904   4.773
 6049SOL     OW19045   4.581   4.855   5.642
 6049SOL    HW119046   4.501   4.874   5.584
 6049SOL    HW219047   4.617   4.765   5.620
 6050SOL     OW19048   3.662   6.018   1.862
 6050SOL    HW119049   3.625   5.925   1.851
 6050SOL    HW219050   3.647   6.070   1.778
 6051SOL     OW19051   0.557   1.276   3.291
 6051SOL    HW119052   0.634   1.339   3.295
 6051SOL    HW219053   0.549   1.238   3.199
 6052SOL     OW19054   5.035   6.344   0.343
 6052SOL    HW119055   5.099   6.384   0.409
 6052SOL    HW219056   4.943   6.378   0.362
 6053SOL     OW19057   4.194   2.930   6.303
 6053SOL    HW119058   4.260   2.944   6.229
 6053SOL    HW219059   4.194   3.010   6.362
 6054SOL     OW19060   3.998   4.268   0.974
 6054SOL    HW119061   4.077   4.293   1.030
 6054SOL    HW219062   3.968   4.347   0.921
 6055SOL     OW19063   3.484   4.210   0.463
 6055SOL    HW119064   3.532   4.144   0.405
 6055SOL    HW219065   3.526   4.300   0.452
 6056SOL     OW19066   5.278   5.802   4.528
 6056SOL    HW119067   5.204   5.745   4.492
 6056SOL    HW219068   5.351   5.743   4.563
 6057SOL     OW19069   4.472   6.910   4.102
 6057SOL    HW119070   4.421   6.984   4.147
 6057SOL    HW219071   4.554   6.947   4.060
 6058SOL     OW19072   5.585   2.214   5.559
 6058SOL    HW119073   5.511   2.276   5.585
 6058SOL    HW219074   5.592   2.141   5.627
 6059SOL     OW19075   4.566   2.861   0.013
 6059SOL    HW119076   4.623   2.939   7.004
 6059SOL    HW219077   4.470   2.891   0.018
 6060SOL     OW19078   2.320   2.861   0.189
 6060SOL    HW119079   2.284   2.935   0.133
 6060SOL    HW219080   2.375   2.799   0.133
 6061SOL     OW19081   3.485   5.050   0.048
 6061SOL    HW119082   3.427   4.974   0.079
 6061SOL    HW219083   3.574   5.014   0.021
 6062SOL     OW19084   1.809   2.238   6.986
 6062SOL    HW119085   1.842   2.264   0.057
 6062SOL    HW219086   1.883   2.248   6.919
 6063SOL     OW19087   4.929   4.144   6.248
 6063SOL    HW119088   4.917   4.174   6.154
 6063SOL    HW219089   4.841   4.113   6.285
 6064SOL     OW19090   0.302   5.284   1.426
 6064SOL    HW119091   0.308   5.354   1.498
 6064SOL    HW219092   0.270   5.327   1.341
 6065SOL     OW19093   1.061   7.015   2.383
 6065SOL    HW119094   1.106   6.971   2.461
 6065SOL    HW219095   1.001   6.949   2.337
 6066SOL     OW19096   5.179   5.651   3.196
 6066SOL    HW119097   5.122   5.571   3.174
 6066SOL    HW219098   5.273   5.622   3.212
 6067SOL     OW19099   5.902   6.432   6.518
 6067SOL    HW119100   5.839   6.373   6.467
 6067SOL    HW219101   5.991   6.431   6.473
 6068SOL     OW19102   4.596   1.903   4.742
 6068SOL    HW119103   4.505   1.929   4.709
 6068SOL    HW219104   4.589   1.871   4.836
 6069SOL     OW19105   0.364   3.952   6.092
 6069SOL    HW119106   0.311   4.011   6.153
 6069SOL    HW219107   0.336   3.969   5.997
 6070SOL     OW19108   2.660   1.327   0.568
 6070SOL    HW119109   2.632   1.371   0.654
 6070SOL    HW219110   2.582   1.278   0.529
 6071SOL     OW19111   5.974   0.858   5.879
 6071SOL    HW119112   6.029   0.774   5.874
 6071SOL    HW219113   5.882   0.840   5.845
 6072SOL     OW19114   6.802   2.569   0.425
 6072SOL    HW119115   6.834   2.622   0.503
 6072SOL    HW219116   6.813   2.471   0.444
 6073SOL     OW19117   4.732   2.443   0.485
 6073SOL    HW119118   4.741   2.428   0.387
 6073SOL    HW219119   4.748   2.357   0.534
 6074SOL     OW19120   0.603   6.642   2.472
 6074SOL    HW119121   0.554   6.602   2.394
 6074SOL    HW219122   0.561   6.611   2.557
 6075SOL     OW19123   5.052   0.133   6.598
 6075SOL    HW119124   5.127   0.076   6.567
 6075SOL    HW219125   4.978   0.076   6.633
 6076SOL     OW19126   1.537   5.390   3.286
 6076SOL    HW119127   1.550   5.383   3.385
 6076SOL    HW219128   1.624   5.409   3.241
 6077SOL     OW19129   5.079   6.763   1.989
 6077SOL    HW119130   5.024   6.792   2.067
 6077SOL    HW219131   5.052   6.815   1.908
 6078SOL     OW19132   4.071   4.005   0.824
 6078SOL    HW119133   4.063   3.993   0.923
 6078SOL    HW219134   3.985   4.042   0.788
 6079SOL     OW19135   3.419   3.605   6.975
 6079SOL    HW119136   3.483   3.547   0.007
 6079SOL    HW219137   3.329   3.601   7.017
 6080SOL     OW19138   6.990   4.908   6.760
 6080SOL    HW119139   7.019   4.974   6.691
 6080SOL    HW219140   6.891   4.896   6.755
 6081SOL     OW19141   1.717   3.703   4.056
 6081SOL    HW119142   1.707   3.707   3.957
 6081SOL    HW219143   1.627   3.688   4.098
 6082SOL     OW19144   4.406   1.019   0.849
 6082SOL    HW119145   4.392   1.110   0.810
 6082SOL    HW219146   4.411   1.026   0.949
 6083SOL     OW19147   4.750   0.447   6.186
 6083SOL    HW119148   4.665   0.499   6.195
 6083SOL    HW219149   4.750   0.372   6.252
 6084SOL     OW19150   0.234   6.237   2.823
 6084SOL    HW119151   0.161   6.174   2.797
 6084SOL    HW219152   0.194   6.322   2.855
 6085SOL     OW19153   0.756   7.012   0.870
 6085SOL    HW119154   0.701   0.068   0.836
 6085SOL    HW219155   0.759   6.939   0.801
 6086SOL     OW19156   3.571   4.069   6.388
 6086SOL    HW119157   3.526   4.037   6.471
 6086SOL    HW219158   3.593   3.990   6.330
 6087SOL     OW19159   5.033   6.644   0.646
 6087SOL    HW119160   4.961   6.704   0.610
 6087SOL    HW219161   4.991   6.568   0.696
 6088SOL     OW19162   5.217   5.886   3.051
 6088SOL    HW119163   5.216   5.864   2.953
 6088SOL    HW219164   5.195   5.804   3.104
 6089SOL     OW19165   6.353   4.014   3.524
 6089SOL    HW119166   6.349   3.998   3.425
 6089SOL    HW219167   6.410   4.094   3.543
 6090SOL     OW19168   3.602   5.874   4.266
 6090SOL    HW119169   3.542   5.860   4.345
 6090SOL    HW219170   3.573   5.955   4.215
 6091SOL     OW19171   1.419   1.463   2.168
 6091SOL    HW119172   1.417   1.518   2.084
 6091SOL    HW219173   1.437   1.522   2.246
 6092SOL     OW19174   3.446   6.421   1.268
 6092SOL    HW119175   3.355   6.461   1.272
 6092SOL    HW219176   3.449   6.353   1.194
 6093SOL     OW19177   2.281   2.018   2.160
 6093SOL    HW119178   2.290   2.023   2.060
 6093SOL    HW219179   2.309   2.106   2.200
 6094SOL     OW19180   0.428   6.110   4.971
 6094SOL    HW119181   0.426   6.010   4.972
 6094SOL    HW219182   0.389   6.144   4.885
 6095SOL     OW19183   4.901   5.038   1.654
 6095SOL    HW119184   4.870   4.944   1.640
 6095SOL    HW219185   4.851   5.099   1.594
 6096SOL     OW19186   5.564   6.266   3.047
 6096SOL    HW119187   5.619   6.261   2.964
 6096SOL    HW219188   5.469   6.286   3.023
 6097SOL     OW19189   1.903   5.310   1.591
 6097SOL    HW119190   1.927   5.213   1.590
 6097SOL    HW219191   1.983   5.365   1.567
 6098SOL     OW19192   6.699   1.180   4.689
 6098SOL    HW119193   6.616   1.235   4.692
 6098SOL    HW219194   6.747   1.186   4.777
 6099SOL     OW19195   3.810   0.667   6.224
 6099SOL    HW119196   3.776   0.760   6.235
 6099SOL    HW219197   3.795   0.637   6.130
 6100SOL     OW19198   0.296   6.151   5.422
 6100SOL    HW119199   0.291   6.178   5.326
 6100SOL    HW219200   0.294   6.232   5.480
 6101SOL     OW19201   6.895   2.997   1.436
 6101SOL    HW119202   6.992   3.022   1.427
 6101SOL    HW219203   6.877   2.972   1.531
 6102SOL     OW19204   4.354   6.478   2.934
 6102SOL    HW119205   4.414   6.508   3.009
 6102SOL    HW219206   4.410   6.455   2.854
 6103SOL     OW19207   6.967   1.709   1.961
 6103SOL    HW119208   6.932   1.749   1.876
 6103SOL    HW219209   6.895   1.713   2.031
 6104SOL     OW19210   6.822   0.504   4.076
 6104SOL    HW119211   6.827   0.603   4.085
 6104SOL    HW219212   6.902   0.471   4.026
 6105SOL     OW19213   3.040   4.647   5.363
 6105SOL    HW119214   2.971   4.640   5.291
 6105SOL    HW219215   3.122   4.595   5.337
 6106SOL     OW19216   5.999   5.359   6.256
 6106SOL    HW119217   6.037   5.270   6.278
 6106SOL    HW219218   5.906   5.365   6.293
 6107SOL     OW19219   5.582   5.107   5.585
 6107SOL    HW119220   5.631   5.093   5.499
 6107SOL    HW219221   5.588   5.024   5.641
 6108SOL     OW19222   1.984   1.506   0.827
 6108SOL    HW119223   2.032   1.543   0.907
 6108SOL    HW219224   1.942   1.582   0.776
 6109SOL     OW19225   6.395   0.045   3.462
 6109SOL    HW119226   6.303   0.071   3.491
 6109SOL    HW219227   6.444   0.126   3.431
 6110SOL     OW19228   1.707   1.540   4.419
 6110SOL    HW119229   1.689   1.556   4.516
 6110SOL    HW219230   1.750   1.621   4.379
 6111SOL     OW19231   2.109   4.611   0.566
 6111SOL    HW119232   2.197   4.565   0.574
 6111SOL    HW219233   2.062   4.581   0.483
 6112SOL     OW19234   5.273   0.067   2.795
 6112SOL    HW119235   5.349   0.003   2.791
 6112SOL    HW219236   5.225   0.057   2.882
 6113SOL     OW19237   2.299   5.563   0.263
 6113SOL    HW119238   2.353   5.603   0.188
 6113SOL    HW219239   2.247   5.635   0.309
 6114SOL     OW19240   4.584   1.896   0.801
 6114SOL    HW119241   4.489   1.905   0.831
 6114SOL    HW219242   4.588   1.892   0.701
 6115SOL     OW19243   0.727   0.581   5.666
 6115SOL    HW119244   0.661   0.656   5.658
 6115SOL    HW219245   0.777   0.590   5.752
 6116SOL     OW19246   4.996   2.218   5.684
 6116SOL    HW119247   5.073   2.159   5.659
 6116SOL    HW219248   4.911   2.174   5.658
 6117SOL     OW19249   1.908   2.330   1.254
 6117SOL    HW119250   1.993   2.281   1.274
 6117SOL    HW219251   1.930   2.415   1.207
 6118SOL     OW19252   6.298   0.569   0.671
 6118SOL    HW119253   6.358   0.640   0.709
 6118SOL    HW219254   6.353   0.505   0.617
 6119SOL     OW19255   6.903   2.222   0.718
 6119SOL    HW119256   6.978   2.162   0.744
 6119SOL    HW219257   6.859   2.259   0.800
 6120SOL     OW19258   2.276   0.750   5.061
 6120SOL    HW119259   2.180   0.727   5.076
 6120SOL    HW219260   2.334   0.697   5.123
 6121SOL     OW19261   0.812   2.998   4.159
 6121SOL    HW119262   0.910   2.988   4.138
 6121SOL    HW219263   0.793   3.093   4.181
 6122SOL     OW19264   4.996   5.333   6.002
 6122SOL    HW119265   5.092   5.349   6.024
 6122SOL    HW219266   4.946   5.308   6.085
 6123SOL     OW19267   5.308   1.585   5.040
 6123SOL    HW119268   5.235   1.606   4.975
 6123SOL    HW219269   5.397   1.607   4.999
 6124SOL     OW19270   2.634   6.648   3.864
 6124SOL    HW119271   2.715   6.700   3.839
 6124SOL    HW219272   2.571   6.645   3.787
 6125SOL     OW19273   2.180   2.432   6.616
 6125SOL    HW119274   2.162   2.347   6.664
 6125SOL    HW219275   2.183   2.508   6.682
 6126SOL     OW19276   6.368   2.717   5.518
 6126SOL    HW119277   6.360   2.816   5.502
 6126SOL    HW219278   6.448   2.699   5.575
 6127SOL     OW19279   3.879   2.264   1.728
 6127SOL    HW119280   3.791   2.278   1.774
 6127SOL    HW219281   3.953   2.270   1.795
 6128SOL     OW19282   5.821   5.582   0.485
 6128SOL    HW119283   5.869   5.639   0.553
 6128SOL    HW219284   5.785   5.500   0.530
 6129SOL     OW19285   1.416   5.839   2.484
 6129SOL    HW119286   1.379   5.858   2.575
 6129SOL    HW219287   1.465   5.920   2.450
 6130SOL     OW19288   5.945   2.510   0.310
 6130SOL    HW119289   5.909   2.507   0.403
 6130SOL    HW219290   5.933   2.422   0.266
 6131SOL     OW19291   6.527   1.643   2.511
 6131SOL    HW119292   6.581   1.560   2.497
 6131SOL    HW219293   6.542   1.677   2.604
 6132SOL     OW19294   3.656   1.421   6.609
 6132SOL    HW119295   3.731   1.487   6.605
 6132SOL    HW219296   3.604   1.424   6.523
 6133SOL     OW19297   2.011   1.480   3.954
 6133SOL    HW119298   2.074   1.434   4.016
 6133SOL    HW219299   2.018   1.439   3.863
 6134SOL     OW19300   5.826   6.655   6.949
 6134SOL    HW119301   5.813   6.746   6.910
 6134SOL    HW219302   5.777   6.588   6.893
 6135SOL     OW19303   6.355   6.938   0.169
 6135SOL    HW119304   6.377   6.855   0.117
 6135SOL    HW219305   6.257   6.940   0.189
 6136SOL     OW19306   1.889   3.166   2.670
 6136SOL    HW119307   1.819   3.233   2.644
 6136SOL    HW219308   1.944   3.142   2.591
 6137SOL     OW19309   6.797   4.279   2.023
 6137SOL    HW119310   6.868   4.209   2.017
 6137SOL    HW219311   6.726   4.261   1.956
 6138SOL     OW19312   3.994   0.280   2.034
 6138SOL    HW119313   3.949   0.270   1.945
 6138SOL    HW219314   3.933   0.331   2.096
 6139SOL     OW19315   1.557   0.462   5.734
 6139SOL    HW119316   1.587   0.370   5.761
 6139SOL    HW219317   1.638   0.520   5.721
 6140SOL     OW19318   1.295   0.433   3.298
 6140SOL    HW119319   1.381   0.389   3.271
 6140SOL    HW219320   1.218   0.379   3.264
 6141SOL     OW19321   0.383   1.100   5.914
 6141SOL    HW119322   0.404   1.130   5.821
 6141SOL    HW219323   0.378   1.179   5.975
 6142SOL     OW19324   0.188   0.417   1.336
 6142SOL    HW119325   0.107   0.464   1.300
 6142SOL    HW219326   0.195   0.326   1.295
 6143SOL     OW19327   0.203   3.936   5.374
 6143SOL    HW119328   0.294   3.926   5.332
 6143SOL    HW219329   0.180   3.851   5.421
 6144SOL     OW19330   3.813   5.287   3.110
 6144SOL    HW119331   3.906   5.319   3.130
 6144SOL    HW219332   3.818   5.196   3.069
 6145SOL     OW19333   5.073   2.822   4.000
 6145SOL    HW119334   5.099   2.879   3.922
 6145SOL    HW219335   5.097   2.727   3.982
 6146SOL     OW19336   5.499   6.846   5.153
 6146SOL    HW119337   5.554   6.762   5.157
 6146SOL    HW219338   5.557   6.923   5.126
 6147SOL     OW19339   1.566   2.078   3.802
 6147SOL    HW119340   1.624   1.998   3.787
 6147SOL    HW219341   1.623   2.160   3.802
 6148SOL     OW19342   3.289   5.861   0.386
 6148SOL    HW119343   3.331   5.805   0.315
 6148SOL    HW219344   3.190   5.868   0.370
 6149SOL     OW19345   3.000   0.164   1.658
 6149SOL    HW119346   2.944   0.226   1.603
 6149SOL    HW219347   3.094   0.199   1.663
 6150SOL     OW19348   6.787   4.118   5.766
 6150SOL    HW119349   6.886   4.111   5.784
 6150SOL    HW219350   6.758   4.041   5.710
 6151SOL     OW19351   4.494   4.653   4.140
 6151SOL    HW119352   4.468   4.632   4.235
 6151SOL    HW219353   4.427   4.715   4.100
 6152SOL     OW19354   0.869   4.995   4.321
 6152SOL    HW119355   0.965   5.017   4.336
 6152SOL    HW219356   0.819   5.078   4.296
 6153SOL     OW19357   5.141   5.225   1.262
 6153SOL    HW119358   5.197   5.143   1.259
 6153SOL    HW219359   5.200   5.306   1.262
 6154SOL     OW19360   5.891   3.042   2.089
 6154SOL    HW119361   5.864   3.023   1.995
 6154SOL    HW219362   5.816   3.088   2.137
 6155SOL     OW19363   1.998   1.554   3.304
 6155SOL    HW119364   2.043   1.606   3.232
 6155SOL    HW219365   1.913   1.600   3.330
 6156SOL     OW19366   5.199   4.575   1.469
 6156SOL    HW119367   5.114   4.553   1.515
 6156SOL    HW219368   5.266   4.607   1.536
 6157SOL     OW19369   1.140   2.437   2.284
 6157SOL    HW119370   1.182   2.527   2.294
 6157SOL    HW219371   1.074   2.438   2.210
 6158SOL     OW19372   3.052   2.806   5.704
 6158SOL    HW119373   3.137   2.799   5.652
 6158SOL    HW219374   2.993   2.728   5.683
 6159SOL     OW19375   6.173   2.645   0.314
 6159SOL    HW119376   6.086   2.606   0.285
 6159SOL    HW219377   6.202   2.715   0.250
 6160SOL     OW19378   0.909   0.337   0.285
 6160SOL    HW119379   0.941   0.412   0.227
 6160SOL    HW219380   0.946   0.348   0.377
 6161SOL     OW19381   4.506   3.141   6.414
 6161SOL    HW119382   4.523   3.233   6.451
 6161SOL    HW219383   4.540   3.136   6.320
 6162SOL     OW19384   5.908   5.135   3.107
 6162SOL    HW119385   6.007   5.131   3.104
 6162SOL    HW219386   5.871   5.043   3.119
 6163SOL     OW19387   5.383   5.907   3.540
 6163SOL    HW119388   5.393   5.978   3.470
 6163SOL    HW219389   5.356   5.948   3.626
 6164SOL     OW19390   3.511   4.120   4.563
 6164SOL    HW119391   3.575   4.176   4.616
 6164SOL    HW219392   3.428   4.105   4.616
 6165SOL     OW19393   3.877   1.497   0.605
 6165SOL    HW119394   3.837   1.573   0.554
 6165SOL    HW219395   3.929   1.439   0.543
 6166SOL     OW19396   1.628   2.032   6.938
 6166SOL    HW119397   1.673   2.118   6.964
 6166SOL    HW219398   1.530   2.047   6.929
 6167SOL     OW19399   1.371   3.944   3.278
 6167SOL    HW119400   1.333   3.852   3.292
 6167SOL    HW219401   1.303   4.002   3.232
 6168SOL     OW19402   0.327   4.078   4.067
 6168SOL    HW119403   0.314   4.171   4.033
 6168SOL    HW219404   0.368   4.022   3.995
 6169SOL     OW19405   2.581   6.665   0.259
 6169SOL    HW119406   2.542   6.756   0.245
 6169SOL    HW219407   2.539   6.623   0.340
 6170SOL     OW19408   3.301   4.622   6.945
 6170SOL    HW119409   3.327   4.553   6.878
 6170SOL    HW219410   3.212   4.661   6.920
 6171SOL     OW19411   2.109   4.461   2.285
 6171SOL    HW119412   2.096   4.454   2.384
 6171SOL    HW219413   2.087   4.374   2.242
 6172SOL     OW19414   1.434   6.308   2.823
 6172SOL    HW119415   1.489   6.248   2.881
 6172SOL    HW219416   1.480   6.320   2.735
 6173SOL     OW19417   1.712   5.975   2.567
 6173SOL    HW119418   1.644   5.925   2.621
 6173SOL    HW219419   1.755   6.045   2.625
 6174SOL     OW19420   5.501   5.048   2.821
 6174SOL    HW119421   5.593   5.088   2.827
 6174SOL    HW219422   5.433   5.117   2.844
 6175SOL     OW19423   5.267   0.214   3.386
 6175SOL    HW119424   5.196   0.154   3.423
 6175SOL    HW219425   5.228   0.305   3.370
 6176SOL     OW19426   6.604   3.607   5.594
 6176SOL    HW119427   6.535   3.659   5.643
 6176SOL    HW219428   6.691   3.612   5.644
 6177SOL     OW19429   5.969   2.669   6.750
 6177SOL    HW119430   6.003   2.673   6.843
 6177SOL    HW219431   6.046   2.667   6.686
 6178SOL     OW19432   6.175   2.989   0.971
 6178SOL    HW119433   6.181   3.088   0.978
 6178SOL    HW219434   6.168   2.949   1.062
 6179SOL     OW19435   0.024   2.381   5.962
 6179SOL    HW119436   0.012   2.417   5.870
 6179SOL    HW219437   0.011   2.454   6.029
 6180SOL     OW19438   4.321   6.801   0.887
 6180SOL    HW119439   4.238   6.746   0.877
 6180SOL    HW219440   4.305   6.874   0.953
 6181SOL     OW19441   4.893   6.319   6.759
 6181SOL    HW119442   4.892   6.234   6.813
 6181SOL    HW219443   4.985   6.358   6.760
 6182SOL     OW19444   4.513   6.455   6.704
 6182SOL    HW119445   4.467   6.378   6.659
 6182SOL    HW219446   4.444   6.522   6.734
 6183SOL     OW19447   3.780   0.577   3.462
 6183SOL    HW119448   3.815   0.628   3.383
 6183SOL    HW219449   3.818   0.484   3.461
 6184SOL     OW19450   0.101   6.929   6.264
 6184SOL    HW119451   0.170   6.885   6.207
 6184SOL    HW219452   0.014   6.933   6.215
 6185SOL     OW19453   0.018   3.655   5.942
 6185SOL    HW119454   0.010   3.636   6.040
 6185SOL    HW219455   0.007   3.753   5.926
 6186SOL     OW19456   5.232   0.419   5.089
 6186SOL    HW119457   5.238   0.413   5.188
 6186SOL    HW219458   5.294   0.489   5.055
 6187SOL     OW19459   4.445   4.704   3.784
 6187SOL    HW119460   4.444   4.683   3.882
 6187SOL    HW219461   4.433   4.802   3.771
 6188SOL     OW19462   2.717   6.404   1.101
 6188SOL    HW119463   2.705   6.322   1.157
 6188SOL    HW219464   2.645   6.470   1.123
 6189SOL     OW19465   5.302   5.129   3.422
 6189SOL    HW119466   5.360   5.131   3.340
 6189SOL    HW219467   5.360   5.126   3.503
 6190SOL     OW19468   5.317   2.590   6.874
 6190SOL    HW119469   5.317   2.665   6.940
 6190SOL    HW219470   5.352   2.623   6.786
 6191SOL     OW19471   6.319   1.775   6.871
 6191SOL    HW119472   6.336   1.873   6.867
 6191SOL    HW219473   6.401   1.728   6.903
 6192SOL     OW19474   2.889   2.627   6.291
 6192SOL    HW119475   2.955   2.650   6.362
 6192SOL    HW219476   2.871   2.709   6.235
 6193SOL     OW19477   4.980   0.804   1.454
 6193SOL    HW119478   5.047   0.788   1.526
 6193SOL    HW219479   5.027   0.836   1.372
 6194SOL     OW19480   2.291   0.783   0.442
 6194SOL    HW119481   2.300   0.834   0.357
 6194SOL    HW219482   2.369   0.803   0.502
 6195SOL     OW19483   3.202   0.832   6.429
 6195SOL    HW119484   3.144   0.879   6.363
 6195SOL    HW219485   3.227   0.742   6.394
 6196SOL     OW19486   0.819   1.325   6.373
 6196SOL    HW119487   0.878   1.386   6.426
 6196SOL    HW219488   0.808   1.238   6.423
 6197SOL     OW19489   2.761   3.625   0.793
 6197SOL    HW119490   2.795   3.652   0.702
 6197SOL    HW219491   2.769   3.526   0.803
 6198SOL     OW19492   3.840   4.868   2.430
 6198SOL    HW119493   3.893   4.817   2.362
 6198SOL    HW219494   3.744   4.868   2.403
 6199SOL     OW19495   1.407   6.785   6.992
 6199SOL    HW119496   1.496   6.814   0.006
 6199SOL    HW219497   1.386   6.693   0.008
 6200SOL     OW19498   4.085   0.754   6.107
 6200SOL    HW119499   4.000   0.716   6.144
 6200SOL    HW219500   4.070   0.782   6.012
 6201SOL     OW19501   2.355   4.003   5.852
 6201SOL    HW119502   2.402   3.941   5.789
 6201SOL    HW219503   2.281   4.050   5.804
 6202SOL     OW19504   3.508   1.757   0.742
 6202SOL    HW119505   3.525   1.792   0.834
 6202SOL    HW219506   3.416   1.717   0.737
 6203SOL     OW19507   4.896   1.502   4.132
 6203SOL    HW119508   4.864   1.452   4.212
 6203SOL    HW219509   4.995   1.494   4.125
 6204SOL     OW19510   1.917   6.399   5.772
 6204SOL    HW119511   1.903   6.307   5.735
 6204SOL    HW219512   1.981   6.394   5.850
 6205SOL     OW19513   5.184   6.163   6.941
 6205SOL    HW119514   5.105   6.161   7.003
 6205SOL    HW219515   5.267   6.180   6.994
 6206SOL     OW19516   5.504   6.902   2.491
 6206SOL    HW119517   5.552   6.986   2.467
 6206SOL    HW219518   5.408   6.924   2.512
 6207SOL     OW19519   1.743   4.064   4.901
 6207SOL    HW119520   1.759   4.003   4.823
 6207SOL    HW219521   1.826   4.071   4.956
 6208SOL     OW19522   6.059   6.880   6.104
 6208SOL    HW119523   5.991   6.843   6.041
 6208SOL    HW219524   6.058   6.827   6.189
 6209SOL     OW19525   4.189   6.438   0.629
 6209SOL    HW119526   4.120   6.485   0.574
 6209SOL    HW219527   4.202   6.486   0.715
 6210SOL     OW19528   5.604   4.366   3.696
 6210SOL    HW119529   5.632   4.459   3.718
 6210SOL    HW219530   5.673   4.323   3.637
 6211SOL     OW19531   2.831   0.057   4.566
 6211SOL    HW119532   2.858   0.136   4.511
 6211SOL    HW219533   2.752   0.081   4.622
 6212SOL     OW19534   6.450   6.578   4.043
 6212SOL    HW119535   6.440   6.652   3.978
 6212SOL    HW219536   6.489   6.498   3.997
 6213SOL     OW19537   6.574   0.264   6.850
 6213SOL    HW119538   6.579   0.297   6.944
 6213SOL    HW219539   6.521   0.329   6.795
 6214SOL     OW19540   6.532   4.478   2.449
 6214SOL    HW119541   6.486   4.450   2.533
 6214SOL    HW219542   6.630   4.485   2.465
 6215SOL     OW19543   3.142   2.742   0.902
 6215SOL    HW119544   3.197   2.758   0.985
 6215SOL    HW219545   3.069   2.678   0.923
 6216SOL     OW19546   5.667   1.823   2.053
 6216SOL    HW119547   5.724   1.841   1.973
 6216SOL    HW219548   5.653   1.724   2.062
 6217SOL     OW19549   5.404   2.966   0.784
 6217SOL    HW119550   5.358   2.880   0.760
 6217SOL    HW219551   5.501   2.959   0.759
 6218SOL     OW19552   2.619   5.300   4.673
 6218SOL    HW119553   2.611   5.378   4.736
 6218SOL    HW219554   2.575   5.323   4.586
 6219SOL     OW19555   1.003   2.367   5.137
 6219SOL    HW119556   1.100   2.390   5.127
 6219SOL    HW219557   0.986   2.338   5.231
 6220SOL     OW19558   1.968   4.366   5.311
 6220SOL    HW119559   1.926   4.309   5.241
 6220SOL    HW219560   1.898   4.420   5.357
 6221SOL     OW19561   3.938   4.942   4.328
 6221SOL    HW119562   3.967   5.034   4.301
 6221SOL    HW219563   3.930   4.937   4.427
 6222SOL     OW19564   6.807   0.117   1.222
 6222SOL    HW119565   6.877   0.175   1.180
 6222SOL    HW219566   6.801   0.137   1.319
 6223SOL     OW19567   4.762   2.949   4.716
 6223SOL    HW119568   4.665   2.965   4.737
 6223SOL    HW219569   4.818   2.972   4.795
 6224SOL     OW19570   2.815   1.575   5.314
 6224SOL    HW119571   2.889   1.579   5.381
 6224SOL    HW219572   2.730   1.546   5.359
 6225SOL     OW19573   3.858   3.499   0.301
 6225SOL    HW119574   3.779   3.532   0.250
 6225SOL    HW219575   3.903   3.426   0.250
 6226SOL     OW19576   5.466   0.697   4.735
 6226SOL    HW119577   5.506   0.779   4.776
 6226SOL    HW219578   5.483   0.697   4.637
 6227SOL     OW19579   3.593   4.509   5.824
 6227SOL    HW119580   3.613   4.598   5.865
 6227SOL    HW219581   3.497   4.485   5.843
 6228SOL     OW19582   0.127   0.783   3.049
 6228SOL    HW119583   0.124   0.882   3.043
 6228SOL    HW219584   0.159   0.756   3.140
 6229SOL     OW19585   2.471   2.547   2.238
 6229SOL    HW119586   2.508   2.629   2.281
 6229SOL    HW219587   2.535   2.472   2.248
 6230SOL     OW19588   2.604   2.172   3.963
 6230SOL    HW119589   2.548   2.103   4.008
 6230SOL    HW219590   2.617   2.147   3.867
 6231SOL     OW19591   7.010   5.295   1.696
 6231SOL    HW119592   0.086   5.319   1.684
 6231SOL    HW219593   7.003   5.201   1.730
 6232SOL     OW19594   0.296   0.748   0.503
 6232SOL    HW119595   0.275   0.726   0.408
 6232SOL    HW219596   0.395   0.762   0.513
 6233SOL     OW19597   4.581   2.248   6.823
 6233SOL    HW119598   4.631   2.329   6.853
 6233SOL    HW219599   4.643   2.189   6.770
 6234SOL     OW19600   2.247   1.849   4.152
 6234SOL    HW119601   2.187   1.916   4.108
 6234SOL    HW219602   2.242   1.860   4.251
 6235SOL     OW19603   2.462   0.283   2.516
 6235SOL    HW119604   2.508   0.254   2.432
 6235SOL    HW219605   2.370   0.244   2.519
 6236SOL     OW19606   0.161   4.200   0.409
 6236SOL    HW119607   0.149   4.194   0.508
 6236SOL    HW219608   0.187   4.293   0.384
 6237SOL     OW19609   4.263   0.040   1.013
 6237SOL    HW119610   4.251   0.109   1.085
 6237SOL    HW219611   4.283   0.086   0.927
 6238SOL     OW19612   4.759   5.499   0.874
 6238SOL    HW119613   4.822   5.471   0.947
 6238SOL    HW219614   4.670   5.455   0.888
 6239SOL     OW19615   2.524   0.051   3.056
 6239SOL    HW119616   2.550   0.033   2.961
 6239SOL    HW219617   2.553   0.143   3.082
 6240SOL     OW19618   1.760   3.407   0.681
 6240SOL    HW119619   1.837   3.400   0.744
 6240SOL    HW219620   1.730   3.502   0.675
 6241SOL     OW19621   3.705   6.947   1.933
 6241SOL    HW119622   3.637   6.994   1.876
 6241SOL    HW219623   3.738   7.010   2.003
 6242SOL     OW19624   4.705   2.434   3.725
 6242SOL    HW119625   4.678   2.344   3.760
 6242SOL    HW219626   4.766   2.423   3.648
 6243SOL     OW19627   5.591   6.039   4.277
 6243SOL    HW119628   5.509   5.984   4.261
 6243SOL    HW219629   5.591   6.119   4.217
 6244SOL     OW19630   2.427   2.082   1.927
 6244SOL    HW119631   2.499   2.151   1.931
 6244SOL    HW219632   2.355   2.113   1.865
 6245SOL     OW19633   3.144   5.017   1.032
 6245SOL    HW119634   3.147   5.105   0.985
 6245SOL    HW219635   3.050   4.983   1.034
 6246SOL     OW19636   2.481   1.940   5.811
 6246SOL    HW119637   2.498   1.965   5.716
 6246SOL    HW219638   2.481   2.022   5.868
 6247SOL     OW19639   0.005   6.058   3.123
 6247SOL    HW119640   6.996   6.109   3.042
 6247SOL    HW219641   0.080   6.107   3.169
 6248SOL     OW19642   0.802   4.919   1.396
 6248SOL    HW119643   0.779   4.910   1.493
 6248SOL    HW219644   0.718   4.931   1.342
 6249SOL     OW19645   6.628   4.051   6.575
 6249SOL    HW119646   6.621   3.985   6.501
 6249SOL    HW219647   6.540   4.097   6.589
 6250SOL     OW19648   6.140   6.309   0.053
 6250SOL    HW119649   6.201   6.373   0.100
 6250SOL    HW219650   6.091   6.357   7.001
 6251SOL     OW19651   4.633   1.505   0.358
 6251SOL    HW119652   4.545   1.552   0.354
 6251SOL    HW219653   4.656   1.469   0.268
 6252SOL     OW19654   2.860   5.997   5.214
 6252SOL    HW119655   2.921   5.991   5.292
 6252SOL    HW219656   2.887   5.929   5.145
 6253SOL     OW19657   2.266   3.982   2.022
 6253SOL    HW119658   2.362   4.010   2.023
 6253SOL    HW219659   2.224   4.006   2.110
 6254SOL     OW19660   5.626   0.187   0.307
 6254SOL    HW119661   5.623   0.122   0.384
 6254SOL    HW219662   5.663   0.274   0.338
 6255SOL     OW19663   0.268   1.165   2.619
 6255SOL    HW119664   0.314   1.076   2.620
 6255SOL    HW219665   0.334   1.237   2.641
 6256SOL     OW19666   3.907   5.109   2.916
 6256SOL    HW119667   3.976   5.181   2.905
 6256SOL    HW219668   3.872   5.083   2.826
 6257SOL     OW19669   5.658   2.784   6.968
 6257SOL    HW119670   5.707   2.724   0.012
 6257SOL    HW219671   5.561   2.763   6.969
 6258SOL     OW19672   4.637   1.834   2.414
 6258SOL    HW119673   4.650   1.890   2.332
 6258SOL    HW219674   4.705   1.859   2.482
 6259SOL     OW19675   2.823   2.297   1.661
 6259SOL    HW119676   2.832   2.197   1.660
 6259SOL    HW219677   2.868   2.334   1.742
 6260SOL     OW19678   3.727   3.847   0.064
 6260SOL    HW119679   3.816   3.892   0.061
 6260SOL    HW219680   3.665   3.892   7.019
 6261SOL     OW19681   3.984   1.431   0.367
 6261SOL    HW119682   4.020   1.493   0.297
 6261SOL    HW219683   3.916   1.370   0.325
 6262SOL     OW19684   1.280   4.625   6.514
 6262SOL    HW119685   1.320   4.543   6.555
 6262SOL    HW219686   1.325   4.644   6.426
 6263SOL     OW19687   6.861   6.967   0.385
 6263SOL    HW119688   6.823   6.993   0.474
 6263SOL    HW219689   6.789   6.970   0.316
 6264SOL     OW19690   2.509   1.703   0.744
 6264SOL    HW119691   2.415   1.731   0.759
 6264SOL    HW219692   2.566   1.736   0.819
 6265SOL     OW19693   4.160   3.295   1.600
 6265SOL    HW119694   4.094   3.227   1.632
 6265SOL    HW219695   4.148   3.309   1.502
 6266SOL     OW19696   3.001   0.377   3.287
 6266SOL    HW119697   3.021   0.307   3.356
 6266SOL    HW219698   2.903   0.395   3.284
 6267SOL     OW19699   3.492   0.448   6.205
 6267SOL    HW119700   3.489   0.492   6.294
 6267SOL    HW219701   3.398   0.438   6.170
 6268SOL     OW19702   3.650   5.241   2.647
 6268SOL    HW119703   3.627   5.316   2.708
 6268SOL    HW219704   3.741   5.256   2.608
 6269SOL     OW19705   5.991   5.197   1.570
 6269SOL    HW119706   6.035   5.286   1.561
 6269SOL    HW219707   5.995   5.166   1.665
 6270SOL     OW19708   0.900   0.427   4.642
 6270SOL    HW119709   0.884   0.518   4.601
 6270SOL    HW219710   0.868   0.427   4.736
 6271SOL     OW19711   6.848   1.521   0.683
 6271SOL    HW119712   6.847   1.468   0.598
 6271SOL    HW219713   6.862   1.618   0.662
 6272SOL     OW19714   2.340   2.277   3.518
 6272SOL    HW119715   2.285   2.240   3.443
 6272SOL    HW219716   2.330   2.219   3.598
 6273SOL     OW19717   3.368   1.338   1.534
 6273SOL    HW119718   3.362   1.344   1.434
 6273SOL    HW219719   3.457   1.301   1.560
 6274SOL     OW19720   4.074   7.017   5.887
 6274SOL    HW119721   3.979   0.024   5.902
 6274SOL    HW219722   4.125   0.075   5.850
 6275SOL     OW19723   1.768   0.083   4.791
 6275SOL    HW119724   1.688   0.137   4.762
 6275SOL    HW219725   1.765   0.069   4.890
 6276SOL     OW19726   1.320   5.294   4.066
 6276SOL    HW119727   1.362   5.379   4.098
 6276SOL    HW219728   1.274   5.249   4.143
 6277SOL     OW19729   5.411   3.210   3.068
 6277SOL    HW119730   5.481   3.201   3.138
 6277SOL    HW219731   5.320   3.207   3.111
 6278SOL     OW19732   5.292   0.016   4.400
 6278SOL    HW119733   5.308   6.976   4.479
 6278SOL    HW219734   5.240   0.096   4.429
 6279SOL     OW19735   4.126   1.941   0.423
 6279SOL    HW119736   4.174   1.857   0.448
 6279SOL    HW219737   4.081   1.980   0.504
 6280SOL     OW19738   0.890   4.747   5.645
 6280SOL    HW119739   0.799   4.788   5.651
 6280SOL    HW219740   0.955   4.804   5.695
 6281SOL     OW19741   2.082   0.038   5.182
 6281SOL    HW119742   2.154   0.104   5.204
 6281SOL    HW219743   2.123   6.967   5.170
 6282SOL     OW19744   2.075   6.626   4.634
 6282SOL    HW119745   2.124   6.709   4.659
 6282SOL    HW219746   1.978   6.638   4.652
 6283SOL     OW19747   6.761   2.748   5.091
 6283SOL    HW119748   6.735   2.769   5.185
 6283SOL    HW219749   6.860   2.759   5.080
 6284SOL     OW19750   1.552   4.029   5.455
 6284SOL    HW119751   1.596   3.988   5.535
 6284SOL    HW219752   1.599   3.999   5.372
 6285SOL     OW19753   1.553   4.105   3.093
 6285SOL    HW119754   1.502   4.042   3.151
 6285SOL    HW219755   1.651   4.094   3.111
 6286SOL     OW19756   5.053   0.560   3.422
 6286SOL    HW119757   5.146   0.564   3.457
 6286SOL    HW219758   5.052   0.509   3.336
 6287SOL     OW19759   4.537   4.307   1.626
 6287SOL    HW119760   4.632   4.284   1.648
 6287SOL    HW219761   4.477   4.265   1.694
 6288SOL     OW19762   5.844   3.700   0.924
 6288SOL    HW119763   5.860   3.602   0.925
 6288SOL    HW219764   5.754   3.719   0.883
 6289SOL     OW19765   1.619   1.331   3.792
 6289SOL    HW119766   1.634   1.339   3.694
 6289SOL    HW219767   1.550   1.398   3.820
 6290SOL     OW19768   4.965   3.661   3.038
 6290SOL    HW119769   4.938   3.600   2.963
 6290SOL    HW219770   5.063   3.653   3.054
 6291SOL     OW19771   3.271   3.946   3.290
 6291SOL    HW119772   3.277   3.848   3.272
 6291SOL    HW219773   3.284   3.963   3.387
 6292SOL     OW19774   1.175   1.855   2.288
 6292SOL    HW119775   1.123   1.772   2.266
 6292SOL    HW219776   1.182   1.864   2.387
 6293SOL     OW19777   4.891   7.015   0.398
 6293SOL    HW119778   4.919   7.019   0.302
 6293SOL    HW219779   4.872   0.088   0.430
 6294SOL     OW19780   4.440   5.132   2.793
 6294SOL    HW119781   4.353   5.101   2.757
 6294SOL    HW219782   4.424   5.191   2.873
 6295SOL     OW19783   5.807   6.227   6.360
 6295SOL    HW119784   5.727   6.225   6.301
 6295SOL    HW219785   5.807   6.146   6.419
 6296SOL     OW19786   6.083   1.418   3.070
 6296SOL    HW119787   6.122   1.504   3.037
 6296SOL    HW219788   6.049   1.365   2.992
 6297SOL     OW19789   5.959   6.799   5.831
 6297SOL    HW119790   5.928   6.705   5.847
 6297SOL    HW219791   6.028   6.799   5.759
 6298SOL     OW19792   0.904   2.581   4.694
 6298SOL    HW119793   0.902   2.529   4.609
 6298SOL    HW219794   0.854   2.532   4.765
 6299SOL     OW19795   6.494   3.108   6.931
 6299SOL    HW119796   6.543   3.181   6.978
 6299SOL    HW219797   6.454   3.046   6.998
 6300SOL     OW19798   4.945   0.598   3.842
 6300SOL    HW119799   4.937   0.659   3.763
 6300SOL    HW219800   5.017   0.530   3.826
 6301SOL     OW19801   3.143   0.147   0.963
 6301SOL    HW119802   3.112   0.106   1.049
 6301SOL    HW219803   3.223   0.098   0.929
 6302SOL     OW19804   1.448   1.139   3.467
 6302SOL    HW119805   1.377   1.112   3.402
 6302SOL    HW219806   1.456   1.071   3.539
 6303SOL     OW19807   2.086   6.057   5.010
 6303SOL    HW119808   2.069   6.153   5.034
 6303SOL    HW219809   2.065   5.999   5.088
 6304SOL     OW19810   2.611   1.339   6.792
 6304SOL    HW119811   2.665   1.351   6.876
 6304SOL    HW219812   2.517   1.317   6.816
 6305SOL     OW19813   6.531   0.094   1.165
 6305SOL    HW119814   6.517   0.082   1.067
 6305SOL    HW219815   6.629   0.084   1.186
 6306SOL     OW19816   6.531   2.880   3.481
 6306SOL    HW119817   6.549   2.788   3.516
 6306SOL    HW219818   6.457   2.922   3.535
 6307SOL     OW19819   2.158   5.155   0.224
 6307SOL    HW119820   2.189   5.070   0.268
 6307SOL    HW219821   2.234   5.220   0.220
 6308SOL     OW19822   3.185   2.082   5.294
 6308SOL    HW119823   3.272   2.046   5.261
 6308SOL    HW219824   3.153   2.154   5.232
 6309SOL     OW19825   5.494   2.046   3.925
 6309SOL    HW119826   5.550   2.126   3.905
 6309SOL    HW219827   5.504   1.979   3.851
 6310SOL     OW19828   1.604   5.054   4.709
 6310SOL    HW119829   1.528   4.995   4.735
 6310SOL    HW219830   1.624   5.043   4.612
 6311SOL     OW19831   5.795   0.723   4.951
 6311SOL    HW119832   5.860   0.792   4.983
 6311SOL    HW219833   5.787   0.730   4.851
 6312SOL     OW19834   3.840   4.923   5.500
 6312SOL    HW119835   3.837   5.009   5.450
 6312SOL    HW219836   3.778   4.928   5.578
 6313SOL     OW19837   2.253   5.850   2.963
 6313SOL    HW119838   2.295   5.764   2.993
 6313SOL    HW219839   2.180   5.831   2.898
 6314SOL     OW19840   2.912   6.321   3.235
 6314SOL    HW119841   2.859   6.304   3.318
 6314SOL    HW219842   2.951   6.235   3.202
 6315SOL     OW19843   3.333   3.456   0.295
 6315SOL    HW119844   3.271   3.481   0.220
 6315SOL    HW219845   3.361   3.360   0.285
 6316SOL     OW19846   4.493   2.429   5.582
 6316SOL    HW119847   4.501   2.363   5.507
 6316SOL    HW219848   4.411   2.409   5.636
 6317SOL     OW19849   5.365   6.700   4.379
 6317SOL    HW119850   5.429   6.628   4.353
 6317SOL    HW219851   5.387   6.784   4.329
 6318SOL     OW19852   2.307   2.222   4.953
 6318SOL    HW119853   2.335   2.142   5.006
 6318SOL    HW219854   2.214   2.207   4.917
 6319SOL     OW19855   0.032   1.679   3.491
 6319SOL    HW119856   0.023   1.582   3.515
 6319SOL    HW219857   0.108   1.718   3.543
 6320SOL     OW19858   5.911   3.625   2.983
 6320SOL    HW119859   5.951   3.542   2.945
 6320SOL    HW219860   5.846   3.664   2.918
 6321SOL     OW19861   2.584   3.994   0.438
 6321SOL    HW119862   2.502   4.037   0.400
 6321SOL    HW219863   2.621   4.051   0.512
 6322SOL     OW19864   0.929   0.995   6.672
 6322SOL    HW119865   0.998   1.037   6.613
 6322SOL    HW219866   0.972   0.960   6.755
 6323SOL     OW19867   3.727   2.858   0.449
 6323SOL    HW119868   3.701   2.789   0.383
 6323SOL    HW219869   3.710   2.949   0.411
 6324SOL     OW19870   4.226   1.231   6.209
 6324SOL    HW119871   4.306   1.200   6.157
 6324SOL    HW219872   4.193   1.156   6.267
 6325SOL     OW19873   0.758   2.317   2.743
 6325SOL    HW119874   0.825   2.300   2.816
 6325SOL    HW219875   0.754   2.237   2.683
 6326SOL     OW19876   4.935   5.960   1.432
 6326SOL    HW119877   5.023   5.914   1.442
 6326SOL    HW219878   4.891   5.930   1.347
 6327SOL     OW19879   5.555   5.486   5.572
 6327SOL    HW119880   5.567   5.585   5.572
 6327SOL    HW219881   5.545   5.453   5.478
 6328SOL     OW19882   3.039   3.881   6.404
 6328SOL    HW119883   3.089   3.854   6.486
 6328SOL    HW219884   3.105   3.905   6.332
 6329SOL     OW19885   0.660   1.553   3.315
 6329SOL    HW119886   0.580   1.600   3.280
 6329SOL    HW219887   0.646   1.531   3.412
 6330SOL     OW19888   3.807   1.386   7.009
 6330SOL    HW119889   3.857   1.359   6.927
 6330SOL    HW219890   3.723   1.332   7.016
 6331SOL     OW19891   6.703   2.194   1.627
 6331SOL    HW119892   6.658   2.241   1.551
 6331SOL    HW219893   6.653   2.109   1.648
 6332SOL     OW19894   5.903   5.627   1.481
 6332SOL    HW119895   5.980   5.565   1.496
 6332SOL    HW219896   5.931   5.702   1.421
 6333SOL     OW19897   3.789   4.942   3.104
 6333SOL    HW119898   3.695   4.914   3.089
 6333SOL    HW219899   3.814   5.014   3.038
 6334SOL     OW19900   1.592   1.093   2.787
 6334SOL    HW119901   1.687   1.124   2.779
 6334SOL    HW219902   1.571   1.078   2.883
 6335SOL     OW19903   6.732   1.210   6.609
 6335SOL    HW119904   6.690   1.134   6.559
 6335SOL    HW219905   6.772   1.274   6.543
 6336SOL     OW19906   0.033   2.783   4.572
 6336SOL    HW119907   7.003   2.843   4.509
 6336SOL    HW219908   0.035   2.690   4.534
 6337SOL     OW19909   6.210   5.024   5.578
 6337SOL    HW119910   6.120   5.021   5.622
 6337SOL    HW219911   6.215   5.105   5.519
 6338SOL     OW19912   3.682   1.305   3.495
 6338SOL    HW119913   3.746   1.358   3.439
 6338SOL    HW219914   3.708   1.208   3.491
 6339SOL     OW19915   6.975   1.739   4.027
 6339SOL    HW119916   6.894   1.717   4.081
 6339SOL    HW219917   6.998   1.662   3.968
 6340SOL     OW19918   2.335   5.532   4.296
 6340SOL    HW119919   2.252   5.477   4.299
 6340SOL    HW219920   2.315   5.622   4.256
 6341SOL     OW19921   0.456   4.545   3.456
 6341SOL    HW119922   0.433   4.595   3.540
 6341SOL    HW219923   0.450   4.608   3.378
 6342SOL     OW19924   1.114   2.896   1.006
 6342SOL    HW119925   1.177   2.915   1.082
 6342SOL    HW219926   1.054   2.975   0.993
 6343SOL     OW19927   3.854   1.281   6.761
 6343SOL    HW119928   3.799   1.324   6.690
 6343SOL    HW219929   3.803   1.206   6.803
 6344SOL     OW19930   0.820   4.510   4.292
 6344SOL    HW119931   0.762   4.587   4.267
 6344SOL    HW219932   0.871   4.478   4.212
 6345SOL     OW19933   3.443   1.473   2.039
 6345SOL    HW119934   3.450   1.462   2.138
 6345SOL    HW219935   3.459   1.569   2.015
 6346SOL     OW19936   0.638   4.347   3.537
 6346SOL    HW119937   0.600   4.259   3.508
 6346SOL    HW219938   0.572   4.420   3.517
 6347SOL     OW19939   2.811   0.410   1.070
 6347SOL    HW119940   2.804   0.317   1.036
 6347SOL    HW219941   2.863   0.466   1.005
 6348SOL     OW19942   1.089   2.942   4.136
 6348SOL    HW119943   1.128   2.913   4.223
 6348SOL    HW219944   1.064   2.861   4.082
 6349SOL     OW19945   2.727   0.727   0.376
 6349SOL    HW119946   2.742   0.736   0.277
 6349SOL    HW219947   2.653   0.789   0.404
 6350SOL     OW19948   1.461   6.075   2.325
 6350SOL    HW119949   1.467   6.102   2.229
 6350SOL    HW219950   1.364   6.072   2.352
 6351SOL     OW19951   0.000   1.093   2.666
 6351SOL    HW119952   0.002   1.009   2.610
 6351SOL    HW219953   0.093   1.127   2.678
 6352SOL     OW19954   0.263   5.683   1.804
 6352SOL    HW119955   0.261   5.589   1.771
 6352SOL    HW219956   0.170   5.714   1.821
 6353SOL     OW19957   0.194   6.944   1.035
 6353SOL    HW119958   0.195   6.929   1.134
 6353SOL    HW219959   0.101   6.937   1.001
 6354SOL     OW19960   0.450   6.406   3.375
 6354SOL    HW119961   0.537   6.441   3.339
 6354SOL    HW219962   0.465   6.316   3.415
 6355SOL     OW19963   1.832   2.334   3.252
 6355SOL    HW119964   1.753   2.365   3.199
 6355SOL    HW219965   1.902   2.299   3.189
 6356SOL     OW19966   3.370   3.580   1.416
 6356SOL    HW119967   3.378   3.678   1.397
 6356SOL    HW219968   3.462   3.541   1.425
 6357SOL     OW19969   4.333   2.099   0.354
 6357SOL    HW119970   4.371   2.079   0.264
 6357SOL    HW219971   4.256   2.039   0.373
 6358SOL     OW19972   6.768   2.207   3.336
 6358SOL    HW119973   6.717   2.165   3.411
 6358SOL    HW219974   6.837   2.269   3.374
 6359SOL     OW19975   6.946   1.029   6.799
 6359SOL    HW119976   6.882   1.091   6.753
 6359SOL    HW219977   0.018   1.069   6.797
 6360SOL     OW19978   3.112   5.736   4.173
 6360SOL    HW119979   3.075   5.710   4.262
 6360SOL    HW219980   3.038   5.742   4.107
 6361SOL     OW19981   4.356   5.992   6.054
 6361SOL    HW119982   4.375   6.044   5.970
 6361SOL    HW219983   4.424   6.015   6.123
 6362SOL     OW19984   5.922   5.633   6.443
 6362SOL    HW119985   5.902   5.658   6.537
 6362SOL    HW219986   5.942   5.715   6.390
 6363SOL     OW19987   1.145   5.839   4.241
 6363SOL    HW119988   1.156   5.808   4.336
 6363SOL    HW219989   1.100   5.767   4.188
 6364SOL     OW19990   2.285   2.633   5.628
 6364SOL    HW119991   2.275   2.607   5.724
 6364SOL    HW219992   2.227   2.712   5.608
 6365SOL     OW19993   4.891   6.387   3.104
 6365SOL    HW119994   4.877   6.357   3.010
 6365SOL    HW219995   4.803   6.414   3.144
 6366SOL     OW19996   0.485   5.348   5.401
 6366SOL    HW119997   0.488   5.380   5.496
 6366SOL    HW219998   0.511   5.252   5.397
 6367SOL     OW19999   5.601   6.655   4.188
 6367SOL    HW120000   5.613   6.673   4.286
 6367SOL    HW220001   5.688   6.625   4.149
 6368SOL     OW20002   2.835   6.781   4.437
 6368SOL    HW120003   2.918   6.835   4.447
 6368SOL    HW220004   2.771   6.828   4.377
 6369SOL     OW20005   2.739   5.207   4.175
 6369SOL    HW120006   2.828   5.246   4.152
 6369SOL    HW220007   2.747   5.108   4.186
 6370SOL     OW20008   6.385   2.366   1.542
 6370SOL    HW120009   6.287   2.364   1.520
 6370SOL    HW220010   6.420   2.458   1.526
 6371SOL     OW20011   4.739   2.482   2.352
 6371SOL    HW120012   4.818   2.515   2.300
 6371SOL    HW220013   4.762   2.396   2.397
 6372SOL     OW20014   3.054   6.013   2.289
 6372SOL    HW120015   3.047   6.002   2.189
 6372SOL    HW220016   3.143   6.052   2.312
 6373SOL     OW20017   4.380   4.308   6.639
 6373SOL    HW120018   4.333   4.358   6.566
 6373SOL    HW220019   4.450   4.248   6.600
 6374SOL     OW20020   3.044   3.140   2.556
 6374SOL    HW120021   3.097   3.062   2.523
 6374SOL    HW220022   3.060   3.152   2.654
 6375SOL     OW20023   1.907   6.219   2.629
 6375SOL    HW120024   1.914   6.285   2.704
 6375SOL    HW220025   1.956   6.255   2.549
 6376SOL     OW20026   6.804   2.575   5.346
 6376SOL    HW120027   6.874   2.621   5.400
 6376SOL    HW220028   6.737   2.642   5.315
 6377SOL     OW20029   0.253   1.500   4.535
 6377SOL    HW120030   0.272   1.423   4.596
 6377SOL    HW220031   0.338   1.530   4.492
 6378SOL     OW20032   4.772   4.175   3.797
 6378SOL    HW120033   4.727   4.259   3.768
 6378SOL    HW220034   4.723   4.096   3.759
 6379SOL     OW20035   2.406   4.427   3.168
 6379SOL    HW120036   2.372   4.363   3.236
 6379SOL    HW220037   2.340   4.502   3.157
 6380SOL     OW20038   0.144   0.964   5.986
 6380SOL    HW120039   0.225   0.990   5.933
 6380SOL    HW220040   0.161   0.979   6.083
 6381SOL     OW20041   3.024   3.899   3.116
 6381SOL    HW120042   2.977   3.884   3.203
 6381SOL    HW220043   3.122   3.911   3.133
 6382SOL     OW20044   1.350   3.267   5.513
 6382SOL    HW120045   1.371   3.268   5.611
 6382SOL    HW220046   1.429   3.233   5.462
 6383SOL     OW20047   2.802   0.868   4.446
 6383SOL    HW120048   2.797   0.830   4.353
 6383SOL    HW220049   2.713   0.906   4.471
 6384SOL     OW20050   6.899   4.695   2.979
 6384SOL    HW120051   6.900   4.795   2.991
 6384SOL    HW220052   6.891   4.651   3.069
 6385SOL     OW20053   0.147   5.462   4.578
 6385SOL    HW120054   0.084   5.513   4.520
 6385SOL    HW220055   0.241   5.483   4.552
 6386SOL     OW20056   2.883   5.058   1.329
 6386SOL    HW120057   2.969   5.057   1.379
 6386SOL    HW220058   2.898   5.028   1.235
 6387SOL     OW20059   6.489   0.757   5.368
 6387SOL    HW120060   6.520   0.663   5.354
 6387SOL    HW220061   6.401   0.771   5.322
 6388SOL     OW20062   3.022   4.840   2.440
 6388SOL    HW120063   3.062   4.750   2.451
 6388SOL    HW220064   3.057   4.883   2.356
 6389SOL     OW20065   0.961   5.267   3.458
 6389SOL    HW120066   0.987   5.363   3.454
 6389SOL    HW220067   1.022   5.213   3.400
 6390SOL     OW20068   0.850   3.315   3.846
 6390SOL    HW120069   0.850   3.221   3.813
 6390SOL    HW220070   0.804   3.319   3.935
 6391SOL     OW20071   2.897   1.748   0.109
 6391SOL    HW120072   2.828   1.813   0.140
 6391SOL    HW220073   2.871   1.656   0.139
 6392SOL     OW20074   1.851   6.901   4.196
 6392SOL    HW120075   1.897   6.813   4.204
 6392SOL    HW220076   1.768   6.891   4.140
 6393SOL     OW20077   6.081   6.215   0.308
 6393SOL    HW120078   6.083   6.292   0.244
 6393SOL    HW220079   6.171   6.171   0.310
 6394SOL     OW20080   2.456   4.994   0.361
 6394SOL    HW120081   2.556   5.002   0.361
 6394SOL    HW220082   2.418   5.052   0.432
 6395SOL     OW20083   6.408   1.783   0.730
 6395SOL    HW120084   6.366   1.873   0.743
 6395SOL    HW220085   6.348   1.727   0.673
 6396SOL     OW20086   5.134   4.296   5.510
 6396SOL    HW120087   5.059   4.277   5.446
 6396SOL    HW220088   5.221   4.278   5.466
 6397SOL     OW20089   0.022   1.277   0.967
 6397SOL    HW120090   0.052   1.269   0.871
 6397SOL    HW220091   6.988   1.360   0.979
 6398SOL     OW20092   2.981   1.500   1.452
 6398SOL    HW120093   2.926   1.568   1.501
 6398SOL    HW220094   3.067   1.542   1.421
 6399SOL     OW20095   2.441   5.534   6.878
 6399SOL    HW120096   2.467   5.621   6.919
 6399SOL    HW220097   2.428   5.545   6.780
 6400SOL     OW20098   2.640   5.597   3.939
 6400SOL    HW120099   2.627   5.628   4.033
 6400SOL    HW220100   2.725   5.546   3.932
 6401SOL     OW20101   0.566   4.831   4.043
 6401SOL    HW120102   0.507   4.858   4.119
 6401SOL    HW220103   0.565   4.902   3.972
 6402SOL     OW20104   2.530   0.825   2.864
 6402SOL    HW120105   2.621   0.847   2.900
 6402SOL    HW220106   2.539   0.793   2.769
 6403SOL     OW20107   0.512   5.640   0.307
 6403SOL    HW120108   0.458   5.601   0.233
 6403SOL    HW220109   0.589   5.579   0.328
 6404SOL     OW20110   5.289   1.170   3.360
 6404SOL    HW120111   5.254   1.114   3.285
 6404SOL    HW220112   5.358   1.118   3.411
 6405SOL     OW20113   2.554   1.423   2.560
 6405SOL    HW120114   2.510   1.336   2.579
 6405SOL    HW220115   2.543   1.446   2.463
 6406SOL     OW20116   2.510   1.939   4.057
 6406SOL    HW120117   2.425   1.926   4.109
 6406SOL    HW220118   2.530   1.857   4.005
 6407SOL     OW20119   3.810   5.089   6.090
 6407SOL    HW120120   3.886   5.143   6.127
 6407SOL    HW220121   3.785   5.124   6.000
 6408SOL     OW20122   6.058   1.500   6.740
 6408SOL    HW120123   6.148   1.482   6.701
 6408SOL    HW220124   6.065   1.578   6.803
 6409SOL     OW20125   0.898   4.358   2.198
 6409SOL    HW120126   0.947   4.284   2.244
 6409SOL    HW220127   0.801   4.354   2.223
 6410SOL     OW20128   1.205   1.263   0.906
 6410SOL    HW120129   1.232   1.241   0.812
 6410SOL    HW220130   1.225   1.359   0.925
 6411SOL     OW20131   0.709   0.920   3.358
 6411SOL    HW120132   0.753   0.855   3.296
 6411SOL    HW220133   0.762   0.927   3.442
 6412SOL     OW20134   0.241   2.604   5.123
 6412SOL    HW120135   0.179   2.569   5.053
 6412SOL    HW220136   0.319   2.542   5.133
 6413SOL     OW20137   6.867   4.623   0.374
 6413SOL    HW120138   6.828   4.632   0.282
 6413SOL    HW220139   6.964   4.645   0.371
 6414SOL     OW20140   5.693   6.251   2.374
 6414SOL    HW120141   5.666   6.212   2.286
 6414SOL    HW220142   5.640   6.335   2.390
 6415SOL     OW20143   1.667   1.720   1.978
 6415SOL    HW120144   1.635   1.707   2.072
 6415SOL    HW220145   1.683   1.818   1.962
 6416SOL     OW20146   1.514   0.541   6.287
 6416SOL    HW120147   1.436   0.577   6.237
 6416SOL    HW220148   1.510   0.441   6.290
 6417SOL     OW20149   0.651   6.777   3.077
 6417SOL    HW120150   0.641   6.730   2.989
 6417SOL    HW220151   0.603   6.865   3.073
 6418SOL     OW20152   6.270   6.109   2.043
 6418SOL    HW120153   6.368   6.099   2.023
 6418SOL    HW220154   6.240   6.201   2.020
 6419SOL     OW20155   3.108   5.020   1.489
 6419SOL    HW120156   3.184   5.075   1.521
 6419SOL    HW220157   3.111   4.930   1.532
 6420SOL     OW20158   2.122   4.088   6.949
 6420SOL    HW120159   2.063   4.117   0.005
 6420SOL    HW220160   2.156   4.168   6.900
 6421SOL     OW20161   5.584   1.598   1.056
 6421SOL    HW120162   5.522   1.559   0.988
 6421SOL    HW220163   5.546   1.585   1.147
 6422SOL     OW20164   5.837   1.436   3.481
 6422SOL    HW120165   5.785   1.380   3.417
 6422SOL    HW220166   5.935   1.418   3.469
 6423SOL     OW20167   4.957   3.679   0.003
 6423SOL    HW120168   4.922   3.596   0.048
 6423SOL    HW220169   5.019   3.654   6.949
 6424SOL     OW20170   6.984   4.801   5.697
 6424SOL    HW120171   6.988   4.708   5.732
 6424SOL    HW220172   6.902   4.847   5.733
 6425SOL     OW20173   1.114   4.749   2.217
 6425SOL    HW120174   1.064   4.812   2.277
 6425SOL    HW220175   1.051   4.703   2.156
 6426SOL     OW20176   0.716   2.762   3.522
 6426SOL    HW120177   0.789   2.807   3.469
 6426SOL    HW220178   0.628   2.800   3.495
 6427SOL     OW20179   1.985   3.520   5.181
 6427SOL    HW120180   2.010   3.615   5.203
 6427SOL    HW220181   2.055   3.481   5.122
 6428SOL     OW20182   6.835   3.901   2.266
 6428SOL    HW120183   6.883   3.815   2.248
 6428SOL    HW220184   6.873   3.944   2.348
 6429SOL     OW20185   1.283   0.328   3.754
 6429SOL    HW120186   1.378   0.332   3.722
 6429SOL    HW220187   1.251   0.420   3.774
 6430SOL     OW20188   5.868   2.797   0.705
 6430SOL    HW120189   5.914   2.733   0.767
 6430SOL    HW220190   5.926   2.878   0.691
 6431SOL     OW20191   5.490   6.742   2.253
 6431SOL    HW120192   5.516   6.767   2.346
 6431SOL    HW220193   5.397   6.704   2.253
 6432SOL     OW20194   5.014   3.353   0.770
 6432SOL    HW120195   4.964   3.416   0.710
 6432SOL    HW220196   5.060   3.284   0.715
 6433SOL     OW20197   2.851   4.052   1.619
 6433SOL    HW120198   2.840   4.067   1.521
 6433SOL    HW220199   2.761   4.049   1.663
 6434SOL     OW20200   1.480   4.463   0.953
 6434SOL    HW120201   1.448   4.512   0.872
 6434SOL    HW220202   1.579   4.456   0.951
 6435SOL     OW20203   4.627   4.153   6.563
 6435SOL    HW120204   4.727   4.143   6.561
 6435SOL    HW220205   4.585   4.063   6.551
 6436SOL     OW20206   1.840   2.826   3.201
 6436SOL    HW120207   1.895   2.868   3.274
 6436SOL    HW220208   1.834   2.889   3.124
 6437SOL     OW20209   1.251   0.178   6.824
 6437SOL    HW120210   1.330   0.131   6.783
 6437SOL    HW220211   1.273   0.204   6.918
 6438SOL     OW20212   0.981   3.770   3.788
 6438SOL    HW120213   1.030   3.729   3.711
 6438SOL    HW220214   1.029   3.749   3.873
 6439SOL     OW20215   1.271   6.776   1.151
 6439SOL    HW120216   1.286   6.765   1.249
 6439SOL    HW220217   1.173   6.773   1.131
 6440SOL     OW20218   1.326   1.696   2.808
 6440SOL    HW120219   1.418   1.735   2.813
 6440SOL    HW220220   1.327   1.602   2.841
 6441SOL     OW20221   2.404   1.174   3.536
 6441SOL    HW120222   2.367   1.114   3.607
 6441SOL    HW220223   2.455   1.119   3.470
 6442SOL     OW20224   2.910   1.457   4.468
 6442SOL    HW120225   2.971   1.472   4.390
 6442SOL    HW220226   2.945   1.507   4.548
 6443SOL     OW20227   2.708   1.867   0.856
 6443SOL    HW120228   2.750   1.818   0.932
 6443SOL    HW220229   2.775   1.928   0.813
 6444SOL     OW20230   0.427   1.034   2.964
 6444SOL    HW120231   0.331   1.061   2.965
 6444SOL    HW220232   0.485   1.113   2.983
 6445SOL     OW20233   4.041   3.321   5.421
 6445SOL    HW120234   4.010   3.354   5.510
 6445SOL    HW220235   3.990   3.367   5.349
 6446SOL     OW20236   6.608   1.330   0.187
 6446SOL    HW120237   6.597   1.254   0.123
 6446SOL    HW220238   6.702   1.331   0.222
 6447SOL     OW20239   1.573   0.497   2.972
 6447SOL    HW120240   1.567   0.494   2.872
 6447SOL    HW220241   1.601   0.588   3.002
 6448SOL     OW20242   5.744   2.593   2.951
 6448SOL    HW120243   5.645   2.606   2.953
 6448SOL    HW220244   5.767   2.507   2.997
 6449SOL     OW20245   3.513   2.973   0.668
 6449SOL    HW120246   3.537   2.876   0.667
 6449SOL    HW220247   3.569   3.022   0.601
 6450SOL     OW20248   6.506   3.522   0.593
 6450SOL    HW120249   6.418   3.544   0.551
 6450SOL    HW220250   6.580   3.552   0.532
 6451SOL     OW20251   2.505   6.104   5.053
 6451SOL    HW120252   2.458   6.016   5.044
 6451SOL    HW220253   2.486   6.143   5.143
 6452SOL     OW20254   3.462   6.360   3.791
 6452SOL    HW120255   3.506   6.445   3.820
 6452SOL    HW220256   3.410   6.377   3.707
 6453SOL     OW20257   1.623   5.877   6.317
 6453SOL    HW120258   1.708   5.829   6.339
 6453SOL    HW220259   1.621   5.964   6.366
 6454SOL     OW20260   3.484   1.239   4.825
 6454SOL    HW120261   3.509   1.274   4.915
 6454SOL    HW220262   3.390   1.265   4.804
 6455SOL     OW20263   5.669   2.651   5.413
 6455SOL    HW120264   5.735   2.725   5.403
 6455SOL    HW220265   5.712   2.563   5.392
 6456SOL     OW20266   0.109   0.285   3.703
 6456SOL    HW120267   0.207   0.267   3.700
 6456SOL    HW220268   0.089   0.371   3.656
 6457SOL     OW20269   6.740   2.729   0.882
 6457SOL    HW120270   6.677   2.797   0.918
 6457SOL    HW220271   6.786   2.682   0.958
 6458SOL     OW20272   1.459   5.685   3.093
 6458SOL    HW120273   1.421   5.595   3.113
 6458SOL    HW220274   1.558   5.678   3.082
 6459SOL     OW20275   5.187   4.946   6.890
 6459SOL    HW120276   5.203   4.979   6.797
 6459SOL    HW220277   5.117   4.875   6.889
 6460SOL     OW20278   3.471   5.090   6.164
 6460SOL    HW120279   3.441   5.063   6.256
 6460SOL    HW220280   3.472   5.009   6.105
 6461SOL     OW20281   3.602   4.965   4.689
 6461SOL    HW120282   3.572   5.059   4.674
 6461SOL    HW220283   3.523   4.905   4.698
 6462SOL     OW20284   2.146   3.530   4.409
 6462SOL    HW120285   2.151   3.446   4.464
 6462SOL    HW220286   2.168   3.609   4.466
 6463SOL     OW20287   1.709   4.239   6.172
 6463SOL    HW120288   1.682   4.335   6.158
 6463SOL    HW220289   1.694   4.188   6.087
 6464SOL     OW20290   0.389   5.566   3.173
 6464SOL    HW120291   0.361   5.662   3.183
 6464SOL    HW220292   0.308   5.507   3.177
 6465SOL     OW20293   6.430   1.341   3.291
 6465SOL    HW120294   6.438   1.291   3.205
 6465SOL    HW220295   6.437   1.278   3.368
 6466SOL     OW20296   6.973   2.395   5.190
 6466SOL    HW120297   7.001   2.418   5.097
 6466SOL    HW220298   6.884   2.437   5.209
 6467SOL     OW20299   2.641   0.961   6.356
 6467SOL    HW120300   2.689   1.045   6.332
 6467SOL    HW220301   2.554   0.958   6.307
 6468SOL     OW20302   5.099   5.131   0.933
 6468SOL    HW120303   5.153   5.047   0.929
 6468SOL    HW220304   5.023   5.118   0.997
 6469SOL     OW20305   6.995   1.312   5.472
 6469SOL    HW120306   6.968   1.335   5.566
 6469SOL    HW220307   0.070   1.340   5.458
 6470SOL     OW20308   6.680   0.398   5.861
 6470SOL    HW120309   6.696   0.391   5.960
 6470SOL    HW220310   6.607   0.464   5.844
 6471SOL     OW20311   5.484   4.939   5.925
 6471SOL    HW120312   5.538   4.894   5.996
 6471SOL    HW220313   5.458   5.030   5.955
 6472SOL     OW20314   1.064   6.014   1.808
 6472SOL    HW120315   0.988   6.050   1.863
 6472SOL    HW220316   1.028   5.972   1.725
 6473SOL     OW20317   1.985   1.744   6.423
 6473SOL    HW120318   2.017   1.654   6.454
 6473SOL    HW220319   2.045   1.777   6.350
 6474SOL     OW20320   1.715   3.043   5.181
 6474SOL    HW120321   1.750   3.014   5.270
 6474SOL    HW220322   1.653   3.120   5.193
 6475SOL     OW20323   3.975   6.096   4.138
 6475SOL    HW120324   4.012   6.135   4.054
 6475SOL    HW220325   3.899   6.152   4.171
 6476SOL     OW20326   4.570   4.695   2.574
 6476SOL    HW120327   4.594   4.792   2.576
 6476SOL    HW220328   4.519   4.676   2.490
 6477SOL     OW20329   6.527   5.501   0.181
 6477SOL    HW120330   6.496   5.555   0.259
 6477SOL    HW220331   6.482   5.411   0.183
 6478SOL     OW20332   4.783   6.722   1.194
 6478SOL    HW120333   4.768   6.764   1.104
 6478SOL    HW220334   4.869   6.671   1.193
 6479SOL     OW20335   4.075   5.010   2.508
 6479SOL    HW120336   3.994   4.979   2.458
 6479SOL    HW220337   4.124   4.930   2.545
 6480SOL     OW20338   2.938   2.354   0.172
 6480SOL    HW120339   3.025   2.330   0.216
 6480SOL    HW220340   2.868   2.288   0.200
 6481SOL     OW20341   4.511   1.076   1.259
 6481SOL    HW120342   4.425   1.058   1.211
 6481SOL    HW220343   4.544   1.167   1.235
 6482SOL     OW20344   7.006   0.404   6.497
 6482SOL    HW120345   6.953   0.353   6.566
 6482SOL    HW220346   6.967   0.495   6.486
 6483SOL     OW20347   1.431   6.805   2.814
 6483SOL    HW120348   1.392   6.715   2.834
 6483SOL    HW220349   1.405   6.833   2.722
 6484SOL     OW20350   4.738   6.862   3.493
 6484SOL    HW120351   4.730   6.899   3.586
 6484SOL    HW220352   4.756   6.937   3.429
 6485SOL     OW20353   1.957   2.230   3.043
 6485SOL    HW120354   2.054   2.224   3.065
 6485SOL    HW220355   1.937   2.171   2.964
 6486SOL     OW20356   1.675   3.479   3.613
 6486SOL    HW120357   1.695   3.523   3.525
 6486SOL    HW220358   1.742   3.406   3.629
 6487SOL     OW20359   5.549   6.274   4.145
 6487SOL    HW120360   5.472   6.317   4.097
 6487SOL    HW220361   5.578   6.332   4.221
 6488SOL     OW20362   3.153   5.178   5.952
 6488SOL    HW120363   3.228   5.230   5.913
 6488SOL    HW220364   3.166   5.081   5.932
 6489SOL     OW20365   2.252   1.885   5.473
 6489SOL    HW120366   2.307   1.939   5.537
 6489SOL    HW220367   2.166   1.858   5.517
 6490SOL     OW20368   3.819   1.182   0.635
 6490SOL    HW120369   3.766   1.099   0.649
 6490SOL    HW220370   3.813   1.241   0.716
 6491SOL     OW20371   3.871   1.893   6.709
 6491SOL    HW120372   3.897   1.990   6.706
 6491SOL    HW220373   3.820   1.875   6.793
 6492SOL     OW20374   5.788   5.903   6.905
 6492SOL    HW120375   5.820   5.998   6.905
 6492SOL    HW220376   5.780   5.870   6.999
 6493SOL     OW20377   1.145   6.245   6.354
 6493SOL    HW120378   1.072   6.180   6.335
 6493SOL    HW220379   1.108   6.324   6.402
 6494SOL     OW20380   0.738   0.477   3.563
 6494SOL    HW120381   0.699   0.489   3.654
 6494SOL    HW220382   0.829   0.437   3.570
 6495SOL     OW20383   5.707   4.758   2.638
 6495SOL    HW120384   5.617   4.750   2.682
 6495SOL    HW220385   5.744   4.666   2.622
 6496SOL     OW20386   1.477   0.188   2.383
 6496SOL    HW120387   1.520   0.161   2.469
 6496SOL    HW220388   1.454   0.285   2.387
 6497SOL     OW20389   1.502   4.487   0.313
 6497SOL    HW120390   1.451   4.565   0.349
 6497SOL    HW220391   1.593   4.518   0.285
 6498SOL     OW20392   2.216   4.582   4.014
 6498SOL    HW120393   2.203   4.602   3.916
 6498SOL    HW220394   2.132   4.604   4.063
 6499SOL     OW20395   5.556   1.156   3.780
 6499SOL    HW120396   5.489   1.225   3.750
 6499SOL    HW220397   5.566   1.161   3.879
 6500SOL     OW20398   4.778   5.139   3.444
 6500SOL    HW120399   4.871   5.126   3.408
 6500SOL    HW220400   4.781   5.149   3.543
 6501SOL     OW20401   6.733   4.212   1.093
 6501SOL    HW120402   6.764   4.306   1.088
 6501SOL    HW220403   6.811   4.151   1.104
 6502SOL     OW20404   0.977   5.448   2.900
 6502SOL    HW120405   1.071   5.418   2.880
 6502SOL    HW220406   0.920   5.368   2.920
 6503SOL     OW20407   4.260   6.692   4.577
 6503SOL    HW120408   4.167   6.683   4.614
 6503SOL    HW220409   4.323   6.636   4.629
 6504SOL     OW20410   2.863   0.789   0.633
 6504SOL    HW120411   2.787   0.799   0.569
 6504SOL    HW220412   2.843   0.716   0.698
 6505SOL     OW20413   6.411   5.106   1.089
 6505SOL    HW120414   6.503   5.081   1.120
 6505SOL    HW220415   6.354   5.127   1.168
 6506SOL     OW20416   2.319   2.519   1.362
 6506SOL    HW120417   2.234   2.472   1.336
 6506SOL    HW220418   2.353   2.482   1.447
 6507SOL     OW20419   2.061   0.114   1.597
 6507SOL    HW120420   2.035   0.017   1.599
 6507SOL    HW220421   1.982   0.169   1.570
 6508SOL     OW20422   2.178   1.941   2.981
 6508SOL    HW120423   2.193   2.038   3.000
 6508SOL    HW220424   2.229   1.915   2.900
 6509SOL     OW20425   0.812   2.565   4.103
 6509SOL    HW120426   0.750   2.623   4.155
 6509SOL    HW220427   0.900   2.611   4.090
 6510SOL     OW20428   5.896   4.582   6.136
 6510SOL    HW120429   5.811   4.630   6.155
 6510SOL    HW220430   5.890   4.488   6.170
 6511SOL     OW20431   6.614   6.242   6.468
 6511SOL    HW120432   6.605   6.341   6.452
 6511SOL    HW220433   6.641   6.227   6.563
 6512SOL     OW20434   4.967   6.459   3.931
 6512SOL    HW120435   5.063   6.481   3.950
 6512SOL    HW220436   4.916   6.543   3.918
 6513SOL     OW20437   3.510   6.852   2.929
 6513SOL    HW120438   3.427   6.882   2.974
 6513SOL    HW220439   3.567   6.931   2.906
 6514SOL     OW20440   3.780   0.049   4.093
 6514SOL    HW120441   3.716   0.100   4.150
 6514SOL    HW220442   3.761   0.067   3.996
 6515SOL     OW20443   0.753   0.014   5.151
 6515SOL    HW120444   0.691   7.007   5.224
 6515SOL    HW220445   0.702   0.022   5.065
 6516SOL     OW20446   0.722   1.734   5.482
 6516SOL    HW120447   0.715   1.634   5.490
 6516SOL    HW220448   0.653   1.767   5.417
 6517SOL     OW20449   1.105   1.442   0.382
 6517SOL    HW120450   1.059   1.449   0.293
 6517SOL    HW220451   1.133   1.533   0.412
 6518SOL     OW20452   6.436   6.409   1.541
 6518SOL    HW120453   6.395   6.340   1.600
 6518SOL    HW220454   6.530   6.384   1.520
 6519SOL     OW20455   2.116   2.049   4.015
 6519SOL    HW120456   2.043   1.992   3.977
 6519SOL    HW220457   2.109   2.142   3.978
 6520SOL     OW20458   5.742   5.479   1.340
 6520SOL    HW120459   5.718   5.398   1.393
 6520SOL    HW220460   5.763   5.554   1.403
 6521SOL     OW20461   0.236   1.406   5.338
 6521SOL    HW120462   0.316   1.464   5.327
 6521SOL    HW220463   0.236   1.365   5.429
 6522SOL     OW20464   2.410   5.352   5.869
 6522SOL    HW120465   2.463   5.436   5.860
 6522SOL    HW220466   2.331   5.368   5.928
 6523SOL     OW20467   2.183   2.093   6.169
 6523SOL    HW120468   2.248   2.018   6.153
 6523SOL    HW220469   2.090   2.060   6.154
 6524SOL     OW20470   4.099   3.751   3.727
 6524SOL    HW120471   4.191   3.766   3.690
 6524SOL    HW220472   4.079   3.653   3.727
 6525SOL     OW20473   0.459   2.850   3.434
 6525SOL    HW120474   0.419   2.795   3.507
 6525SOL    HW220475   0.402   2.930   3.418
 6526SOL     OW20476   1.166   6.135   4.940
 6526SOL    HW120477   1.129   6.227   4.927
 6526SOL    HW220478   1.108   6.084   5.004
 6527SOL     OW20479   1.521   0.234   4.730
 6527SOL    HW120480   1.552   0.275   4.644
 6527SOL    HW220481   1.435   0.186   4.715
 6528SOL     OW20482   6.793   1.447   4.610
 6528SOL    HW120483   6.877   1.466   4.660
 6528SOL    HW220484   6.775   1.348   4.611
 6529SOL     OW20485   6.828   1.849   1.747
 6529SOL    HW120486   6.735   1.869   1.716
 6529SOL    HW220487   6.892   1.912   1.703
 6530SOL     OW20488   6.676   1.773   0.744
 6530SOL    HW120489   6.577   1.771   0.757
 6530SOL    HW220490   6.704   1.863   0.712
 6531SOL     OW20491   4.761   2.686   4.323
 6531SOL    HW120492   4.782   2.702   4.419
 6531SOL    HW220493   4.813   2.749   4.266
 6532SOL     OW20494   6.853   1.641   6.252
 6532SOL    HW120495   6.906   1.606   6.329
 6532SOL    HW220496   6.811   1.728   6.277
 6533SOL     OW20497   4.626   0.267   1.451
 6533SOL    HW120498   4.606   0.311   1.539
 6533SOL    HW220499   4.687   0.325   1.397
 6534SOL     OW20500   2.146   3.831   1.216
 6534SOL    HW120501   2.118   3.736   1.229
 6534SOL    HW220502   2.214   3.836   1.142
 6535SOL     OW20503   0.921   3.705   5.727
 6535SOL    HW120504   1.005   3.729   5.776
 6535SOL    HW220505   0.853   3.671   5.791
 6536SOL     OW20506   6.450   2.477   0.108
 6536SOL    HW120507   6.411   2.426   0.184
 6536SOL    HW220508   6.549   2.477   0.114
 6537SOL     OW20509   1.220   0.036   0.393
 6537SOL    HW120510   1.234   6.963   0.428
 6537SOL    HW220511   1.211   0.033   0.294
 6538SOL     OW20512   2.964   3.113   6.996
 6538SOL    HW120513   3.039   3.097   0.039
 6538SOL    HW220514   2.935   3.026   6.955
 6539SOL     OW20515   2.317   1.694   0.088
 6539SOL    HW120516   2.294   1.635   0.165
 6539SOL    HW220517   2.299   1.645   0.003
 6540SOL     OW20518   2.939   1.374   4.977
 6540SOL    HW120519   3.021   1.408   5.025
 6540SOL    HW220520   2.886   1.452   4.944
 6541SOL     OW20521   2.114   2.549   6.195
 6541SOL    HW120522   2.121   2.637   6.146
 6541SOL    HW220523   2.093   2.477   6.129
 6542SOL     OW20524   5.963   4.371   4.051
 6542SOL    HW120525   5.926   4.464   4.059
 6542SOL    HW220526   5.889   4.305   4.063
 6543SOL     OW20527   6.416   5.810   6.677
 6543SOL    HW120528   6.317   5.824   6.678
 6543SOL    HW220529   6.460   5.875   6.739
 6544SOL     OW20530   6.197   6.720   4.646
 6544SOL    HW120531   6.294   6.701   4.631
 6544SOL    HW220532   6.152   6.637   4.682
 6545SOL     OW20533   5.020   1.807   5.837
 6545SOL    HW120534   5.036   1.811   5.936
 6545SOL    HW220535   5.105   1.784   5.790
 6546SOL     OW20536   2.889   4.341   6.227
 6546SOL    HW120537   2.938   4.285   6.294
 6546SOL    HW220538   2.869   4.431   6.266
 6547SOL     OW20539   5.222   2.207   6.752
 6547SOL    HW120540   5.196   2.292   6.797
 6547SOL    HW220541   5.313   2.218   6.712
 6548SOL     OW20542   6.860   4.895   5.458
 6548SOL    HW120543   6.907   4.848   5.533
 6548SOL    HW220544   6.903   4.985   5.444
 6549SOL     OW20545   3.498   1.985   1.002
 6549SOL    HW120546   3.588   2.017   1.033
 6549SOL    HW220547   3.446   2.062   0.967
 6550SOL     OW20548   0.531   5.824   3.422
 6550SOL    HW120549   0.561   5.830   3.517
 6550SOL    HW220550   0.554   5.910   3.375
 6551SOL     OW20551   2.406   4.804   1.887
 6551SOL    HW120552   2.425   4.721   1.940
 6551SOL    HW220553   2.311   4.831   1.901
 6552SOL     OW20554   3.106   5.083   5.470
 6552SOL    HW120555   3.099   5.110   5.374
 6552SOL    HW220556   3.158   5.151   5.520
 6553SOL     OW20557   1.081   3.436   2.661
 6553SOL    HW120558   1.053   3.340   2.660
 6553SOL    HW220559   1.143   3.452   2.738
 6554SOL     OW20560   7.020   2.715   5.417
 6554SOL    HW120561   0.093   2.684   5.435
 6554SOL    HW220562   7.000   2.795   5.473
 6555SOL     OW20563   0.406   1.049   1.941
 6555SOL    HW120564   0.456   1.124   1.984
 6555SOL    HW220565   0.308   1.062   1.956
 6556SOL     OW20566   3.868   5.971   4.468
 6556SOL    HW120567   3.894   6.065   4.490
 6556SOL    HW220568   3.777   5.970   4.427
 6557SOL     OW20569   6.889   5.239   0.989
 6557SOL    HW120570   6.830   5.294   1.047
 6557SOL    HW220571   6.901   5.149   1.029
 6558SOL     OW20572   6.149   5.631   6.843
 6558SOL    HW120573   6.247   5.619   6.856
 6558SOL    HW220574   6.107   5.542   6.824
 6559SOL     OW20575   4.137   3.759   0.722
 6559SOL    HW120576   4.123   3.855   0.746
 6559SOL    HW220577   4.070   3.703   0.769
 6560SOL     OW20578   3.905   2.243   0.189
 6560SOL    HW120579   3.964   2.163   0.179
 6560SOL    HW220580   3.896   2.266   0.285
 6561SOL     OW20581   4.112   3.475   3.778
 6561SOL    HW120582   4.164   3.470   3.863
 6561SOL    HW220583   4.050   3.396   3.772
 6562SOL     OW20584   6.474   3.706   5.979
 6562SOL    HW120585   6.490   3.740   5.886
 6562SOL    HW220586   6.530   3.759   6.043
 6563SOL     OW20587   1.235   5.443   2.074
 6563SOL    HW120588   1.312   5.504   2.094
 6563SOL    HW220589   1.178   5.483   2.002
 6564SOL     OW20590   1.077   5.240   2.129
 6564SOL    HW120591   1.156   5.301   2.130
 6564SOL    HW220592   1.069   5.196   2.039
 6565SOL     OW20593   6.851   2.916   5.838
 6565SOL    HW120594   6.899   2.957   5.915
 6565SOL    HW220595   6.793   2.841   5.870
 6566SOL     OW20596   3.691   6.671   1.069
 6566SOL    HW120597   3.595   6.664   1.043
 6566SOL    HW220598   3.700   6.663   1.168
 6567SOL     OW20599   5.362   2.605   1.564
 6567SOL    HW120600   5.358   2.657   1.479
 6567SOL    HW220601   5.308   2.521   1.555
 6568SOL     OW20602   4.113   4.356   1.603
 6568SOL    HW120603   4.088   4.260   1.619
 6568SOL    HW220604   4.162   4.363   1.516
 6569SOL     OW20605   0.785   4.534   6.848
 6569SOL    HW120606   0.839   4.584   6.916
 6569SOL    HW220607   0.707   4.490   6.893
 6570SOL     OW20608   6.178   2.622   1.327
 6570SOL    HW120609   6.137   2.554   1.388
 6570SOL    HW220610   6.277   2.606   1.320
 6571SOL     OW20611   2.836   5.604   3.459
 6571SOL    HW120612   2.764   5.664   3.495
 6571SOL    HW220613   2.925   5.645   3.476
 6572SOL     OW20614   0.646   4.254   5.793
 6572SOL    HW120615   0.705   4.176   5.777
 6572SOL    HW220616   0.673   4.329   5.733
 6573SOL     OW20617   1.856   1.606   2.643
 6573SOL    HW120618   1.912   1.662   2.583
 6573SOL    HW220619   1.903   1.594   2.730
 6574SOL     OW20620   3.288   4.903   3.039
 6574SOL    HW120621   3.337   4.985   3.008
 6574SOL    HW220622   3.315   4.883   3.133
 6575SOL     OW20623   0.443   1.510   2.950
 6575SOL    HW120624   0.343   1.511   2.949
 6575SOL    HW220625   0.477   1.599   2.982
 6576SOL     OW20626   1.001   6.105   6.604
 6576SOL    HW120627   1.072   6.159   6.648
 6576SOL    HW220628   1.038   6.063   6.521
 6577SOL     OW20629   6.581   2.377   3.608
 6577SOL    HW120630   6.547   2.296   3.560
 6577SOL    HW220631   6.541   2.380   3.700
 6578SOL     OW20632   6.116   4.809   3.604
 6578SOL    HW120633   6.080   4.753   3.679
 6578SOL    HW220634   6.216   4.812   3.610
 6579SOL     OW20635   0.320   3.929   2.858
 6579SOL    HW120636   0.304   3.982   2.941
 6579SOL    HW220637   0.416   3.934   2.833
 6580SOL     OW20638   6.223   2.208   1.743
 6580SOL    HW120639   6.273   2.269   1.681
 6580SOL    HW220640   6.234   2.113   1.713
 6581SOL     OW20641   2.873   1.591   6.369
 6581SOL    HW120642   2.915   1.620   6.455
 6581SOL    HW220643   2.941   1.593   6.296
 6582SOL     OW20644   6.398   0.155   2.923
 6582SOL    HW120645   6.304   0.125   2.907
 6582SOL    HW220646   6.462   0.082   2.897
 6583SOL     OW20647   5.570   1.402   5.857
 6583SOL    HW120648   5.534   1.402   5.764
 6583SOL    HW220649   5.660   1.358   5.858
 6584SOL     OW20650   6.065   1.578   6.437
 6584SOL    HW120651   5.988   1.597   6.498
 6584SOL    HW220652   6.150   1.579   6.491
 6585SOL     OW20653   1.315   1.236   6.773
 6585SOL    HW120654   1.255   1.264   6.848
 6585SOL    HW220655   1.389   1.303   6.763
 6586SOL     OW20656   6.526   2.276   5.927
 6586SOL    HW120657   6.563   2.205   5.867
 6586SOL    HW220658   6.482   2.234   6.006
 6587SOL     OW20659   2.160   6.814   3.271
 6587SOL    HW120660   2.175   6.715   3.276
 6587SOL    HW220661   2.225   6.854   3.207
 6588SOL     OW20662   1.461   3.224   0.123
 6588SOL    HW120663   1.520   3.190   0.049
 6588SOL    HW220664   1.369   3.188   0.111
 6589SOL     OW20665   4.146   1.850   5.400
 6589SOL    HW120666   4.079   1.780   5.378
 6589SOL    HW220667   4.100   1.937   5.416
 6590SOL     OW20668   0.157   1.260   5.112
 6590SOL    HW120669   0.063   1.290   5.097
 6590SOL    HW220670   0.197   1.311   5.188
 6591SOL     OW20671   5.650   0.974   3.008
 6591SOL    HW120672   5.628   1.072   3.004
 6591SOL    HW220673   5.747   0.961   2.985
 6592SOL     OW20674   4.724   5.663   4.555
 6592SOL    HW120675   4.672   5.658   4.641
 6592SOL    HW220676   4.693   5.590   4.493
 6593SOL     OW20677   3.614   1.232   2.519
 6593SOL    HW120678   3.652   1.324   2.507
 6593SOL    HW220679   3.528   1.238   2.569
 6594SOL     OW20680   5.715   0.191   6.644
 6594SOL    HW120681   5.689   0.216   6.551
 6594SOL    HW220682   5.685   0.262   6.708
 6595SOL     OW20683   1.732   3.846   0.932
 6595SOL    HW120684   1.639   3.837   0.967
 6595SOL    HW220685   1.749   3.942   0.906
 6596SOL     OW20686   4.277   6.894   5.007
 6596SOL    HW120687   4.281   6.808   5.057
 6596SOL    HW220688   4.181   6.922   4.996
 6597SOL     OW20689   0.149   5.002   5.309
 6597SOL    HW120690   0.166   4.911   5.271
 6597SOL    HW220691   0.095   5.056   5.244
 6598SOL     OW20692   1.614   5.864   5.442
 6598SOL    HW120693   1.598   5.860   5.344
 6598SOL    HW220694   1.708   5.891   5.460
 6599SOL     OW20695   3.845   4.507   5.666
 6599SOL    HW120696   3.798   4.519   5.753
 6599SOL    HW220697   3.897   4.589   5.644
 6600SOL     OW20698   4.672   6.028   4.063
 6600SOL    HW120699   4.726   6.024   3.979
 6600SOL    HW220700   4.645   5.935   4.089
 6601SOL     OW20701   0.613   0.197   0.081
 6601SOL    HW120702   0.598   0.159   7.010
 6601SOL    HW220703   0.528   0.236   0.115
 6602SOL     OW20704   6.551   1.483   1.540
 6602SOL    HW120705   6.618   1.457   1.609
 6602SOL    HW220706   6.523   1.401   1.489
 6603SOL     OW20707   2.101   3.539   3.290
 6603SOL    HW120708   2.136   3.526   3.383
 6603SOL    HW220709   2.178   3.543   3.226
 6604SOL     OW20710   3.482   5.458   2.358
 6604SOL    HW120711   3.396   5.465   2.307
 6604SOL    HW220712   3.466   5.482   2.454
 6605SOL     OW20713   5.730   5.850   0.138
 6605SOL    HW120714   5.827   5.830   0.155
 6605SOL    HW220715   5.688   5.883   0.223
 6606SOL     OW20716   5.341   0.756   2.428
 6606SOL    HW120717   5.309   0.664   2.451
 6606SOL    HW220718   5.266   0.809   2.389
 6607SOL     OW20719   1.148   2.070   2.495
 6607SOL    HW120720   1.159   1.978   2.532
 6607SOL    HW220721   1.078   2.069   2.423
 6608SOL     OW20722   6.094   3.692   4.244
 6608SOL    HW120723   6.024   3.655   4.305
 6608SOL    HW220724   6.057   3.703   4.152
 6609SOL     OW20725   5.734   1.673   6.565
 6609SOL    HW120726   5.771   1.589   6.606
 6609SOL    HW220727   5.644   1.692   6.604
 6610SOL     OW20728   2.354   0.591   6.502
 6610SOL    HW120729   2.277   0.647   6.469
 6610SOL    HW220730   2.322   0.531   6.575
 6611SOL     OW20731   5.952   2.587   2.588
 6611SOL    HW120732   6.012   2.647   2.642
 6611SOL    HW220733   5.924   2.509   2.644
 6612SOL     OW20734   1.826   6.304   6.958
 6612SOL    HW120735   1.742   6.267   6.999
 6612SOL    HW220736   1.832   6.402   6.977
 6613SOL     OW20737   4.829   5.184   1.889
 6613SOL    HW120738   4.856   5.112   1.825
 6613SOL    HW220739   4.755   5.237   1.848
 6614SOL     OW20740   4.930   5.857   6.348
 6614SOL    HW120741   4.985   5.937   6.368
 6614SOL    HW220742   4.855   5.850   6.415
 6615SOL     OW20743   0.923   3.842   5.253
 6615SOL    HW120744   0.911   3.925   5.198
 6615SOL    HW220745   0.897   3.763   5.199
 6616SOL     OW20746   4.858   0.396   4.651
 6616SOL    HW120747   4.953   0.427   4.652
 6616SOL    HW220748   4.854   0.298   4.666
 6617SOL     OW20749   4.146   0.235   5.762
 6617SOL    HW120750   4.079   0.254   5.690
 6617SOL    HW220751   4.197   0.318   5.783
 6618SOL     OW20752   0.795   4.554   1.283
 6618SOL    HW120753   0.829   4.460   1.289
 6618SOL    HW220754   0.713   4.557   1.226
 6619SOL     OW20755   4.725   5.527   2.631
 6619SOL    HW120756   4.802   5.501   2.690
 6619SOL    HW220757   4.661   5.450   2.624
 6620SOL     OW20758   1.712   2.668   5.392
 6620SOL    HW120759   1.658   2.648   5.473
 6620SOL    HW220760   1.655   2.715   5.324
 6621SOL     OW20761   2.773   3.869   0.297
 6621SOL    HW120762   2.811   3.945   0.245
 6621SOL    HW220763   2.678   3.889   0.321
 6622SOL     OW20764   6.979   6.247   0.393
 6622SOL    HW120765   6.961   6.291   0.481
 6622SOL    HW220766   0.019   6.168   0.406
 6623SOL     OW20767   3.459   3.424   2.290
 6623SOL    HW120768   3.370   3.379   2.301
 6623SOL    HW220769   3.458   3.512   2.337
 6624SOL     OW20770   4.243   4.683   4.490
 6624SOL    HW120771   4.201   4.628   4.562
 6624SOL    HW220772   4.324   4.635   4.455
 6625SOL     OW20773   6.220   0.551   0.252
 6625SOL    HW120774   6.245   0.648   0.256
 6625SOL    HW220775   6.226   0.520   0.157
 6626SOL     OW20776   3.606   5.232   3.454
 6626SOL    HW120777   3.691   5.241   3.506
 6626SOL    HW220778   3.610   5.291   3.373
 6627SOL     OW20779   2.219   6.306   1.225
 6627SOL    HW120780   2.278   6.319   1.305
 6627SOL    HW220781   2.130   6.273   1.255
 6628SOL     OW20782   4.079   5.897   3.098
 6628SOL    HW120783   3.986   5.933   3.107
 6628SOL    HW220784   4.103   5.847   3.181
 6629SOL     OW20785   3.187   4.783   0.311
 6629SOL    HW120786   3.088   4.771   0.312
 6629SOL    HW220787   3.215   4.832   0.394
 6630SOL     OW20788   3.357   1.952   0.303
 6630SOL    HW120789   3.311   1.864   0.296
 6630SOL    HW220790   3.392   1.964   0.395
 6631SOL     OW20791   5.137   0.942   2.283
 6631SOL    HW120792   5.104   1.026   2.240
 6631SOL    HW220793   5.067   0.871   2.275
 6632SOL     OW20794   0.229   1.612   1.503
 6632SOL    HW120795   0.294   1.545   1.542
 6632SOL    HW220796   0.188   1.574   1.420
 6633SOL     OW20797   0.843   6.995   1.139
 6633SOL    HW120798   0.883   0.043   1.201
 6633SOL    HW220799   0.843   0.010   1.046
 6634SOL     OW20800   6.896   2.873   6.273
 6634SOL    HW120801   6.856   2.939   6.210
 6634SOL    HW220802   6.826   2.842   6.338
 6635SOL     OW20803   4.683   4.360   3.217
 6635SOL    HW120804   4.603   4.408   3.183
 6635SOL    HW220805   4.700   4.279   3.160
 6636SOL     OW20806   2.121   2.628   4.136
 6636SOL    HW120807   2.197   2.689   4.154
 6636SOL    HW220808   2.088   2.641   4.042
 6637SOL     OW20809   6.851   0.281   0.635
 6637SOL    HW120810   6.862   0.370   0.590
 6637SOL    HW220811   6.924   0.269   0.702
 6638SOL     OW20812   2.395   5.826   5.851
 6638SOL    HW120813   2.371   5.854   5.758
 6638SOL    HW220814   2.440   5.737   5.847
 6639SOL     OW20815   5.735   5.447   6.953
 6639SOL    HW120816   5.773   5.475   0.021
 6639SOL    HW220817   5.673   5.369   6.966
 6640SOL     OW20818   6.108   2.899   3.133
 6640SOL    HW120819   6.044   2.871   3.204
 6640SOL    HW220820   6.064   2.894   3.044
 6641SOL     OW20821   1.914   4.573   5.807
 6641SOL    HW120822   1.938   4.592   5.902
 6641SOL    HW220823   1.884   4.478   5.799
 6642SOL     OW20824   0.680   5.859   0.262
 6642SOL    HW120825   0.610   5.788   0.273
 6642SOL    HW220826   0.763   5.831   0.311
 6643SOL     OW20827   4.968   4.844   6.538
 6643SOL    HW120828   5.050   4.831   6.594
 6643SOL    HW220829   4.890   4.799   6.582
 6644SOL     OW20830   3.079   4.809   1.939
 6644SOL    HW120831   3.175   4.785   1.932
 6644SOL    HW220832   3.024   4.726   1.952
 6645SOL     OW20833   0.765   5.122   5.586
 6645SOL    HW120834   0.808   5.167   5.507
 6645SOL    HW220835   0.821   5.138   5.668
 6646SOL     OW20836   2.672   5.713   4.195
 6646SOL    HW120837   2.750   5.776   4.188
 6646SOL    HW220838   2.657   5.688   4.291
 6647SOL     OW20839   2.969   2.116   1.918
 6647SOL    HW120840   2.935   2.023   1.929
 6647SOL    HW220841   2.933   2.173   1.992
 6648SOL     OW20842   4.933   5.741   2.212
 6648SOL    HW120843   4.952   5.821   2.155
 6648SOL    HW220844   4.849   5.697   2.182
 6649SOL     OW20845   3.888   2.183   6.546
 6649SOL    HW120846   3.825   2.106   6.549
 6649SOL    HW220847   3.881   2.229   6.457
 6650SOL     OW20848   3.546   1.991   3.093
 6650SOL    HW120849   3.510   2.016   3.003
 6650SOL    HW220850   3.643   2.014   3.097
 6651SOL     OW20851   1.040   2.614   6.711
 6651SOL    HW120852   0.941   2.607   6.724
 6651SOL    HW220853   1.061   2.695   6.655
 6652SOL     OW20854   6.671   5.567   2.376
 6652SOL    HW120855   6.603   5.494   2.385
 6652SOL    HW220856   6.631   5.653   2.410
 6653SOL     OW20857   3.395   3.728   3.749
 6653SOL    HW120858   3.322   3.755   3.686
 6653SOL    HW220859   3.478   3.780   3.730
 6654SOL     OW20860   2.334   3.179   1.731
 6654SOL    HW120861   2.345   3.266   1.779
 6654SOL    HW220862   2.424   3.144   1.704
 6655SOL     OW20863   2.564   6.178   1.689
 6655SOL    HW120864   2.579   6.149   1.784
 6655SOL    HW220865   2.559   6.278   1.685
 6656SOL     OW20866   6.405   2.485   1.230
 6656SOL    HW120867   6.367   2.393   1.214
 6656SOL    HW220868   6.421   2.530   1.143
 6657SOL     OW20869   3.085   6.362   6.263
 6657SOL    HW120870   3.040   6.359   6.174
 6657SOL    HW220871   3.174   6.407   6.254
 6658SOL     OW20872   5.209   0.939   5.330
 6658SOL    HW120873   5.217   0.968   5.425
 6658SOL    HW220874   5.170   1.013   5.275
 6659SOL     OW20875   2.149   2.621   6.819
 6659SOL    HW120876   2.072   2.636   6.757
 6659SOL    HW220877   2.132   2.667   6.906
 6660SOL     OW20878   6.823   6.631   2.984
 6660SOL    HW120879   6.907   6.581   3.003
 6660SOL    HW220880   6.785   6.667   3.070
 6661SOL     OW20881   0.413   6.124   3.753
 6661SOL    HW120882   0.426   6.146   3.850
 6661SOL    HW220883   0.451   6.034   3.734
 6662SOL     OW20884   1.777   1.989   0.148
 6662SOL    HW120885   1.737   1.996   0.056
 6662SOL    HW220886   1.845   2.061   0.159
 6663SOL     OW20887   0.251   5.739   2.440
 6663SOL    HW120888   0.206   5.813   2.490
 6663SOL    HW220889   0.184   5.669   2.417
 6664SOL     OW20890   1.532   1.081   3.047
 6664SOL    HW120891   1.607   1.055   3.107
 6664SOL    HW220892   1.512   1.178   3.059
 6665SOL     OW20893   2.545   6.711   2.901
 6665SOL    HW120894   2.566   6.716   2.804
 6665SOL    HW220895   2.628   6.689   2.952
 6666SOL     OW20896   6.201   0.469   0.001
 6666SOL    HW120897   6.157   0.540   6.965
 6666SOL    HW220898   6.296   0.457   6.990
 6667SOL     OW20899   6.930   4.394   4.766
 6667SOL    HW120900   6.900   4.355   4.679
 6667SOL    HW220901   7.015   4.350   4.795
 6668SOL     OW20902   0.781   4.839   1.680
 6668SOL    HW120903   0.739   4.749   1.694
 6668SOL    HW220904   0.873   4.839   1.718
 6669SOL     OW20905   2.111   6.006   2.698
 6669SOL    HW120906   2.152   5.992   2.608
 6669SOL    HW220907   2.026   6.057   2.689
 6670SOL     OW20908   3.364   4.822   0.117
 6670SOL    HW120909   3.284   4.803   0.174
 6670SOL    HW220910   3.367   4.757   0.041
 6671SOL     OW20911   6.759   3.241   4.561
 6671SOL    HW120912   6.793   3.268   4.651
 6671SOL    HW220913   6.827   3.263   4.492
 6672SOL     OW20914   1.405   1.258   5.886
 6672SOL    HW120915   1.402   1.287   5.981
 6672SOL    HW220916   1.497   1.226   5.863
 6673SOL     OW20917   4.462   4.562   1.458
 6673SOL    HW120918   4.516   4.528   1.536
 6673SOL    HW220919   4.389   4.621   1.492
 6674SOL     OW20920   0.476   6.926   4.076
 6674SOL    HW120921   0.472   6.975   3.989
 6674SOL    HW220922   0.499   6.991   4.149
 6675SOL     OW20923   5.781   4.754   0.472
 6675SOL    HW120924   5.829   4.738   0.558
 6675SOL    HW220925   5.743   4.668   0.438
 6676SOL     OW20926   0.912   2.188   6.221
 6676SOL    HW120927   0.945   2.282   6.224
 6676SOL    HW220928   0.872   2.168   6.132
 6677SOL     OW20929   0.728   3.291   0.460
 6677SOL    HW120930   0.777   3.372   0.429
 6677SOL    HW220931   0.710   3.231   0.382
 6678SOL     OW20932   0.679   2.981   6.083
 6678SOL    HW120933   0.771   3.008   6.110
 6678SOL    HW220934   0.655   3.025   5.996
 6679SOL     OW20935   1.966   2.076   4.285
 6679SOL    HW120936   2.048   2.130   4.267
 6679SOL    HW220937   1.940   2.026   4.203
 6680SOL     OW20938   3.087   6.709   6.363
 6680SOL    HW120939   3.137   6.782   6.317
 6680SOL    HW220940   3.136   6.683   6.446
 6681SOL     OW20941   5.342   4.925   0.677
 6681SOL    HW120942   5.332   5.022   0.654
 6681SOL    HW220943   5.271   4.899   0.742
 6682SOL     OW20944   0.444   6.250   1.707
 6682SOL    HW120945   0.404   6.341   1.719
 6682SOL    HW220946   0.389   6.183   1.756
 6683SOL     OW20947   5.317   1.757   3.811
 6683SOL    HW120948   5.391   1.725   3.871
 6683SOL    HW220949   5.262   1.679   3.782
 6684SOL     OW20950   2.341   6.880   3.001
 6684SOL    HW120951   2.391   6.805   2.957
 6684SOL    HW220952   2.405   6.943   3.044
 6685SOL     OW20953   5.206   3.419   6.388
 6685SOL    HW120954   5.120   3.443   6.342
 6685SOL    HW220955   5.186   3.358   6.465
 6686SOL     OW20956   6.585   3.943   3.195
 6686SOL    HW120957   6.487   3.953   3.212
 6686SOL    HW220958   6.605   3.967   3.100
 6687SOL     OW20959   1.217   2.582   0.707
 6687SOL    HW120960   1.312   2.586   0.735
 6687SOL    HW220961   1.211   2.584   0.607
 6688SOL     OW20962   0.657   5.033   2.608
 6688SOL    HW120963   0.616   4.942   2.602
 6688SOL    HW220964   0.664   5.073   2.517
 6689SOL     OW20965   4.509   4.751   0.177
 6689SOL    HW120966   4.456   4.691   0.117
 6689SOL    HW220967   4.448   4.795   0.243
 6690SOL     OW20968   1.960   2.595   0.528
 6690SOL    HW120969   1.986   2.618   0.434
 6690SOL    HW220970   1.923   2.676   0.573
 6691SOL     OW20971   2.284   4.506   1.538
 6691SOL    HW120972   2.189   4.477   1.523
 6691SOL    HW220973   2.286   4.605   1.554
 6692SOL     OW20974   3.202   3.856   5.508
 6692SOL    HW120975   3.156   3.775   5.473
 6692SOL    HW220976   3.137   3.912   5.560
 6693SOL     OW20977   4.131   3.437   5.142
 6693SOL    HW120978   4.104   3.346   5.111
 6693SOL    HW220979   4.213   3.430   5.198
 6694SOL     OW20980   3.602   5.896   0.743
 6694SOL    HW120981   3.609   5.796   0.740
 6694SOL    HW220982   3.531   5.927   0.680
 6695SOL     OW20983   1.828   1.767   6.999
 6695SOL    HW120984   1.787   1.803   6.915
 6695SOL    HW220985   1.853   1.844   0.039
 6696SOL     OW20986   1.975   2.900   1.722
 6696SOL    HW120987   1.938   2.809   1.739
 6696SOL    HW220988   2.031   2.929   1.799
 6697SOL     OW20989   4.832   0.915   3.394
 6697SOL    HW120990   4.868   0.872   3.311
 6697SOL    HW220991   4.734   0.931   3.382
 6698SOL     OW20992   4.014   3.724   0.339
 6698SOL    HW120993   3.948   3.652   0.318
 6698SOL    HW220994   4.088   3.686   0.394
 6699SOL     OW20995   1.823   4.169   0.033
 6699SOL    HW120996   1.870   4.191   0.118
 6699SOL    HW220997   1.760   4.092   0.047
 6700SOL     OW20998   6.828   5.750   0.293
 6700SOL    HW120999   6.893   5.814   0.251
 6700SOL    HW221000   6.874   5.662   0.310
 6701SOL     OW21001   0.719   2.032   0.468
 6701SOL    HW121002   0.659   2.069   0.397
 6701SOL    HW221003   0.695   2.074   0.556
 6702SOL     OW21004   2.940   1.850   1.172
 6702SOL    HW121005   2.919   1.948   1.170
 6702SOL    HW221006   2.864   1.799   1.130
 6703SOL     OW21007   0.361   1.853   7.007
 6703SOL    HW121008   0.317   1.937   0.019
 6703SOL    HW221009   0.293   1.796   6.961
 6704SOL     OW21010   5.405   1.857   2.226
 6704SOL    HW121011   5.470   1.931   2.210
 6704SOL    HW221012   5.448   1.769   2.207
 6705SOL     OW21013   5.775   1.726   7.011
 6705SOL    HW121014   5.729   1.734   0.080
 6705SOL    HW221015   5.816   1.814   6.986
 6706SOL     OW21016   0.433   4.415   6.274
 6706SOL    HW121017   0.368   4.488   6.253
 6706SOL    HW221018   0.464   4.373   6.189
 6707SOL     OW21019   1.616   6.276   2.600
 6707SOL    HW121020   1.619   6.341   2.525
 6707SOL    HW221021   1.630   6.183   2.564
 6708SOL     OW21022   2.130   6.166   1.559
 6708SOL    HW121023   2.220   6.135   1.528
 6708SOL    HW221024   2.108   6.121   1.646
 6709SOL     OW21025   4.554   1.119   2.832
 6709SOL    HW121026   4.481   1.187   2.843
 6709SOL    HW221027   4.605   1.138   2.749
 6710SOL     OW21028   3.239   2.432   0.546
 6710SOL    HW121029   3.328   2.469   0.570
 6710SOL    HW221030   3.234   2.417   0.447
 6711SOL     OW21031   3.767   4.317   0.588
 6711SOL    HW121032   3.714   4.339   0.507
 6711SOL    HW221033   3.817   4.232   0.573
 6712SOL     OW21034   4.027   5.598   0.292
 6712SOL    HW121035   3.966   5.615   0.370
 6712SOL    HW221036   3.986   5.530   0.232
 6713SOL     OW21037   1.998   2.137   2.007
 6713SOL    HW121038   2.052   2.188   2.074
 6713SOL    HW221039   1.916   2.188   1.984
 6714SOL     OW21040   6.139   0.970   4.145
 6714SOL    HW121041   6.135   0.936   4.239
 6714SOL    HW221042   6.048   0.997   4.114
 6715SOL     OW21043   0.427   1.305   0.944
 6715SOL    HW121044   0.476   1.218   0.954
 6715SOL    HW221045   0.348   1.291   0.884
 6716SOL     OW21046   2.078   6.392   0.826
 6716SOL    HW121047   2.045   6.427   0.914
 6716SOL    HW221048   2.175   6.368   0.835
 6717SOL     OW21049   3.500   1.728   6.925
 6717SOL    HW121050   3.408   1.766   6.915
 6717SOL    HW221051   3.519   1.665   6.849
 6718SOL     OW21052   3.185   6.964   0.325
 6718SOL    HW121053   3.133   6.927   0.248
 6718SOL    HW221054   3.201   0.042   0.311
 6719SOL     OW21055   0.210   6.990   5.588
 6719SOL    HW121056   0.159   6.935   5.521
 6719SOL    HW221057   0.152   0.045   5.620
 6720SOL     OW21058   1.985   4.786   1.756
 6720SOL    HW121059   1.928   4.705   1.741
 6720SOL    HW221060   2.011   4.791   1.853
 6721SOL     OW21061   5.639   6.108   3.716
 6721SOL    HW121062   5.620   6.188   3.659
 6721SOL    HW221063   5.554   6.057   3.731
 6722SOL     OW21064   4.511   3.367   6.566
 6722SOL    HW121065   4.431   3.405   6.519
 6722SOL    HW221066   4.583   3.437   6.570
 6723SOL     OW21067   4.110   6.125   2.207
 6723SOL    HW121068   4.083   6.165   2.294
 6723SOL    HW221069   4.028   6.098   2.156
 6724SOL     OW21070   3.397   5.242   5.303
 6724SOL    HW121071   3.370   5.179   5.230
 6724SOL    HW221072   3.493   5.268   5.291
 6725SOL     OW21073   0.343   4.378   2.408
 6725SOL    HW121074   0.318   4.322   2.329
 6725SOL    HW221075   0.344   4.475   2.382
 6726SOL     OW21076   2.588   2.188   3.084
 6726SOL    HW121077   2.640   2.103   3.095
 6726SOL    HW221078   2.581   2.234   3.172
 6727SOL     OW21079   3.902   3.577   6.690
 6727SOL    HW121080   3.932   3.662   6.734
 6727SOL    HW221081   3.845   3.525   6.753
 6728SOL     OW21082   4.507   1.568   3.836
 6728SOL    HW121083   4.500   1.634   3.761
 6728SOL    HW221084   4.462   1.483   3.810
 6729SOL     OW21085   5.507   0.474   2.255
 6729SOL    HW121086   5.560   0.488   2.171
 6729SOL    HW221087   5.413   0.506   2.241
 6730SOL     OW21088   2.316   0.932   0.739
 6730SOL    HW121089   2.228   0.926   0.692
 6730SOL    HW221090   2.351   1.026   0.731
 6731SOL     OW21091   2.665   4.678   1.819
 6731SOL    HW121092   2.756   4.648   1.849
 6731SOL    HW221093   2.633   4.750   1.881
 6732SOL     OW21094   2.390   4.823   1.212
 6732SOL    HW121095   2.305   4.876   1.219
 6732SOL    HW221096   2.441   4.853   1.131
 6733SOL     OW21097   5.057   5.978   5.678
 6733SOL    HW121098   5.004   5.928   5.747
 6733SOL    HW221099   5.020   6.070   5.668
 6734SOL     OW21100   2.402   3.284   5.602
 6734SOL    HW121101   2.329   3.217   5.610
 6734SOL    HW221102   2.491   3.238   5.604
 6735SOL     OW21103   6.945   5.396   5.902
 6735SOL    HW121104   6.979   5.308   5.868
 6735SOL    HW221105   6.940   5.461   5.826
 6736SOL     OW21106   2.031   3.631   2.609
 6736SOL    HW121107   2.061   3.707   2.553
 6736SOL    HW221108   2.053   3.545   2.563
 6737SOL     OW21109   2.171   1.024   1.190
 6737SOL    HW121110   2.209   0.971   1.114
 6737SOL    HW221111   2.114   1.098   1.155
 6738SOL     OW21112   3.041   1.464   2.212
 6738SOL    HW121113   3.011   1.394   2.146
 6738SOL    HW221114   2.999   1.446   2.301
 6739SOL     OW21115   3.714   6.012   4.862
 6739SOL    HW121116   3.710   6.089   4.798
 6739SOL    HW221117   3.728   6.046   4.955
 6740SOL     OW21118   6.542   2.206   4.033
 6740SOL    HW121119   6.472   2.219   4.103
 6740SOL    HW221120   6.611   2.278   4.042
 6741SOL     OW21121   6.449   0.242   6.457
 6741SOL    HW121122   6.456   0.143   6.456
 6741SOL    HW221123   6.354   0.269   6.478
 6742SOL     OW21124   6.154   5.985   6.103
 6742SOL    HW121125   6.203   5.908   6.144
 6742SOL    HW221126   6.131   5.964   6.008
 6743SOL     OW21127   4.751   2.976   0.769
 6743SOL    HW121128   4.691   2.949   0.845
 6743SOL    HW221129   4.780   3.071   0.782
 6744SOL     OW21130   4.809   5.047   5.740
 6744SOL    HW121131   4.876   4.982   5.776
 6744SOL    HW221132   4.735   4.996   5.695
 6745SOL     OW21133   6.949   4.376   3.581
 6745SOL    HW121134   7.004   4.459   3.589
 6745SOL    HW221135   6.969   4.331   3.494
 6746SOL     OW21136   0.407   1.682   1.182
 6746SOL    HW121137   0.339   1.609   1.183
 6746SOL    HW221138   0.474   1.667   1.255
 6747SOL     OW21139   5.706   6.668   5.953
 6747SOL    HW121140   5.677   6.713   6.037
 6747SOL    HW221141   5.631   6.613   5.917
 6748SOL     OW21142   0.166   0.447   2.265
 6748SOL    HW121143   0.253   0.465   2.312
 6748SOL    HW221144   0.105   0.396   2.326
 6749SOL     OW21145   3.673   6.359   0.942
 6749SOL    HW121146   3.632   6.448   0.960
 6749SOL    HW221147   3.612   6.305   0.885
 6750SOL     OW21148   2.639   3.241   5.302
 6750SOL    HW121149   2.684   3.226   5.390
 6750SOL    HW221150   2.599   3.155   5.270
 6751SOL     OW21151   3.381   1.879   5.473
 6751SOL    HW121152   3.386   1.901   5.376
 6751SOL    HW221153   3.439   1.942   5.525
 6752SOL     OW21154   6.390   2.054   0.110
 6752SOL    HW121155   6.485   2.084   0.110
 6752SOL    HW221156   6.351   2.068   0.019
 6753SOL     OW21157   5.125   2.122   6.485
 6753SOL    HW121158   5.143   2.125   6.583
 6753SOL    HW221159   5.211   2.107   6.436
 6754SOL     OW21160   5.922   0.510   0.179
 6754SOL    HW121161   5.964   0.419   0.183
 6754SOL    HW221162   5.835   0.509   0.229
 6755SOL     OW21163   5.122   2.065   3.142
 6755SOL    HW121164   5.046   2.122   3.174
 6755SOL    HW221165   5.142   1.995   3.210
 6756SOL     OW21166   5.295   4.487   4.405
 6756SOL    HW121167   5.272   4.545   4.482
 6756SOL    HW221168   5.305   4.392   4.436
 6757SOL     OW21169   5.539   5.284   1.566
 6757SOL    HW121170   5.576   5.203   1.611
 6757SOL    HW221171   5.494   5.257   1.481
 6758SOL     OW21172   5.407   2.235   2.641
 6758SOL    HW121173   5.502   2.210   2.659
 6758SOL    HW221174   5.405   2.321   2.591
 6759SOL     OW21175   0.347   4.867   3.537
 6759SOL    HW121176   0.335   4.785   3.594
 6759SOL    HW221177   0.260   4.915   3.529
 6760SOL     OW21178   0.457   4.035   4.791
 6760SOL    HW121179   0.376   4.066   4.742
 6760SOL    HW221180   0.484   3.945   4.756
 6761SOL     OW21181   5.662   3.497   6.502
 6761SOL    HW121182   5.566   3.523   6.509
 6761SOL    HW221183   5.708   3.556   6.435
 6762SOL     OW21184   5.885   4.979   4.281
 6762SOL    HW121185   5.792   4.950   4.304
 6762SOL    HW221186   5.885   5.077   4.259
 6763SOL     OW21187   5.198   6.049   6.017
 6763SOL    HW121188   5.191   5.949   6.018
 6763SOL    HW221189   5.284   6.076   5.974
 6764SOL     OW21190   2.233   3.505   6.876
 6764SOL    HW121191   2.222   3.571   6.802
 6764SOL    HW221192   2.309   3.444   6.856
 6765SOL     OW21193   5.264   5.257   2.572
 6765SOL    HW121194   5.290   5.235   2.666
 6765SOL    HW221195   5.345   5.282   2.519
 6766SOL     OW21196   1.412   1.347   5.416
 6766SOL    HW121197   1.391   1.284   5.492
 6766SOL    HW221198   1.489   1.311   5.364
 6767SOL     OW21199   0.545   2.170   6.254
 6767SOL    HW121200   0.605   2.150   6.331
 6767SOL    HW221201   0.517   2.266   6.257
 6768SOL     OW21202   0.045   0.306   5.887
 6768SOL    HW121203   6.996   0.234   5.881
 6768SOL    HW221204   0.037   0.353   5.975
 6769SOL     OW21205   2.000   2.901   6.423
 6769SOL    HW121206   1.950   2.821   6.390
 6769SOL    HW221207   2.029   2.956   6.345
 6770SOL     OW21208   0.015   1.587   3.799
 6770SOL    HW121209   0.018   1.494   3.762
 6770SOL    HW221210   0.055   1.651   3.734
 6771SOL     OW21211   4.131   1.194   2.422
 6771SOL    HW121212   4.139   1.235   2.513
 6771SOL    HW221213   4.035   1.184   2.398
 6772SOL     OW21214   0.775   0.919   2.035
 6772SOL    HW121215   0.698   0.858   2.018
 6772SOL    HW221216   0.756   0.975   2.116
 6773SOL     OW21217   1.018   0.312   1.423
 6773SOL    HW121218   1.006   0.215   1.445
 6773SOL    HW221219   1.114   0.329   1.400
 6774SOL     OW21220   2.887   1.979   5.801
 6774SOL    HW121221   2.919   1.904   5.743
 6774SOL    HW221222   2.849   1.941   5.885
 6775SOL     OW21223   0.488   3.021   4.850
 6775SOL    HW121224   0.456   3.043   4.942
 6775SOL    HW221225   0.428   3.064   4.783
 6776SOL     OW21226   3.454   3.541   3.173
 6776SOL    HW121227   3.460   3.448   3.210
 6776SOL    HW221228   3.540   3.564   3.127
 6777SOL     OW21229   6.990   6.277   6.330
 6777SOL    HW121230   6.965   6.207   6.396
 6777SOL    HW221231   0.006   6.357   6.378
 6778SOL     OW21232   5.571   6.023   1.871
 6778SOL    HW121233   5.487   5.984   1.911
 6778SOL    HW221234   5.651   5.986   1.919
 6779SOL     OW21235   5.257   4.322   6.631
 6779SOL    HW121236   5.327   4.392   6.638
 6779SOL    HW221237   5.296   4.233   6.656
 6780SOL     OW21238   3.442   1.603   2.377
 6780SOL    HW121239   3.350   1.627   2.408
 6780SOL    HW221240   3.477   1.674   2.317
 6781SOL     OW21241   6.071   2.392   3.007
 6781SOL    HW121242   6.039   2.450   3.082
 6781SOL    HW221243   6.017   2.308   3.005
 6782SOL     OW21244   6.768   1.993   3.141
 6782SOL    HW121245   6.734   1.906   3.179
 6782SOL    HW221246   6.770   2.062   3.213
 6783SOL     OW21247   0.480   5.952   6.231
 6783SOL    HW121248   0.460   5.858   6.259
 6783SOL    HW221249   0.483   5.957   6.132
 6784SOL     OW21250   1.475   4.192   1.336
 6784SOL    HW121251   1.546   4.134   1.297
 6784SOL    HW221252   1.420   4.138   1.400
 6785SOL     OW21253   5.631   4.957   4.171
 6785SOL    HW121254   5.642   5.057   4.173
 6785SOL    HW221255   5.647   4.924   4.079
 6786SOL     OW21256   5.855   2.056   5.656
 6786SOL    HW121257   5.838   2.109   5.739
 6786SOL    HW221258   5.807   1.968   5.662
 6787SOL     OW21259   3.077   2.001   0.597
 6787SOL    HW121260   3.013   2.036   0.529
 6787SOL    HW221261   3.095   1.904   0.580
 6788SOL     OW21262   0.386   4.335   1.499
 6788SOL    HW121263   0.423   4.408   1.556
 6788SOL    HW221264   0.450   4.314   1.426
 6789SOL     OW21265   5.631   4.484   3.085
 6789SOL    HW121266   5.686   4.402   3.103
 6789SOL    HW221267   5.585   4.511   3.169
 6790SOL     OW21268   0.486   5.178   0.099
 6790SOL    HW121269   0.425   5.124   0.157
 6790SOL    HW221270   0.438   5.202   0.015
 6791SOL     OW21271   2.783   6.664   3.163
 6791SOL    HW121272   2.710   6.595   3.154
 6791SOL    HW221273   2.843   6.638   3.238
 6792SOL     OW21274   3.798   0.064   5.952
 6792SOL    HW121275   3.776   0.155   5.988
 6792SOL    HW221276   3.790   7.017   6.025
 6793SOL     OW21277   1.804   3.424   6.292
 6793SOL    HW121278   1.707   3.400   6.291
 6793SOL    HW221279   1.830   3.461   6.202
 6794SOL     OW21280   6.291   2.360   5.225
 6794SOL    HW121281   6.385   2.347   5.256
 6794SOL    HW221282   6.235   2.395   5.300
 6795SOL     OW21283   0.952   0.919   1.435
 6795SOL    HW121284   1.043   0.962   1.436
 6795SOL    HW221285   0.962   0.821   1.421
 6796SOL     OW21286   6.599   1.734   2.779
 6796SOL    HW121287   6.523   1.768   2.834
 6796SOL    HW221288   6.621   1.640   2.807
 6797SOL     OW21289   1.197   3.325   0.847
 6797SOL    HW121290   1.268   3.255   0.845
 6797SOL    HW221291   1.239   3.416   0.844
 6798SOL     OW21292   5.023   1.141   2.109
 6798SOL    HW121293   4.991   1.230   2.142
 6798SOL    HW221294   5.100   1.154   2.047
 6799SOL     OW21295   6.211   6.897   3.265
 6799SOL    HW121296   6.252   6.988   3.263
 6799SOL    HW221297   6.129   6.896   3.208
 6800SOL     OW21298   6.464   3.143   1.391
 6800SOL    HW121299   6.488   3.156   1.487
 6800SOL    HW221300   6.485   3.048   1.364
 6801SOL     OW21301   0.902   6.261   6.892
 6801SOL    HW121302   0.804   6.257   6.873
 6801SOL    HW221303   0.920   6.222   6.982
 6802SOL     OW21304   3.036   4.530   1.610
 6802SOL    HW121305   3.017   4.628   1.617
 6802SOL    HW221306   3.003   4.484   1.692
 6803SOL     OW21307   5.105   5.708   6.157
 6803SOL    HW121308   5.113   5.679   6.061
 6803SOL    HW221309   5.019   5.758   6.169
 6804SOL     OW21310   3.455   5.139   2.424
 6804SOL    HW121311   3.392   5.199   2.374
 6804SOL    HW221312   3.510   5.194   2.487
 6805SOL     OW21313   0.503   4.286   4.434
 6805SOL    HW121314   0.501   4.318   4.529
 6805SOL    HW221315   0.441   4.208   4.425
 6806SOL     OW21316   6.119   3.094   1.646
 6806SOL    HW121317   6.185   3.019   1.636
 6806SOL    HW221318   6.165   3.173   1.687
 6807SOL     OW21319   3.234   4.078   2.347
 6807SOL    HW121320   3.150   4.025   2.336
 6807SOL    HW221321   3.211   4.174   2.367
 6808SOL     OW21322   3.504   0.677   3.910
 6808SOL    HW121323   3.592   0.711   3.877
 6808SOL    HW221324   3.431   0.740   3.882
 6809SOL     OW21325   5.929   3.145   6.937
 6809SOL    HW121326   5.841   3.153   6.984
 6809SOL    HW221327   5.917   3.095   6.851
 6810SOL     OW21328   2.942   0.530   4.445
 6810SOL    HW121329   2.876   0.560   4.513
 6810SOL    HW221330   2.900   0.462   4.384
 6811SOL     OW21331   6.454   0.778   0.776
 6811SOL    HW121332   6.553   0.790   0.771
 6811SOL    HW221333   6.412   0.858   0.816
 6812SOL     OW21334   3.363   4.836   5.229
 6812SOL    HW121335   3.288   4.885   5.184
 6812SOL    HW221336   3.337   4.741   5.244
 6813SOL     OW21337   6.963   4.021   2.502
 6813SOL    HW121338   0.014   4.087   2.528
 6813SOL    HW221339   6.956   3.950   2.571
 6814SOL     OW21340   5.929   1.403   0.659
 6814SOL    HW121341   6.006   1.462   0.683
 6814SOL    HW221342   5.886   1.370   0.743
 6815SOL     OW21343   0.525   5.995   6.808
 6815SOL    HW121344   0.585   5.938   6.864
 6815SOL    HW221345   0.471   5.937   6.747
 6816SOL     OW21346   6.731   0.246   4.132
 6816SOL    HW121347   6.633   0.235   4.115
 6816SOL    HW221348   6.760   0.338   4.105
 6817SOL     OW21349   4.002   1.977   1.407
 6817SOL    HW121350   3.959   1.936   1.327
 6817SOL    HW221351   4.035   2.069   1.384
 6818SOL     OW21352   1.185   6.884   4.708
 6818SOL    HW121353   1.270   6.839   4.737
 6818SOL    HW221354   1.108   6.846   4.758
 6819SOL     OW21355   4.606   4.533   1.895
 6819SOL    HW121356   4.698   4.529   1.855
 6819SOL    HW221357   4.572   4.441   1.910
 6820SOL     OW21358   2.461   5.061   1.683
 6820SOL    HW121359   2.534   5.067   1.616
 6820SOL    HW221360   2.499   5.035   1.772
 6821SOL     OW21361   3.676   2.871   5.075
 6821SOL    HW121362   3.658   2.784   5.121
 6821SOL    HW221363   3.609   2.886   5.003
 6822SOL     OW21364   5.772   3.505   5.328
 6822SOL    HW121365   5.808   3.533   5.239
 6822SOL    HW221366   5.791   3.408   5.342
 6823SOL     OW21367   0.461   3.093   5.122
 6823SOL    HW121368   0.436   3.004   5.162
 6823SOL    HW221369   0.543   3.128   5.167
 6824SOL     OW21370   0.623   6.966   5.405
 6824SOL    HW121371   0.625   6.874   5.445
 6824SOL    HW221372   0.666   0.011   5.468
 6825SOL     OW21373   4.043   4.371   1.288
 6825SOL    HW121374   4.006   4.279   1.293
 6825SOL    HW221375   4.141   4.369   1.305
 6826SOL     OW21376   6.211   6.963   3.732
 6826SOL    HW121377   6.170   0.033   3.717
 6826SOL    HW221378   6.204   6.939   3.829
 6827SOL     OW21379   4.669   5.801   5.061
 6827SOL    HW121380   4.715   5.831   5.144
 6827SOL    HW221381   4.589   5.859   5.044
 6828SOL     OW21382   3.259   2.049   2.319
 6828SOL    HW121383   3.352   2.044   2.280
 6828SOL    HW221384   3.235   1.960   2.356
 6829SOL     OW21385   3.899   0.005   2.982
 6829SOL    HW121386   3.950   0.071   3.036
 6829SOL    HW221387   3.926   0.013   2.886
 6830SOL     OW21388   4.034   4.726   2.314
 6830SOL    HW121389   4.051   4.722   2.413
 6830SOL    HW221390   4.112   4.687   2.265
 6831SOL     OW21391   1.370   1.763   6.450
 6831SOL    HW121392   1.418   1.823   6.385
 6831SOL    HW221393   1.434   1.735   6.522
 6832SOL     OW21394   2.699   2.213   6.489
 6832SOL    HW121395   2.753   2.198   6.572
 6832SOL    HW221396   2.616   2.265   6.511
 6833SOL     OW21397   3.568   5.327   6.020
 6833SOL    HW121398   3.665   5.351   6.017
 6833SOL    HW221399   3.544   5.296   6.112
 6834SOL     OW21400   6.275   6.454   6.657
 6834SOL    HW121401   6.314   6.367   6.685
 6834SOL    HW221402   6.346   6.525   6.658
 6835SOL     OW21403   2.724   0.709   4.201
 6835SOL    HW121404   2.775   0.668   4.126
 6835SOL    HW221405   2.630   0.673   4.200
 6836SOL     OW21406   1.361   4.963   6.682
 6836SOL    HW121407   1.269   4.927   6.700
 6836SOL    HW221408   1.363   5.060   6.703
 6837SOL     OW21409   5.875   0.739   2.272
 6837SOL    HW121410   5.824   0.823   2.290
 6837SOL    HW221411   5.811   0.662   2.266
 6838SOL     OW21412   2.709   3.830   5.596
 6838SOL    HW121413   2.672   3.783   5.517
 6838SOL    HW221414   2.746   3.919   5.569
 6839SOL     OW21415   6.163   3.066   4.562
 6839SOL    HW121416   6.254   3.088   4.525
 6839SOL    HW221417   6.116   3.151   4.585
 6840SOL     OW21418   2.778   6.590   4.897
 6840SOL    HW121419   2.805   6.677   4.856
 6840SOL    HW221420   2.854   6.526   4.895
 6841SOL     OW21421   4.619   0.045   1.086
 6841SOL    HW121422   4.692   0.103   1.050
 6841SOL    HW221423   4.631   6.972   1.052
 6842SOL     OW21424   0.508   3.776   4.760
 6842SOL    HW121425   0.432   3.711   4.773
 6842SOL    HW221426   0.585   3.749   4.818
 6843SOL     OW21427   4.396   2.127   1.379
 6843SOL    HW121428   4.367   2.031   1.391
 6843SOL    HW221429   4.450   2.156   1.458
 6844SOL     OW21430   3.602   5.352   4.327
 6844SOL    HW121431   3.655   5.281   4.279
 6844SOL    HW221432   3.510   5.317   4.345
 6845SOL     OW21433   3.827   4.641   0.985
 6845SOL    HW121434   3.851   4.588   0.903
 6845SOL    HW221435   3.897   4.629   1.055
 6846SOL     OW21436   3.872   3.027   2.351
 6846SOL    HW121437   3.873   2.927   2.349
 6846SOL    HW221438   3.862   3.063   2.258
 6847SOL     OW21439   6.560   3.932   1.543
 6847SOL    HW121440   6.588   3.928   1.447
 6847SOL    HW221441   6.569   4.025   1.577
 6848SOL     OW21442   6.391   6.328   3.838
 6848SOL    HW121443   6.308   6.309   3.785
 6848SOL    HW221444   6.456   6.378   3.780
 6849SOL     OW21445   3.336   6.548   4.432
 6849SOL    HW121446   3.383   6.542   4.344
 6849SOL    HW221447   3.267   6.476   4.437
 6850SOL     OW21448   5.398   3.256   0.938
 6850SOL    HW121449   5.425   3.263   1.034
 6850SOL    HW221450   5.348   3.170   0.924
 6851SOL     OW21451   1.561   5.874   5.165
 6851SOL    HW121452   1.494   5.930   5.116
 6851SOL    HW221453   1.551   5.778   5.138
 6852SOL     OW21454   0.297   4.814   1.651
 6852SOL    HW121455   0.208   4.768   1.643
 6852SOL    HW221456   0.306   4.882   1.578
 6853SOL     OW21457   6.527   3.697   5.170
 6853SOL    HW121458   6.568   3.608   5.149
 6853SOL    HW221459   6.434   3.684   5.204
 6854SOL     OW21460   0.568   1.814   6.842
 6854SOL    HW121461   0.652   1.857   6.876
 6854SOL    HW221462   0.493   1.831   6.906
 6855SOL     OW21463   3.273   6.183   1.972
 6855SOL    HW121464   3.188   6.234   1.964
 6855SOL    HW221465   3.338   6.233   2.029
 6856SOL     OW21466   0.388   4.496   5.052
 6856SOL    HW121467   0.418   4.557   4.979
 6856SOL    HW221468   0.445   4.510   5.133
 6857SOL     OW21469   4.415   1.358   5.808
 6857SOL    HW121470   4.361   1.292   5.756
 6857SOL    HW221471   4.451   1.428   5.746
 6858SOL     OW21472   3.647   2.609   5.302
 6858SOL    HW121473   3.746   2.599   5.307
 6858SOL    HW221474   3.603   2.520   5.310
 6859SOL     OW21475   3.543   0.525   0.347
 6859SOL    HW121476   3.514   0.567   0.432
 6859SOL    HW221477   3.602   0.589   0.297
 6860SOL     OW21478   4.878   4.482   6.942
 6860SOL    HW121479   4.871   4.479   0.022
 6860SOL    HW221480   4.883   4.389   6.905
 6861SOL     OW21481   5.627   4.396   0.481
 6861SOL    HW121482   5.576   4.446   0.411
 6861SOL    HW221483   5.563   4.355   0.546
 6862SOL     OW21484   3.370   5.711   3.564
 6862SOL    HW121485   3.440   5.741   3.628
 6862SOL    HW221486   3.413   5.664   3.487
 6863SOL     OW21487   0.731   3.012   3.874
 6863SOL    HW121488   0.709   2.922   3.838
 6863SOL    HW221489   0.746   3.006   3.973
 6864SOL     OW21490   4.347   5.508   5.752
 6864SOL    HW121491   4.321   5.588   5.805
 6864SOL    HW221492   4.444   5.487   5.768
 6865SOL     OW21493   6.010   3.313   4.751
 6865SOL    HW121494   6.040   3.368   4.829
 6865SOL    HW221495   5.977   3.373   4.678
 6866SOL     OW21496   0.363   3.662   2.108
 6866SOL    HW121497   0.281   3.605   2.121
 6866SOL    HW221498   0.428   3.645   2.182
 6867SOL     OW21499   2.418   4.553   2.349
 6867SOL    HW121500   2.425   4.569   2.447
 6867SOL    HW221501   2.322   4.539   2.324
 6868SOL     OW21502   1.831   5.134   4.857
 6868SOL    HW121503   1.809   5.110   4.951
 6868SOL    HW221504   1.766   5.088   4.795
 6869SOL     OW21505   6.319   3.500   5.048
 6869SOL    HW121506   6.342   3.557   4.969
 6869SOL    HW221507   6.309   3.558   5.129
 6870SOL     OW21508   5.308   3.782   2.549
 6870SOL    HW121509   5.407   3.767   2.556
 6870SOL    HW221510   5.277   3.835   2.627
 6871SOL     OW21511   4.981   0.642   1.793
 6871SOL    HW121512   4.970   0.672   1.887
 6871SOL    HW221513   4.899   0.666   1.741
 6872SOL     OW21514   2.938   3.521   6.996
 6872SOL    HW121515   2.930   3.586   6.920
 6872SOL    HW221516   2.886   3.439   6.974
 6873SOL     OW21517   5.366   4.347   5.809
 6873SOL    HW121518   5.428   4.425   5.802
 6873SOL    HW221519   5.381   4.287   5.730
 6874SOL     OW21520   0.651   2.737   5.365
 6874SOL    HW121521   0.681   2.643   5.347
 6874SOL    HW221522   0.717   2.801   5.326
 6875SOL     OW21523   2.762   1.701   4.327
 6875SOL    HW121524   2.780   1.773   4.260
 6875SOL    HW221525   2.766   1.612   4.283
 6876SOL     OW21526   3.601   6.536   6.079
 6876SOL    HW121527   3.542   6.467   6.037
 6876SOL    HW221528   3.627   6.506   6.171
 6877SOL     OW21529   2.386   4.036   0.056
 6877SOL    HW121530   2.377   3.958   0.119
 6877SOL    HW221531   2.303   4.043   0.001
 6878SOL     OW21532   1.616   1.807   4.813
 6878SOL    HW121533   1.698   1.801   4.869
 6878SOL    HW221534   1.539   1.836   4.869
 6879SOL     OW21535   1.045   1.513   5.930
 6879SOL    HW121536   1.054   1.430   5.984
 6879SOL    HW221537   1.091   1.501   5.842
 6880SOL     OW21538   1.808   4.553   5.020
 6880SOL    HW121539   1.771   4.638   5.057
 6880SOL    HW221540   1.904   4.544   5.045
 6881SOL     OW21541   6.523   4.902   1.677
 6881SOL    HW121542   6.565   4.986   1.641
 6881SOL    HW221543   6.471   4.857   1.605
 6882SOL     OW21544   1.786   0.529   5.474
 6882SOL    HW121545   1.845   0.565   5.401
 6882SOL    HW221546   1.728   0.457   5.436
 6883SOL     OW21547   3.457   5.737   1.570
 6883SOL    HW121548   3.416   5.811   1.517
 6883SOL    HW221549   3.497   5.670   1.507
 6884SOL     OW21550   2.923   4.813   2.873
 6884SOL    HW121551   2.952   4.789   2.965
 6884SOL    HW221552   3.002   4.847   2.821
 6885SOL     OW21553   3.578   5.449   4.998
 6885SOL    HW121554   3.659   5.501   4.971
 6885SOL    HW221555   3.562   5.461   5.096
 6886SOL     OW21556   5.153   2.309   2.650
 6886SOL    HW121557   5.247   2.274   2.647
 6886SOL    HW221558   5.094   2.252   2.594
 6887SOL     OW21559   5.132   0.428   4.659
 6887SOL    HW121560   5.137   0.528   4.655
 6887SOL    HW221561   5.201   0.394   4.724
 6888SOL     OW21562   5.212   5.988   4.892
 6888SOL    HW121563   5.258   6.023   4.974
 6888SOL    HW221564   5.276   5.989   4.815
 6889SOL     OW21565   1.742   4.069   5.946
 6889SOL    HW121566   1.742   4.029   5.855
 6889SOL    HW221567   1.761   3.998   6.014
 6890SOL     OW21568   2.334   0.678   6.951
 6890SOL    HW121569   2.367   0.662   6.858
 6890SOL    HW221570   2.383   0.754   6.992
 6891SOL     OW21571   3.202   4.989   4.569
 6891SOL    HW121572   3.272   5.044   4.614
 6891SOL    HW221573   3.245   4.926   4.504
 6892SOL     OW21574   4.116   1.192   3.914
 6892SOL    HW121575   4.206   1.201   3.956
 6892SOL    HW221576   4.125   1.145   3.826
 6893SOL     OW21577   6.322   0.048   2.471
 6893SOL    HW121578   6.352   6.972   2.469
 6893SOL    HW221579   6.280   0.072   2.383
 6894SOL     OW21580   6.299   4.391   6.075
 6894SOL    HW121581   6.236   4.359   6.004
 6894SOL    HW221582   6.250   4.402   6.161
 6895SOL     OW21583   4.096   5.012   6.465
 6895SOL    HW121584   3.998   5.035   6.461
 6895SOL    HW221585   4.119   4.953   6.388
 6896SOL     OW21586   4.402   6.626   3.531
 6896SOL    HW121587   4.379   6.722   3.516
 6896SOL    HW221588   4.500   6.612   3.516
 6897SOL     OW21589   3.722   1.970   0.409
 6897SOL    HW121590   3.755   2.027   0.485
 6897SOL    HW221591   3.629   1.997   0.386
 6898SOL     OW21592   4.217   1.382   2.598
 6898SOL    HW121593   4.219   1.437   2.515
 6898SOL    HW221594   4.140   1.410   2.656
 6899SOL     OW21595   5.395   6.556   0.035
 6899SOL    HW121596   5.328   6.487   0.060
 6899SOL    HW221597   5.487   6.517   0.038
 6900SOL     OW21598   4.076   1.666   5.096
 6900SOL    HW121599   4.025   1.614   5.164
 6900SOL    HW221600   4.018   1.681   5.016
 6901SOL     OW21601   1.360   0.503   0.023
 6901SOL    HW121602   1.385   0.575   6.978
 6901SOL    HW221603   1.435   0.488   0.087
 6902SOL     OW21604   6.430   5.247   1.538
 6902SOL    HW121605   6.364   5.205   1.476
 6902SOL    HW221606   6.442   5.344   1.514
 6903SOL     OW21607   4.306   3.708   1.043
 6903SOL    HW121608   4.323   3.688   0.946
 6903SOL    HW221609   4.284   3.805   1.054
 6904SOL     OW21610   7.007   1.529   2.992
 6904SOL    HW121611   7.000   1.476   3.076
 6904SOL    HW221612   0.069   1.587   2.996
 6905SOL     OW21613   4.641   4.937   0.857
 6905SOL    HW121614   4.723   4.905   0.905
 6905SOL    HW221615   4.561   4.921   0.915
 6906SOL     OW21616   4.318   6.218   3.927
 6906SOL    HW121617   4.218   6.219   3.929
 6906SOL    HW221618   4.350   6.236   3.834
 6907SOL     OW21619   3.704   1.590   1.651
 6907SOL    HW121620   3.750   1.654   1.590
 6907SOL    HW221621   3.673   1.510   1.599
 6908SOL     OW21622   0.245   6.679   6.489
 6908SOL    HW121623   0.263   6.683   6.390
 6908SOL    HW221624   0.309   6.615   6.532
 6909SOL     OW21625   4.703   3.362   6.855
 6909SOL    HW121626   4.765   3.441   6.860
 6909SOL    HW221627   4.656   3.362   6.767
 6910SOL     OW21628   6.523   1.547   2.216
 6910SOL    HW121629   6.466   1.534   2.297
 6910SOL    HW221630   6.514   1.468   2.155
 6911SOL     OW21631   4.041   0.546   5.254
 6911SOL    HW121632   4.098   0.537   5.172
 6911SOL    HW221633   3.946   0.560   5.226
 6912SOL     OW21634   4.766   5.140   0.751
 6912SOL    HW121635   4.840   5.082   0.717
 6912SOL    HW221636   4.690   5.083   0.784
 6913SOL     OW21637   5.140   5.488   5.320
 6913SOL    HW121638   5.048   5.527   5.318
 6913SOL    HW221639   5.203   5.547   5.269
 6914SOL     OW21640   6.229   5.023   0.384
 6914SOL    HW121641   6.185   4.953   0.440
 6914SOL    HW221642   6.236   4.991   0.289
 6915SOL     OW21643   0.837   5.748   1.049
 6915SOL    HW121644   0.800   5.822   1.105
 6915SOL    HW221645   0.815   5.764   0.953
 6916SOL     OW21646   0.225   1.457   6.877
 6916SOL    HW121647   0.158   1.521   6.915
 6916SOL    HW221648   0.239   1.478   6.780
 6917SOL     OW21649   4.783   6.974   6.597
 6917SOL    HW121650   4.720   7.012   6.529
 6917SOL    HW221651   4.771   0.002   6.684
 6918SOL     OW21652   2.209   2.899   3.655
 6918SOL    HW121653   2.154   2.820   3.628
 6918SOL    HW221654   2.282   2.912   3.588
 6919SOL     OW21655   1.617   6.462   3.544
 6919SOL    HW121656   1.652   6.426   3.458
 6919SOL    HW221657   1.541   6.404   3.576
 6920SOL     OW21658   4.636   6.341   4.965
 6920SOL    HW121659   4.632   6.288   4.880
 6920SOL    HW221660   4.694   6.294   5.031
 6921SOL     OW21661   6.911   6.928   3.012
 6921SOL    HW121662   6.957   6.909   3.098
 6921SOL    HW221663   6.849   6.853   2.989
 6922SOL     OW21664   1.541   5.288   6.987
 6922SOL    HW121665   1.545   5.233   0.051
 6922SOL    HW221666   1.489   5.238   6.917
 6923SOL     OW21667   4.597   6.681   4.528
 6923SOL    HW121668   4.521   6.723   4.478
 6923SOL    HW221669   4.560   6.618   4.596
 6924SOL     OW21670   6.936   6.199   1.221
 6924SOL    HW121671   6.980   6.171   1.307
 6924SOL    HW221672   6.927   6.120   1.161
 6925SOL     OW21673   5.973   5.827   2.826
 6925SOL    HW121674   5.941   5.824   2.920
 6925SOL    HW221675   5.943   5.912   2.783
 6926SOL     OW21676   2.967   3.711   4.684
 6926SOL    HW121677   3.003   3.630   4.729
 6926SOL    HW221678   2.912   3.764   4.749
 6927SOL     OW21679   4.450   3.810   6.144
 6927SOL    HW121680   4.414   3.717   6.142
 6927SOL    HW221681   4.527   3.818   6.081
 6928SOL     OW21682   6.109   6.820   6.560
 6928SOL    HW121683   6.185   6.799   6.621
 6928SOL    HW221684   6.027   6.772   6.589
 6929SOL     OW21685   3.571   5.276   0.183
 6929SOL    HW121686   3.621   5.318   0.108
 6929SOL    HW221687   3.520   5.197   0.150
 6930SOL     OW21688   1.284   6.182   3.263
 6930SOL    HW121689   1.259   6.090   3.291
 6930SOL    HW221690   1.268   6.246   3.338
 6931SOL     OW21691   1.262   1.035   1.455
 6931SOL    HW121692   1.314   1.092   1.392
 6931SOL    HW221693   1.269   1.073   1.548
 6932SOL     OW21694   2.765   2.288   0.620
 6932SOL    HW121695   2.697   2.321   0.686
 6932SOL    HW221696   2.803   2.365   0.569
 6933SOL     OW21697   3.798   6.691   6.766
 6933SOL    HW121698   3.863   6.766   6.779
 6933SOL    HW221699   3.710   6.715   6.808
 6934SOL     OW21700   6.231   3.938   6.050
 6934SOL    HW121701   6.311   3.878   6.049
 6934SOL    HW221702   6.209   3.962   6.145
 6935SOL     OW21703   4.687   5.577   3.466
 6935SOL    HW121704   4.638   5.491   3.452
 6935SOL    HW221705   4.784   5.558   3.478
 6936SOL     OW21706   1.670   4.355   1.416
 6936SOL    HW121707   1.728   4.311   1.484
 6936SOL    HW221708   1.588   4.299   1.401
 6937SOL     OW21709   4.401   7.012   5.938
 6937SOL    HW121710   4.378   7.015   6.035
 6937SOL    HW221711   4.403   0.085   5.901
 6938SOL     OW21712   5.229   1.996   4.724
 6938SOL    HW121713   5.325   1.988   4.700
 6938SOL    HW221714   5.221   2.020   4.821
 6939SOL     OW21715   0.846   4.900   2.798
 6939SOL    HW121716   0.897   4.819   2.770
 6939SOL    HW221717   0.845   4.966   2.723
 6940SOL     OW21718   4.070   0.646   5.494
 6940SOL    HW121719   4.164   0.680   5.499
 6940SOL    HW221720   4.052   0.609   5.403
 6941SOL     OW21721   3.961   3.040   3.339
 6941SOL    HW121722   3.919   2.985   3.267
 6941SOL    HW221723   4.024   3.106   3.299
 6942SOL     OW21724   6.813   1.526   0.036
 6942SOL    HW121725   6.738   1.478   7.009
 6942SOL    HW221726   6.776   1.576   0.114
 6943SOL     OW21727   4.772   6.018   6.634
 6943SOL    HW121728   4.871   6.027   6.646
 6943SOL    HW221729   4.753   5.936   6.579
 6944SOL     OW21730   1.483   6.648   6.247
 6944SOL    HW121731   1.489   6.559   6.202
 6944SOL    HW221732   1.389   6.664   6.277
 6945SOL     OW21733   5.345   2.277   5.706
 6945SOL    HW121734   5.316   2.191   5.663
 6945SOL    HW221735   5.290   2.294   5.787
 6946SOL     OW21736   6.187   4.306   3.551
 6946SOL    HW121737   6.094   4.292   3.515
 6946SOL    HW221738   6.182   4.322   3.649
 6947SOL     OW21739   3.647   0.081   2.879
 6947SOL    HW121740   3.737   0.078   2.922
 6947SOL    HW221741   3.657   0.080   2.780
 6948SOL     OW21742   3.990   1.695   4.817
 6948SOL    HW121743   4.024   1.647   4.735
 6948SOL    HW221744   3.932   1.633   4.870
 6949SOL     OW21745   5.203   0.511   2.525
 6949SOL    HW121746   5.204   0.415   2.494
 6949SOL    HW221747   5.235   0.516   2.620
 6950SOL     OW21748   2.116   0.817   3.634
 6950SOL    HW121749   2.146   0.850   3.545
 6950SOL    HW221750   2.024   0.779   3.626
 6951SOL     OW21751   5.895   5.122   6.103
 6951SOL    HW121752   5.860   5.031   6.080
 6951SOL    HW221753   5.821   5.189   6.096
 6952SOL     OW21754   0.624   4.992   4.685
 6952SOL    HW121755   0.532   5.018   4.657
 6952SOL    HW221756   0.665   5.066   4.738
 6953SOL     OW21757   5.121   1.403   4.735
 6953SOL    HW121758   5.193   1.337   4.755
 6953SOL    HW221759   5.032   1.358   4.739
 6954SOL     OW21760   0.982   4.599   2.950
 6954SOL    HW121761   0.884   4.617   2.955
 6954SOL    HW221762   1.025   4.627   3.036
 6955SOL     OW21763   6.153   5.336   2.310
 6955SOL    HW121764   6.201   5.313   2.226
 6955SOL    HW221765   6.103   5.422   2.297
 6956SOL     OW21766   3.051   4.792   1.654
 6956SOL    HW121767   3.139   4.770   1.697
 6956SOL    HW221768   2.986   4.820   1.724
 6957SOL     OW21769   0.641   3.891   0.477
 6957SOL    HW121770   0.689   3.880   0.564
 6957SOL    HW221771   0.596   3.980   0.475
 6958SOL     OW21772   2.322   3.661   6.338
 6958SOL    HW121773   2.321   3.761   6.330
 6958SOL    HW221774   2.414   3.631   6.362
 6959SOL     OW21775   3.257   0.848   4.565
 6959SOL    HW121776   3.228   0.754   4.582
 6959SOL    HW221777   3.340   0.867   4.617
 6960SOL     OW21778   6.941   5.100   7.006
 6960SOL    HW121779   6.865   5.036   7.019
 6960SOL    HW221780   0.007   5.049   6.999
 6961SOL     OW21781   6.759   1.521   2.886
 6961SOL    HW121782   6.858   1.517   2.901
 6961SOL    HW221783   6.715   1.445   2.932
 6962SOL     OW21784   4.557   3.617   0.323
 6962SOL    HW121785   4.596   3.629   0.415
 6962SOL    HW221786   4.494   3.540   0.324
 6963SOL     OW21787   6.136   5.621   1.957
 6963SOL    HW121788   6.115   5.708   1.915
 6963SOL    HW221789   6.168   5.636   2.051
 6964SOL     OW21790   3.808   6.561   5.145
 6964SOL    HW121791   3.874   6.612   5.090
 6964SOL    HW221792   3.805   6.599   5.237
 6965SOL     OW21793   6.787   3.068   6.092
 6965SOL    HW121794   6.822   3.158   6.118
 6965SOL    HW221795   6.713   3.079   6.026
 6966SOL     OW21796   4.663   2.616   3.913
 6966SOL    HW121797   4.641   2.543   3.848
 6966SOL    HW221798   4.664   2.704   3.865
 6967SOL     OW21799   2.187   1.026   6.495
 6967SOL    HW121800   2.170   0.929   6.514
 6967SOL    HW221801   2.221   1.070   6.578
 6968SOL     OW21802   5.018   0.123   2.147
 6968SOL    HW121803   5.084   0.184   2.104
 6968SOL    HW221804   4.964   0.076   2.077
 6969SOL     OW21805   3.228   1.625   1.394
 6969SOL    HW121806   3.180   1.696   1.343
 6969SOL    HW221807   3.277   1.565   1.331
 6970SOL     OW21808   4.837   3.507   0.234
 6970SOL    HW121809   4.741   3.501   0.263
 6970SOL    HW221810   4.891   3.550   0.306
 6971SOL     OW21811   5.548   0.836   2.592
 6971SOL    HW121812   5.587   0.925   2.569
 6971SOL    HW221813   5.480   0.811   2.523
 6972SOL     OW21814   5.365   4.723   4.903
 6972SOL    HW121815   5.447   4.725   4.846
 6972SOL    HW221816   5.293   4.777   4.860
 6973SOL     OW21817   2.099   4.557   3.746
 6973SOL    HW121818   2.174   4.614   3.712
 6973SOL    HW221819   2.114   4.463   3.718
 6974SOL     OW21820   3.473   4.009   4.868
 6974SOL    HW121821   3.390   3.972   4.825
 6974SOL    HW221822   3.553   3.984   4.814
 6975SOL     OW21823   4.000   1.504   5.651
 6975SOL    HW121824   4.035   1.451   5.574
 6975SOL    HW221825   4.068   1.505   5.724
 6976SOL     OW21826   1.948   5.213   6.695
 6976SOL    HW121827   2.024   5.148   6.701
 6976SOL    HW221828   1.913   5.231   6.787
 6977SOL     OW21829   3.574   2.068   2.824
 6977SOL    HW121830   3.668   2.084   2.794
 6977SOL    HW221831   3.524   2.154   2.828
 6978SOL     OW21832   6.243   0.899   3.253
 6978SOL    HW121833   6.263   0.886   3.350
 6978SOL    HW221834   6.324   0.877   3.199
 6979SOL     OW21835   0.604   4.852   2.927
 6979SOL    HW121836   0.682   4.878   2.871
 6979SOL    HW221837   0.584   4.924   2.994
 6980SOL     OW21838   3.504   0.858   5.007
 6980SOL    HW121839   3.592   0.843   4.961
 6980SOL    HW221840   3.435   0.798   4.966
 6981SOL     OW21841   2.616   4.679   6.433
 6981SOL    HW121842   2.587   4.758   6.380
 6981SOL    HW221843   2.597   4.595   6.382
 6982SOL     OW21844   0.192   6.581   4.706
 6982SOL    HW121845   0.134   6.626   4.637
 6982SOL    HW221846   0.287   6.606   4.691
 6983SOL     OW21847   6.143   0.687   4.091
 6983SOL    HW121848   6.047   0.671   4.114
 6983SOL    HW221849   6.178   0.764   4.146
 6984SOL     OW21850   1.982   1.473   6.486
 6984SOL    HW121851   2.022   1.435   6.570
 6984SOL    HW221852   1.894   1.515   6.507
 6985SOL     OW21853   4.863   6.095   1.829
 6985SOL    HW121854   4.849   6.168   1.896
 6985SOL    HW221855   4.913   6.131   1.750
 6986SOL     OW21856   2.084   6.755   5.065
 6986SOL    HW121857   1.985   6.761   5.075
 6986SOL    HW221858   2.108   6.755   4.968
 6987SOL     OW21859   0.501   3.403   6.442
 6987SOL    HW121860   0.434   3.371   6.375
 6987SOL    HW221861   0.454   3.434   6.524
 6988SOL     OW21862   4.963   0.530   4.285
 6988SOL    HW121863   5.048   0.503   4.241
 6988SOL    HW221864   4.963   0.629   4.299
 6989SOL     OW21865   1.818   2.606   4.131
 6989SOL    HW121866   1.845   2.527   4.186
 6989SOL    HW221867   1.882   2.617   4.055
 6990SOL     OW21868   3.928   3.251   0.178
 6990SOL    HW121869   3.979   3.281   0.097
 6990SOL    HW221870   3.838   3.217   0.149
 6991SOL     OW21871   3.952   4.438   5.398
 6991SOL    HW121872   4.019   4.364   5.388
 6991SOL    HW221873   3.894   4.419   5.477
 6992SOL     OW21874   5.328   6.899   5.561
 6992SOL    HW121875   5.301   6.988   5.525
 6992SOL    HW221876   5.426   6.886   5.548
 6993SOL     OW21877   0.339   0.148   2.909
 6993SOL    HW121878   0.249   0.138   2.868
 6993SOL    HW221879   0.373   0.241   2.894
 6994SOL     OW21880   1.345   2.463   0.067
 6994SOL    HW121881   1.398   2.544   0.093
 6994SOL    HW221882   1.354   2.392   0.137
 6995SOL     OW21883   0.188   5.821   3.172
 6995SOL    HW121884   0.123   5.766   3.120
 6995SOL    HW221885   0.212   5.902   3.119
 6996SOL     OW21886   2.141   6.846   5.840
 6996SOL    HW121887   2.164   6.872   5.746
 6996SOL    HW221888   2.158   6.749   5.853
 6997SOL     OW21889   4.574   0.206   4.594
 6997SOL    HW121890   4.664   0.165   4.578
 6997SOL    HW221891   4.506   0.160   4.537
 6998SOL     OW21892   1.457   2.675   3.172
 6998SOL    HW121893   1.422   2.627   3.092
 6998SOL    HW221894   1.398   2.654   3.251
 6999SOL     OW21895   3.555   1.781   6.578
 6999SOL    HW121896   3.507   1.858   6.619
 6999SOL    HW221897   3.491   1.728   6.521
 7000SOL     OW21898   6.901   6.421   1.681
 7000SOL    HW121899   6.970   6.448   1.748
 7000SOL    HW221900   6.817   6.395   1.729
 7001SOL     OW21901   2.668   2.036   5.596
 7001SOL    HW121902   2.748   2.025   5.655
 7001SOL    HW221903   2.698   2.040   5.501
 7002SOL     OW21904   1.781   5.020   2.624
 7002SOL    HW121905   1.817   4.943   2.675
 7002SOL    HW221906   1.784   4.999   2.526
 7003SOL     OW21907   2.964   6.090   0.162
 7003SOL    HW121908   2.907   6.123   0.087
 7003SOL    HW221909   3.001   6.168   0.212
 7004SOL     OW21910   1.326   4.825   0.970
 7004SOL    HW121911   1.390   4.811   1.045
 7004SOL    HW221912   1.249   4.762   0.979
 7005SOL     OW21913   5.718   0.060   5.578
 7005SOL    HW121914   5.731   0.017   5.668
 7005SOL    HW221915   5.653   0.006   5.524
 7006SOL     OW21916   4.340   4.784   5.105
 7006SOL    HW121917   4.309   4.703   5.053
 7006SOL    HW221918   4.279   4.861   5.085
 7007SOL     OW21919   4.884   4.995   2.399
 7007SOL    HW121920   4.945   4.952   2.466
 7007SOL    HW221921   4.839   5.074   2.441
 7008SOL     OW21922   0.538   4.759   4.443
 7008SOL    HW121923   0.541   4.664   4.411
 7008SOL    HW221924   0.623   4.781   4.492
 7009SOL     OW21925   0.079   4.807   2.461
 7009SOL    HW121926   0.087   4.725   2.518
 7009SOL    HW221927   0.132   4.796   2.377
 7010SOL     OW21928   4.366   4.768   6.241
 7010SOL    HW121929   4.453   4.792   6.284
 7010SOL    HW221930   4.325   4.849   6.201
 7011SOL     OW21931   2.125   1.562   4.954
 7011SOL    HW121932   2.025   1.559   4.962
 7011SOL    HW221933   2.154   1.653   4.925
 7012SOL     OW21934   1.191   1.122   2.205
 7012SOL    HW121935   1.217   1.030   2.175
 7012SOL    HW221936   1.166   1.177   2.125
 7013SOL     OW21937   0.913   0.492   2.392
 7013SOL    HW121938   0.977   0.560   2.426
 7013SOL    HW221939   0.852   0.535   2.325
 7014SOL     OW21940   2.662   5.060   1.500
 7014SOL    HW121941   2.749   5.082   1.456
 7014SOL    HW221942   2.634   4.967   1.474
 7015SOL     OW21943   4.918   2.658   2.225
 7015SOL    HW121944   5.013   2.679   2.199
 7015SOL    HW221945   4.863   2.741   2.215
 7016SOL     OW21946   3.162   5.228   0.606
 7016SOL    HW121947   3.165   5.223   0.706
 7016SOL    HW221948   3.238   5.175   0.567
 7017SOL     OW21949   3.587   1.635   4.388
 7017SOL    HW121950   3.600   1.727   4.351
 7017SOL    HW221951   3.675   1.600   4.422
 7018SOL     OW21952   0.222   5.291   4.004
 7018SOL    HW121953   0.197   5.331   3.916
 7018SOL    HW221954   0.201   5.193   4.002
 7019SOL     OW21955   2.149   6.142   6.984
 7019SOL    HW121956   2.082   6.168   0.034
 7019SOL    HW221957   2.168   6.221   6.925
 7020SOL     OW21958   6.615   6.869   5.952
 7020SOL    HW121959   6.645   6.944   6.010
 7020SOL    HW221960   6.516   6.854   5.964
 7021SOL     OW21961   2.885   1.174   5.713
 7021SOL    HW121962   2.872   1.100   5.779
 7021SOL    HW221963   2.801   1.228   5.707
 7022SOL     OW21964   5.268   5.472   6.709
 7022SOL    HW121965   5.189   5.438   6.759
 7022SOL    HW221966   5.297   5.560   6.747
 7023SOL     OW21967   6.281   4.107   2.542
 7023SOL    HW121968   6.217   4.150   2.606
 7023SOL    HW221969   6.276   4.154   2.454
 7024SOL     OW21970   0.227   6.364   0.481
 7024SOL    HW121971   0.163   6.428   0.438
 7024SOL    HW221972   0.317   6.375   0.440
 7025SOL     OW21973   2.566   0.615   5.961
 7025SOL    HW121974   2.476   0.621   5.917
 7025SOL    HW221975   2.598   0.520   5.957
 7026SOL     OW21976   4.146   2.225   0.913
 7026SOL    HW121977   4.067   2.199   0.970
 7026SOL    HW221978   4.199   2.295   0.960
 7027SOL     OW21979   4.335   6.946   4.644
 7027SOL    HW121980   4.353   7.003   4.564
 7027SOL    HW221981   4.291   6.860   4.614
 7028SOL     OW21982   3.336   6.853   4.778
 7028SOL    HW121983   3.251   6.805   4.797
 7028SOL    HW221984   3.394   6.797   4.719
 7029SOL     OW21985   2.995   0.664   5.449
 7029SOL    HW121986   3.014   0.566   5.443
 7029SOL    HW221987   2.896   0.680   5.448
 7030SOL     OW21988   1.682   4.017   4.384
 7030SOL    HW121989   1.717   4.110   4.375
 7030SOL    HW221990   1.599   4.007   4.329
 7031SOL     OW21991   2.370   6.433   5.037
 7031SOL    HW121992   2.425   6.452   4.956
 7031SOL    HW221993   2.384   6.339   5.067
 7032SOL     OW21994   6.019   1.198   2.469
 7032SOL    HW121995   5.981   1.288   2.446
 7032SOL    HW221996   6.053   1.154   2.386
 7033SOL     OW21997   6.436   0.469   3.969
 7033SOL    HW121998   6.437   0.390   4.031
 7033SOL    HW221999   6.499   0.452   3.893
 7034SOL     OW22000   6.078   6.108   3.234
 7034SOL    HW122001   6.045   6.148   3.148
 7034SOL    HW222002   6.167   6.149   3.256
 7035SOL     OW22003   6.561   5.487   1.896
 7035SOL    HW122004   6.648   5.459   1.857
 7035SOL    HW222005   6.493   5.415   1.882
 7036SOL     OW22006   6.543   4.490   1.218
 7036SOL    HW122007   6.632   4.482   1.172
 7036SOL    HW222008   6.495   4.402   1.212
 7037SOL     OW22009   1.264   6.914   6.423
 7037SOL    HW122010   1.230   6.881   6.511
 7037SOL    HW222011   1.255   6.841   6.355
 7038SOL     OW22012   1.395   4.434   4.411
 7038SOL    HW122013   1.367   4.516   4.461
 7038SOL    HW222014   1.350   4.431   4.322
 7039SOL     OW22015   4.314   1.062   6.552
 7039SOL    HW122016   4.397   1.101   6.513
 7039SOL    HW222017   4.330   1.036   6.647
 7040SOL     OW22018   4.656   2.752   6.000
 7040SOL    HW122019   4.630   2.658   6.022
 7040SOL    HW222020   4.717   2.788   6.071
 7041SOL     OW22021   2.809   1.393   2.694
 7041SOL    HW122022   2.712   1.407   2.674
 7041SOL    HW222023   2.824   1.298   2.720
 7042SOL     OW22024   2.447   0.257   6.160
 7042SOL    HW122025   2.448   0.333   6.224
 7042SOL    HW222026   2.453   0.171   6.211
 7043SOL     OW22027   1.604   1.800   3.085
 7043SOL    HW122028   1.539   1.819   3.158
 7043SOL    HW222029   1.582   1.856   3.005
 7044SOL     OW22030   4.731   6.062   2.151
 7044SOL    HW122031   4.731   6.161   2.167
 7044SOL    HW222032   4.825   6.031   2.139
 7045SOL     OW22033   5.554   5.420   0.857
 7045SOL    HW122034   5.560   5.517   0.831
 7045SOL    HW222035   5.554   5.364   0.774
 7046SOL     OW22036   2.356   0.565   4.846
 7046SOL    HW122037   2.344   0.600   4.938
 7046SOL    HW222038   2.266   0.553   4.803
 7047SOL     OW22039   1.995   1.194   4.181
 7047SOL    HW122040   2.067   1.192   4.250
 7047SOL    HW222041   1.974   1.100   4.152
 7048SOL     OW22042   6.351   6.461   0.165
 7048SOL    HW122043   6.321   6.556   0.154
 7048SOL    HW222044   6.391   6.449   0.255
 7049SOL     OW22045   2.123   1.273   0.779
 7049SOL    HW122046   2.086   1.355   0.823
 7049SOL    HW222047   2.222   1.270   0.793
 7050SOL     OW22048   4.021   3.913   4.865
 7050SOL    HW122049   3.970   3.948   4.787
 7050SOL    HW222050   4.084   3.984   4.898
 7051SOL     OW22051   6.039   6.884   2.475
 7051SOL    HW122052   6.129   6.874   2.516
 7051SOL    HW222053   5.984   6.802   2.494
 7052SOL     OW22054   6.309   1.851   3.495
 7052SOL    HW122055   6.273   1.936   3.455
 7052SOL    HW222056   6.384   1.817   3.437
 7053SOL     OW22057   7.008   4.398   6.317
 7053SOL    HW122058   0.010   4.398   6.220
 7053SOL    HW222059   6.989   4.491   6.348
 7054SOL     OW22060   6.806   0.159   1.550
 7054SOL    HW122061   6.710   0.181   1.535
 7054SOL    HW222062   6.847   0.228   1.610
 7055SOL     OW22063   3.152   6.869   5.348
 7055SOL    HW122064   3.218   6.942   5.329
 7055SOL    HW222065   3.106   6.887   5.435
 7056SOL     OW22066   4.500   5.123   3.478
 7056SOL    HW122067   4.452   5.073   3.406
 7056SOL    HW222068   4.597   5.127   3.458
 7057SOL     OW22069   0.893   6.242   3.459
 7057SOL    HW122070   0.904   6.144   3.444
 7057SOL    HW222071   0.843   6.282   3.381
 7058SOL     OW22072   0.841   5.169   5.268
 7058SOL    HW122073   0.924   5.207   5.228
 7058SOL    HW222074   0.771   5.161   5.197
 7059SOL     OW22075   1.588   0.371   2.691
 7059SOL    HW122076   1.630   0.395   2.603
 7059SOL    HW222077   1.571   0.273   2.693
 7060SOL     OW22078   3.081   0.065   1.216
 7060SOL    HW122079   3.137   7.016   1.261
 7060SOL    HW222080   2.985   0.038   1.219
 7061SOL     OW22081   0.126   1.138   2.367
 7061SOL    HW122082   0.147   1.198   2.290
 7061SOL    HW222083   0.186   1.161   2.444
 7062SOL     OW22084   5.835   2.200   4.902
 7062SOL    HW122085   5.935   2.198   4.897
 7062SOL    HW222086   5.799   2.107   4.890
 7063SOL     OW22087   3.074   6.282   1.557
 7063SOL    HW122088   3.049   6.237   1.472
 7063SOL    HW222089   3.104   6.375   1.538
 7064SOL     OW22090   4.125   2.471   0.454
 7064SOL    HW122091   4.141   2.388   0.508
 7064SOL    HW222092   4.212   2.508   0.423
 7065SOL     OW22093   4.536   3.942   1.478
 7065SOL    HW122094   4.466   3.993   1.527
 7065SOL    HW222095   4.586   3.884   1.543
 7066SOL     OW22096   3.730   6.411   0.273
 7066SOL    HW122097   3.768   6.501   0.292
 7066SOL    HW222098   3.634   6.408   0.301
 7067SOL     OW22099   0.291   4.221   5.173
 7067SOL    HW122100   0.322   4.304   5.127
 7067SOL    HW222101   0.335   4.142   5.132
 7068SOL     OW22102   1.140   0.543   3.023
 7068SOL    HW122103   1.203   0.471   2.993
 7068SOL    HW222104   1.074   0.505   3.088
 7069SOL     OW22105   1.390   4.417   5.138
 7069SOL    HW122106   1.485   4.390   5.125
 7069SOL    HW222107   1.379   4.457   5.229
 7070SOL     OW22108   6.248   5.535   4.770
 7070SOL    HW122109   6.160   5.519   4.726
 7070SOL    HW222110   6.233   5.571   4.862
 7071SOL     OW22111   1.324   6.747   5.420
 7071SOL    HW122112   1.283   6.699   5.498
 7071SOL    HW222113   1.256   6.807   5.378
 7072SOL     OW22114   0.303   6.397   6.261
 7072SOL    HW122115   0.353   6.323   6.216
 7072SOL    HW222116   0.224   6.422   6.205
 7073SOL     OW22117   0.505   0.798   5.845
 7073SOL    HW122118   0.492   0.855   5.926
 7073SOL    HW222119   0.484   0.703   5.867
 7074SOL     OW22120   3.463   2.295   1.452
 7074SOL    HW122121   3.472   2.292   1.551
 7074SOL    HW222122   3.398   2.226   1.422
 7075SOL     OW22123   1.044   5.456   3.193
 7075SOL    HW122124   1.142   5.449   3.179
 7075SOL    HW222125   1.000   5.368   3.175
 7076SOL     OW22126   2.918   2.601   6.763
 7076SOL    HW122127   2.919   2.603   6.863
 7076SOL    HW222128   2.837   2.552   6.732
 7077SOL     OW22129   2.249   5.271   5.602
 7077SOL    HW122130   2.224   5.263   5.505
 7077SOL    HW222131   2.225   5.186   5.649
 7078SOL     OW22132   5.959   0.700   3.201
 7078SOL    HW122133   6.036   0.736   3.148
 7078SOL    HW222134   5.883   0.680   3.139
 7079SOL     OW22135   5.759   5.701   5.397
 7079SOL    HW122136   5.818   5.781   5.389
 7079SOL    HW222137   5.749   5.676   5.493
 7080SOL     OW22138   4.769   0.343   3.985
 7080SOL    HW122139   4.844   0.284   4.017
 7080SOL    HW222140   4.770   0.347   3.885
 7081SOL     OW22141   3.740   0.782   4.632
 7081SOL    HW122142   3.716   0.878   4.618
 7081SOL    HW222143   3.729   0.732   4.547
 7082SOL     OW22144   5.118   0.735   6.392
 7082SOL    HW122145   5.096   0.707   6.486
 7082SOL    HW222146   5.036   0.725   6.335
 7083SOL     OW22147   3.492   0.041   6.093
 7083SOL    HW122148   3.424   0.114   6.096
 7083SOL    HW222149   3.575   0.071   6.140
 7084SOL     OW22150   6.708   6.070   6.282
 7084SOL    HW122151   6.669   6.071   6.190
 7084SOL    HW222152   6.651   6.126   6.342
 7085SOL     OW22153   2.497   2.125   1.437
 7085SOL    HW122154   2.546   2.099   1.354
 7085SOL    HW222155   2.472   2.043   1.488
 7086SOL     OW22156   6.301   0.837   6.464
 7086SOL    HW122157   6.334   0.813   6.555
 7086SOL    HW222158   6.217   0.785   6.444
 7087SOL     OW22159   1.446   3.220   4.054
 7087SOL    HW122160   1.419   3.125   4.037
 7087SOL    HW222161   1.458   3.234   4.152
 7088SOL     OW22162   6.639   2.219   5.586
 7088SOL    HW122163   6.670   2.155   5.656
 7088SOL    HW222164   6.718   2.248   5.531
 7089SOL     OW22165   2.671   1.860   0.248
 7089SOL    HW122166   2.693   1.817   0.336
 7089SOL    HW222167   2.572   1.872   0.240
 7090SOL     OW22168   2.456   2.169   4.716
 7090SOL    HW122169   2.414   2.180   4.626
 7090SOL    HW222170   2.405   2.224   4.783
 7091SOL     OW22171   0.064   5.534   6.950
 7091SOL    HW122172   0.092   5.591   0.008
 7091SOL    HW222173   6.993   5.563   6.919
 7092SOL     OW22174   3.222   3.783   0.421
 7092SOL    HW122175   3.271   3.831   0.347
 7092SOL    HW222176   3.190   3.695   0.387
 7093SOL     OW22177   3.267   3.259   4.894
 7093SOL    HW122178   3.321   3.340   4.915
 7093SOL    HW222179   3.293   3.224   4.804
 7094SOL     OW22180   0.384   0.529   5.894
 7094SOL    HW122181   0.418   0.451   5.840
 7094SOL    HW222182   0.370   0.500   5.988
 7095SOL     OW22183   1.123   2.959   6.724
 7095SOL    HW122184   1.085   3.048   6.750
 7095SOL    HW222185   1.071   2.921   6.648
 7096SOL     OW22186   4.917   1.599   2.716
 7096SOL    HW122187   4.925   1.540   2.796
 7096SOL    HW222188   4.955   1.551   2.636
 7097SOL     OW22189   0.295   0.436   1.963
 7097SOL    HW122190   0.251   0.455   2.051
 7097SOL    HW222191   0.228   0.443   1.890
 7098SOL     OW22192   1.432   6.553   5.957
 7098SOL    HW122193   1.432   6.653   5.950
 7098SOL    HW222194   1.350   6.523   6.005
 7099SOL     OW22195   7.015   0.713   6.126
 7099SOL    HW122196   7.011   0.721   6.027
 7099SOL    HW222197   7.015   0.805   6.166
 7100SOL     OW22198   5.839   2.896   1.272
 7100SOL    HW122199   5.877   2.916   1.181
 7100SOL    HW222200   5.802   2.981   1.311
 7101SOL     OW22201   2.669   0.169   5.190
 7101SOL    HW122202   2.657   0.251   5.134
 7101SOL    HW222203   2.653   0.088   5.134
 7102SOL     OW22204   4.691   2.513   0.846
 7102SOL    HW122205   4.627   2.446   0.809
 7102SOL    HW222206   4.641   2.593   0.877
 7103SOL     OW22207   3.584   6.961   6.616
 7103SOL    HW122208   3.597   0.034   6.650
 7103SOL    HW222209   3.665   6.931   6.566
 7104SOL     OW22210   0.943   2.205   3.177
 7104SOL    HW122211   0.921   2.227   3.272
 7104SOL    HW222212   0.950   2.105   3.167
 7105SOL     OW22213   3.199   3.821   5.178
 7105SOL    HW122214   3.178   3.760   5.102
 7105SOL    HW222215   3.136   3.898   5.177
 7106SOL     OW22216   3.303   2.499   5.319
 7106SOL    HW122217   3.256   2.438   5.255
 7106SOL    HW222218   3.237   2.555   5.367
 7107SOL     OW22219   2.884   1.570   0.519
 7107SOL    HW122220   2.924   1.479   0.513
 7107SOL    HW222221   2.957   1.639   0.522
 7108SOL     OW22222   4.837   0.392   1.289
 7108SOL    HW122223   4.926   0.424   1.256
 7108SOL    HW222224   4.768   0.404   1.217
 7109SOL     OW22225   3.844   6.533   6.519
 7109SOL    HW122226   3.814   6.516   6.425
 7109SOL    HW222227   3.785   6.602   6.561
 7110SOL     OW22228   4.083   5.080   3.428
 7110SOL    HW122229   3.998   5.035   3.399
 7110SOL    HW222230   4.060   5.161   3.481
 7111SOL     OW22231   2.157   3.426   4.164
 7111SOL    HW122232   2.182   3.461   4.254
 7111SOL    HW222233   2.108   3.339   4.174
 7112SOL     OW22234   1.070   6.510   3.158
 7112SOL    HW122235   1.101   6.425   3.202
 7112SOL    HW222236   1.015   6.488   3.078
 7113SOL     OW22237   3.903   3.768   4.309
 7113SOL    HW122238   3.841   3.690   4.309
 7113SOL    HW222239   3.911   3.804   4.215
 7114SOL     OW22240   3.308   0.886   0.461
 7114SOL    HW122241   3.260   0.807   0.499
 7114SOL    HW222242   3.313   0.878   0.362
 7115SOL     OW22243   4.746   1.785   1.129
 7115SOL    HW122244   4.751   1.773   1.030
 7115SOL    HW222245   4.684   1.860   1.151
 7116SOL     OW22246   5.547   3.964   3.147
 7116SOL    HW122247   5.514   3.917   3.065
 7116SOL    HW222248   5.480   4.033   3.175
 7117SOL     OW22249   5.829   6.637   1.795
 7117SOL    HW122250   5.792   6.603   1.709
 7117SOL    HW222251   5.785   6.723   1.820
 7118SOL     OW22252   6.667   3.255   1.195
 7118SOL    HW122253   6.615   3.173   1.222
 7118SOL    HW222254   6.682   3.312   1.275
 7119SOL     OW22255   6.470   2.181   3.440
 7119SOL    HW122256   6.468   2.241   3.359
 7119SOL    HW222257   6.381   2.138   3.451
 7120SOL     OW22258   5.130   0.387   3.217
 7120SOL    HW122259   5.047   0.405   3.164
 7120SOL    HW222260   5.207   0.438   3.178
 7121SOL     OW22261   3.457   6.506   2.260
 7121SOL    HW122262   3.516   6.432   2.290
 7121SOL    HW222263   3.410   6.480   2.175
 7122SOL     OW22264   5.910   0.938   6.254
 7122SOL    HW122265   5.930   0.967   6.347
 7122SOL    HW222266   5.945   1.006   6.190
 7123SOL     OW22267   2.288   5.245   1.287
 7123SOL    HW122268   2.306   5.337   1.253
 7123SOL    HW222269   2.279   5.182   1.209
 7124SOL     OW22270   0.684   4.861   0.631
 7124SOL    HW122271   0.745   4.818   0.698
 7124SOL    HW222272   0.634   4.790   0.582
 7125SOL     OW22273   5.934   6.321   2.745
 7125SOL    HW122274   6.007   6.259   2.715
 7125SOL    HW222275   5.971   6.414   2.753
 7126SOL     OW22276   1.249   4.567   0.448
 7126SOL    HW122277   1.160   4.606   0.423
 7126SOL    HW222278   1.318   4.640   0.450
 7127SOL     OW22279   3.512   6.439   4.853
 7127SOL    HW122280   3.545   6.406   4.942
 7127SOL    HW222281   3.419   6.473   4.862
 7128SOL     OW22282   3.046   3.972   1.326
 7128SOL    HW122283   3.014   3.922   1.406
 7128SOL    HW222284   3.039   3.914   1.245
 7129SOL     OW22285   2.664   0.189   1.461
 7129SOL    HW122286   2.672   0.089   1.457
 7129SOL    HW222287   2.624   0.216   1.549
 7130SOL     OW22288   2.295   4.877   3.106
 7130SOL    HW122289   2.235   4.932   3.048
 7130SOL    HW222290   2.385   4.870   3.064
 7131SOL     OW22291   2.627   0.775   3.324
 7131SOL    HW122292   2.656   0.821   3.407
 7131SOL    HW222293   2.705   0.728   3.283
 7132SOL     OW22294   3.288   4.151   3.109
 7132SOL    HW122295   3.293   4.246   3.138
 7132SOL    HW222296   3.267   4.093   3.187
 7133SOL     OW22297   5.291   5.200   2.903
 7133SOL    HW122298   5.198   5.175   2.929
 7133SOL    HW222299   5.307   5.296   2.928
 7134SOL     OW22300   5.370   4.071   3.944
 7134SOL    HW122301   5.375   4.131   4.024
 7134SOL    HW222302   5.442   4.002   3.949
 7135SOL     OW22303   0.885   2.111   5.035
 7135SOL    HW122304   0.939   2.164   5.100
 7135SOL    HW222305   0.945   2.066   4.969
 7136SOL     OW22306   2.113   1.560   0.231
 7136SOL    HW122307   2.021   1.584   0.260
 7136SOL    HW222308   2.163   1.519   0.308
 7137SOL     OW22309   4.106   0.701   4.514
 7137SOL    HW122310   4.025   0.746   4.477
 7137SOL    HW222311   4.177   0.698   4.444
 7138SOL     OW22312   2.554   4.381   0.703
 7138SOL    HW122313   2.561   4.283   0.726
 7138SOL    HW222314   2.607   4.434   0.768
 7139SOL     OW22315   3.871   2.482   1.278
 7139SOL    HW122316   3.780   2.493   1.239
 7139SOL    HW222317   3.866   2.421   1.357
 7140SOL     OW22318   6.605   3.433   5.075
 7140SOL    HW122319   6.652   3.347   5.054
 7140SOL    HW222320   6.507   3.420   5.064
 7141SOL     OW22321   2.797   6.706   0.557
 7141SOL    HW122322   2.734   6.642   0.513
 7141SOL    HW222323   2.809   6.680   0.653
 7142SOL     OW22324   4.138   5.629   4.179
 7142SOL    HW122325   4.114   5.703   4.241
 7142SOL    HW222326   4.196   5.665   4.105
 7143SOL     OW22327   2.179   3.465   5.011
 7143SOL    HW122328   2.176   3.400   4.935
 7143SOL    HW222329   2.200   3.556   4.976
 7144SOL     OW22330   0.677   2.481   3.465
 7144SOL    HW122331   0.712   2.566   3.504
 7144SOL    HW222332   0.589   2.498   3.420
 7145SOL     OW22333   4.785   0.114   6.835
 7145SOL    HW122334   4.696   0.140   6.874
 7145SOL    HW222335   4.834   0.196   6.806
 7146SOL     OW22336   3.365   5.075   0.520
 7146SOL    HW122337   3.339   4.988   0.562
 7146SOL    HW222338   3.456   5.067   0.480
 7147SOL     OW22339   0.368   0.481   3.057
 7147SOL    HW122340   0.310   0.478   3.138
 7147SOL    HW222341   0.435   0.555   3.067
 7148SOL     OW22342   0.646   0.626   1.772
 7148SOL    HW122343   0.742   0.597   1.779
 7148SOL    HW222344   0.605   0.588   1.690
 7149SOL     OW22345   6.409   1.666   3.648
 7149SOL    HW122346   6.361   1.743   3.606
 7149SOL    HW222347   6.484   1.636   3.588
 7150SOL     OW22348   6.048   3.375   6.830
 7150SOL    HW122349   6.052   3.444   6.902
 7150SOL    HW222350   5.995   3.296   6.861
 7151SOL     OW22351   2.572   5.909   1.417
 7151SOL    HW122352   2.666   5.918   1.385
 7151SOL    HW222353   2.511   5.901   1.338
 7152SOL     OW22354   1.348   2.587   3.705
 7152SOL    HW122355   1.279   2.520   3.731
 7152SOL    HW222356   1.304   2.674   3.681
 7153SOL     OW22357   3.414   1.450   3.802
 7153SOL    HW122358   3.425   1.508   3.883
 7153SOL    HW222359   3.452   1.360   3.820
 7154SOL     OW22360   4.983   5.778   4.094
 7154SOL    HW122361   4.949   5.803   4.185
 7154SOL    HW222362   5.054   5.708   4.104
 7155SOL     OW22363   2.823   6.951   1.173
 7155SOL    HW122364   2.792   6.892   1.098
 7155SOL    HW222365   2.792   6.915   1.260
 7156SOL     OW22366   6.903   5.890   5.166
 7156SOL    HW122367   6.877   5.847   5.079
 7156SOL    HW222368   6.911   5.989   5.153
 7157SOL     OW22369   4.616   4.646   1.185
 7157SOL    HW122370   4.686   4.574   1.189
 7157SOL    HW222371   4.548   4.631   1.256
 7158SOL     OW22372   6.643   6.638   4.256
 7158SOL    HW122373   6.616   6.582   4.335
 7158SOL    HW222374   6.565   6.648   4.195
 7159SOL     OW22375   0.702   5.327   0.166
 7159SOL    HW122376   0.744   5.305   0.254
 7159SOL    HW222377   0.624   5.266   0.150
 7160SOL     OW22378   5.398   0.763   2.051
 7160SOL    HW122379   5.342   0.696   2.100
 7160SOL    HW222380   5.423   0.727   1.962
 7161SOL     OW22381   3.598   3.311   3.914
 7161SOL    HW122382   3.523   3.273   3.861
 7161SOL    HW222383   3.655   3.368   3.856
 7162SOL     OW22384   3.313   4.915   3.330
 7162SOL    HW122385   3.379   4.902   3.403
 7162SOL    HW222386   3.221   4.897   3.365
 7163SOL     OW22387   2.590   0.395   2.747
 7163SOL    HW122388   2.632   0.474   2.703
 7163SOL    HW222389   2.540   0.341   2.679
 7164SOL     OW22390   2.332   1.157   3.102
 7164SOL    HW122391   2.259   1.110   3.051
 7164SOL    HW222392   2.399   1.194   3.037
 7165SOL     OW22393   4.847   1.223   1.308
 7165SOL    HW122394   4.789   1.279   1.367
 7165SOL    HW222395   4.800   1.206   1.221
 7166SOL     OW22396   4.961   4.523   1.562
 7166SOL    HW122397   4.930   4.508   1.656
 7166SOL    HW222398   4.907   4.468   1.499
 7167SOL     OW22399   4.674   2.795   4.988
 7167SOL    HW122400   4.639   2.846   5.067
 7167SOL    HW222401   4.773   2.810   4.980
 7168SOL     OW22402   1.372   0.714   3.854
 7168SOL    HW122403   1.327   0.666   3.778
 7168SOL    HW222404   1.313   0.788   3.886
 7169SOL     OW22405   1.435   2.315   5.539
 7169SOL    HW122406   1.462   2.412   5.544
 7169SOL    HW222407   1.345   2.304   5.581
 7170SOL     OW22408   6.698   4.762   4.446
 7170SOL    HW122409   6.714   4.770   4.347
 7170SOL    HW222410   6.766   4.700   4.485
 7171SOL     OW22411   4.058   3.172   5.069
 7171SOL    HW122412   4.022   3.199   4.980
 7171SOL    HW222413   4.009   3.091   5.102
 7172SOL     OW22414   1.796   7.017   0.639
 7172SOL    HW122415   1.791   0.045   0.727
 7172SOL    HW222416   1.704   7.007   0.602
 7173SOL     OW22417   6.497   5.998   5.992
 7173SOL    HW122418   6.424   6.064   6.008
 7173SOL    HW222419   6.577   6.045   5.956
 7174SOL     OW22420   1.574   5.204   0.432
 7174SOL    HW122421   1.535   5.171   0.518
 7174SOL    HW222422   1.629   5.285   0.450
 7175SOL     OW22423   6.953   3.807   5.557
 7175SOL    HW122424   6.996   3.800   5.467
 7175SOL    HW222425   6.983   3.732   5.615
 7176SOL     OW22426   6.021   3.814   1.634
 7176SOL    HW122427   6.060   3.824   1.543
 7176SOL    HW222428   5.926   3.847   1.633
 7177SOL     OW22429   0.655   6.312   1.941
 7177SOL    HW122430   0.640   6.378   1.868
 7177SOL    HW222431   0.567   6.273   1.969
 7178SOL     OW22432   0.791   2.681   6.421
 7178SOL    HW122433   0.789   2.696   6.323
 7178SOL    HW222434   0.725   2.610   6.446
 7179SOL     OW22435   2.824   3.511   6.070
 7179SOL    HW122436   2.819   3.558   5.982
 7179SOL    HW222437   2.733   3.505   6.110
 7180SOL     OW22438   0.175   6.330   2.157
 7180SOL    HW122439   0.116   6.410   2.152
 7180SOL    HW222440   0.149   6.274   2.236
 7181SOL     OW22441   5.232   1.203   1.940
 7181SOL    HW122442   5.248   1.302   1.949
 7181SOL    HW222443   5.314   1.154   1.970
 7182SOL     OW22444   2.910   3.719   5.786
 7182SOL    HW122445   2.822   3.726   5.739
 7182SOL    HW222446   2.971   3.658   5.735
 7183SOL     OW22447   1.094   5.728   2.434
 7183SOL    HW122448   1.110   5.708   2.531
 7183SOL    HW222449   1.174   5.701   2.381
 7184SOL     OW22450   2.211   6.538   3.574
 7184SOL    HW122451   2.278   6.563   3.644
 7184SOL    HW222452   2.240   6.574   3.486
 7185SOL     OW22453   4.852   2.341   6.827
 7185SOL    HW122454   4.948   2.363   6.844
 7185SOL    HW222455   4.838   2.325   6.729
 7186SOL     OW22456   0.579   6.777   4.584
 7186SOL    HW122457   0.524   6.710   4.635
 7186SOL    HW222458   0.599   6.742   4.493
 7187SOL     OW22459   2.022   4.437   1.440
 7187SOL    HW122460   1.942   4.416   1.495
 7187SOL    HW222461   2.025   4.536   1.422
 7188SOL     OW22462   5.206   1.512   1.255
 7188SOL    HW122463   5.140   1.521   1.329
 7188SOL    HW222464   5.296   1.492   1.292
 7189SOL     OW22465   6.183   1.063   4.568
 7189SOL    HW122466   6.230   0.991   4.619
 7189SOL    HW222467   6.238   1.146   4.569
 7190SOL     OW22468   4.750   4.929   3.225
 7190SOL    HW122469   4.768   4.998   3.295
 7190SOL    HW222470   4.744   4.839   3.269
 7191SOL     OW22471   1.822   3.368   2.513
 7191SOL    HW122472   1.920   3.357   2.496
 7191SOL    HW222473   1.778   3.408   2.433
 7192SOL     OW22474   2.874   4.673   5.860
 7192SOL    HW122475   2.893   4.678   5.762
 7192SOL    HW222476   2.917   4.591   5.898
 7193SOL     OW22477   4.550   1.757   3.351
 7193SOL    HW122478   4.482   1.684   3.345
 7193SOL    HW222479   4.503   1.846   3.351
 7194SOL     OW22480   2.737   1.636   2.160
 7194SOL    HW122481   2.773   1.687   2.238
 7194SOL    HW222482   2.661   1.686   2.119
 7195SOL     OW22483   0.962   5.584   1.298
 7195SOL    HW122484   0.959   5.621   1.205
 7195SOL    HW222485   0.957   5.484   1.295
 7196SOL     OW22486   3.446   3.105   2.147
 7196SOL    HW122487   3.481   3.196   2.129
 7196SOL    HW222488   3.433   3.093   2.246
 7197SOL     OW22489   0.273   2.229   6.055
 7197SOL    HW122490   0.304   2.273   5.971
 7197SOL    HW222491   0.236   2.139   6.034
 7198SOL     OW22492   1.468   6.322   6.947
 7198SOL    HW122493   1.402   6.253   6.975
 7198SOL    HW222494   1.459   6.339   6.849
 7199SOL     OW22495   6.366   6.588   2.904
 7199SOL    HW122496   6.416   6.502   2.889
 7199SOL    HW222497   6.302   6.575   2.979
 7200SOL     OW22498   1.909   1.197   1.399
 7200SOL    HW122499   2.007   1.180   1.387
 7200SOL    HW222500   1.893   1.295   1.410
 7201SOL     OW22501   2.435   4.396   3.725
 7201SOL    HW122502   2.462   4.317   3.780
 7201SOL    HW222503   2.336   4.395   3.709
 7202SOL     OW22504   3.861   1.286   6.439
 7202SOL    HW122505   3.940   1.271   6.500
 7202SOL    HW222506   3.882   1.359   6.375
 7203SOL     OW22507   5.470   1.191   6.805
 7203SOL    HW122508   5.561   1.163   6.774
 7203SOL    HW222509   5.478   1.244   6.890
 7204SOL     OW22510   6.042   1.656   2.681
 7204SOL    HW122511   6.051   1.743   2.730
 7204SOL    HW222512   6.037   1.673   2.582
 7205SOL     OW22513   1.961   4.686   2.335
 7205SOL    HW122514   2.030   4.624   2.298
 7205SOL    HW222515   1.940   4.660   2.429
 7206SOL     OW22516   6.165   0.998   1.569
 7206SOL    HW122517   6.077   1.044   1.554
 7206SOL    HW222518   6.203   1.028   1.657
 7207SOL     OW22519   3.671   0.143   2.148
 7207SOL    HW122520   3.740   0.212   2.126
 7207SOL    HW222521   3.608   0.181   2.216
 7208SOL     OW22522   3.132   0.405   5.344
 7208SOL    HW122523   3.199   0.472   5.377
 7208SOL    HW222524   3.141   0.321   5.396
 7209SOL     OW22525   4.014   3.767   4.558
 7209SOL    HW122526   3.985   3.763   4.463
 7209SOL    HW222527   3.981   3.852   4.599
 7210SOL     OW22528   4.286   0.337   4.333
 7210SOL    HW122529   4.375   0.365   4.296
 7210SOL    HW222530   4.287   0.345   4.433
 7211SOL     OW22531   1.313   5.421   3.137
 7211SOL    HW122532   1.292   5.332   3.097
 7211SOL    HW222533   1.396   5.414   3.192
 7212SOL     OW22534   5.241   6.425   4.278
 7212SOL    HW122535   5.290   6.386   4.200
 7212SOL    HW222536   5.289   6.403   4.363
 7213SOL     OW22537   5.272   1.017   5.597
 7213SOL    HW122538   5.276   0.955   5.675
 7213SOL    HW222539   5.355   1.073   5.595
 7214SOL     OW22540   1.496   4.953   5.125
 7214SOL    HW122541   1.454   4.955   5.034
 7214SOL    HW222542   1.430   4.985   5.193
 7215SOL     OW22543   1.333   3.706   3.709
 7215SOL    HW122544   1.433   3.696   3.711
 7215SOL    HW222545   1.299   3.670   3.622
 7216SOL     OW22546   2.098   0.966   1.633
 7216SOL    HW122547   2.130   0.917   1.553
 7216SOL    HW222548   2.003   0.942   1.651
 7217SOL     OW22549   1.062   2.874   2.378
 7217SOL    HW122550   1.040   2.819   2.297
 7217SOL    HW222551   0.982   2.875   2.439
 7218SOL     OW22552   5.450   2.605   5.571
 7218SOL    HW122553   5.526   2.621   5.507
 7218SOL    HW222554   5.387   2.538   5.532
 7219SOL     OW22555   3.714   1.243   2.119
 7219SOL    HW122556   3.641   1.234   2.051
 7219SOL    HW222557   3.699   1.326   2.173
 7220SOL     OW22558   6.825   0.924   2.925
 7220SOL    HW122559   6.827   0.838   2.975
 7220SOL    HW222560   6.854   0.999   2.985
 7221SOL     OW22561   5.900   5.567   5.924
 7221SOL    HW122562   5.947   5.481   5.943
 7221SOL    HW222563   5.866   5.605   6.010
 7222SOL     OW22564   0.177   6.186   1.915
 7222SOL    HW122565   0.153   6.231   2.001
 7222SOL    HW222566   0.094   6.162   1.865
 7223SOL     OW22567   3.149   0.890   5.543
 7223SOL    HW122568   3.083   0.815   5.541
 7223SOL    HW222569   3.200   0.891   5.457
 7224SOL     OW22570   4.449   0.052   4.408
 7224SOL    HW122571   4.371   0.057   4.346
 7224SOL    HW222572   4.528   0.098   4.366
 7225SOL     OW22573   2.443   6.229   7.011
 7225SOL    HW122574   2.390   6.306   6.976
 7225SOL    HW222575   2.391   6.182   0.063
 7226SOL     OW22576   6.515   0.065   0.903
 7226SOL    HW122577   6.434   0.072   0.845
 7226SOL    HW222578   6.583   0.007   0.857
 7227SOL     OW22579   6.140   2.626   6.221
 7227SOL    HW122580   6.082   2.651   6.144
 7227SOL    HW222581   6.229   2.595   6.188
 7228SOL     OW22582   1.192   0.790   3.168
 7228SOL    HW122583   1.211   0.712   3.107
 7228SOL    HW222584   1.218   0.875   3.122
 7229SOL     OW22585   0.543   0.482   3.357
 7229SOL    HW122586   0.576   0.390   3.332
 7229SOL    HW222587   0.583   0.508   3.445
 7230SOL     OW22588   5.545   3.556   2.893
 7230SOL    HW122589   5.452   3.528   2.869
 7230SOL    HW222590   5.611   3.509   2.833
 7231SOL     OW22591   5.259   1.146   6.667
 7231SOL    HW122592   5.281   1.112   6.576
 7231SOL    HW222593   5.344   1.166   6.716
 7232SOL     OW22594   3.445   4.418   1.391
 7232SOL    HW122595   3.361   4.469   1.374
 7232SOL    HW222596   3.469   4.424   1.488
 7233SOL     OW22597   6.819   2.127   6.163
 7233SOL    HW122598   6.834   2.054   6.097
 7233SOL    HW222599   6.902   2.142   6.216
 7234SOL     OW22600   6.082   1.960   2.195
 7234SOL    HW122601   6.142   1.881   2.194
 7234SOL    HW222602   5.987   1.930   2.191
 7235SOL     OW22603   5.847   3.556   5.036
 7235SOL    HW122604   5.886   3.646   5.017
 7235SOL    HW222605   5.919   3.487   5.035
 7236SOL     OW22606   3.503   0.826   3.109
 7236SOL    HW122607   3.536   0.756   3.045
 7236SOL    HW222608   3.469   0.782   3.192
 7237SOL     OW22609   5.863   5.948   5.848
 7237SOL    HW122610   5.857   5.861   5.898
 7237SOL    HW222611   5.790   5.952   5.780
 7238SOL     OW22612   1.255   1.050   1.094
 7238SOL    HW122613   1.318   1.066   1.170
 7238SOL    HW222614   1.200   1.131   1.079
 7239SOL     OW22615   3.922   1.541   1.774
 7239SOL    HW122616   3.843   1.569   1.720
 7239SOL    HW222617   3.908   1.448   1.808
 7240SOL     OW22618   3.216   4.275   0.395
 7240SOL    HW122619   3.304   4.232   0.416
 7240SOL    HW222620   3.208   4.288   0.296
 7241SOL     OW22621   3.255   0.380   5.081
 7241SOL    HW122622   3.187   0.399   5.152
 7241SOL    HW222623   3.341   0.355   5.124
 7242SOL     OW22624   4.447   4.560   6.951
 7242SOL    HW122625   4.375   4.500   6.916
 7242SOL    HW222626   4.535   4.514   6.946
 7243SOL     OW22627   0.137   5.692   0.172
 7243SOL    HW122628   0.175   5.729   0.087
 7243SOL    HW222629   0.189   5.727   0.250
 7244SOL     OW22630   5.778   1.330   0.892
 7244SOL    HW122631   5.699   1.300   0.945
 7244SOL    HW222632   5.804   1.423   0.920
 7245SOL     OW22633   6.982   1.981   3.896
 7245SOL    HW122634   6.893   1.958   3.858
 7245SOL    HW222635   7.001   1.923   3.975
 7246SOL     OW22636   0.547   6.072   5.557
 7246SOL    HW122637   0.458   6.030   5.578
 7246SOL    HW222638   0.532   6.164   5.521
 7247SOL     OW22639   3.377   5.540   2.623
 7247SOL    HW122640   3.322   5.464   2.658
 7247SOL    HW222641   3.325   5.625   2.630
 7248SOL     OW22642   3.201   0.563   4.560
 7248SOL    HW122643   3.204   0.521   4.651
 7248SOL    HW222644   3.107   0.561   4.525
 7249SOL     OW22645   5.976   5.420   6.830
 7249SOL    HW122646   5.964   5.402   6.732
 7249SOL    HW222647   5.887   5.420   6.875
 7250SOL     OW22648   3.006   4.249   6.466
 7250SOL    HW122649   3.105   4.264   6.470
 7250SOL    HW222650   2.987   4.151   6.467
 7251SOL     OW22651   5.262   0.464   5.363
 7251SOL    HW122652   5.328   0.536   5.384
 7251SOL    HW222653   5.192   0.460   5.434
 7252SOL     OW22654   4.023   3.633   4.907
 7252SOL    HW122655   4.016   3.732   4.917
 7252SOL    HW222656   4.101   3.611   4.848
 7253SOL     OW22657   5.322   5.516   1.002
 7253SOL    HW122658   5.387   5.447   0.970
 7253SOL    HW222659   5.290   5.571   0.925
 7254SOL     OW22660   4.824   6.411   5.336
 7254SOL    HW122661   4.742   6.355   5.324
 7254SOL    HW222662   4.798   6.504   5.359
 7255SOL     OW22663   3.699   3.725   2.275
 7255SOL    HW122664   3.723   3.821   2.287
 7255SOL    HW222665   3.739   3.671   2.350
 7256SOL     OW22666   4.989   4.872   3.976
 7256SOL    HW122667   5.011   4.930   4.055
 7256SOL    HW222668   4.890   4.860   3.971
 7257SOL     OW22669   5.946   4.361   3.744
 7257SOL    HW122670   5.914   4.378   3.651
 7257SOL    HW222671   5.908   4.430   3.805
 7258SOL     OW22672   3.499   6.966   4.979
 7258SOL    HW122673   3.536   6.893   5.036
 7258SOL    HW222674   3.447   6.927   4.903
 7259SOL     OW22675   2.164   5.525   5.942
 7259SOL    HW122676   2.197   5.516   5.848
 7259SOL    HW222677   2.133   5.618   5.958
 7260SOL     OW22678   3.619   2.014   1.835
 7260SOL    HW122679   3.675   2.018   1.752
 7260SOL    HW222680   3.625   2.101   1.884
 7261SOL     OW22681   1.321   3.865   1.656
 7261SOL    HW122682   1.322   3.964   1.640
 7261SOL    HW222683   1.362   3.844   1.745
 7262SOL     OW22684   6.402   1.966   5.086
 7262SOL    HW122685   6.323   2.017   5.121
 7262SOL    HW222686   6.475   2.030   5.063
 7263SOL     OW22687   3.897   6.643   1.917
 7263SOL    HW122688   3.816   6.682   1.874
 7263SOL    HW222689   3.929   6.704   1.990
 7264SOL     OW22690   1.115   6.719   5.045
 7264SOL    HW122691   1.093   6.655   5.118
 7264SOL    HW222692   1.195   6.774   5.071
 7265SOL     OW22693   4.361   4.070   5.888
 7265SOL    HW122694   4.280   4.039   5.939
 7265SOL    HW222695   4.350   4.167   5.863
 7266SOL     OW22696   5.437   1.710   1.570
 7266SOL    HW122697   5.487   1.742   1.489
 7266SOL    HW222698   5.366   1.776   1.594
 7267SOL     OW22699   0.456   2.933   4.480
 7267SOL    HW122700   0.551   2.910   4.460
 7267SOL    HW222701   0.429   3.012   4.426
 7268SOL     OW22702   3.246   6.895   1.309
 7268SOL    HW122703   3.283   6.826   1.246
 7268SOL    HW222704   3.185   6.850   1.375
 7269SOL     OW22705   1.713   6.896   1.609
 7269SOL    HW122706   1.786   6.834   1.637
 7269SOL    HW222707   1.713   6.906   1.510
 7270SOL     OW22708   3.328   1.338   2.371
 7270SOL    HW122709   3.250   1.356   2.429
 7270SOL    HW222710   3.384   1.421   2.363
 7271SOL     OW22711   6.265   4.594   4.024
 7271SOL    HW122712   6.242   4.598   4.121
 7271SOL    HW222713   6.354   4.637   4.009
 7272SOL     OW22714   5.852   2.211   1.378
 7272SOL    HW122715   5.774   2.189   1.437
 7272SOL    HW222716   5.858   2.144   1.304
 7273SOL     OW22717   5.979   5.880   6.309
 7273SOL    HW122718   6.016   5.923   6.226
 7273SOL    HW222719   5.983   5.945   6.385
 7274SOL     OW22720   0.163   4.135   4.831
 7274SOL    HW122721   0.153   4.227   4.870
 7274SOL    HW222722   0.100   4.072   4.877
 7275SOL     OW22723   5.891   6.975   1.407
 7275SOL    HW122724   5.923   0.050   1.403
 7275SOL    HW222725   5.921   6.933   1.492
 7276SOL     OW22726   2.781   2.344   4.057
 7276SOL    HW122727   2.713   2.272   4.042
 7276SOL    HW222728   2.735   2.429   4.083
 7277SOL     OW22729   5.293   1.747   4.559
 7277SOL    HW122730   5.307   1.824   4.620
 7277SOL    HW222731   5.195   1.731   4.547
 7278SOL     OW22732   2.452   1.429   3.586
 7278SOL    HW122733   2.506   1.462   3.509
 7278SOL    HW222734   2.439   1.330   3.578
 7279SOL     OW22735   4.377   4.528   0.974
 7279SOL    HW122736   4.458   4.481   0.937
 7279SOL    HW222737   4.401   4.622   0.995
 7280SOL     OW22738   6.322   2.048   5.490
 7280SOL    HW122739   6.364   1.968   5.447
 7280SOL    HW222740   6.390   2.121   5.498
 7281SOL     OW22741   3.982   5.529   1.881
 7281SOL    HW122742   3.975   5.627   1.902
 7281SOL    HW222743   3.896   5.499   1.838
 7282SOL     OW22744   6.224   3.663   2.307
 7282SOL    HW122745   6.176   3.695   2.388
 7282SOL    HW222746   6.208   3.565   2.295
 7283SOL     OW22747   4.670   4.705   2.855
 7283SOL    HW122748   4.646   4.785   2.800
 7283SOL    HW222749   4.767   4.686   2.845
 7284SOL     OW22750   0.327   1.661   2.325
 7284SOL    HW122751   0.239   1.629   2.362
 7284SOL    HW222752   0.311   1.715   2.243
 7285SOL     OW22753   4.817   3.138   1.694
 7285SOL    HW122754   4.901   3.157   1.745
 7285SOL    HW222755   4.741   3.131   1.758
 7286SOL     OW22756   6.652   1.618   3.471
 7286SOL    HW122757   6.702   1.531   3.473
 7286SOL    HW222758   6.717   1.693   3.459
 7287SOL     OW22759   2.804   1.568   3.031
 7287SOL    HW122760   2.874   1.594   2.964
 7287SOL    HW222761   2.713   1.583   2.992
 7288SOL     OW22762   2.522   1.489   2.291
 7288SOL    HW122763   2.592   1.508   2.222
 7288SOL    HW222764   2.508   1.570   2.347
 7289SOL     OW22765   6.742   1.988   1.394
 7289SOL    HW122766   6.807   2.052   1.435
 7289SOL    HW222767   6.664   1.975   1.456
 7290SOL     OW22768   4.028   0.997   4.653
 7290SOL    HW122769   4.020   1.090   4.618
 7290SOL    HW222770   3.997   0.932   4.584
 7291SOL     OW22771   2.398   1.213   0.795
 7291SOL    HW122772   2.446   1.295   0.764
 7291SOL    HW222773   2.445   1.175   0.875
 7292SOL     OW22774   2.881   0.068   2.565
 7292SOL    HW122775   2.933   0.056   2.480
 7292SOL    HW222776   2.811   0.138   2.551
 7293SOL     OW22777   6.655   1.694   4.069
 7293SOL    HW122778   6.643   1.602   4.105
 7293SOL    HW222779   6.644   1.760   4.143
 7294SOL     OW22780   3.564   6.229   2.044
 7294SOL    HW122781   3.651   6.257   2.084
 7294SOL    HW222782   3.578   6.148   1.987
 7295SOL     OW22783   5.769   4.239   0.895
 7295SOL    HW122784   5.814   4.150   0.890
 7295SOL    HW222785   5.673   4.227   0.921
 7296SOL     OW22786   4.460   5.014   2.250
 7296SOL    HW122787   4.486   5.017   2.154
 7296SOL    HW222788   4.385   5.078   2.266
 7297SOL     OW22789   4.431   0.145   1.244
 7297SOL    HW122790   4.471   0.075   1.185
 7297SOL    HW222791   4.502   0.182   1.304
 7298SOL     OW22792   3.911   4.917   0.324
 7298SOL    HW122793   3.940   4.898   0.418
 7298SOL    HW222794   3.991   4.921   0.265
 7299SOL     OW22795   1.253   3.192   6.480
 7299SOL    HW122796   1.289   3.245   6.557
 7299SOL    HW222797   1.284   3.098   6.486
 7300SOL     OW22798   0.182   5.587   2.105
 7300SOL    HW122799   0.113   5.570   2.176
 7300SOL    HW222800   0.273   5.580   2.146
 7301SOL     OW22801   4.554   1.957   6.266
 7301SOL    HW122802   4.470   1.948   6.212
 7301SOL    HW222803   4.625   2.000   6.210
 7302SOL     OW22804   5.653   1.955   6.058
 7302SOL    HW122805   5.649   2.054   6.068
 7302SOL    HW222806   5.744   1.922   6.084
 7303SOL     OW22807   2.630   1.997   2.150
 7303SOL    HW122808   2.554   1.933   2.140
 7303SOL    HW222809   2.609   2.083   2.103
 7304SOL     OW22810   2.668   5.601   0.739
 7304SOL    HW122811   2.676   5.515   0.688
 7304SOL    HW222812   2.713   5.591   0.828
 7305SOL     OW22813   6.166   1.282   0.301
 7305SOL    HW122814   6.212   1.370   0.292
 7305SOL    HW222815   6.122   1.258   0.215
 7306SOL     OW22816   0.991   2.906   1.692
 7306SOL    HW122817   1.021   2.843   1.763
 7306SOL    HW222818   1.056   2.982   1.685
 7307SOL     OW22819   1.951   0.198   0.541
 7307SOL    HW122820   1.903   0.114   0.565
 7307SOL    HW222821   2.033   0.207   0.598
 7308SOL     OW22822   4.373   1.330   2.843
 7308SOL    HW122823   4.293   1.366   2.892
 7308SOL    HW222824   4.352   1.325   2.746
 7309SOL     OW22825   2.500   5.268   3.810
 7309SOL    HW122826   2.493   5.174   3.844
 7309SOL    HW222827   2.533   5.328   3.883
 7310SOL     OW22828   2.568   2.673   6.137
 7310SOL    HW122829   2.642   2.661   6.072
 7310SOL    HW222830   2.583   2.757   6.189
 7311SOL     OW22831   0.431   5.936   5.967
 7311SOL    HW122832   0.389   6.007   5.911
 7311SOL    HW222833   0.371   5.857   5.972
 7312SOL     OW22834   6.348   2.076   3.893
 7312SOL    HW122835   6.366   1.983   3.861
 7312SOL    HW222836   6.433   2.116   3.928
 7313SOL     OW22837   2.623   0.719   2.612
 7313SOL    HW122838   2.538   0.738   2.563
 7313SOL    HW222839   2.695   0.781   2.579
 7314SOL     OW22840   1.059   4.530   5.657
 7314SOL    HW122841   0.994   4.587   5.607
 7314SOL    HW222842   1.096   4.582   5.734
 7315SOL     OW22843   2.385   4.925   2.236
 7315SOL    HW122844   2.467   4.897   2.186
 7315SOL    HW222845   2.374   4.867   2.316
 7316SOL     OW22846   3.569   1.729   1.299
 7316SOL    HW122847   3.651   1.786   1.310
 7316SOL    HW222848   3.585   1.640   1.342
 7317SOL     OW22849   4.065   2.017   0.158
 7317SOL    HW122850   4.100   1.968   0.238
 7317SOL    HW222851   4.141   2.036   0.095
 7318SOL     OW22852   5.211   6.426   0.554
 7318SOL    HW122853   5.179   6.520   0.568
 7318SOL    HW222854   5.225   6.383   0.643
 7319SOL     OW22855   5.508   6.238   6.139
 7319SOL    HW122856   5.473   6.223   6.047
 7319SOL    HW222857   5.550   6.329   6.144
 7320SOL     OW22858   0.734   2.529   0.836
 7320SOL    HW122859   0.762   2.623   0.814
 7320SOL    HW222860   0.635   2.520   0.825
 7321SOL     OW22861   1.783   1.519   6.801
 7321SOL    HW122862   1.861   1.508   6.863
 7321SOL    HW222863   1.787   1.609   6.758
 7322SOL     OW22864   1.183   3.121   3.422
 7322SOL    HW122865   1.264   3.180   3.432
 7322SOL    HW222866   1.211   3.025   3.430
 7323SOL     OW22867   0.591   2.739   0.482
 7323SOL    HW122868   0.646   2.668   0.438
 7323SOL    HW222869   0.652   2.810   0.519
 7324SOL     OW22870   4.973   3.988   3.500
 7324SOL    HW122871   4.929   3.951   3.582
 7324SOL    HW222872   4.934   4.077   3.478
 7325SOL     OW22873   4.284   1.187   5.636
 7325SOL    HW122874   4.258   1.111   5.696
 7325SOL    HW222875   4.202   1.232   5.601
 7326SOL     OW22876   3.765   0.876   0.683
 7326SOL    HW122877   3.806   0.829   0.604
 7326SOL    HW222878   3.666   0.876   0.674
 7327SOL     OW22879   1.782   4.371   3.245
 7327SOL    HW122880   1.683   4.363   3.229
 7327SOL    HW222881   1.824   4.417   3.167
 7328SOL     OW22882   4.583   4.921   5.045
 7328SOL    HW122883   4.610   4.887   4.956
 7328SOL    HW222884   4.489   4.895   5.064
 7329SOL     OW22885   3.048   3.247   1.290
 7329SOL    HW122886   3.010   3.199   1.211
 7329SOL    HW222887   3.128   3.301   1.262
 7330SOL     OW22888   2.911   3.421   1.774
 7330SOL    HW122889   2.812   3.406   1.782
 7330SOL    HW222890   2.933   3.440   1.678
 7331SOL     OW22891   5.155   2.731   2.129
 7331SOL    HW122892   5.158   2.831   2.126
 7331SOL    HW222893   5.222   2.697   2.196
 7332SOL     OW22894   2.960   6.355   6.002
 7332SOL    HW122895   2.894   6.424   6.032
 7332SOL    HW222896   2.991   6.378   5.910
 7333SOL     OW22897   0.469   1.136   1.203
 7333SOL    HW122898   0.387   1.177   1.245
 7333SOL    HW222899   0.495   1.055   1.255
 7334SOL     OW22900   2.173   6.057   3.803
 7334SOL    HW122901   2.142   6.135   3.750
 7334SOL    HW222902   2.233   6.000   3.745
 7335SOL     OW22903   0.119   3.981   2.221
 7335SOL    HW122904   0.103   3.898   2.167
 7335SOL    HW222905   0.075   3.971   2.311
 7336SOL     OW22906   2.607   6.255   2.181
 7336SOL    HW122907   2.527   6.210   2.142
 7336SOL    HW222908   2.638   6.328   2.121
 7337SOL     OW22909   2.583   1.377   3.326
 7337SOL    HW122910   2.666   1.352   3.277
 7337SOL    HW222911   2.512   1.403   3.262
 7338SOL     OW22912   5.301   3.637   1.139
 7338SOL    HW122913   5.252   3.599   1.061
 7338SOL    HW222914   5.239   3.643   1.217
 7339SOL     OW22915   6.948   6.201   4.708
 7339SOL    HW122916   7.003   6.201   4.624
 7339SOL    HW222917   6.984   6.271   4.770
 7340SOL     OW22918   3.138   6.960   0.598
 7340SOL    HW122919   3.167   6.983   0.505
 7340SOL    HW222920   3.134   6.860   0.608
 7341SOL     OW22921   6.681   5.227   4.865
 7341SOL    HW122922   6.653   5.233   4.961
 7341SOL    HW222923   6.600   5.229   4.806
 7342SOL     OW22924   1.455   5.103   1.010
 7342SOL    HW122925   1.519   5.103   1.087
 7342SOL    HW222926   1.426   5.010   0.989
 7343SOL     OW22927   5.040   2.810   2.505
 7343SOL    HW122928   4.990   2.818   2.591
 7343SOL    HW222929   4.979   2.776   2.433
 7344SOL     OW22930   2.603   1.046   0.209
 7344SOL    HW122931   2.553   1.125   0.176
 7344SOL    HW222932   2.697   1.049   0.175
 7345SOL     OW22933   3.785   5.469   0.592
 7345SOL    HW122934   3.744   5.497   0.505
 7345SOL    HW222935   3.826   5.378   0.582
 7346SOL     OW22936   3.723   4.843   1.664
 7346SOL    HW122937   3.666   4.802   1.735
 7346SOL    HW222938   3.794   4.900   1.706
 7347SOL     OW22939   6.515   3.080   2.518
 7347SOL    HW122940   6.589   3.140   2.488
 7347SOL    HW222941   6.455   3.060   2.441
 7348SOL     OW22942   0.844   1.878   5.206
 7348SOL    HW122943   0.844   1.963   5.153
 7348SOL    HW222944   0.842   1.900   5.304
 7349SOL     OW22945   3.468   1.079   0.565
 7349SOL    HW122946   3.408   1.012   0.520
 7349SOL    HW222947   3.533   1.116   0.499
 7350SOL     OW22948   2.011   1.306   2.987
 7350SOL    HW122949   1.963   1.294   3.074
 7350SOL    HW222950   1.995   1.398   2.952
 7351SOL     OW22951   4.241   4.402   6.880
 7351SOL    HW122952   4.156   4.437   6.841
 7351SOL    HW222953   4.303   4.373   6.806
 7352SOL     OW22954   6.744   1.268   3.510
 7352SOL    HW122955   6.662   1.309   3.550
 7352SOL    HW222956   6.761   1.179   3.552
 7353SOL     OW22957   4.994   2.263   4.944
 7353SOL    HW122958   5.066   2.272   5.013
 7353SOL    HW222959   5.020   2.194   4.877
 7354SOL     OW22960   6.382   4.354   5.093
 7354SOL    HW122961   6.307   4.299   5.056
 7354SOL    HW222962   6.456   4.359   5.026
 7355SOL     OW22963   1.043   4.484   1.548
 7355SOL    HW122964   1.007   4.519   1.461
 7355SOL    HW222965   1.109   4.550   1.585
 7356SOL     OW22966   6.440   1.072   5.460
 7356SOL    HW122967   6.348   1.051   5.492
 7356SOL    HW222968   6.499   0.993   5.475
 7357SOL     OW22969   6.872   1.489   0.946
 7357SOL    HW122970   6.777   1.483   0.979
 7357SOL    HW222971   6.871   1.504   0.847
 7358SOL     OW22972   3.072   0.783   4.101
 7358SOL    HW122973   3.095   0.823   4.190
 7358SOL    HW222974   3.150   0.791   4.040
 7359SOL     OW22975   3.642   3.221   2.986
 7359SOL    HW122976   3.693   3.256   3.065
 7359SOL    HW222977   3.697   3.233   2.904
 7360SOL     OW22978   0.539   3.095   5.515
 7360SOL    HW122979   0.578   3.131   5.430
 7360SOL    HW222980   0.603   3.110   5.590
 7361SOL     OW22981   5.208   6.896   2.226
 7361SOL    HW122982   5.179   6.819   2.170
 7361SOL    HW222983   5.152   6.976   2.204
 7362SOL     OW22984   1.992   6.720   6.321
 7362SOL    HW122985   1.910   6.751   6.272
 7362SOL    HW222986   1.987   6.621   6.335
 7363SOL     OW22987   5.442   2.827   6.287
 7363SOL    HW122988   5.473   2.805   6.194
 7363SOL    HW222989   5.410   2.921   6.290
 7364SOL     OW22990   5.358   0.997   1.620
 7364SOL    HW122991   5.322   1.059   1.550
 7364SOL    HW222992   5.283   0.945   1.660
 7365SOL     OW22993   3.243   0.928   2.386
 7365SOL    HW122994   3.342   0.913   2.394
 7365SOL    HW222995   3.200   0.849   2.343
 7366SOL     OW22996   0.803   5.257   0.427
 7366SOL    HW122997   0.896   5.254   0.391
 7366SOL    HW222998   0.802   5.218   0.519
 7367SOL     OW22999   5.344   3.388   6.787
 7367SOL    HW123000   5.406   3.317   6.822
 7367SOL    HW223001   5.285   3.420   6.861
 7368SOL     OW23002   3.114   3.358   3.650
 7368SOL    HW123003   3.043   3.334   3.717
 7368SOL    HW223004   3.178   3.424   3.691
 7369SOL     OW23005   4.926   2.351   6.557
 7369SOL    HW123006   4.911   2.353   6.458
 7369SOL    HW223007   5.001   2.289   6.578
 7370SOL     OW23008   1.765   6.437   1.250
 7370SOL    HW123009   1.847   6.386   1.274
 7370SOL    HW223010   1.684   6.388   1.283
 7371SOL     OW23011   2.423   4.801   4.564
 7371SOL    HW123012   2.482   4.720   4.565
 7371SOL    HW223013   2.433   4.849   4.477
 7372SOL     OW23014   3.239   6.744   5.923
 7372SOL    HW123015   3.143   6.766   5.939
 7372SOL    HW223016   3.285   6.726   6.010
 7373SOL     OW23017   3.862   0.768   1.657
 7373SOL    HW123018   3.852   0.868   1.654
 7373SOL    HW223019   3.780   0.725   1.620
 7374SOL     OW23020   1.927   3.296   6.533
 7374SOL    HW123021   1.887   3.206   6.544
 7374SOL    HW223022   1.917   3.326   6.438
 7375SOL     OW23023   1.478   6.915   3.076
 7375SOL    HW123024   1.458   6.854   3.000
 7375SOL    HW223025   1.418   6.893   3.153
 7376SOL     OW23026   2.619   3.679   5.880
 7376SOL    HW123027   2.539   3.715   5.831
 7376SOL    HW223028   2.654   3.750   5.941
 7377SOL     OW23029   4.813   4.758   1.717
 7377SOL    HW123030   4.824   4.778   1.814
 7377SOL    HW223031   4.850   4.667   1.697
 7378SOL     OW23032   6.760   2.433   5.954
 7378SOL    HW123033   6.675   2.382   5.964
 7378SOL    HW223034   6.837   2.376   5.984
 7379SOL     OW23035   4.176   1.219   1.366
 7379SOL    HW123036   4.252   1.278   1.339
 7379SOL    HW223037   4.096   1.239   1.308
 7380SOL     OW23038   6.949   2.678   4.811
 7380SOL    HW123039   6.862   2.714   4.778
 7380SOL    HW223040   0.004   2.716   4.757
 7381SOL     OW23041   5.376   2.341   0.217
 7381SOL    HW123042   5.442   2.369   0.146
 7381SOL    HW223043   5.294   2.304   0.173
 7382SOL     OW23044   6.638   5.904   3.787
 7382SOL    HW123045   6.680   5.878   3.874
 7382SOL    HW223046   6.539   5.895   3.793
 7383SOL     OW23047   6.719   6.187   3.737
 7383SOL    HW123048   6.818   6.178   3.749
 7383SOL    HW223049   6.678   6.096   3.729
 7384SOL     OW23050   5.702   1.434   1.748
 7384SOL    HW123051   5.629   1.387   1.797
 7384SOL    HW223052   5.789   1.419   1.796
 7385SOL     OW23053   4.755   0.241   1.864
 7385SOL    HW123054   4.780   0.157   1.816
 7385SOL    HW223055   4.837   0.295   1.883
 7386SOL     OW23056   0.321   2.860   5.887
 7386SOL    HW123057   0.240   2.843   5.943
 7386SOL    HW223058   0.294   2.904   5.801
 7387SOL     OW23059   3.873   5.769   3.626
 7387SOL    HW123060   3.828   5.699   3.570
 7387SOL    HW223061   3.940   5.726   3.686
 7388SOL     OW23062   6.513   4.567   4.541
 7388SOL    HW123063   6.551   4.629   4.472
 7388SOL    HW223064   6.567   4.574   4.625
 7389SOL     OW23065   0.892   3.922   5.550
 7389SOL    HW123066   0.850   3.890   5.464
 7389SOL    HW223067   0.908   3.844   5.610
 7390SOL     OW23068   2.046   6.582   5.637
 7390SOL    HW123069   1.990   6.518   5.690
 7390SOL    HW223070   1.997   6.670   5.629
 7391SOL     OW23071   0.010   3.605   0.189
 7391SOL    HW123072   6.978   3.546   0.251
 7391SOL    HW223073   0.108   3.595   0.206
 7392SOL     OW23074   2.449   5.246   3.188
 7392SOL    HW123075   2.349   5.243   3.183
 7392SOL    HW223076   2.488   5.220   3.100
 7393SOL     OW23077   0.513   3.781   1.328
 7393SOL    HW123078   0.441   3.801   1.394
 7393SOL    HW223079   0.481   3.714   1.261
 7394SOL     OW23080   2.842   3.474   6.433
 7394SOL    HW123081   2.907   3.526   6.379
 7394SOL    HW223082   2.814   3.393   6.382
 7395SOL     OW23083   1.379   6.554   0.330
 7395SOL    HW123084   1.361   6.456   0.329
 7395SOL    HW223085   1.467   6.572   0.376
 7396SOL     OW23086   1.296   6.998   0.711
 7396SOL    HW123087   1.228   0.038   0.670
 7396SOL    HW223088   1.289   7.003   0.811
 7397SOL     OW23089   6.506   4.611   4.841
 7397SOL    HW123090   6.515   4.514   4.862
 7397SOL    HW223091   6.597   4.653   4.835
 7398SOL     OW23092   4.004   6.017   3.627
 7398SOL    HW123093   3.955   5.930   3.632
 7398SOL    HW223094   4.098   6.001   3.598
 7399SOL     OW23095   5.247   4.176   4.984
 7399SOL    HW123096   5.252   4.275   4.968
 7399SOL    HW223097   5.156   4.153   5.020
 7400SOL     OW23098   2.452   5.133   6.848
 7400SOL    HW123099   2.464   5.039   6.816
 7400SOL    HW223100   2.513   5.151   6.924
 7401SOL     OW23101   5.607   1.465   4.414
 7401SOL    HW123102   5.548   1.540   4.386
 7401SOL    HW223103   5.593   1.386   4.354
 7402SOL     OW23104   2.000   6.920   3.532
 7402SOL    HW123105   2.050   6.891   3.450
 7402SOL    HW223106   2.000   6.847   3.599
 7403SOL     OW23107   1.853   3.670   1.625
 7403SOL    HW123108   1.783   3.619   1.575
 7403SOL    HW223109   1.944   3.635   1.601
 7404SOL     OW23110   1.195   1.411   2.824
 7404SOL    HW123111   1.202   1.400   2.923
 7404SOL    HW223112   1.285   1.398   2.782
 7405SOL     OW23113   2.634   4.696   6.070
 7405SOL    HW123114   2.684   4.665   5.989
 7405SOL    HW223115   2.597   4.616   6.118
 7406SOL     OW23116   0.466   5.409   1.958
 7406SOL    HW123117   0.500   5.499   1.930
 7406SOL    HW223118   0.471   5.346   1.880
 7407SOL     OW23119   1.700   0.559   5.999
 7407SOL    HW123120   1.678   0.607   5.914
 7407SOL    HW223121   1.624   0.567   6.063
 7408SOL     OW23122   1.151   3.444   5.606
 7408SOL    HW123123   1.207   3.518   5.643
 7408SOL    HW223124   1.210   3.373   5.566
 7409SOL     OW23125   2.852   5.512   5.954
 7409SOL    HW123126   2.868   5.416   5.979
 7409SOL    HW223127   2.909   5.536   5.875
 7410SOL     OW23128   5.783   5.341   0.598
 7410SOL    HW123129   5.697   5.293   0.618
 7410SOL    HW223130   5.849   5.277   0.561
 7411SOL     OW23131   4.590   5.744   5.634
 7411SOL    HW123132   4.674   5.689   5.634
 7411SOL    HW223133   4.602   5.824   5.692
 7412SOL     OW23134   1.351   2.091   0.083
 7412SOL    HW123135   1.358   2.160   0.154
 7412SOL    HW223136   1.289   2.123   0.011
 7413SOL     OW23137   6.948   3.290   4.324
 7413SOL    HW123138   7.000   3.269   4.241
 7413SOL    HW223139   6.881   3.362   4.305
 7414SOL     OW23140   6.437   5.653   2.983
 7414SOL    HW123141   6.384   5.697   3.056
 7414SOL    HW223142   6.441   5.714   2.904
 7415SOL     OW23143   2.451   1.684   2.465
 7415SOL    HW123144   2.487   1.625   2.537
 7415SOL    HW223145   2.477   1.779   2.483
 7416SOL     OW23146   5.157   6.652   4.068
 7416SOL    HW123147   5.211   6.615   4.144
 7416SOL    HW223148   5.072   6.692   4.104
 7417SOL     OW23149   0.829   5.994   0.479
 7417SOL    HW123150   0.804   5.965   0.571
 7417SOL    HW223151   0.746   5.997   0.422
 7418SOL     OW23152   1.141   3.478   0.555
 7418SOL    HW123153   1.101   3.392   0.587
 7418SOL    HW223154   1.207   3.511   0.623
 7419SOL     OW23155   5.773   1.102   4.450
 7419SOL    HW123156   5.854   1.145   4.413
 7419SOL    HW223157   5.747   1.147   4.536
 7420SOL     OW23158   0.054   5.784   1.955
 7420SOL    HW123159   6.994   5.725   1.945
 7420SOL    HW223160   0.130   5.732   1.995
 7421SOL     OW23161   4.153   2.943   1.467
 7421SOL    HW123162   4.121   2.909   1.555
 7421SOL    HW223163   4.252   2.951   1.467
 7422SOL     OW23164   0.929   2.973   0.701
 7422SOL    HW123165   0.871   2.970   0.620
 7422SOL    HW223166   1.025   2.973   0.673
 7423SOL     OW23167   2.168   5.880   6.911
 7423SOL    HW123168   2.075   5.844   6.917
 7423SOL    HW223169   2.170   5.973   6.948
 7424SOL     OW23170   6.062   1.547   4.592
 7424SOL    HW123171   5.967   1.567   4.569
 7424SOL    HW223172   6.095   1.472   4.535
 7425SOL     OW23173   4.188   6.602   5.737
 7425SOL    HW123174   4.109   6.589   5.796
 7425SOL    HW223175   4.263   6.642   5.790
 7426SOL     OW23176   0.617   0.940   6.927
 7426SOL    HW123177   0.632   0.918   6.830
 7426SOL    HW223178   0.676   0.883   6.984
 7427SOL     OW23179   4.366   5.907   4.210
 7427SOL    HW123180   4.281   5.953   4.233
 7427SOL    HW223181   4.434   5.924   4.281
 7428SOL     OW23182   2.967   2.045   6.324
 7428SOL    HW123183   3.001   2.125   6.375
 7428SOL    HW223184   2.867   2.049   6.320
 7429SOL     OW23185   6.255   6.789   3.523
 7429SOL    HW123186   6.228   6.832   3.437
 7429SOL    HW223187   6.242   6.854   3.598
 7430SOL     OW23188   0.718   4.094   4.871
 7430SOL    HW123189   0.756   4.095   4.779
 7430SOL    HW223190   0.621   4.074   4.867
 7431SOL     OW23191   1.000   4.572   2.467
 7431SOL    HW123192   0.990   4.473   2.460
 7431SOL    HW223193   0.921   4.617   2.427
 7432SOL     OW23194   0.690   6.052   5.102
 7432SOL    HW123195   0.681   5.953   5.115
 7432SOL    HW223196   0.604   6.088   5.066
 7433SOL     OW23197   0.112   5.801   0.714
 7433SOL    HW123198   0.045   5.839   0.650
 7433SOL    HW223199   0.087   5.826   0.808
 7434SOL     OW23200   4.721   0.277   6.442
 7434SOL    HW123201   4.820   0.266   6.453
 7434SOL    HW223202   4.682   0.193   6.405
 7435SOL     OW23203   1.622   5.833   0.669
 7435SOL    HW123204   1.681   5.914   0.663
 7435SOL    HW223205   1.582   5.828   0.760
 7436SOL     OW23206   5.230   2.993   6.762
 7436SOL    HW123207   5.173   3.041   6.829
 7436SOL    HW223208   5.175   2.924   6.715
 7437SOL     OW23209   6.987   5.761   5.942
 7437SOL    HW123210   6.937   5.701   6.004
 7437SOL    HW223211   6.941   5.850   5.938
 7438SOL     OW23212   6.321   4.122   1.850
 7438SOL    HW123213   6.339   4.186   1.776
 7438SOL    HW223214   6.406   4.076   1.876
 7439SOL     OW23215   1.433   6.406   4.028
 7439SOL    HW123216   1.520   6.451   4.049
 7439SOL    HW223217   1.450   6.332   3.963
 7440SOL     OW23218   0.703   2.105   4.041
 7440SOL    HW123219   0.798   2.090   4.070
 7440SOL    HW223220   0.699   2.109   3.942
 7441SOL     OW23221   4.925   0.171   4.114
 7441SOL    HW123222   4.925   0.201   4.209
 7441SOL    HW223223   5.007   0.117   4.096
 7442SOL     OW23224   1.655   1.178   6.927
 7442SOL    HW123225   1.676   1.099   6.870
 7442SOL    HW223226   1.566   1.215   6.902
 7443SOL     OW23227   6.798   1.202   1.123
 7443SOL    HW123228   6.879   1.220   1.068
 7443SOL    HW223229   6.782   1.279   1.185
 7444SOL     OW23230   0.247   2.379   6.496
 7444SOL    HW123231   0.278   2.414   6.407
 7444SOL    HW223232   0.161   2.329   6.483
 7445SOL     OW23233   5.585   2.916   2.344
 7445SOL    HW123234   5.495   2.886   2.374
 7445SOL    HW223235   5.648   2.838   2.344
 7446SOL     OW23236   6.821   3.527   1.054
 7446SOL    HW123237   6.749   3.532   0.985
 7446SOL    HW223238   6.873   3.443   1.042
 7447SOL     OW23239   0.522   4.286   6.043
 7447SOL    HW123240   0.589   4.242   6.104
 7447SOL    HW223241   0.553   4.278   5.948
 7448SOL     OW23242   6.789   6.530   5.860
 7448SOL    HW123243   6.805   6.562   5.953
 7448SOL    HW223244   6.692   6.505   5.849
 7449SOL     OW23245   4.901   1.383   2.115
 7449SOL    HW123246   4.885   1.460   2.177
 7449SOL    HW223247   4.818   1.365   2.062
 7450SOL     OW23248   3.188   0.380   2.484
 7450SOL    HW123249   3.245   0.347   2.409
 7450SOL    HW223250   3.226   0.465   2.520
 7451SOL     OW23251   1.896   1.016   3.565
 7451SOL    HW123252   1.961   0.991   3.637
 7451SOL    HW223253   1.803   1.000   3.598
 7452SOL     OW23254   1.389   6.840   5.099
 7452SOL    HW123255   1.371   6.902   5.175
 7452SOL    HW223256   1.446   6.764   5.131
 7453SOL     OW23257   5.301   6.138   5.118
 7453SOL    HW123258   5.278   6.095   5.205
 7453SOL    HW223259   5.240   6.216   5.102
 7454SOL     OW23260   0.422   3.476   0.659
 7454SOL    HW123261   0.509   3.518   0.635
 7454SOL    HW223262   0.381   3.434   0.578
 7455SOL     OW23263   5.579   1.755   0.233
 7455SOL    HW123264   5.570   1.813   0.314
 7455SOL    HW223265   5.499   1.768   0.174
 7456SOL     OW23266   2.073   3.338   5.472
 7456SOL    HW123267   2.119   3.345   5.383
 7456SOL    HW223268   2.109   3.259   5.521
 7457SOL     OW23269   5.902   0.361   6.168
 7457SOL    HW123270   5.872   0.379   6.261
 7457SOL    HW223271   5.959   0.279   6.166
 7458SOL     OW23272   2.564   0.900   0.444
 7458SOL    HW123273   2.572   0.962   0.366
 7458SOL    HW223274   2.591   0.948   0.528
 7459SOL     OW23275   4.589   0.719   4.590
 7459SOL    HW123276   4.604   0.624   4.564
 7459SOL    HW223277   4.492   0.735   4.604
 7460SOL     OW23278   0.716   4.762   0.007
 7460SOL    HW123279   0.785   4.704   0.049
 7460SOL    HW223280   0.740   4.778   6.931
 7461SOL     OW23281   4.620   0.579   3.725
 7461SOL    HW123282   4.578   0.514   3.788
 7461SOL    HW223283   4.717   0.587   3.746
 7462SOL     OW23284   1.707   1.468   2.373
 7462SOL    HW123285   1.704   1.561   2.408
 7462SOL    HW223286   1.710   1.470   2.273
 7463SOL     OW23287   3.219   3.683   2.282
 7463SOL    HW123288   3.217   3.609   2.215
 7463SOL    HW223289   3.127   3.720   2.295
 7464SOL     OW23290   5.384   6.094   6.373
 7464SOL    HW123291   5.354   6.119   6.465
 7464SOL    HW223292   5.411   6.176   6.323
 7465SOL     OW23293   3.095   0.518   1.702
 7465SOL    HW123294   3.017   0.487   1.756
 7465SOL    HW223295   3.105   0.459   1.622
 7466SOL     OW23296   1.209   0.596   6.453
 7466SOL    HW123297   1.240   0.530   6.384
 7466SOL    HW223298   1.212   0.552   6.543
 7467SOL     OW23299   6.470   1.845   1.201
 7467SOL    HW123300   6.401   1.887   1.260
 7467SOL    HW223301   6.524   1.917   1.157
 7468SOL     OW23302   6.287   3.565   3.572
 7468SOL    HW123303   6.358   3.495   3.580
 7468SOL    HW223304   6.277   3.591   3.476
 7469SOL     OW23305   0.174   1.306   1.796
 7469SOL    HW123306   0.168   1.400   1.832
 7469SOL    HW223307   0.087   1.280   1.755
 7470SOL     OW23308   0.127   2.595   2.484
 7470SOL    HW123309   0.051   2.597   2.419
 7470SOL    HW223310   0.100   2.640   2.569
 7471SOL     OW23311   6.371   5.884   6.321
 7471SOL    HW123312   6.320   5.800   6.341
 7471SOL    HW223313   6.460   5.860   6.283
 7472SOL     OW23314   3.096   5.760   3.458
 7472SOL    HW123315   3.047   5.846   3.446
 7472SOL    HW223316   3.188   5.778   3.494
 7473SOL     OW23317   0.553   3.340   4.953
 7473SOL    HW123318   0.497   3.261   4.979
 7473SOL    HW223319   0.628   3.309   4.894
 7474SOL     OW23320   4.254   0.932   2.659
 7474SOL    HW123321   4.215   1.007   2.605
 7474SOL    HW223322   4.348   0.915   2.628
 7475SOL     OW23323   4.205   1.693   0.017
 7475SOL    HW123324   4.117   1.665   0.057
 7475SOL    HW223325   4.236   1.623   6.972
 7476SOL     OW23326   3.370   0.207   4.822
 7476SOL    HW123327   3.326   0.154   4.749
 7476SOL    HW223328   3.333   0.179   4.910
 7477SOL     OW23329   4.669   2.254   3.332
 7477SOL    HW123330   4.593   2.301   3.377
 7477SOL    HW223331   4.633   2.195   3.260
 7478SOL     OW23332   2.269   5.113   1.038
 7478SOL    HW123333   2.330   5.041   1.006
 7478SOL    HW223334   2.255   5.180   0.964
 7479SOL     OW23335   4.708   0.555   6.577
 7479SOL    HW123336   4.684   0.560   6.674
 7479SOL    HW223337   4.733   0.461   6.553
 7480SOL     OW23338   6.969   4.999   0.848
 7480SOL    HW123339   0.011   5.076   0.834
 7480SOL    HW223340   6.971   4.940   0.767
 7481SOL     OW23341   6.163   5.610   0.709
 7481SOL    HW123342   6.161   5.512   0.686
 7481SOL    HW223343   6.144   5.622   0.807
 7482SOL     OW23344   4.866   0.257   4.383
 7482SOL    HW123345   4.911   0.224   4.466
 7482SOL    HW223346   4.855   0.356   4.389
 7483SOL     OW23347   3.331   0.605   5.957
 7483SOL    HW123348   3.291   0.696   5.946
 7483SOL    HW223349   3.429   0.615   5.975
 7484SOL     OW23350   2.198   6.823   2.056
 7484SOL    HW123351   2.249   6.851   1.975
 7484SOL    HW223352   2.209   6.891   2.129
 7485SOL     OW23353   1.429   6.380   6.660
 7485SOL    HW123354   1.436   6.479   6.673
 7485SOL    HW223355   1.495   6.350   6.591
 7486SOL     OW23356   1.931   0.304   5.647
 7486SOL    HW123357   1.892   0.375   5.589
 7486SOL    HW223358   2.030   0.298   5.632
 7487SOL     OW23359   4.060   5.359   3.471
 7487SOL    HW123360   4.106   5.430   3.524
 7487SOL    HW223361   4.079   5.373   3.374
 7488SOL     OW23362   3.883   1.092   5.892
 7488SOL    HW123363   3.937   1.074   5.810
 7488SOL    HW223364   3.944   1.103   5.970
 7489SOL     OW23365   6.259   3.646   3.313
 7489SOL    HW123366   6.165   3.642   3.278
 7489SOL    HW223367   6.319   3.592   3.254
 7490SOL     OW23368   5.688   1.701   1.697
 7490SOL    HW123369   5.701   1.602   1.705
 7490SOL    HW223370   5.591   1.721   1.684
 7491SOL     OW23371   6.647   5.413   6.401
 7491SOL    HW123372   6.586   5.481   6.441
 7491SOL    HW223373   6.604   5.323   6.405
 7492SOL     OW23374   2.334   2.647   4.576
 7492SOL    HW123375   2.395   2.659   4.654
 7492SOL    HW223376   2.388   2.637   4.492
 7493SOL     OW23377   5.611   3.548   0.144
 7493SOL    HW123378   5.692   3.598   0.173
 7493SOL    HW223379   5.610   3.540   0.044
 7494SOL     OW23380   5.077   1.894   1.413
 7494SOL    HW123381   5.124   1.870   1.328
 7494SOL    HW223382   5.039   1.987   1.405
 7495SOL     OW23383   0.576   1.826   2.317
 7495SOL    HW123384   0.544   1.914   2.352
 7495SOL    HW223385   0.510   1.755   2.341
 7496SOL     OW23386   1.041   4.473   5.306
 7496SOL    HW123387   1.068   4.376   5.305
 7496SOL    HW223388   1.116   4.528   5.344
 7497SOL     OW23389   2.279   4.776   1.623
 7497SOL    HW123390   2.181   4.793   1.634
 7497SOL    HW223391   2.325   4.795   1.710
 7498SOL     OW23392   4.409   1.608   4.347
 7498SOL    HW123393   4.501   1.615   4.385
 7498SOL    HW223394   4.411   1.633   4.250
 7499SOL     OW23395   5.171   5.435   4.171
 7499SOL    HW123396   5.122   5.381   4.102
 7499SOL    HW223397   5.228   5.375   4.227
 7500SOL     OW23398   5.262   4.330   1.342
 7500SOL    HW123399   5.262   4.416   1.394
 7500SOL    HW223400   5.178   4.324   1.288
 7501SOL     OW23401   0.265   4.389   3.759
 7501SOL    HW123402   0.186   4.341   3.721
 7501SOL    HW223403   0.344   4.327   3.763
 7502SOL     OW23404   1.869   1.535   4.687
 7502SOL    HW123405   1.769   1.537   4.679
 7502SOL    HW223406   1.895   1.533   4.783
 7503SOL     OW23407   2.315   2.499   5.962
 7503SOL    HW123408   2.364   2.579   5.929
 7503SOL    HW223409   2.379   2.424   5.977
 7504SOL     OW23410   4.180   5.559   3.650
 7504SOL    HW123411   4.232   5.644   3.662
 7504SOL    HW223412   4.103   5.558   3.714
 7505SOL     OW23413   1.257   1.606   4.724
 7505SOL    HW123414   1.284   1.660   4.644
 7505SOL    HW223415   1.181   1.652   4.770
 7506SOL     OW23416   3.492   1.535   3.535
 7506SOL    HW123417   3.429   1.553   3.610
 7506SOL    HW223418   3.528   1.442   3.543
 7507SOL     OW23419   0.969   6.029   6.315
 7507SOL    HW123420   0.871   6.039   6.333
 7507SOL    HW223421   0.983   5.958   6.246
 7508SOL     OW23422   4.987   0.243   3.708
 7508SOL    HW123423   5.000   0.227   3.610
 7508SOL    HW223424   5.021   0.334   3.732
 7509SOL     OW23425   4.641   4.067   5.614
 7509SOL    HW123426   4.635   4.141   5.546
 7509SOL    HW223427   4.563   4.006   5.604
 7510SOL     OW23428   3.808   4.106   4.993
 7510SOL    HW123429   3.892   4.063   5.029
 7510SOL    HW223430   3.728   4.059   5.032
 7511SOL     OW23431   1.358   0.720   2.411
 7511SOL    HW123432   1.424   0.739   2.484
 7511SOL    HW223433   1.374   0.782   2.334
 7512SOL     OW23434   1.866   2.934   2.049
 7512SOL    HW123435   1.914   3.018   2.077
 7512SOL    HW223436   1.768   2.944   2.066
 7513SOL     OW23437   1.431   2.656   6.608
 7513SOL    HW123438   1.445   2.749   6.574
 7513SOL    HW223439   1.381   2.660   6.694
 7514SOL     OW23440   2.658   5.915   3.303
 7514SOL    HW123441   2.656   5.822   3.268
 7514SOL    HW223442   2.716   5.972   3.245
 7515SOL     OW23443   6.095   5.674   2.517
 7515SOL    HW123444   6.026   5.601   2.512
 7515SOL    HW223445   6.053   5.756   2.556
 7516SOL     OW23446   0.657   0.919   2.809
 7516SOL    HW123447   0.715   0.866   2.871
 7516SOL    HW223448   0.616   0.995   2.858
 7517SOL     OW23449   0.265   3.822   1.496
 7517SOL    HW123450   0.215   3.787   1.575
 7517SOL    HW223451   0.282   3.920   1.508
 7518SOL     OW23452   5.024   5.562   3.852
 7518SOL    HW123453   4.979   5.517   3.775
 7518SOL    HW223454   4.978   5.536   3.937
 7519SOL     OW23455   2.381   5.755   4.122
 7519SOL    HW123456   2.477   5.748   4.148
 7519SOL    HW223457   2.366   5.708   4.035
 7520SOL     OW23458   2.180   6.850   4.748
 7520SOL    HW123459   2.120   6.930   4.759
 7520SOL    HW223460   2.265   6.879   4.704
 7521SOL     OW23461   5.092   4.354   5.769
 7521SOL    HW123462   5.091   4.327   5.673
 7521SOL    HW223463   5.187   4.370   5.798
 7522SOL     OW23464   1.571   1.092   2.013
 7522SOL    HW123465   1.670   1.088   2.022
 7522SOL    HW223466   1.530   1.112   2.103
 7523SOL     OW23467   6.031   6.475   6.872
 7523SOL    HW123468   5.958   6.528   6.916
 7523SOL    HW223469   6.076   6.531   6.803
 7524SOL     OW23470   6.668   1.653   4.482
 7524SOL    HW123471   6.631   1.726   4.539
 7524SOL    HW223472   6.691   1.574   4.539
 7525SOL     OW23473   1.767   6.812   0.933
 7525SOL    HW123474   1.777   6.898   0.883
 7525SOL    HW223475   1.708   6.827   1.012
 7526SOL     OW23476   3.687   3.178   5.163
 7526SOL    HW123477   3.649   3.217   5.079
 7526SOL    HW223478   3.681   3.078   5.158
 7527SOL     OW23479   5.505   4.577   2.802
 7527SOL    HW123480   5.537   4.485   2.823
 7527SOL    HW223481   5.427   4.600   2.861
 7528SOL     OW23482   6.742   3.659   6.306
 7528SOL    HW123483   6.660   3.619   6.347
 7528SOL    HW223484   6.732   3.662   6.207
 7529SOL     OW23485   3.141   1.261   5.768
 7529SOL    HW123486   3.044   1.243   5.752
 7529SOL    HW223487   3.195   1.183   5.735
 7530SOL     OW23488   0.534   3.408   2.416
 7530SOL    HW123489   0.457   3.345   2.412
 7530SOL    HW223490   0.549   3.437   2.511
 7531SOL     OW23491   3.581   1.896   3.545
 7531SOL    HW123492   3.517   1.881   3.470
 7531SOL    HW223493   3.553   1.978   3.596
 7532SOL     OW23494   5.041   4.836   2.615
 7532SOL    HW123495   5.105   4.808   2.543
 7532SOL    HW223496   5.011   4.756   2.667
 7533SOL     OW23497   3.821   0.126   4.434
 7533SOL    HW123498   3.900   0.099   4.378
 7533SOL    HW223499   3.824   0.224   4.450
 7534SOL     OW23500   5.004   6.873   4.658
 7534SOL    HW123501   4.975   6.843   4.749
 7534SOL    HW223502   5.056   6.800   4.614
 7535SOL     OW23503   3.344   3.670   6.406
 7535SOL    HW123504   3.269   3.669   6.473
 7535SOL    HW223505   3.353   3.580   6.364
 7536SOL     OW23506   3.415   6.471   4.196
 7536SOL    HW123507   3.372   6.464   4.106
 7536SOL    HW223508   3.424   6.380   4.236
 7537SOL     OW23509   2.090   4.827   5.824
 7537SOL    HW123510   2.061   4.734   5.846
 7537SOL    HW223511   2.162   4.855   5.888
 7538SOL     OW23512   3.376   3.100   2.414
 7538SOL    HW123513   3.408   3.120   2.506
 7538SOL    HW223514   3.305   3.029   2.419
 7539SOL     OW23515   1.697   2.984   4.727
 7539SOL    HW123516   1.695   3.044   4.647
 7539SOL    HW223517   1.754   3.024   4.798
 7540SOL     OW23518   2.267   1.389   0.379
 7540SOL    HW123519   2.242   1.319   0.446
 7540SOL    HW223520   2.345   1.441   0.413
 7541SOL     OW23521   6.754   2.702   5.963
 7541SOL    HW123522   6.757   2.603   5.974
 7541SOL    HW223523   6.685   2.741   6.025
 7542SOL     OW23524   1.787   6.787   6.672
 7542SOL    HW123525   1.722   6.762   6.600
 7542SOL    HW223526   1.749   6.863   6.725
 7543SOL     OW23527   3.715   3.155   7.005
 7543SOL    HW123528   3.798   3.099   6.998
 7543SOL    HW223529   3.700   3.204   6.919
 7544SOL     OW23530   2.403   2.302   2.746
 7544SOL    HW123531   2.473   2.333   2.809
 7544SOL    HW223532   2.315   2.344   2.770
 7545SOL     OW23533   4.969   6.416   4.313
 7545SOL    HW123534   4.933   6.372   4.231
 7545SOL    HW223535   5.062   6.449   4.295
 7546SOL     OW23536   5.213   0.592   6.637
 7546SOL    HW123537   5.113   0.584   6.640
 7546SOL    HW223538   5.254   0.520   6.693
 7547SOL     OW23539   3.254   0.196   0.303
 7547SOL    HW123540   3.282   0.251   0.224
 7547SOL    HW223541   3.248   0.255   0.384
 7548SOL     OW23542   1.240   2.820   1.232
 7548SOL    HW123543   1.304   2.769   1.175
 7548SOL    HW223544   1.220   2.767   1.315
 7549SOL     OW23545   6.232   2.210   2.113
 7549SOL    HW123546   6.174   2.139   2.073
 7549SOL    HW223547   6.275   2.175   2.196
 7550SOL     OW23548   2.030   5.681   1.030
 7550SOL    HW123549   2.059   5.615   0.961
 7550SOL    HW223550   1.952   5.734   0.996
 7551SOL     OW23551   4.976   3.589   6.326
 7551SOL    HW123552   4.937   3.519   6.385
 7551SOL    HW223553   5.032   3.652   6.381
 7552SOL     OW23554   3.487   5.188   3.858
 7552SOL    HW123555   3.514   5.283   3.840
 7552SOL    HW223556   3.400   5.169   3.812
 7553SOL     OW23557   4.262   4.776   5.663
 7553SOL    HW123558   4.285   4.715   5.739
 7553SOL    HW223559   4.309   4.863   5.676
 7554SOL     OW23560   6.093   1.035   1.210
 7554SOL    HW123561   6.150   1.020   1.130
 7554SOL    HW223562   6.133   1.107   1.268
 7555SOL     OW23563   0.847   5.798   5.335
 7555SOL    HW123564   0.881   5.847   5.415
 7555SOL    HW223565   0.897   5.712   5.325
 7556SOL     OW23566   0.454   3.206   4.602
 7556SOL    HW123567   0.449   3.302   4.574
 7556SOL    HW223568   0.516   3.156   4.542
 7557SOL     OW23569   4.455   3.538   6.887
 7557SOL    HW123570   4.380   3.523   6.822
 7557SOL    HW223571   4.510   3.454   6.893
 7558SOL     OW23572   1.470   3.290   3.731
 7558SOL    HW123573   1.540   3.358   3.707
 7558SOL    HW223574   1.512   3.200   3.739
 7559SOL     OW23575   0.543   4.255   1.273
 7559SOL    HW123576   0.634   4.216   1.288
 7559SOL    HW223577   0.552   4.351   1.247
 7560SOL     OW23578   4.382   6.692   6.683
 7560SOL    HW123579   4.341   6.618   6.630
 7560SOL    HW223580   4.310   6.743   6.731
 7561SOL     OW23581   0.625   2.859   1.128
 7561SOL    HW123582   0.552   2.927   1.129
 7561SOL    HW223583   0.695   2.886   1.063
 7562SOL     OW23584   4.906   5.595   5.330
 7562SOL    HW123585   4.912   5.693   5.310
 7562SOL    HW223586   4.830   5.555   5.279
 7563SOL     OW23587   2.137   0.940   2.750
 7563SOL    HW123588   2.088   0.983   2.674
 7563SOL    HW223589   2.112   0.844   2.756
 7564SOL     OW23590   5.004   6.024   3.923
 7564SOL    HW123591   4.931   6.091   3.915
 7564SOL    HW223592   4.968   5.939   3.962
 7565SOL     OW23593   4.827   4.647   0.914
 7565SOL    HW123594   4.880   4.603   0.842
 7565SOL    HW223595   4.748   4.590   0.937
 7566SOL     OW23596   1.626   6.156   4.888
 7566SOL    HW123597   1.628   6.250   4.921
 7566SOL    HW223598   1.715   6.114   4.903
 7567SOL     OW23599   3.025   3.557   0.360
 7567SOL    HW123600   2.950   3.570   0.295
 7567SOL    HW223601   3.078   3.477   0.334
 7568SOL     OW23602   4.963   4.323   2.951
 7568SOL    HW123603   5.057   4.324   2.916
 7568SOL    HW223604   4.956   4.258   3.026
 7569SOL     OW23605   4.189   0.179   0.520
 7569SOL    HW123606   4.163   0.238   0.444
 7569SOL    HW223607   4.273   0.131   0.498
 7570SOL     OW23608   6.641   4.903   4.649
 7570SOL    HW123609   6.646   4.864   4.557
 7570SOL    HW223610   6.695   4.847   4.712
 7571SOL     OW23611   5.192   4.100   2.046
 7571SOL    HW123612   5.197   4.039   2.125
 7571SOL    HW223613   5.209   4.048   1.962
 7572SOL     OW23614   2.352   1.706   4.661
 7572SOL    HW123615   2.268   1.706   4.607
 7572SOL    HW223616   2.347   1.777   4.731
 7573SOL     OW23617   2.369   5.838   5.051
 7573SOL    HW123618   2.303   5.786   5.106
 7573SOL    HW223619   2.347   5.827   4.954
 7574SOL     OW23620   5.310   6.579   2.500
 7574SOL    HW123621   5.382   6.608   2.563
 7574SOL    HW223622   5.221   6.605   2.535
 7575SOL     OW23623   4.224   2.180   4.909
 7575SOL    HW123624   4.187   2.271   4.926
 7575SOL    HW223625   4.307   2.167   4.962
 7576SOL     OW23626   6.110   2.935   0.720
 7576SOL    HW123627   6.139   3.001   0.650
 7576SOL    HW223628   6.163   2.949   0.803
 7577SOL     OW23629   4.673   0.475   5.548
 7577SOL    HW123630   4.716   0.466   5.638
 7577SOL    HW223631   4.675   0.387   5.502
 7578SOL     OW23632   2.619   4.765   4.229
 7578SOL    HW123633   2.637   4.668   4.244
 7578SOL    HW223634   2.520   4.782   4.231
 7579SOL     OW23635   3.767   1.369   3.098
 7579SOL    HW123636   3.805   1.277   3.090
 7579SOL    HW223637   3.770   1.414   3.009
 7580SOL     OW23638   1.827   4.026   3.180
 7580SOL    HW123639   1.913   3.980   3.201
 7580SOL    HW223640   1.765   4.016   3.258
 7581SOL     OW23641   5.880   0.480   1.025
 7581SOL    HW123642   5.907   0.516   0.936
 7581SOL    HW223643   5.850   0.555   1.084
 7582SOL     OW23644   2.578   1.076   0.952
 7582SOL    HW123645   2.669   1.075   0.992
 7582SOL    HW223646   2.567   0.997   0.891
 7583SOL     OW23647   0.156   3.579   2.555
 7583SOL    HW123648   0.161   3.566   2.654
 7583SOL    HW223649   0.120   3.496   2.512
 7584SOL     OW23650   2.159   0.795   1.444
 7584SOL    HW123651   2.251   0.756   1.442
 7584SOL    HW223652   2.115   0.779   1.356
 7585SOL     OW23653   1.684   4.792   5.747
 7585SOL    HW123654   1.727   4.745   5.670
 7585SOL    HW223655   1.712   4.749   5.833
 7586SOL     OW23656   2.551   0.978   2.190
 7586SOL    HW123657   2.521   1.066   2.227
 7586SOL    HW223658   2.479   0.937   2.135
 7587SOL     OW23659   1.695   1.403   6.317
 7587SOL    HW123660   1.655   1.420   6.227
 7587SOL    HW223661   1.708   1.490   6.365
 7588SOL     OW23662   7.009   4.280   1.400
 7588SOL    HW123663   0.023   4.357   1.453
 7588SOL    HW223664   0.066   4.228   1.362
 7589SOL     OW23665   5.737   6.037   0.617
 7589SOL    HW123666   5.802   6.104   0.582
 7589SOL    HW223667   5.645   6.077   0.618
 7590SOL     OW23668   1.758   0.953   6.301
 7590SOL    HW123669   1.793   1.038   6.262
 7590SOL    HW223670   1.797   0.876   6.251
 7591SOL     OW23671   6.660   5.009   0.437
 7591SOL    HW123672   6.607   5.089   0.466
 7591SOL    HW223673   6.640   4.933   0.499
 7592SOL     OW23674   5.369   5.322   0.355
 7592SOL    HW123675   5.363   5.347   0.258
 7592SOL    HW223676   5.375   5.405   0.410
 7593SOL     OW23677   5.846   2.545   6.232
 7593SOL    HW123678   5.816   2.570   6.323
 7593SOL    HW223679   5.946   2.554   6.226
 7594SOL     OW23680   1.415   5.898   4.186
 7594SOL    HW123681   1.317   5.881   4.200
 7594SOL    HW223682   1.466   5.816   4.213
 7595SOL     OW23683   6.220   2.860   0.104
 7595SOL    HW123684   6.312   2.840   0.069
 7595SOL    HW223685   6.204   2.958   0.102
 7596SOL     OW23686   5.445   4.424   2.001
 7596SOL    HW123687   5.451   4.521   2.023
 7596SOL    HW223688   5.395   4.376   2.073
 7597SOL     OW23689   3.277   5.219   1.592
 7597SOL    HW123690   3.333   5.286   1.640
 7597SOL    HW223691   3.180   5.242   1.602
 7598SOL     OW23692   6.440   1.085   3.437
 7598SOL    HW123693   6.453   1.119   3.530
 7598SOL    HW223694   6.352   1.038   3.432
 7599SOL     OW23695   6.528   2.129   1.984
 7599SOL    HW123696   6.527   2.044   1.933
 7599SOL    HW223697   6.436   2.151   2.015
 7600SOL     OW23698   1.539   1.691   1.515
 7600SOL    HW123699   1.503   1.783   1.530
 7600SOL    HW223700   1.637   1.696   1.497
 7601SOL     OW23701   2.414   6.591   5.329
 7601SOL    HW123702   2.489   6.578   5.263
 7601SOL    HW223703   2.364   6.674   5.305
 7602SOL     OW23704   1.839   3.693   4.918
 7602SOL    HW123705   1.826   3.627   4.844
 7602SOL    HW223706   1.803   3.655   5.003
 7603SOL     OW23707   0.727   0.343   1.689
 7603SOL    HW123708   0.627   0.344   1.697
 7603SOL    HW223709   0.752   0.348   1.593
 7604SOL     OW23710   4.830   6.418   5.941
 7604SOL    HW123711   4.888   6.349   5.897
 7604SOL    HW223712   4.797   6.383   6.029
 7605SOL     OW23713   6.044   4.333   6.233
 7605SOL    HW123714   6.051   4.402   6.305
 7605SOL    HW223715   6.059   4.376   6.144
 7606SOL     OW23716   5.761   2.031   2.406
 7606SOL    HW123717   5.708   2.081   2.337
 7606SOL    HW223718   5.850   2.075   2.419
 7607SOL     OW23719   4.987   6.630   6.400
 7607SOL    HW123720   4.942   6.678   6.325
 7607SOL    HW223721   4.920   6.608   6.470
 7608SOL     OW23722   3.485   3.011   3.487
 7608SOL    HW123723   3.420   3.084   3.506
 7608SOL    HW223724   3.547   3.040   3.414
 7609SOL     OW23725   1.388   2.860   4.500
 7609SOL    HW123726   1.417   2.828   4.591
 7609SOL    HW223727   1.458   2.836   4.432
 7610SOL     OW23728   5.318   0.168   1.385
 7610SOL    HW123729   5.407   0.193   1.346
 7610SOL    HW223730   5.278   0.094   1.330
 7611SOL     OW23731   1.640   2.041   1.172
 7611SOL    HW123732   1.710   1.971   1.158
 7611SOL    HW223733   1.550   2.002   1.151
 7612SOL     OW23734   4.180   1.670   3.082
 7612SOL    HW123735   4.250   1.713   3.026
 7612SOL    HW223736   4.101   1.731   3.090
 7613SOL     OW23737   4.646   1.365   1.986
 7613SOL    HW123738   4.694   1.441   1.942
 7613SOL    HW223739   4.610   1.394   2.075
 7614SOL     OW23740   4.197   2.270   0.659
 7614SOL    HW123741   4.197   2.247   0.756
 7614SOL    HW223742   4.288   2.256   0.621
 7615SOL     OW23743   3.516   5.050   5.732
 7615SOL    HW123744   3.440   5.109   5.758
 7615SOL    HW223745   3.494   5.005   5.645
 7616SOL     OW23746   6.210   4.339   3.854
 7616SOL    HW123747   6.240   4.419   3.905
 7616SOL    HW223748   6.113   4.347   3.833
 7617SOL     OW23749   3.610   5.781   2.328
 7617SOL    HW123750   3.574   5.831   2.250
 7617SOL    HW223751   3.569   5.690   2.332
 7618SOL     OW23752   1.445   2.847   0.729
 7618SOL    HW123753   1.439   2.752   0.761
 7618SOL    HW223754   1.514   2.895   0.783
 7619SOL     OW23755   5.536   3.306   5.571
 7619SOL    HW123756   5.562   3.211   5.589
 7619SOL    HW223757   5.618   3.362   5.564
 7620SOL     OW23758   3.217   6.790   2.021
 7620SOL    HW123759   3.276   6.858   2.065
 7620SOL    HW223760   3.243   6.699   2.052
 7621SOL     OW23761   2.158   1.474   2.147
 7621SOL    HW123762   2.233   1.504   2.205
 7621SOL    HW223763   2.195   1.426   2.067
 7622SOL     OW23764   4.701   2.371   0.228
 7622SOL    HW123765   4.707   2.280   0.187
 7622SOL    HW223766   4.616   2.415   0.199
 7623SOL     OW23767   5.211   0.460   5.985
 7623SOL    HW123768   5.146   0.397   6.028
 7623SOL    HW223769   5.268   0.502   6.055
 7624SOL     OW23770   0.537   0.669   3.123
 7624SOL    HW123771   0.506   0.761   3.150
 7624SOL    HW223772   0.552   0.614   3.205
 7625SOL     OW23773   4.592   0.379   1.686
 7625SOL    HW123774   4.634   0.305   1.739
 7625SOL    HW223775   4.588   0.462   1.742
 7626SOL     OW23776   1.747   5.493   4.849
 7626SOL    HW123777   1.724   5.415   4.908
 7626SOL    HW223778   1.679   5.500   4.776
 7627SOL     OW23779   0.068   2.511   0.365
 7627SOL    HW123780   0.108   2.587   0.314
 7627SOL    HW223781   0.069   2.532   0.463
 7628SOL     OW23782   3.147   1.702   1.072
 7628SOL    HW123783   3.069   1.760   1.093
 7628SOL    HW223784   3.232   1.749   1.097
 7629SOL     OW23785   6.309   5.548   3.493
 7629SOL    HW123786   6.216   5.584   3.500
 7629SOL    HW223787   6.373   5.612   3.537
 7630SOL     OW23788   6.309   0.777   2.336
 7630SOL    HW123789   6.332   0.687   2.298
 7630SOL    HW223790   6.385   0.812   2.389
 7631SOL     OW23791   0.485   2.052   3.641
 7631SOL    HW123792   0.415   2.018   3.578
 7631SOL    HW223793   0.490   2.151   3.634
 7632SOL     OW23794   4.478   1.624   6.806
 7632SOL    HW123795   4.495   1.723   6.802
 7632SOL    HW223796   4.545   1.577   6.748
 7633SOL     OW23797   5.429   4.173   6.787
 7633SOL    HW123798   5.483   4.257   6.774
 7633SOL    HW223799   5.482   4.094   6.755
 7634SOL     OW23800   1.062   1.629   2.243
 7634SOL    HW123801   1.101   1.612   2.152
 7634SOL    HW223802   1.040   1.541   2.286
 7635SOL     OW23803   2.866   4.685   5.559
 7635SOL    HW123804   2.942   4.671   5.495
 7635SOL    HW223805   2.828   4.777   5.546
 7636SOL     OW23806   1.344   0.192   4.086
 7636SOL    HW123807   1.429   0.166   4.131
 7636SOL    HW223808   1.340   0.292   4.076
 7637SOL     OW23809   1.771   5.848   4.278
 7637SOL    HW123810   1.760   5.749   4.288
 7637SOL    HW223811   1.691   5.894   4.318
 7638SOL     OW23812   5.022   5.038   2.131
 7638SOL    HW123813   5.072   5.124   2.123
 7638SOL    HW223814   4.965   5.040   2.214
 7639SOL     OW23815   0.899   1.708   4.655
 7639SOL    HW123816   0.890   1.608   4.648
 7639SOL    HW223817   0.961   1.731   4.729
 7640SOL     OW23818   2.428   2.078   6.836
 7640SOL    HW123819   2.526   2.071   6.856
 7640SOL    HW223820   2.411   2.052   6.741
 7641SOL     OW23821   6.145   3.521   2.603
 7641SOL    HW123822   6.202   3.461   2.548
 7641SOL    HW223823   6.203   3.579   2.660
 7642SOL     OW23824   2.830   1.864   2.857
 7642SOL    HW123825   2.833   1.768   2.828
 7642SOL    HW223826   2.737   1.899   2.847
 7643SOL     OW23827   4.845   2.995   2.947
 7643SOL    HW123828   4.795   2.920   2.990
 7643SOL    HW223829   4.857   3.069   3.013
 7644SOL     OW23830   0.354   3.525   3.173
 7644SOL    HW123831   0.410   3.607   3.186
 7644SOL    HW223832   0.258   3.548   3.189
 7645SOL     OW23833   4.892   4.142   6.566
 7645SOL    HW123834   4.948   4.214   6.607
 7645SOL    HW223835   4.921   4.053   6.602
 7646SOL     OW23836   1.732   1.968   2.440
 7646SOL    HW123837   1.664   1.903   2.473
 7646SOL    HW223838   1.821   1.948   2.482
 7647SOL     OW23839   2.208   4.132   1.570
 7647SOL    HW123840   2.240   4.216   1.614
 7647SOL    HW223841   2.182   4.065   1.639
 7648SOL     OW23842   4.279   0.906   3.386
 7648SOL    HW123843   4.310   0.816   3.416
 7648SOL    HW223844   4.355   0.953   3.340
 7649SOL     OW23845   3.064   1.005   1.465
 7649SOL    HW123846   2.987   0.941   1.472
 7649SOL    HW223847   3.040   1.091   1.509
 7650SOL     OW23848   6.348   4.893   2.561
 7650SOL    HW123849   6.417   4.856   2.499
 7650SOL    HW223850   6.302   4.971   2.517
 7651SOL     OW23851   3.876   1.541   6.324
 7651SOL    HW123852   3.801   1.538   6.258
 7651SOL    HW223853   3.853   1.605   6.398
 7652SOL     OW23854   1.148   3.133   2.432
 7652SOL    HW123855   1.171   3.159   2.526
 7652SOL    HW223856   1.123   3.036   2.430
 7653SOL     OW23857   3.082   2.268   1.138
 7653SOL    HW123858   3.129   2.212   1.206
 7653SOL    HW223859   3.138   2.347   1.115
 7654SOL     OW23860   4.810   3.886   3.724
 7654SOL    HW123861   4.806   3.786   3.720
 7654SOL    HW223862   4.798   3.916   3.819
 7655SOL     OW23863   4.212   6.568   5.387
 7655SOL    HW123864   4.135   6.617   5.427
 7655SOL    HW223865   4.292   6.577   5.447
 7656SOL     OW23866   0.771   6.215   4.891
 7656SOL    HW123867   0.753   6.124   4.928
 7656SOL    HW223868   0.870   6.232   4.892
 7657SOL     OW23869   3.924   1.410   3.921
 7657SOL    HW123870   3.989   1.335   3.910
 7657SOL    HW223871   3.904   1.450   3.832
 7658SOL     OW23872   3.850   0.598   5.965
 7658SOL    HW123873   3.910   0.651   5.905
 7658SOL    HW223874   3.898   0.518   5.999
 7659SOL     OW23875   5.785   0.235   1.158
 7659SOL    HW123876   5.799   0.162   1.091
 7659SOL    HW223877   5.812   0.323   1.118
 7660SOL     OW23878   6.220   5.114   4.266
 7660SOL    HW123879   6.204   5.027   4.312
 7660SOL    HW223880   6.151   5.128   4.195
 7661SOL     OW23881   5.798   3.032   3.133
 7661SOL    HW123882   5.853   2.954   3.103
 7661SOL    HW223883   5.803   3.104   3.064
 7662SOL     OW23884   0.002   5.275   1.993
 7662SOL    HW123885   0.020   5.366   1.956
 7662SOL    HW223886   6.925   5.253   1.983
 7663SOL     OW23887   6.946   5.484   0.350
 7663SOL    HW123888   6.939   5.478   0.250
 7663SOL    HW223889   6.922   5.395   0.390
 7664SOL     OW23890   2.474   5.329   4.151
 7664SOL    HW123891   2.454   5.426   4.158
 7664SOL    HW223892   2.573   5.314   4.155
 7665SOL     OW23893   2.692   7.008   4.936
 7665SOL    HW123894   2.732   6.933   4.987
 7665SOL    HW223895   2.592   7.005   4.944
 7666SOL     OW23896   0.739   0.936   1.075
 7666SOL    HW123897   0.742   1.036   1.075
 7666SOL    HW223898   0.831   0.899   1.075
 7667SOL     OW23899   4.599   5.618   6.367
 7667SOL    HW123900   4.524   5.680   6.348
 7667SOL    HW223901   4.632   5.577   6.282
 7668SOL     OW23902   3.421   3.786   0.935
 7668SOL    HW123903   3.451   3.879   0.956
 7668SOL    HW223904   3.366   3.751   1.011
 7669SOL     OW23905   4.820   6.270   4.484
 7669SOL    HW123906   4.724   6.297   4.472
 7669SOL    HW223907   4.877   6.327   4.426
 7670SOL     OW23908   1.796   4.790   0.780
 7670SOL    HW123909   1.756   4.714   0.729
 7670SOL    HW223910   1.819   4.760   0.872
 7671SOL     OW23911   6.030   2.255   4.625
 7671SOL    HW123912   6.127   2.262   4.648
 7671SOL    HW223913   5.985   2.342   4.642
 7672SOL     OW23914   5.467   1.204   2.546
 7672SOL    HW123915   5.422   1.185   2.459
 7672SOL    HW223916   5.563   1.178   2.540
 7673SOL     OW23917   1.035   4.649   1.273
 7673SOL    HW123918   1.038   4.729   1.333
 7673SOL    HW223919   0.940   4.619   1.263
 7674SOL     OW23920   5.714   1.134   4.770
 7674SOL    HW123921   5.708   1.203   4.842
 7674SOL    HW223922   5.653   1.058   4.791
 7675SOL     OW23923   4.447   6.213   3.678
 7675SOL    HW123924   4.461   6.246   3.585
 7675SOL    HW223925   4.535   6.209   3.725
 7676SOL     OW23926   1.809   0.098   0.888
 7676SOL    HW123927   1.718   0.133   0.911
 7676SOL    HW223928   1.878   0.167   0.911
 7677SOL     OW23929   2.313   2.893   2.796
 7677SOL    HW123930   2.258   2.972   2.820
 7677SOL    HW223931   2.305   2.873   2.699
 7678SOL     OW23932   5.875   6.799   0.466
 7678SOL    HW123933   5.931   6.795   0.383
 7678SOL    HW223934   5.831   6.710   0.481
 7679SOL     OW23935   1.291   5.106   5.235
 7679SOL    HW123936   1.206   5.095   5.287
 7679SOL    HW223937   1.331   5.195   5.255
 7680SOL     OW23938   4.212   2.433   7.015
 7680SOL    HW123939   4.229   2.505   6.947
 7680SOL    HW223940   4.144   2.466   0.061
 7681SOL     OW23941   2.949   1.547   6.829
 7681SOL    HW123942   2.895   1.621   6.789
 7681SOL    HW223943   3.036   1.583   6.863
 7682SOL     OW23944   3.381   0.015   1.540
 7682SOL    HW123945   3.444   6.991   1.476
 7682SOL    HW223946   3.301   6.978   1.554
 7683SOL     OW23947   5.467   2.205   3.209
 7683SOL    HW123948   5.428   2.198   3.301
 7683SOL    HW223949   5.476   2.113   3.170
 7684SOL     OW23950   4.240   2.199   6.269
 7684SOL    HW123951   4.195   2.125   6.220
 7684SOL    HW223952   4.198   2.210   6.360
 7685SOL     OW23953   3.273   2.979   1.111
 7685SOL    HW123954   3.225   2.952   1.194
 7685SOL    HW223955   3.237   3.065   1.077
 7686SOL     OW23956   3.633   0.054   3.850
 7686SOL    HW123957   3.679   0.142   3.837
 7686SOL    HW223958   3.535   0.065   3.837
 7687SOL     OW23959   5.110   5.297   5.525
 7687SOL    HW123960   5.125   5.370   5.459
 7687SOL    HW223961   5.052   5.226   5.483
 7688SOL     OW23962   6.907   6.400   4.432
 7688SOL    HW123963   6.918   6.357   4.343
 7688SOL    HW223964   6.985   6.377   4.490
 7689SOL     OW23965   3.882   6.268   4.539
 7689SOL    HW123966   3.948   6.343   4.541
 7689SOL    HW223967   3.805   6.290   4.598
 7690SOL     OW23968   0.235   5.761   3.467
 7690SOL    HW123969   0.332   5.783   3.466
 7690SOL    HW223970   0.193   5.791   3.381
 7691SOL     OW23971   4.898   3.406   4.509
 7691SOL    HW123972   4.902   3.306   4.521
 7691SOL    HW223973   4.901   3.427   4.412
 7692SOL     OW23974   2.667   6.424   1.962
 7692SOL    HW123975   2.573   6.442   1.935
 7692SOL    HW223976   2.724   6.417   1.880
 7693SOL     OW23977   5.070   1.625   6.544
 7693SOL    HW123978   5.134   1.583   6.608
 7693SOL    HW223979   5.113   1.630   6.453
 7694SOL     OW23980   0.072   5.182   4.321
 7694SOL    HW123981   0.052   5.189   4.223
 7694SOL    HW223982   0.078   5.086   4.347
 7695SOL     OW23983   3.827   0.711   0.469
 7695SOL    HW123984   3.764   0.714   0.391
 7695SOL    HW223985   3.890   0.634   0.457
 7696SOL     OW23986   0.531   3.373   5.790
 7696SOL    HW123987   0.590   3.343   5.865
 7696SOL    HW223988   0.460   3.305   5.774
 7697SOL     OW23989   3.808   1.903   2.019
 7697SOL    HW123990   3.726   1.935   1.973
 7697SOL    HW223991   3.837   1.971   2.087
 7698SOL     OW23992   6.849   3.211   5.715
 7698SOL    HW123993   6.856   3.268   5.797
 7698SOL    HW223994   6.887   3.260   5.637
 7699SOL     OW23995   2.367   4.879   6.743
 7699SOL    HW123996   2.420   4.817   6.685
 7699SOL    HW223997   2.386   4.858   6.839
 7700SOL     OW23998   4.955   6.507   4.658
 7700SOL    HW123999   4.865   6.538   4.627
 7700SOL    HW224000   5.007   6.475   4.579
 7701SOL     OW24001   5.896   1.964   4.654
 7701SOL    HW124002   5.855   1.943   4.566
 7701SOL    HW224003   5.919   2.062   4.657
 7702SOL     OW24004   2.605   6.746   6.078
 7702SOL    HW124005   2.679   6.807   6.049
 7702SOL    HW224006   2.565   6.701   5.998
 7703SOL     OW24007   0.294   1.463   6.346
 7703SOL    HW124008   0.303   1.367   6.319
 7703SOL    HW224009   0.385   1.504   6.358
 7704SOL     OW24010   4.548   4.161   0.171
 7704SOL    HW124011   4.580   4.200   0.258
 7704SOL    HW224012   4.464   4.206   0.143
 7705SOL     OW24013   3.280   5.167   5.069
 7705SOL    HW124014   3.280   5.225   4.987
 7705SOL    HW224015   3.207   5.100   5.062
 7706SOL     OW24016   0.113   1.214   4.743
 7706SOL    HW124017   0.081   1.292   4.797
 7706SOL    HW224018   0.212   1.203   4.754
 7707SOL     OW24019   0.495   5.044   6.019
 7707SOL    HW124020   0.478   4.947   6.037
 7707SOL    HW224021   0.575   5.074   6.071
 7708SOL     OW24022   4.304   6.333   4.570
 7708SOL    HW124023   4.225   6.387   4.541
 7708SOL    HW224024   4.316   6.256   4.507
 7709SOL     OW24025   3.716   1.955   2.353
 7709SOL    HW124026   3.625   1.993   2.339
 7709SOL    HW224027   3.778   1.992   2.284
 7710SOL     OW24028   2.258   1.554   6.882
 7710SOL    HW124029   2.159   1.559   6.890
 7710SOL    HW224030   2.287   1.604   6.800
 7711SOL     OW24031   5.525   6.530   6.160
 7711SOL    HW124032   5.546   6.627   6.173
 7711SOL    HW224033   5.427   6.519   6.142
 7712SOL     OW24034   5.328   5.421   1.302
 7712SOL    HW124035   5.417   5.378   1.296
 7712SOL    HW224036   5.337   5.520   1.287
 7713SOL     OW24037   1.825   4.480   6.496
 7713SOL    HW124038   1.765   4.554   6.467
 7713SOL    HW224039   1.868   4.438   6.417
 7714SOL     OW24040   5.569   4.459   4.199
 7714SOL    HW124041   5.595   4.551   4.169
 7714SOL    HW224042   5.620   4.391   4.146
 7715SOL     OW24043   4.696   0.904   1.044
 7715SOL    HW124044   4.656   0.821   1.082
 7715SOL    HW224045   4.671   0.913   0.948
 7716SOL     OW24046   4.371   1.793   2.944
 7716SOL    HW124047   4.326   1.808   2.856
 7716SOL    HW224048   4.425   1.874   2.968
 7717SOL     OW24049   3.245   1.380   6.007
 7717SOL    HW124050   3.205   1.463   6.047
 7717SOL    HW224051   3.186   1.348   5.933
 7718SOL     OW24052   3.133   6.155   4.045
 7718SOL    HW124053   3.207   6.135   4.109
 7718SOL    HW224054   3.146   6.102   3.961
 7719SOL     OW24055   6.613   2.091   4.614
 7719SOL    HW124056   6.621   2.027   4.538
 7719SOL    HW224057   6.522   2.083   4.655
 7720SOL     OW24058   5.846   5.586   1.771
 7720SOL    HW124059   5.827   5.673   1.817
 7720SOL    HW224060   5.862   5.602   1.673
 7721SOL     OW24061   1.817   4.377   2.336
 7721SOL    HW124062   1.854   4.343   2.422
 7721SOL    HW224063   1.720   4.401   2.349
 7722SOL     OW24064   6.866   5.495   4.096
 7722SOL    HW124065   6.961   5.466   4.112
 7722SOL    HW224066   6.814   5.484   4.181
 7723SOL     OW24067   6.494   3.041   0.201
 7723SOL    HW124068   6.549   2.961   0.175
 7723SOL    HW224069   6.547   3.098   0.264
 7724SOL     OW24070   1.836   4.732   1.037
 7724SOL    HW124071   1.780   4.676   1.099
 7724SOL    HW224072   1.929   4.695   1.034
 7725SOL     OW24073   4.921   3.138   4.580
 7725SOL    HW124074   5.016   3.124   4.554
 7725SOL    HW224075   4.888   3.058   4.630
 7726SOL     OW24076   0.075   4.489   3.251
 7726SOL    HW124077   7.001   4.514   3.225
 7726SOL    HW224078   0.128   4.573   3.267
 7727SOL     OW24079   6.550   2.647   1.934
 7727SOL    HW124080   6.604   2.623   2.015
 7727SOL    HW224081   6.519   2.564   1.888
 7728SOL     OW24082   2.939   2.128   2.888
 7728SOL    HW124083   2.894   2.196   2.831
 7728SOL    HW224084   2.917   2.036   2.856
 7729SOL     OW24085   5.483   2.241   0.652
 7729SOL    HW124086   5.535   2.233   0.567
 7729SOL    HW224087   5.450   2.334   0.663
 7730SOL     OW24088   5.616   0.870   2.187
 7730SOL    HW124089   5.582   0.957   2.223
 7730SOL    HW224090   5.540   0.816   2.151
 7731SOL     OW24091   5.915   1.305   6.584
 7731SOL    HW124092   5.829   1.349   6.612
 7731SOL    HW224093   5.992   1.356   6.623
 7732SOL     OW24094   4.557   5.278   0.673
 7732SOL    HW124095   4.644   5.241   0.704
 7732SOL    HW224096   4.482   5.235   0.724
 7733SOL     OW24097   2.998   0.279   2.196
 7733SOL    HW124098   3.087   0.315   2.171
 7733SOL    HW224099   2.950   0.247   2.114
 7734SOL     OW24100   2.113   1.766   3.174
 7734SOL    HW124101   2.126   1.835   3.102
 7734SOL    HW224102   2.202   1.726   3.198
 7735SOL     OW24103   4.720   4.021   6.994
 7735SOL    HW124104   4.794   3.960   0.001
 7735SOL    HW224105   4.679   4.062   0.056
 7736SOL     OW24106   6.526   4.787   6.425
 7736SOL    HW124107   6.464   4.863   6.443
 7736SOL    HW224108   6.504   4.710   6.485
 7737SOL     OW24109   5.172   1.068   0.913
 7737SOL    HW124110   5.140   0.975   0.894
 7737SOL    HW224111   5.169   1.084   1.012
 7738SOL     OW24112   2.757   5.168   6.735
 7738SOL    HW124113   2.752   5.260   6.697
 7738SOL    HW224114   2.716   5.167   6.826
 7739SOL     OW24115   6.200   2.888   1.238
 7739SOL    HW124116   6.184   2.795   1.269
 7739SOL    HW224117   6.161   2.953   1.303
 7740SOL     OW24118   0.231   6.578   3.287
 7740SOL    HW124119   0.301   6.533   3.342
 7740SOL    HW224120   0.268   6.664   3.251
 7741SOL     OW24121   2.415   5.652   4.601
 7741SOL    HW124122   2.451   5.589   4.532
 7741SOL    HW224123   2.347   5.605   4.657
 7742SOL     OW24124   6.424   1.269   4.062
 7742SOL    HW124125   6.500   1.281   3.998
 7742SOL    HW224126   6.357   1.342   4.048
 7743SOL     OW24127   4.405   2.352   3.205
 7743SOL    HW124128   4.329   2.301   3.245
 7743SOL    HW224129   4.456   2.399   3.277
 7744SOL     OW24130   6.669   0.279   4.558
 7744SOL    HW124131   6.755   0.230   4.570
 7744SOL    HW224132   6.687   0.369   4.518
 7745SOL     OW24133   4.762   3.811   6.065
 7745SOL    HW124134   4.756   3.891   6.005
 7745SOL    HW224135   4.816   3.740   6.021
 7746SOL     OW24136   1.424   0.743   0.482
 7746SOL    HW124137   1.342   0.714   0.529
 7746SOL    HW224138   1.504   0.731   0.541
 7747SOL     OW24139   5.532   5.893   1.276
 7747SOL    HW124140   5.547   5.906   1.374
 7747SOL    HW224141   5.617   5.864   1.233
 7748SOL     OW24142   3.150   4.232   6.840
 7748SOL    HW124143   3.058   4.246   6.877
 7748SOL    HW224144   3.151   4.260   6.744
 7749SOL     OW24145   6.078   3.282   5.901
 7749SOL    HW124146   6.093   3.187   5.874
 7749SOL    HW224147   6.164   3.323   5.931
 7750SOL     OW24148   5.886   4.752   2.364
 7750SOL    HW124149   5.916   4.845   2.346
 7750SOL    HW224150   5.927   4.719   2.450
 7751SOL     OW24151   0.686   2.736   2.216
 7751SOL    HW124152   0.725   2.802   2.153
 7751SOL    HW224153   0.621   2.782   2.278
 7752SOL     OW24154   4.934   2.241   3.263
 7752SOL    HW124155   4.841   2.249   3.298
 7752SOL    HW224156   4.997   2.290   3.323
 7753SOL     OW24157   3.252   1.632   4.553
 7753SOL    HW124158   3.350   1.611   4.560
 7753SOL    HW224159   3.240   1.716   4.501
 7754SOL     OW24160   4.911   6.294   2.242
 7754SOL    HW124161   4.886   6.262   2.333
 7754SOL    HW224162   5.007   6.274   2.225
 7755SOL     OW24163   0.501   4.710   4.829
 7755SOL    HW124164   0.423   4.743   4.775
 7755SOL    HW224165   0.565   4.785   4.844
 7756SOL     OW24166   2.799   5.041   2.044
 7756SOL    HW124167   2.849   5.048   1.958
 7756SOL    HW224168   2.848   5.090   2.116
 7757SOL     OW24169   0.050   4.379   2.033
 7757SOL    HW124170   6.978   4.340   2.037
 7757SOL    HW224171   0.081   4.384   1.938
 7758SOL     OW24172   1.574   1.648   5.098
 7758SOL    HW124173   1.557   1.565   5.046
 7758SOL    HW224174   1.523   1.724   5.057
 7759SOL     OW24175   2.437   2.242   0.979
 7759SOL    HW124176   2.360   2.188   0.945
 7759SOL    HW224177   2.493   2.273   0.901
 7760SOL     OW24178   4.759   2.710   0.092
 7760SOL    HW124179   4.682   2.770   0.073
 7760SOL    HW224180   4.786   2.719   0.188
 7761SOL     OW24181   4.660   5.415   4.221
 7761SOL    HW124182   4.672   5.399   4.319
 7761SOL    HW224183   4.585   5.480   4.207
 7762SOL     OW24184   6.253   1.751   2.147
 7762SOL    HW124185   6.262   1.680   2.077
 7762SOL    HW224186   6.338   1.756   2.200
 7763SOL     OW24187   2.289   0.192   4.201
 7763SOL    HW124188   2.203   0.153   4.167
 7763SOL    HW224189   2.355   0.199   4.127
 7764SOL     OW24190   2.340   3.932   6.351
 7764SOL    HW124191   2.360   3.940   6.253
 7764SOL    HW224192   2.265   3.994   6.374
 7765SOL     OW24193   5.763   2.970   5.134
 7765SOL    HW124194   5.852   3.012   5.119
 7765SOL    HW224195   5.752   2.892   5.072
 7766SOL     OW24196   5.924   3.727   6.235
 7766SOL    HW124197   5.900   3.709   6.330
 7766SOL    HW224198   5.862   3.678   6.175
 7767SOL     OW24199   3.253   0.504   3.816
 7767SOL    HW124200   3.246   0.585   3.756
 7767SOL    HW224201   3.324   0.520   3.885
 7768SOL     OW24202   4.457   4.976   3.737
 7768SOL    HW124203   4.456   4.991   3.638
 7768SOL    HW224204   4.440   5.063   3.784
 7769SOL     OW24205   3.898   3.067   5.436
 7769SOL    HW124206   3.798   3.069   5.431
 7769SOL    HW224207   3.932   3.157   5.461
 7770SOL     OW24208   1.708   2.995   4.313
 7770SOL    HW124209   1.762   2.913   4.333
 7770SOL    HW224210   1.716   3.016   4.216
 7771SOL     OW24211   2.600   3.029   6.489
 7771SOL    HW124212   2.584   3.116   6.440
 7771SOL    HW224213   2.584   3.042   6.586
 7772SOL     OW24214   5.699   0.126   1.920
 7772SOL    HW124215   5.654   0.054   1.868
 7772SOL    HW224216   5.644   0.150   2.000
 7773SOL     OW24217   3.208   5.981   6.915
 7773SOL    HW124218   3.173   6.073   6.898
 7773SOL    HW224219   3.269   5.983   6.995
 7774SOL     OW24220   5.107   1.213   2.435
 7774SOL    HW124221   5.014   1.181   2.419
 7774SOL    HW224222   5.152   1.153   2.503
 7775SOL     OW24223   2.509   1.850   1.245
 7775SOL    HW124224   2.410   1.858   1.251
 7775SOL    HW224225   2.543   1.910   1.174
 7776SOL     OW24226   1.437   1.422   4.339
 7776SOL    HW124227   1.371   1.428   4.414
 7776SOL    HW224228   1.515   1.482   4.358
 7777SOL     OW24229   6.310   5.635   4.288
 7777SOL    HW124230   6.335   5.657   4.382
 7777SOL    HW224231   6.219   5.593   4.287
 7778SOL     OW24232   6.685   4.690   2.809
 7778SOL    HW124233   6.779   4.699   2.841
 7778SOL    HW224234   6.662   4.766   2.748
 7779SOL     OW24235   4.579   6.052   1.569
 7779SOL    HW124236   4.555   6.008   1.482
 7779SOL    HW224237   4.656   6.115   1.554
 7780SOL     OW24238   5.977   6.716   5.067
 7780SOL    HW124239   5.976   6.815   5.056
 7780SOL    HW224240   5.884   6.680   5.056
 7781SOL     OW24241   1.621   2.913   0.907
 7781SOL    HW124242   1.661   3.004   0.922
 7781SOL    HW224243   1.630   2.858   0.990
 7782SOL     OW24244   5.300   2.785   4.276
 7782SOL    HW124245   5.369   2.826   4.336
 7782SOL    HW224246   5.281   2.846   4.200
 7783SOL     OW24247   1.569   6.520   4.721
 7783SOL    HW124248   1.502   6.590   4.745
 7783SOL    HW224249   1.618   6.490   4.803
 7784SOL     OW24250   1.417   1.667   1.910
 7784SOL    HW124251   1.381   1.758   1.889
 7784SOL    HW224252   1.516   1.674   1.927
 7785SOL     OW24253   0.008   6.523   3.154
 7785SOL    HW124254   0.096   6.527   3.202
 7785SOL    HW224255   6.954   6.529   3.221
 7786SOL     OW24256   4.007   0.909   4.906
 7786SOL    HW124257   4.023   0.930   4.810
 7786SOL    HW224258   4.085   0.857   4.942
 7787SOL     OW24259   2.441   2.387   1.881
 7787SOL    HW124260   2.457   2.462   1.816
 7787SOL    HW224261   2.526   2.338   1.898
 7788SOL     OW24262   6.825   4.764   1.490
 7788SOL    HW124263   6.812   4.730   1.583
 7788SOL    HW224264   6.737   4.763   1.441
 7789SOL     OW24265   3.291   1.851   5.933
 7789SOL    HW124266   3.207   1.852   5.988
 7789SOL    HW224267   3.270   1.815   5.842
 7790SOL     OW24268   4.300   4.489   1.789
 7790SOL    HW124269   4.247   4.465   1.707
 7790SOL    HW224270   4.350   4.408   1.821
 7791SOL     OW24271   2.786   5.642   2.672
 7791SOL    HW124272   2.779   5.741   2.683
 7791SOL    HW224273   2.882   5.614   2.682
 7792SOL     OW24274   0.531   1.747   3.030
 7792SOL    HW124275   0.496   1.799   3.108
 7792SOL    HW224276   0.526   1.803   2.947
 7793SOL     OW24277   5.082   0.718   0.302
 7793SOL    HW124278   5.097   0.730   0.203
 7793SOL    HW224279   4.986   0.736   0.322
 7794SOL     OW24280   0.861   6.951   3.276
 7794SOL    HW124281   0.794   6.936   3.202
 7794SOL    HW224282   0.813   6.979   3.359
 7795SOL     OW24283   2.950   5.136   0.476
 7795SOL    HW124284   3.022   5.180   0.529
 7795SOL    HW224285   2.972   5.139   0.379
 7796SOL     OW24286   3.194   3.163   0.297
 7796SOL    HW124287   3.181   3.106   0.215
 7796SOL    HW224288   3.117   3.149   0.359
 7797SOL     OW24289   0.517   5.843   3.715
 7797SOL    HW124290   0.581   5.808   3.783
 7797SOL    HW224291   0.428   5.798   3.726
 7798SOL     OW24292   1.514   3.322   0.602
 7798SOL    HW124293   1.514   3.284   0.509
 7798SOL    HW224294   1.592   3.384   0.612
 7799SOL     OW24295   2.765   6.041   3.512
 7799SOL    HW124296   2.734   5.978   3.440
 7799SOL    HW224297   2.829   5.994   3.572
 7800SOL     OW24298   0.504   6.405   2.328
 7800SOL    HW124299   0.544   6.348   2.257
 7800SOL    HW224300   0.501   6.355   2.414
 7801SOL     OW24301   1.381   1.938   2.150
 7801SOL    HW124302   1.299   1.912   2.201
 7801SOL    HW224303   1.365   2.027   2.106
 7802SOL     OW24304   6.751   3.833   4.301
 7802SOL    HW124305   6.785   3.863   4.211
 7802SOL    HW224306   6.788   3.893   4.372
 7803SOL     OW24307   2.919   2.387   5.586
 7803SOL    HW124308   2.938   2.289   5.580
 7803SOL    HW224309   2.937   2.429   5.497
 7804SOL     OW24310   3.401   1.939   5.190
 7804SOL    HW124311   3.438   1.848   5.205
 7804SOL    HW224312   3.415   1.966   5.094
 7805SOL     OW24313   5.339   3.548   0.137
 7805SOL    HW124314   5.437   3.538   0.154
 7805SOL    HW224315   5.305   3.629   0.186
 7806SOL     OW24316   6.864   1.142   5.775
 7806SOL    HW124317   6.839   1.052   5.739
 7806SOL    HW224318   6.960   1.161   5.753
 7807SOL     OW24319   1.727   4.731   6.421
 7807SOL    HW124320   1.653   4.776   6.372
 7807SOL    HW224321   1.731   4.766   6.515
 7808SOL     OW24322   6.794   3.705   3.146
 7808SOL    HW124323   6.730   3.628   3.141
 7808SOL    HW224324   6.773   3.760   3.227
 7809SOL     OW24325   4.856   5.432   2.399
 7809SOL    HW124326   4.786   5.487   2.444
 7809SOL    HW224327   4.833   5.420   2.302
 7810SOL     OW24328   2.934   6.804   5.859
 7810SOL    HW124329   2.882   6.847   5.932
 7810SOL    HW224330   2.871   6.754   5.799
 7811SOL     OW24331   1.272   5.875   3.314
 7811SOL    HW124332   1.320   5.905   3.231
 7811SOL    HW224333   1.314   5.791   3.349
 7812SOL     OW24334   3.183   1.619   6.198
 7812SOL    HW124335   3.122   1.683   6.152
 7812SOL    HW224336   3.262   1.669   6.235
 7813SOL     OW24337   5.271   0.410   0.374
 7813SOL    HW124338   5.174   0.385   0.368
 7813SOL    HW224339   5.279   0.510   0.381
 7814SOL     OW24340   6.682   3.269   2.284
 7814SOL    HW124341   6.713   3.278   2.379
 7814SOL    HW224342   6.761   3.257   2.224
 7815SOL     OW24343   6.310   4.440   5.433
 7815SOL    HW124344   6.379   4.419   5.503
 7815SOL    HW224345   6.355   4.455   5.345
 7816SOL     OW24346   0.726   1.450   5.519
 7816SOL    HW124347   0.690   1.365   5.483
 7816SOL    HW224348   0.717   1.450   5.619
 7817SOL     OW24349   3.880   2.624   7.003
 7817SOL    HW124350   3.938   2.689   0.033
 7817SOL    HW224351   3.930   2.539   6.989
 7818SOL     OW24352   6.084   0.153   3.940
 7818SOL    HW124353   6.021   0.091   3.892
 7818SOL    HW224354   6.115   0.223   3.877
 7819SOL     OW24355   1.390   3.210   4.854
 7819SOL    HW124356   1.441   3.205   4.768
 7819SOL    HW224357   1.400   3.301   4.893
 7820SOL     OW24358   1.058   6.866   5.505
 7820SOL    HW124359   1.059   6.820   5.594
 7820SOL    HW224360   0.982   6.931   5.502
 7821SOL     OW24361   4.135   6.828   0.357
 7821SOL    HW124362   4.150   6.882   0.440
 7821SOL    HW224363   4.220   6.781   0.333
 7822SOL     OW24364   0.487   1.507   4.981
 7822SOL    HW124365   0.420   1.438   4.953
 7822SOL    HW224366   0.576   1.485   4.941
 7823SOL     OW24367   2.487   3.477   5.348
 7823SOL    HW124368   2.542   3.398   5.321
 7823SOL    HW224369   2.418   3.448   5.415
 7824SOL     OW24370   5.586   3.124   3.259
 7824SOL    HW124371   5.598   3.161   3.351
 7824SOL    HW224372   5.675   3.112   3.216
 7825SOL     OW24373   3.784   3.529   2.453
 7825SOL    HW124374   3.842   3.519   2.534
 7825SOL    HW224375   3.783   3.444   2.401
 7826SOL     OW24376   6.522   0.165   1.467
 7826SOL    HW124377   6.497   0.160   1.564
 7826SOL    HW224378   6.451   0.215   1.417
 7827SOL     OW24379   4.614   3.447   0.591
 7827SOL    HW124380   4.579   3.428   0.683
 7827SOL    HW224381   4.582   3.377   0.528
 7828SOL     OW24382   0.380   5.907   0.590
 7828SOL    HW124383   0.287   5.887   0.620
 7828SOL    HW224384   0.445   5.877   0.661
 7829SOL     OW24385   4.063   3.216   2.933
 7829SOL    HW124386   3.981   3.258   2.893
 7829SOL    HW224387   4.134   3.207   2.862
 7830SOL     OW24388   6.198   3.124   7.000
 7830SOL    HW124389   6.131   3.096   6.931
 7830SOL    HW224390   6.274   3.172   6.954
 7831SOL     OW24391   2.073   2.170   6.719
 7831SOL    HW124392   2.071   2.145   6.816
 7831SOL    HW224393   2.025   2.101   6.666
 7832SOL     OW24394   2.626   2.609   5.291
 7832SOL    HW124395   2.586   2.547   5.223
 7832SOL    HW224396   2.604   2.577   5.383
 7833SOL     OW24397   1.549   6.656   0.609
 7833SOL    HW124398   1.457   6.623   0.625
 7833SOL    HW224399   1.556   6.752   0.637
 7834SOL     OW24400   0.071   0.433   1.780
 7834SOL    HW124401   0.077   0.486   1.695
 7834SOL    HW224402   7.011   0.372   1.775
 7835SOL     OW24403   2.674   2.095   4.377
 7835SOL    HW124404   2.709   2.075   4.285
 7835SOL    HW224405   2.665   2.010   4.428
 7836SOL     OW24406   1.853   0.820   6.524
 7836SOL    HW124407   1.834   0.898   6.465
 7836SOL    HW224408   1.816   0.837   6.615
 7837SOL     OW24409   5.114   6.305   3.227
 7837SOL    HW124410   5.199   6.295   3.174
 7837SOL    HW224411   5.040   6.333   3.166
 7838SOL     OW24412   3.306   6.940   4.052
 7838SOL    HW124413   3.286   6.937   4.150
 7838SOL    HW224414   3.220   6.936   4.000
 7839SOL     OW24415   0.368   4.883   4.237
 7839SOL    HW124416   0.417   4.812   4.288
 7839SOL    HW224417   0.276   4.892   4.275
 7840SOL     OW24418   5.284   3.024   5.600
 7840SOL    HW124419   5.291   3.093   5.527
 7840SOL    HW224420   5.375   2.993   5.626
 7841SOL     OW24421   1.149   2.016   6.530
 7841SOL    HW124422   1.156   2.010   6.430
 7841SOL    HW224423   1.129   2.110   6.556
 7842SOL     OW24424   2.800   1.073   2.283
 7842SOL    HW124425   2.873   1.052   2.217
 7842SOL    HW224426   2.711   1.061   2.239
 7843SOL     OW24427   6.505   3.354   0.971
 7843SOL    HW124428   6.462   3.443   0.984
 7843SOL    HW224429   6.532   3.317   1.060
 7844SOL     OW24430   3.675   1.150   4.109
 7844SOL    HW124431   3.668   1.244   4.078
 7844SOL    HW224432   3.717   1.147   4.200
 7845SOL     OW24433   0.737   0.825   3.923
 7845SOL    HW124434   0.649   0.824   3.875
 7845SOL    HW224435   0.771   0.918   3.929
 7846SOL     OW24436   3.540   6.746   2.179
 7846SOL    HW124437   3.507   6.658   2.214
 7846SOL    HW224438   3.624   6.772   2.226
 7847SOL     OW24439   6.650   0.587   0.371
 7847SOL    HW124440   6.640   0.673   0.321
 7847SOL    HW224441   6.744   0.579   0.405
 7848SOL     OW24442   4.562   4.125   0.657
 7848SOL    HW124443   4.650   4.078   0.667
 7848SOL    HW224444   4.498   4.092   0.726
 7849SOL     OW24445   5.716   4.109   4.891
 7849SOL    HW124446   5.742   4.057   4.809
 7849SOL    HW224447   5.654   4.054   4.947
 7850SOL     OW24448   0.917   0.950   4.203
 7850SOL    HW124449   0.879   0.992   4.120
 7850SOL    HW224450   0.965   1.019   4.257
 7851SOL     OW24451   4.740   6.467   0.268
 7851SOL    HW124452   4.712   6.520   0.348
 7851SOL    HW224453   4.682   6.386   0.260
 7852SOL     OW24454   1.922   6.606   6.873
 7852SOL    HW124455   1.863   6.668   6.822
 7852SOL    HW224456   1.980   6.555   6.809
 7853SOL     OW24457   2.368   2.948   0.724
 7853SOL    HW124458   2.346   2.870   0.781
 7853SOL    HW224459   2.435   2.921   0.655
 7854SOL     OW24460   3.337   3.925   2.950
 7854SOL    HW124461   3.289   3.946   2.865
 7854SOL    HW224462   3.323   3.998   3.016
 7855SOL     OW24463   3.670   0.195   5.739
 7855SOL    HW124464   3.645   0.292   5.744
 7855SOL    HW224465   3.720   0.169   5.821
 7856SOL     OW24466   4.473   3.531   6.172
 7856SOL    HW124467   4.520   3.455   6.216
 7856SOL    HW224468   4.463   3.512   6.074
 7857SOL     OW24469   0.772   1.926   4.770
 7857SOL    HW124470   0.801   2.020   4.755
 7857SOL    HW224471   0.838   1.864   4.725
 7858SOL     OW24472   5.991   4.496   3.318
 7858SOL    HW124473   5.939   4.506   3.233
 7858SOL    HW224474   6.041   4.581   3.337
 7859SOL     OW24475   0.806   5.891   6.625
 7859SOL    HW124476   0.750   5.883   6.708
 7859SOL    HW224477   0.849   5.981   6.622
 7860SOL     OW24478   3.483   0.024   1.811
 7860SOL    HW124479   3.415   0.014   1.739
 7860SOL    HW224480   3.540   0.103   1.792
 7861SOL     OW24481   5.660   4.146   0.413
 7861SOL    HW124482   5.664   4.241   0.444
 7861SOL    HW224483   5.743   4.098   0.440
 7862SOL     OW24484   3.236   4.296   1.607
 7862SOL    HW124485   3.223   4.395   1.602
 7862SOL    HW224486   3.163   4.255   1.661
 7863SOL     OW24487   6.223   5.829   2.324
 7863SOL    HW124488   6.186   5.791   2.408
 7863SOL    HW224489   6.196   5.925   2.316
 7864SOL     OW24490   0.648   5.870   4.312
 7864SOL    HW124491   0.718   5.843   4.378
 7864SOL    HW224492   0.609   5.958   4.339
 7865SOL     OW24493   3.178   0.431   2.052
 7865SOL    HW124494   3.105   0.437   1.984
 7865SOL    HW224495   3.241   0.508   2.042
 7866SOL     OW24496   2.386   2.783   4.162
 7866SOL    HW124497   2.349   2.851   4.226
 7866SOL    HW224498   2.358   2.806   4.069
 7867SOL     OW24499   5.588   4.190   2.698
 7867SOL    HW124500   5.515   4.209   2.632
 7867SOL    HW224501   5.548   4.171   2.788
 7868SOL     OW24502   5.377   0.079   0.768
 7868SOL    HW124503   5.405   7.016   0.719
 7868SOL    HW224504   5.370   0.154   0.703
 7869SOL     OW24505   0.102   2.361   3.652
 7869SOL    HW124506   0.185   2.413   3.634
 7869SOL    HW224507   0.126   2.272   3.691
 7870SOL     OW24508   0.151   6.174   3.372
 7870SOL    HW124509   0.250   6.171   3.385
 7870SOL    HW224510   0.117   6.264   3.399
 7871SOL     OW24511   5.703   3.621   3.988
 7871SOL    HW124512   5.684   3.585   4.079
 7871SOL    HW224513   5.667   3.558   3.919
 7872SOL     OW24514   6.596   3.323   3.811
 7872SOL    HW124515   6.650   3.246   3.844
 7872SOL    HW224516   6.595   3.395   3.880
 7873SOL     OW24517   6.696   5.093   5.163
 7873SOL    HW124518   6.725   4.998   5.151
 7873SOL    HW224519   6.618   5.097   5.226
 7874SOL     OW24520   6.173   1.062   0.510
 7874SOL    HW124521   6.086   1.014   0.502
 7874SOL    HW224522   6.181   1.129   0.436
 7875SOL     OW24523   4.729   3.564   6.566
 7875SOL    HW124524   4.725   3.613   6.479
 7875SOL    HW224525   4.762   3.626   6.638
 7876SOL     OW24526   6.545   0.946   4.589
 7876SOL    HW124527   6.520   0.887   4.512
 7876SOL    HW224528   6.637   0.984   4.574
 7877SOL     OW24529   6.541   2.541   2.360
 7877SOL    HW124530   6.512   2.613   2.297
 7877SOL    HW224531   6.616   2.489   2.320
 7878SOL     OW24532   4.612   4.179   1.386
 7878SOL    HW124533   4.592   4.092   1.430
 7878SOL    HW224534   4.586   4.254   1.448
 7879SOL     OW24535   4.974   0.747   5.199
 7879SOL    HW124536   4.934   0.676   5.256
 7879SOL    HW224537   5.045   0.795   5.251
 7880SOL     OW24538   0.899   6.480   6.039
 7880SOL    HW124539   0.879   6.578   6.044
 7880SOL    HW224540   0.832   6.430   6.093
 7881SOL     OW24541   0.502   5.295   3.981
 7881SOL    HW124542   0.413   5.289   4.027
 7881SOL    HW224543   0.493   5.349   3.898
 7882SOL     OW24544   0.391   4.144   1.892
 7882SOL    HW124545   0.423   4.238   1.907
 7882SOL    HW224546   0.469   4.083   1.884
 7883SOL     OW24547   3.527   2.121   3.689
 7883SOL    HW124548   3.437   2.087   3.719
 7883SOL    HW224549   3.582   2.145   3.769
 7884SOL     OW24550   0.839   3.803   4.406
 7884SOL    HW124551   0.825   3.750   4.323
 7884SOL    HW224552   0.885   3.889   4.382
 7885SOL     OW24553   5.737   5.385   3.841
 7885SOL    HW124554   5.795   5.408   3.919
 7885SOL    HW224555   5.779   5.420   3.757
 7886SOL     OW24556   4.874   3.498   3.443
 7886SOL    HW124557   4.921   3.557   3.378
 7886SOL    HW224558   4.873   3.404   3.409
 7887SOL     OW24559   2.216   2.968   1.030
 7887SOL    HW124560   2.143   2.901   1.036
 7887SOL    HW224561   2.303   2.922   1.010
 7888SOL     OW24562   5.829   1.894   4.906
 7888SOL    HW124563   5.860   1.923   4.816
 7888SOL    HW224564   5.898   1.834   4.947
 7889SOL     OW24565   5.753   4.735   0.032
 7889SOL    HW124566   5.658   4.759   0.013
 7889SOL    HW224567   5.811   4.815   0.014
 7890SOL     OW24568   1.911   3.665   4.257
 7890SOL    HW124569   1.972   3.589   4.277
 7890SOL    HW224570   1.867   3.650   4.168
 7891SOL     OW24571   6.850   2.048   4.327
 7891SOL    HW124572   6.851   2.123   4.261
 7891SOL    HW224573   6.782   1.980   4.299
 7892SOL     OW24574   0.779   1.982   5.448
 7892SOL    HW124575   0.745   1.898   5.491
 7892SOL    HW224576   0.807   2.047   5.519
 7893SOL     OW24577   5.647   6.896   0.164
 7893SOL    HW124578   5.716   6.880   0.093
 7893SOL    HW224579   5.681   6.964   0.229
 7894SOL     OW24580   3.744   1.949   6.470
 7894SOL    HW124581   3.683   1.892   6.525
 7894SOL    HW224582   3.692   2.022   6.427
 7895SOL     OW24583   5.653   6.714   2.930
 7895SOL    HW124584   5.730   6.661   2.966
 7895SOL    HW224585   5.641   6.797   2.986
 7896SOL     OW24586   2.474   2.651   1.171
 7896SOL    HW124587   2.530   2.720   1.217
 7896SOL    HW224588   2.410   2.612   1.237
 7897SOL     OW24589   3.789   2.783   0.964
 7897SOL    HW124590   3.699   2.821   0.987
 7897SOL    HW224591   3.793   2.688   0.992
 7898SOL     OW24592   5.321   6.123   3.385
 7898SOL    HW124593   5.247   6.070   3.345
 7898SOL    HW224594   5.328   6.211   3.338
 7899SOL     OW24595   6.692   4.712   3.405
 7899SOL    HW124596   6.719   4.697   3.310
 7899SOL    HW224597   6.747   4.786   3.444
 7900SOL     OW24598   0.792   3.926   1.363
 7900SOL    HW124599   0.712   3.869   1.380
 7900SOL    HW224600   0.875   3.871   1.370
 7901SOL     OW24601   0.137   1.203   6.788
 7901SOL    HW124602   0.215   1.141   6.775
 7901SOL    HW224603   0.168   1.288   6.830
 7902SOL     OW24604   1.231   0.046   2.623
 7902SOL    HW124605   1.250   0.036   2.721
 7902SOL    HW224606   1.299   7.015   2.571
 7903SOL     OW24607   2.819   2.191   5.082
 7903SOL    HW124608   2.917   2.192   5.063
 7903SOL    HW224609   2.770   2.158   5.000
 7904SOL     OW24610   5.249   1.024   2.594
 7904SOL    HW124611   5.288   0.934   2.573
 7904SOL    HW224612   5.323   1.088   2.616
 7905SOL     OW24613   5.103   1.496   1.005
 7905SOL    HW124614   5.041   1.571   0.984
 7905SOL    HW224615   5.119   1.492   1.103
 7906SOL     OW24616   1.413   5.441   0.643
 7906SOL    HW124617   1.334   5.468   0.698
 7906SOL    HW224618   1.432   5.344   0.658
 7907SOL     OW24619   6.208   0.042   2.746
 7907SOL    HW124620   6.110   0.044   2.766
 7907SOL    HW224621   6.222   0.061   2.649
 7908SOL     OW24622   0.596   0.234   6.421
 7908SOL    HW124623   0.594   0.155   6.483
 7908SOL    HW224624   0.528   0.221   6.349
 7909SOL     OW24625   5.826   3.957   2.309
 7909SOL    HW124626   5.746   4.004   2.272
 7909SOL    HW224627   5.856   3.887   2.245
 7910SOL     OW24628   0.831   4.113   6.917
 7910SOL    HW124629   0.838   4.197   6.970
 7910SOL    HW224630   0.826   4.136   6.819
 7911SOL     OW24631   0.260   4.374   6.726
 7911SOL    HW124632   0.161   4.373   6.712
 7911SOL    HW224633   0.297   4.282   6.714
 7912SOL     OW24634   6.216   4.884   0.881
 7912SOL    HW124635   6.168   4.960   0.838
 7912SOL    HW224636   6.305   4.873   0.837
 7913SOL     OW24637   1.289   4.542   1.367
 7913SOL    HW124638   1.304   4.460   1.311
 7913SOL    HW224639   1.211   4.593   1.330
 7914SOL     OW24640   6.492   6.749   5.137
 7914SOL    HW124641   6.481   6.650   5.151
 7914SOL    HW224642   6.559   6.785   5.202
 7915SOL     OW24643   3.852   5.667   2.568
 7915SOL    HW124644   3.808   5.691   2.654
 7915SOL    HW224645   3.895   5.749   2.530
 7916SOL     OW24646   0.985   0.007   4.300
 7916SOL    HW124647   1.005   0.058   4.383
 7916SOL    HW224648   0.889   6.997   4.301
 7917SOL     OW24649   4.425   3.366   0.798
 7917SOL    HW124650   4.382   3.281   0.766
 7917SOL    HW224651   4.479   3.347   0.880
 7918SOL     OW24652   2.091   2.066   3.704
 7918SOL    HW124653   2.078   1.967   3.710
 7918SOL    HW224654   2.185   2.089   3.730
 7919SOL     OW24655   1.907   6.420   4.788
 7919SOL    HW124656   1.915   6.502   4.731
 7919SOL    HW224657   1.978   6.421   4.858
 7920SOL     OW24658   5.033   0.428   1.096
 7920SOL    HW124659   4.988   0.510   1.062
 7920SOL    HW224660   5.064   0.373   1.019
 7921SOL     OW24661   5.637   2.321   1.047
 7921SOL    HW124662   5.617   2.417   1.028
 7921SOL    HW224663   5.596   2.296   1.135
 7922SOL     OW24664   1.551   5.877   1.860
 7922SOL    HW124665   1.451   5.868   1.863
 7922SOL    HW224666   1.592   5.786   1.850
 7923SOL     OW24667   5.705   0.908   0.381
 7923SOL    HW124668   5.686   0.990   0.435
 7923SOL    HW224669   5.672   0.921   0.288
 7924SOL     OW24670   6.671   6.035   0.351
 7924SOL    HW124671   6.737   5.963   0.332
 7924SOL    HW224672   6.583   5.994   0.377
 7925SOL     OW24673   1.378   5.682   6.282
 7925SOL    HW124674   1.468   5.721   6.261
 7925SOL    HW224675   1.390   5.599   6.337
 7926SOL     OW24676   5.007   5.298   0.442
 7926SOL    HW124677   5.057   5.313   0.527
 7926SOL    HW224678   4.909   5.296   0.460
 7927SOL     OW24679   4.296   6.865   2.385
 7927SOL    HW124680   4.394   6.846   2.377
 7927SOL    HW224681   4.268   6.856   2.481
 7928SOL     OW24682   5.834   2.257   3.388
 7928SOL    HW124683   5.919   2.308   3.376
 7928SOL    HW224684   5.770   2.281   3.315
 7929SOL     OW24685   4.315   4.324   5.945
 7929SOL    HW124686   4.217   4.306   5.949
 7929SOL    HW224687   4.339   4.393   6.013
 7930SOL     OW24688   4.434   6.341   5.943
 7930SOL    HW124689   4.372   6.278   5.898
 7930SOL    HW224690   4.382   6.415   5.986
 7931SOL     OW24691   4.122   2.229   1.317
 7931SOL    HW124692   4.091   2.280   1.397
 7931SOL    HW224693   4.222   2.228   1.315
 7932SOL     OW24694   1.755   4.028   2.137
 7932SOL    HW124695   1.665   4.071   2.135
 7932SOL    HW224696   1.769   3.984   2.226
 7933SOL     OW24697   0.908   1.204   6.938
 7933SOL    HW124698   0.935   1.120   6.890
 7933SOL    HW224699   0.984   1.269   6.935
 7934SOL     OW24700   0.740   5.498   1.114
 7934SOL    HW124701   0.774   5.589   1.087
 7934SOL    HW224702   0.750   5.435   1.037
 7935SOL     OW24703   4.878   3.211   3.383
 7935SOL    HW124704   4.841   3.162   3.462
 7935SOL    HW224705   4.977   3.222   3.393
 7936SOL     OW24706   3.249   5.990   3.810
 7936SOL    HW124707   3.314   6.037   3.870
 7936SOL    HW224708   3.244   5.894   3.836
 7937SOL     OW24709   3.310   0.984   6.905
 7937SOL    HW124710   3.221   1.011   6.867
 7937SOL    HW224711   3.339   1.052   6.972
 7938SOL     OW24712   2.862   6.497   4.443
 7938SOL    HW124713   2.844   6.593   4.467
 7938SOL    HW224714   2.780   6.443   4.459
 7939SOL     OW24715   0.387   1.683   4.136
 7939SOL    HW124716   0.434   1.712   4.053
 7939SOL    HW224717   0.319   1.751   4.162
 7940SOL     OW24718   5.403   0.997   3.554
 7940SOL    HW124719   5.453   1.045   3.627
 7940SOL    HW224720   5.458   0.920   3.522
 7941SOL     OW24721   3.571   6.934   1.339
 7941SOL    HW124722   3.585   6.835   1.329
 7941SOL    HW224723   3.653   6.975   1.378
 7942SOL     OW24724   1.486   5.174   0.703
 7942SOL    HW124725   1.437   5.183   0.790
 7942SOL    HW224726   1.565   5.114   0.715
 7943SOL     OW24727   1.558   6.203   5.987
 7943SOL    HW124728   1.524   6.110   5.980
 7943SOL    HW224729   1.534   6.253   5.903
 7944SOL     OW24730   1.264   2.611   1.456
 7944SOL    HW124731   1.194   2.547   1.488
 7944SOL    HW224732   1.344   2.560   1.425
 7945SOL     OW24733   6.333   4.524   3.404
 7945SOL    HW124734   6.271   4.601   3.395
 7945SOL    HW224735   6.280   4.439   3.407
 7946SOL     OW24736   3.507   1.408   6.382
 7946SOL    HW124737   3.448   1.335   6.347
 7946SOL    HW224738   3.570   1.438   6.311
 7947SOL     OW24739   0.860   3.812   6.270
 7947SOL    HW124740   0.851   3.725   6.223
 7947SOL    HW224741   0.871   3.886   6.203
 7948SOL     OW24742   1.661   4.696   2.519
 7948SOL    HW124743   1.608   4.742   2.589
 7948SOL    HW224744   1.692   4.763   2.451
 7949SOL     OW24745   3.545   6.414   6.487
 7949SOL    HW124746   3.613   6.402   6.414
 7949SOL    HW224747   3.540   6.331   6.543
 7950SOL     OW24748   6.043   4.448   5.360
 7950SOL    HW124749   5.987   4.526   5.332
 7950SOL    HW224750   6.139   4.477   5.366
 7951SOL     OW24751   4.179   5.928   2.603
 7951SOL    HW124752   4.258   5.987   2.618
 7951SOL    HW224753   4.149   5.889   2.690
 7952SOL     OW24754   6.259   4.193   6.368
 7952SOL    HW124755   6.308   4.107   6.356
 7952SOL    HW224756   6.185   4.199   6.300
 7953SOL     OW24757   2.398   0.518   0.561
 7953SOL    HW124758   2.340   0.593   0.528
 7953SOL    HW224759   2.484   0.519   0.510
 7954SOL     OW24760   4.118   3.844   6.500
 7954SOL    HW124761   4.192   3.881   6.444
 7954SOL    HW224762   4.037   3.830   6.444
 7955SOL     OW24763   1.774   1.887   6.767
 7955SOL    HW124764   1.849   1.931   6.717
 7955SOL    HW224765   1.739   1.951   6.835
 7956SOL     OW24766   6.353   6.131   0.295
 7956SOL    HW124767   6.380   6.194   0.367
 7956SOL    HW224768   6.385   6.038   0.318
 7957SOL     OW24769   4.717   1.056   5.988
 7957SOL    HW124770   4.716   1.154   6.005
 7957SOL    HW224771   4.644   1.032   5.923
 7958SOL     OW24772   6.266   2.392   0.301
 7958SOL    HW124773   6.265   2.334   0.382
 7958SOL    HW224774   6.251   2.487   0.327
 7959SOL     OW24775   6.137   1.058   6.684
 7959SOL    HW124776   6.072   1.058   6.609
 7959SOL    HW224777   6.173   0.965   6.697
 7960SOL     OW24778   0.415   1.132   5.630
 7960SOL    HW124779   0.471   1.180   5.562
 7960SOL    HW224780   0.385   1.045   5.593
 7961SOL     OW24781   6.503   6.188   0.073
 7961SOL    HW124782   6.434   6.165   0.141
 7961SOL    HW224783   6.564   6.258   0.111
 7962SOL     OW24784   5.748   6.968   5.853
 7962SOL    HW124785   5.838   6.925   5.856
 7962SOL    HW224786   5.679   6.904   5.887
 7963SOL     OW24787   6.881   0.037   4.288
 7963SOL    HW124788   6.928   7.000   4.219
 7963SOL    HW224789   6.823   0.104   4.242
 7964SOL     OW24790   6.673   4.229   1.781
 7964SOL    HW124791   6.759   4.210   1.734
 7964SOL    HW224792   6.647   4.324   1.764
 7965SOL     OW24793   4.152   2.780   6.519
 7965SOL    HW124794   4.167   2.818   6.428
 7965SOL    HW224795   4.063   2.734   6.521
 7966SOL     OW24796   4.978   3.707   4.823
 7966SOL    HW124797   5.049   3.763   4.866
 7966SOL    HW224798   4.912   3.678   4.893
 7967SOL     OW24799   1.759   4.500   1.195
 7967SOL    HW124800   1.750   4.447   1.280
 7967SOL    HW224801   1.850   4.486   1.156
 7968SOL     OW24802   0.130   3.018   4.857
 7968SOL    HW124803   0.184   2.981   4.782
 7968SOL    HW224804   0.117   2.947   4.927
 7969SOL     OW24805   4.651   5.320   0.034
 7969SOL    HW124806   4.581   5.282   6.994
 7969SOL    HW224807   4.738   5.326   7.004
 7970SOL     OW24808   6.302   2.931   2.806
 7970SOL    HW124809   6.330   2.873   2.882
 7970SOL    HW224810   6.307   3.027   2.833
 7971SOL     OW24811   2.634   1.423   0.077
 7971SOL    HW124812   2.586   1.343   0.114
 7971SOL    HW224813   2.726   1.428   0.118
 7972SOL     OW24814   4.105   3.777   3.255
 7972SOL    HW124815   4.203   3.790   3.269
 7972SOL    HW224816   4.055   3.818   3.332
 7973SOL     OW24817   6.434   4.249   2.252
 7973SOL    HW124818   6.509   4.190   2.219
 7973SOL    HW224819   6.467   4.304   2.328
 7974SOL     OW24820   6.691   2.836   6.487
 7974SOL    HW124821   6.746   2.906   6.534
 7974SOL    HW224822   6.680   2.757   6.548
 7975SOL     OW24823   5.815   0.677   1.211
 7975SOL    HW124824   5.725   0.713   1.232
 7975SOL    HW224825   5.853   0.725   1.132
 7976SOL     OW24826   0.601   0.229   0.854
 7976SOL    HW124827   0.587   0.319   0.813
 7976SOL    HW224828   0.521   0.204   0.909
 7977SOL     OW24829   5.444   5.410   3.954
 7977SOL    HW124830   5.411   5.315   3.956
 7977SOL    HW224831   5.523   5.416   3.894
 7978SOL     OW24832   0.166   4.509   1.792
 7978SOL    HW124833   0.146   4.583   1.856
 7978SOL    HW224834   0.249   4.462   1.820
 7979SOL     OW24835   1.802   2.283   4.094
 7979SOL    HW124836   1.857   2.249   4.171
 7979SOL    HW224837   1.705   2.280   4.119
 7980SOL     OW24838   4.279   5.420   0.144
 7980SOL    HW124839   4.355   5.404   0.206
 7980SOL    HW224840   4.208   5.473   0.192
 7981SOL     OW24841   2.038   4.247   3.129
 7981SOL    HW124842   2.078   4.255   3.037
 7981SOL    HW224843   1.961   4.185   3.126
 7982SOL     OW24844   6.239   1.698   5.279
 7982SOL    HW124845   6.330   1.739   5.282
 7982SOL    HW224846   6.184   1.743   5.208
 7983SOL     OW24847   4.687   1.117   1.846
 7983SOL    HW124848   4.656   1.187   1.911
 7983SOL    HW224849   4.613   1.052   1.828
 7984SOL     OW24850   0.641   2.357   3.148
 7984SOL    HW124851   0.600   2.288   3.089
 7984SOL    HW224852   0.581   2.374   3.226
 7985SOL     OW24853   2.700   2.879   5.348
 7985SOL    HW124854   2.680   2.783   5.332
 7985SOL    HW224855   2.655   2.935   5.278
 7986SOL     OW24856   3.438   0.975   4.142
 7986SOL    HW124857   3.523   1.019   4.172
 7986SOL    HW224858   3.385   1.038   4.086
 7987SOL     OW24859   0.896   3.919   0.094
 7987SOL    HW124860   0.876   3.965   0.007
 7987SOL    HW224861   0.884   3.983   0.169
 7988SOL     OW24862   6.806   0.954   2.018
 7988SOL    HW124863   6.799   1.037   1.963
 7988SOL    HW224864   6.899   0.945   2.053
 7989SOL     OW24865   0.358   4.438   0.631
 7989SOL    HW124866   0.296   4.490   0.572
 7989SOL    HW224867   0.434   4.496   0.659
 7990SOL     OW24868   4.195   5.721   5.225
 7990SOL    HW124869   4.220   5.728   5.128
 7990SOL    HW224870   4.183   5.625   5.249
 7991SOL     OW24871   5.618   1.270   5.298
 7991SOL    HW124872   5.661   1.299   5.383
 7991SOL    HW224873   5.531   1.319   5.287
 7992SOL     OW24874   2.757   6.793   6.688
 7992SOL    HW124875   2.818   6.854   6.740
 7992SOL    HW224876   2.762   6.817   6.591
 7993SOL     OW24877   6.332   5.876   1.009
 7993SOL    HW124878   6.310   5.863   0.913
 7993SOL    HW224879   6.427   5.848   1.026
 7994SOL     OW24880   5.867   6.674   4.096
 7994SOL    HW124881   5.875   6.745   4.166
 7994SOL    HW224882   5.958   6.647   4.066
 7995SOL     OW24883   0.713   5.250   1.520
 7995SOL    HW124884   0.762   5.221   1.601
 7995SOL    HW224885   0.659   5.174   1.483
 7996SOL     OW24886   3.128   0.582   2.888
 7996SOL    HW124887   3.167   0.548   2.973
 7996SOL    HW224888   3.123   0.682   2.892
 7997SOL     OW24889   1.629   1.751   6.235
 7997SOL    HW124890   1.722   1.744   6.200
 7997SOL    HW224891   1.572   1.681   6.192
 7998SOL     OW24892   1.784   1.315   0.898
 7998SOL    HW124893   1.764   1.235   0.842
 7998SOL    HW224894   1.846   1.376   0.848
 7999SOL     OW24895   0.945   0.318   4.180
 7999SOL    HW124896   1.030   0.343   4.132
 7999SOL    HW224897   0.912   0.230   4.146
 8000SOL     OW24898   4.440   5.176   6.942
 8000SOL    HW124899   4.461   5.079   6.952
 8000SOL    HW224900   4.364   5.200   7.003
 8001SOL     OW24901   4.281   5.822   1.075
 8001SOL    HW124902   4.351   5.751   1.066
 8001SOL    HW224903   4.316   5.908   1.038
 8002SOL     OW24904   0.726   0.379   5.447
 8002SOL    HW124905   0.729   0.444   5.523
 8002SOL    HW224906   0.804   0.392   5.387
 8003SOL     OW24907   2.230   5.429   2.204
 8003SOL    HW124908   2.179   5.350   2.239
 8003SOL    HW224909   2.325   5.402   2.186
 8004SOL     OW24910   1.534   2.661   3.988
 8004SOL    HW124911   1.545   2.757   3.965
 8004SOL    HW224912   1.616   2.610   3.960
 8005SOL     OW24913   2.287   0.077   3.188
 8005SOL    HW124914   2.340   0.082   3.103
 8005SOL    HW224915   2.336   0.023   3.256
 8006SOL     OW24916   3.881   4.690   5.282
 8006SOL    HW124917   3.920   4.598   5.286
 8006SOL    HW224918   3.885   4.731   5.373
 8007SOL     OW24919   6.382   0.201   0.147
 8007SOL    HW124920   6.380   0.250   0.235
 8007SOL    HW224921   6.368   0.103   0.163
 8008SOL     OW24922   5.692   6.362   0.048
 8008SOL    HW124923   5.752   6.323   6.998
 8008SOL    HW224924   5.748   6.403   0.120
 8009SOL     OW24925   5.314   1.713   6.966
 8009SOL    HW124926   5.328   1.779   0.019
 8009SOL    HW224927   5.265   1.755   6.890
 8010SOL     OW24928   3.272   1.465   5.585
 8010SOL    HW124929   3.293   1.538   5.650
 8010SOL    HW224930   3.225   1.390   5.633
 8011SOL     OW24931   3.968   1.779   2.883
 8011SOL    HW124932   4.063   1.800   2.859
 8011SOL    HW224933   3.916   1.762   2.799
 8012SOL     OW24934   6.643   1.903   4.259
 8012SOL    HW124935   6.656   1.851   4.343
 8012SOL    HW224936   6.547   1.927   4.248
 8013SOL     OW24937   3.166   1.675   2.403
 8013SOL    HW124938   3.118   1.605   2.350
 8013SOL    HW224939   3.145   1.765   2.366
 8014SOL     OW24940   2.134   2.044   2.460
 8014SOL    HW124941   2.117   2.123   2.518
 8014SOL    HW224942   2.174   2.073   2.373
 8015SOL     OW24943   3.313   0.055   5.590
 8015SOL    HW124944   3.254   0.082   5.666
 8015SOL    HW224945   3.336   0.136   5.536
 8016SOL     OW24946   3.191   1.469   5.049
 8016SOL    HW124947   3.204   1.552   5.103
 8016SOL    HW224948   3.213   1.487   4.953
 8017SOL     OW24949   6.574   5.836   1.087
 8017SOL    HW124950   6.556   5.934   1.093
 8017SOL    HW224951   6.672   5.819   1.093
 8018SOL     OW24952   4.244   1.975   6.970
 8018SOL    HW124953   4.213   2.000   6.878
 8018SOL    HW224954   4.237   1.876   6.981
 8019SOL     OW24955   3.076   3.560   0.920
 8019SOL    HW124956   3.142   3.507   0.866
 8019SOL    HW224957   3.000   3.501   0.946
 8020SOL     OW24958   0.063   0.996   5.518
 8020SOL    HW124959   0.070   1.079   5.573
 8020SOL    HW224960   0.086   1.017   5.423
 8021SOL     OW24961   1.334   2.215   1.230
 8021SOL    HW124962   1.343   2.210   1.330
 8021SOL    HW224963   1.278   2.295   1.206
 8022SOL     OW24964   5.165   1.586   2.256
 8022SOL    HW124965   5.138   1.628   2.169
 8022SOL    HW224966   5.261   1.607   2.274
 8023SOL     OW24967   5.187   5.997   1.850
 8023SOL    HW124968   5.118   5.957   1.790
 8023SOL    HW224969   5.222   6.082   1.810
 8024SOL     OW24970   2.621   0.907   6.637
 8024SOL    HW124971   2.630   0.902   6.538
 8024SOL    HW224972   2.697   0.959   6.675
 8025SOL     OW24973   1.178   5.968   2.185
 8025SOL    HW124974   1.146   5.877   2.159
 8025SOL    HW224975   1.183   6.026   2.103
 8026SOL     OW24976   0.518   5.504   6.912
 8026SOL    HW124977   0.543   5.454   6.829
 8026SOL    HW224978   0.596   5.506   6.975
 8027SOL     OW24979   3.286   1.130   6.521
 8027SOL    HW124980   3.285   1.167   6.428
 8027SOL    HW224981   3.233   1.046   6.524
 8028SOL     OW24982   3.211   5.451   5.262
 8028SOL    HW124983   3.173   5.455   5.355
 8028SOL    HW224984   3.288   5.388   5.260
 8029SOL     OW24985   0.471   6.933   0.072
 8029SOL    HW124986   0.372   6.945   0.064
 8029SOL    HW224987   0.516   6.975   7.013
 8030SOL     OW24988   0.578   3.758   0.860
 8030SOL    HW124989   0.513   3.824   0.821
 8030SOL    HW224990   0.670   3.778   0.826
 8031SOL     OW24991   0.040   0.399   3.319
 8031SOL    HW124992   7.013   0.413   3.232
 8031SOL    HW224993   0.133   0.436   3.313
 8032SOL     OW24994   6.732   3.081   0.946
 8032SOL    HW124995   6.652   3.027   0.972
 8032SOL    HW224996   6.726   3.172   0.986
 8033SOL     OW24997   4.616   3.627   1.285
 8033SOL    HW124998   4.534   3.570   1.279
 8033SOL    HW224999   4.692   3.582   1.239
 8034SOL     OW25000   6.119   0.633   5.878
 8034SOL    HW125001   6.181   0.683   5.938
 8034SOL    HW225002   6.172   0.584   5.809
 8035SOL     OW25003   5.826   1.710   3.172
 8035SOL    HW125004   5.767   1.703   3.253
 8035SOL    HW225005   5.922   1.705   3.201
 8036SOL     OW25006   5.823   2.497   4.025
 8036SOL    HW125007   5.789   2.403   4.023
 8036SOL    HW225008   5.753   2.559   3.989
 8037SOL     OW25009   1.741   1.652   5.328
 8037SOL    HW125010   1.721   1.744   5.362
 8037SOL    HW225011   1.682   1.631   5.250
 8038SOL     OW25012   7.000   5.014   2.173
 8038SOL    HW125013   6.938   5.025   2.251
 8038SOL    HW225014   6.994   5.094   2.114
 8039SOL     OW25015   1.158   2.800   5.595
 8039SOL    HW125016   1.077   2.743   5.607
 8039SOL    HW225017   1.133   2.888   5.555
 8040SOL     OW25018   1.764   4.853   6.671
 8040SOL    HW125019   1.850   4.817   6.708
 8040SOL    HW225020   1.780   4.942   6.629
 8041SOL     OW25021   3.328   1.550   2.999
 8041SOL    HW125022   3.418   1.560   3.043
 8041SOL    HW225023   3.274   1.632   3.016
 8042SOL     OW25024   4.274   4.136   5.536
 8042SOL    HW125025   4.194   4.148   5.478
 8042SOL    HW225026   4.295   4.222   5.583
 8043SOL     OW25027   4.944   5.759   6.842
 8043SOL    HW125028   5.008   5.788   6.771
 8043SOL    HW225029   4.878   5.695   6.804
 8044SOL     OW25030   2.599   3.482   1.692
 8044SOL    HW125031   2.538   3.481   1.771
 8044SOL    HW225032   2.641   3.573   1.684
 8045SOL     OW25033   6.653   2.655   3.637
 8045SOL    HW125034   6.617   2.563   3.649
 8045SOL    HW225035   6.667   2.698   3.726
 8046SOL     OW25036   6.735   5.046   2.309
 8046SOL    HW125037   6.722   4.972   2.242
 8046SOL    HW225038   6.682   5.126   2.281
 8047SOL     OW25039   3.333   6.597   6.613
 8047SOL    HW125040   3.406   6.560   6.555
 8047SOL    HW225041   3.256   6.534   6.612
 8048SOL     OW25042   4.085   2.496   5.951
 8048SOL    HW125043   3.994   2.524   5.922
 8048SOL    HW225044   4.110   2.543   6.036
 8049SOL     OW25045   1.859   2.081   0.466
 8049SOL    HW125046   1.901   2.138   0.536
 8049SOL    HW225047   1.760   2.095   0.467
 8050SOL     OW25048   0.545   5.081   5.385
 8050SOL    HW125049   0.570   5.014   5.314
 8050SOL    HW225050   0.620   5.087   5.451
 8051SOL     OW25051   4.262   5.980   3.596
 8051SOL    HW125052   4.308   5.899   3.561
 8051SOL    HW225053   4.328   6.041   3.639
 8052SOL     OW25054   2.721   2.081   2.391
 8052SOL    HW125055   2.816   2.101   2.369
 8052SOL    HW225056   2.669   2.065   2.307
 8053SOL     OW25057   2.025   2.353   6.366
 8053SOL    HW125058   2.056   2.437   6.321
 8053SOL    HW225059   2.080   2.338   6.449
 8054SOL     OW25060   4.706   3.309   5.473
 8054SOL    HW125061   4.686   3.331   5.378
 8054SOL    HW225062   4.705   3.210   5.485
 8055SOL     OW25063   5.854   0.587   6.891
 8055SOL    HW125064   5.883   0.513   6.830
 8055SOL    HW225065   5.883   0.566   6.984
 8056SOL     OW25066   2.088   0.586   4.551
 8056SOL    HW125067   2.153   0.530   4.499
 8056SOL    HW225068   2.136   0.665   4.590
 8057SOL     OW25069   2.662   2.240   1.919
 8057SOL    HW125070   2.731   2.284   1.977
 8057SOL    HW225071   2.700   2.227   1.827
 8058SOL     OW25072   3.384   0.158   2.263
 8058SOL    HW125073   3.340   0.123   2.346
 8058SOL    HW225074   3.398   0.083   2.199
 8059SOL     OW25075   2.788   2.625   5.939
 8059SOL    HW125076   2.787   2.622   5.839
 8059SOL    HW225077   2.822   2.539   5.975
 8060SOL     OW25078   5.896   0.675   6.281
 8060SOL    HW125079   5.886   0.630   6.192
 8060SOL    HW225080   5.892   0.774   6.269
 8061SOL     OW25081   0.259   0.427   2.817
 8061SOL    HW125082   0.319   0.432   2.738
 8061SOL    HW225083   0.305   0.466   2.897
 8062SOL     OW25084   3.999   5.583   5.643
 8062SOL    HW125085   3.902   5.592   5.621
 8062SOL    HW225086   4.013   5.594   5.741
 8063SOL     OW25087   3.607   5.426   3.270
 8063SOL    HW125088   3.696   5.404   3.229
 8063SOL    HW225089   3.540   5.438   3.197
 8064SOL     OW25090   6.174   1.987   0.291
 8064SOL    HW125091   6.254   2.003   0.232
 8064SOL    HW225092   6.170   1.890   0.315
 8065SOL     OW25093   4.136   5.728   6.628
 8065SOL    HW125094   4.074   5.691   6.697
 8065SOL    HW225095   4.083   5.777   6.558
 8066SOL     OW25096   0.205   6.813   5.833
 8066SOL    HW125097   0.195   6.725   5.789
 8066SOL    HW225098   0.193   6.886   5.766
 8067SOL     OW25099   4.903   2.551   3.558
 8067SOL    HW125100   4.882   2.637   3.512
 8067SOL    HW225101   4.926   2.569   3.654
 8068SOL     OW25102   5.917   4.051   1.259
 8068SOL    HW125103   6.000   4.052   1.202
 8068SOL    HW225104   5.849   4.113   1.220
 8069SOL     OW25105   2.593   5.416   3.321
 8069SOL    HW125106   2.562   5.406   3.415
 8069SOL    HW225107   2.540   5.354   3.262
 8070SOL     OW25108   4.395   4.642   0.579
 8070SOL    HW125109   4.488   4.636   0.615
 8070SOL    HW225110   4.384   4.575   0.505
 8071SOL     OW25111   2.463   0.055   6.337
 8071SOL    HW125112   2.552   0.059   6.383
 8071SOL    HW225113   2.461   6.996   6.275
 8072SOL     OW25114   1.531   1.660   5.655
 8072SOL    HW125115   1.486   1.597   5.592
 8072SOL    HW225116   1.480   1.663   5.741
 8073SOL     OW25117   4.255   0.590   6.702
 8073SOL    HW125118   4.222   0.633   6.618
 8073SOL    HW225119   4.325   0.523   6.679
 8074SOL     OW25120   1.406   0.870   5.924
 8074SOL    HW125121   1.470   0.916   5.985
 8074SOL    HW225122   1.353   0.938   5.873
 8075SOL     OW25123   7.010   6.834   0.653
 8075SOL    HW125124   0.053   6.756   0.646
 8075SOL    HW225125   6.988   6.868   0.562
 8076SOL     OW25126   6.998   6.112   0.752
 8076SOL    HW125127   6.968   6.201   0.717
 8076SOL    HW225128   0.076   6.101   0.735
 8077SOL     OW25129   4.793   4.361   0.455
 8077SOL    HW125130   4.698   4.347   0.425
 8077SOL    HW225131   4.829   4.274   0.490
 8078SOL     OW25132   0.743   1.108   2.247
 8078SOL    HW125133   0.819   1.171   2.230
 8078SOL    HW225134   0.733   1.092   2.345
 8079SOL     OW25135   1.097   1.787   6.039
 8079SOL    HW125136   1.136   1.821   6.125
 8079SOL    HW225137   1.115   1.689   6.031
 8080SOL     OW25138   1.538   3.095   2.990
 8080SOL    HW125139   1.558   3.186   3.026
 8080SOL    HW225140   1.602   3.073   2.916
 8081SOL     OW25141   5.846   6.201   5.087
 8081SOL    HW125142   5.930   6.169   5.043
 8081SOL    HW225143   5.767   6.159   5.043
 8082SOL     OW25144   3.960   1.677   2.616
 8082SOL    HW125145   3.989   1.604   2.679
 8082SOL    HW225146   3.959   1.641   2.523
 8083SOL     OW25147   5.718   1.905   4.433
 8083SOL    HW125148   5.646   1.844   4.400
 8083SOL    HW225149   5.700   1.998   4.398
 8084SOL     OW25150   3.754   1.860   5.946
 8084SOL    HW125151   3.677   1.796   5.954
 8084SOL    HW225152   3.777   1.895   6.036
 8085SOL     OW25153   1.513   6.409   4.413
 8085SOL    HW125154   1.423   6.388   4.374
 8085SOL    HW225155   1.502   6.444   4.506
 8086SOL     OW25156   6.626   0.714   2.301
 8086SOL    HW125157   6.722   0.685   2.306
 8086SOL    HW225158   6.567   0.634   2.301
 8087SOL     OW25159   0.731   0.517   0.022
 8087SOL    HW125160   0.712   0.419   0.014
 8087SOL    HW225161   0.829   0.533   0.020
 8088SOL     OW25162   6.301   0.318   4.698
 8088SOL    HW125163   6.328   0.273   4.614
 8088SOL    HW225164   6.310   0.255   4.775
 8089SOL     OW25165   6.316   1.991   5.992
 8089SOL    HW125166   6.370   2.049   6.052
 8089SOL    HW225167   6.352   1.897   5.995
 8090SOL     OW25168   4.275   1.884   5.134
 8090SOL    HW125169   4.212   1.813   5.102
 8090SOL    HW225170   4.279   1.883   5.233
 8091SOL     OW25171   2.043   5.050   4.142
 8091SOL    HW125172   2.110   5.105   4.093
 8091SOL    HW225173   2.069   5.043   4.238
 8092SOL     OW25174   4.785   1.835   5.721
 8092SOL    HW125175   4.873   1.836   5.768
 8092SOL    HW225176   4.774   1.749   5.671
 8093SOL     OW25177   3.532   6.213   2.426
 8093SOL    HW125178   3.616   6.174   2.389
 8093SOL    HW225179   3.549   6.250   2.518
 8094SOL     OW25180   2.070   4.574   4.247
 8094SOL    HW125181   2.062   4.474   4.244
 8094SOL    HW225182   1.979   4.615   4.247
 8095SOL     OW25183   1.320   4.775   5.468
 8095SOL    HW125184   1.236   4.827   5.453
 8095SOL    HW225185   1.345   4.777   5.564
 8096SOL     OW25186   1.331   5.872   1.522
 8096SOL    HW125187   1.399   5.945   1.517
 8096SOL    HW225188   1.376   5.786   1.545
 8097SOL     OW25189   4.257   6.343   5.617
 8097SOL    HW125190   4.199   6.334   5.535
 8097SOL    HW225191   4.249   6.436   5.652
 8098SOL     OW25192   1.809   5.652   5.073
 8098SOL    HW125193   1.779   5.588   5.003
 8098SOL    HW225194   1.906   5.675   5.057
 8099SOL     OW25195   2.549   5.070   2.991
 8099SOL    HW125196   2.561   4.987   2.938
 8099SOL    HW225197   2.618   5.072   3.065
 8100SOL     OW25198   0.335   0.726   6.756
 8100SOL    HW125199   0.352   0.722   6.855
 8100SOL    HW225200   0.410   0.682   6.708
 8101SOL     OW25201   2.653   6.206   1.288
 8101SOL    HW125202   2.571   6.173   1.241
 8101SOL    HW225203   2.718   6.130   1.298
 8102SOL     OW25204   1.855   3.343   4.981
 8102SOL    HW125205   1.783   3.361   4.914
 8102SOL    HW225206   1.846   3.406   5.058
 8103SOL     OW25207   3.310   0.842   1.486
 8103SOL    HW125208   3.225   0.889   1.510
 8103SOL    HW225209   3.311   0.751   1.527
 8104SOL     OW25210   2.274   6.294   0.395
 8104SOL    HW125211   2.336   6.309   0.471
 8104SOL    HW225212   2.314   6.227   0.332
 8105SOL     OW25213   6.806   0.358   3.428
 8105SOL    HW125214   6.805   0.324   3.522
 8105SOL    HW225215   6.900   0.380   3.401
 8106SOL     OW25216   1.947   0.005   5.972
 8106SOL    HW125217   2.013   6.965   5.927
 8106SOL    HW225218   1.967   0.011   6.069
 8107SOL     OW25219   1.866   6.199   6.007
 8107SOL    HW125220   1.776   6.189   6.049
 8107SOL    HW225221   1.894   6.295   6.009
 8108SOL     OW25222   0.513   1.210   6.881
 8108SOL    HW125223   0.569   1.129   6.896
 8108SOL    HW225224   0.517   1.270   6.961
 8109SOL     OW25225   6.428   3.019   0.561
 8109SOL    HW125226   6.393   3.095   0.616
 8109SOL    HW225227   6.368   3.006   0.482
 8110SOL     OW25228   4.171   4.919   1.019
 8110SOL    HW125229   4.072   4.930   1.006
 8110SOL    HW225230   4.213   4.892   0.933
 8111SOL     OW25231   6.389   1.440   2.857
 8111SOL    HW125232   6.321   1.425   2.785
 8111SOL    HW225233   6.427   1.352   2.885
 8112SOL     OW25234   1.460   3.688   6.179
 8112SOL    HW125235   1.549   3.687   6.226
 8112SOL    HW225236   1.438   3.782   6.151
 8113SOL     OW25237   5.673   3.059   6.077
 8113SOL    HW125238   5.652   3.143   6.128
 8113SOL    HW225239   5.587   3.010   6.058
 8114SOL     OW25240   2.079   4.241   1.253
 8114SOL    HW125241   2.174   4.224   1.226
 8114SOL    HW225242   2.074   4.324   1.308
 8115SOL     OW25243   2.217   1.761   6.233
 8115SOL    HW125244   2.185   1.729   6.143
 8115SOL    HW225245   2.312   1.792   6.225
 8116SOL     OW25246   3.864   3.666   0.841
 8116SOL    HW125247   3.773   3.631   0.860
 8116SOL    HW225248   3.922   3.656   0.922
 8117SOL     OW25249   2.566   6.858   3.230
 8117SOL    HW125250   2.628   6.783   3.207
 8117SOL    HW225251   2.572   6.929   3.159
 8118SOL     OW25252   6.775   3.076   0.406
 8118SOL    HW125253   6.765   2.977   0.402
 8118SOL    HW225254   6.744   3.109   0.495
 8119SOL     OW25255   5.993   5.841   0.202
 8119SOL    HW125256   6.042   5.839   0.290
 8119SOL    HW225257   6.007   5.929   0.158
 8120SOL     OW25258   2.911   6.624   1.370
 8120SOL    HW125259   2.977   6.692   1.404
 8120SOL    HW225260   2.942   6.590   1.281
 8121SOL     OW25261   1.079   3.546   3.113
 8121SOL    HW125262   1.074   3.606   3.193
 8121SOL    HW225263   1.107   3.454   3.142
 8122SOL     OW25264   1.010   4.748   1.829
 8122SOL    HW125265   1.067   4.698   1.764
 8122SOL    HW225266   0.984   4.688   1.904
 8123SOL     OW25267   0.628   1.798   6.574
 8123SOL    HW125268   0.709   1.853   6.595
 8123SOL    HW225269   0.578   1.777   6.658
 8124SOL     OW25270   5.235   4.488   4.963
 8124SOL    HW125271   5.228   4.492   5.063
 8124SOL    HW225272   5.288   4.567   4.931
 8125SOL     OW25273   1.524   6.311   3.213
 8125SOL    HW125274   1.558   6.241   3.150
 8125SOL    HW225275   1.439   6.279   3.255
 8126SOL     OW25276   3.726   4.897   4.157
 8126SOL    HW125277   3.662   4.848   4.216
 8126SOL    HW225278   3.808   4.921   4.209
 8127SOL     OW25279   3.196   2.934   6.866
 8127SOL    HW125280   3.252   2.855   6.841
 8127SOL    HW225281   3.189   2.940   6.965
 8128SOL     OW25282   3.623   3.176   1.508
 8128SOL    HW125283   3.659   3.090   1.471
 8128SOL    HW225284   3.523   3.171   1.512
 8129SOL     OW25285   1.535   3.154   2.107
 8129SOL    HW125286   1.586   3.069   2.097
 8129SOL    HW225287   1.439   3.133   2.129
 8130SOL     OW25288   1.395   5.492   6.471
 8130SOL    HW125289   1.314   5.452   6.514
 8130SOL    HW225290   1.474   5.433   6.487
 8131SOL     OW25291   1.911   3.186   0.037
 8131SOL    HW125292   1.889   3.280   0.063
 8131SOL    HW225293   1.962   3.187   6.971
 8132SOL     OW25294   0.070   0.034   4.986
 8132SOL    HW125295   0.002   0.040   5.060
 8132SOL    HW225296   0.093   6.957   4.971
 8133SOL     OW25297   3.752   4.781   0.661
 8133SOL    HW125298   3.680   4.717   0.689
 8133SOL    HW225299   3.727   4.873   0.691
 8134SOL     OW25300   5.345   0.872   5.832
 8134SOL    HW125301   5.275   0.913   5.890
 8134SOL    HW225302   5.423   0.844   5.888
 8135SOL     OW25303   2.015   6.856   1.699
 8135SOL    HW125304   2.093   6.910   1.730
 8135SOL    HW225305   1.972   6.811   1.777
 8136SOL     OW25306   4.486   4.512   2.148
 8136SOL    HW125307   4.537   4.580   2.095
 8136SOL    HW225308   4.494   4.423   2.105
 8137SOL     OW25309   4.021   1.445   4.697
 8137SOL    HW125310   4.065   1.381   4.761
 8137SOL    HW225311   4.090   1.480   4.634
 8138SOL     OW25312   4.563   1.421   1.527
 8138SOL    HW125313   4.548   1.378   1.438
 8138SOL    HW225314   4.649   1.388   1.566
 8139SOL     OW25315   0.894   2.002   3.525
 8139SOL    HW125316   0.993   1.994   3.514
 8139SOL    HW225317   0.862   2.087   3.483
 8140SOL     OW25318   3.731   1.022   3.471
 8140SOL    HW125319   3.799   0.999   3.541
 8140SOL    HW225320   3.778   1.043   3.385
 8141SOL     OW25321   4.586   4.923   4.604
 8141SOL    HW125322   4.521   4.991   4.636
 8141SOL    HW225323   4.568   4.836   4.649
 8142SOL     OW25324   6.448   5.901   0.399
 8142SOL    HW125325   6.409   5.852   0.321
 8142SOL    HW225326   6.411   5.864   0.484
 8143SOL     OW25327   6.037   3.890   4.746
 8143SOL    HW125328   6.065   3.986   4.739
 8143SOL    HW225329   6.110   3.832   4.709
 8144SOL     OW25330   6.214   6.176   6.292
 8144SOL    HW125331   6.184   6.092   6.247
 8144SOL    HW225332   6.279   6.153   6.364
 8145SOL     OW25333   6.086   5.913   2.595
 8145SOL    HW125334   6.055   5.863   2.676
 8145SOL    HW225335   6.185   5.924   2.599
 8146SOL     OW25336   2.847   1.188   4.484
 8146SOL    HW125337   2.876   1.276   4.522
 8146SOL    HW225338   2.872   1.115   4.549
 8147SOL     OW25339   4.839   0.968   4.026
 8147SOL    HW125340   4.750   0.928   4.047
 8147SOL    HW225341   4.911   0.901   4.044
 8148SOL     OW25342   5.453   3.927   3.576
 8148SOL    HW125343   5.537   3.924   3.631
 8148SOL    HW225344   5.390   3.993   3.615
 8149SOL     OW25345   4.192   4.682   3.334
 8149SOL    HW125346   4.164   4.735   3.254
 8149SOL    HW225347   4.246   4.603   3.305
 8150SOL     OW25348   0.588   5.300   0.680
 8150SOL    HW125349   0.686   5.319   0.692
 8150SOL    HW225350   0.541   5.383   0.649
 8151SOL     OW25351   1.121   1.809   5.167
 8151SOL    HW125352   1.117   1.905   5.140
 8151SOL    HW225353   1.175   1.800   5.251
 8152SOL     OW25354   1.047   1.318   3.277
 8152SOL    HW125355   1.106   1.355   3.349
 8152SOL    HW225356   1.032   1.221   3.294
 8153SOL     OW25357   2.241   6.787   0.642
 8153SOL    HW125358   2.263   6.828   0.553
 8153SOL    HW225359   2.146   6.757   0.642
 8154SOL     OW25360   1.976   6.657   4.202
 8154SOL    HW125361   1.992   6.620   4.111
 8154SOL    HW225362   1.914   6.597   4.252
 8155SOL     OW25363   3.277   3.173   3.525
 8155SOL    HW125364   3.229   3.144   3.442
 8155SOL    HW225365   3.238   3.258   3.558
 8156SOL     OW25366   6.237   0.798   6.065
 8156SOL    HW125367   6.143   0.826   6.087
 8156SOL    HW225368   6.287   0.877   6.028
 8157SOL     OW25369   6.426   3.656   6.342
 8157SOL    HW125370   6.383   3.712   6.412
 8157SOL    HW225371   6.357   3.620   6.280
 8158SOL     OW25372   2.037   5.206   2.253
 8158SOL    HW125373   2.044   5.201   2.153
 8158SOL    HW225374   2.124   5.180   2.294
 8159SOL     OW25375   1.639   5.820   2.152
 8159SOL    HW125376   1.667   5.881   2.225
 8159SOL    HW225377   1.648   5.867   2.064
 8160SOL     OW25378   4.469   2.068   1.979
 8160SOL    HW125379   4.469   1.983   2.031
 8160SOL    HW225380   4.406   2.061   1.903
 8161SOL     OW25381   5.045   1.425   0.742
 8161SOL    HW125382   5.123   1.452   0.685
 8161SOL    HW225383   5.068   1.439   0.838
 8162SOL     OW25384   5.664   0.478   2.033
 8162SOL    HW125385   5.698   0.513   1.946
 8162SOL    HW225386   5.741   0.443   2.087
 8163SOL     OW25387   2.363   4.113   5.433
 8163SOL    HW125388   2.381   4.050   5.358
 8163SOL    HW225389   2.450   4.137   5.478
 8164SOL     OW25390   4.080   2.222   1.960
 8164SOL    HW125391   4.096   2.124   1.955
 8164SOL    HW225392   4.168   2.270   1.967
 8165SOL     OW25393   2.262   5.073   1.478
 8165SOL    HW125394   2.329   5.064   1.552
 8165SOL    HW225395   2.293   5.143   1.414
 8166SOL     OW25396   2.560   6.845   1.954
 8166SOL    HW125397   2.511   6.932   1.955
 8166SOL    HW225398   2.543   6.795   2.039
 8167SOL     OW25399   5.181   2.734   3.674
 8167SOL    HW125400   5.271   2.691   3.677
 8167SOL    HW225401   5.118   2.683   3.733
 8168SOL     OW25402   3.248   0.870   2.937
 8168SOL    HW125403   3.345   0.852   2.950
 8168SOL    HW225404   3.231   0.897   2.842
 8169SOL     OW25405   5.103   3.687   6.110
 8169SOL    HW125406   5.062   3.634   6.184
 8169SOL    HW225407   5.165   3.755   6.147
 8170SOL     OW25408   0.507   5.780   4.080
 8170SOL    HW125409   0.536   5.792   4.175
 8170SOL    HW225410   0.410   5.802   4.071
 8171SOL     OW25411   0.765   1.733   5.930
 8171SOL    HW125412   0.819   1.732   5.846
 8171SOL    HW225413   0.824   1.755   6.007
 8172SOL     OW25414   6.937   6.373   0.657
 8172SOL    HW125415   7.001   6.450   0.660
 8172SOL    HW225416   6.853   6.397   0.704
 8173SOL     OW25417   5.099   2.857   6.222
 8173SOL    HW125418   5.173   2.909   6.265
 8173SOL    HW225419   5.130   2.763   6.206
 8174SOL     OW25420   5.735   0.490   2.411
 8174SOL    HW125421   5.644   0.470   2.376
 8174SOL    HW225422   5.803   0.434   2.364
 8175SOL     OW25423   1.195   3.400   6.321
 8175SOL    HW125424   1.206   3.335   6.397
 8175SOL    HW225425   1.233   3.488   6.347
 8176SOL     OW25426   2.417   5.589   2.618
 8176SOL    HW125427   2.497   5.530   2.613
 8176SOL    HW225428   2.425   5.663   2.550
 8177SOL     OW25429   0.632   6.650   5.968
 8177SOL    HW125430   0.715   6.701   5.992
 8177SOL    HW225431   0.571   6.708   5.915
 8178SOL     OW25432   2.210   6.801   6.511
 8178SOL    HW125433   2.297   6.757   6.533
 8178SOL    HW225434   2.158   6.741   6.451
 8179SOL     OW25435   2.865   1.471   0.226
 8179SOL    HW125436   2.841   1.516   0.312
 8179SOL    HW225437   2.958   1.434   0.233
 8180SOL     OW25438   5.339   5.646   5.252
 8180SOL    HW125439   5.419   5.697   5.222
 8180SOL    HW225440   5.326   5.660   5.351
 8181SOL     OW25441   2.548   2.335   2.528
 8181SOL    HW125442   2.492   2.327   2.611
 8181SOL    HW225443   2.510   2.277   2.456
 8182SOL     OW25444   3.831   2.561   5.890
 8182SOL    HW125445   3.823   2.544   5.792
 8182SOL    HW225446   3.746   2.535   5.936
 8183SOL     OW25447   1.663   3.419   4.816
 8183SOL    HW125448   1.620   3.442   4.729
 8183SOL    HW225449   1.611   3.459   4.891
 8184SOL     OW25450   5.783   6.188   5.659
 8184SOL    HW125451   5.791   6.277   5.615
 8184SOL    HW225452   5.748   6.121   5.593
 8185SOL     OW25453   1.583   1.525   3.316
 8185SOL    HW125454   1.502   1.577   3.287
 8185SOL    HW225455   1.659   1.588   3.330
 8186SOL     OW25456   3.454   4.676   6.128
 8186SOL    HW125457   3.442   4.736   6.048
 8186SOL    HW225458   3.367   4.669   6.178
 8187SOL     OW25459   1.082   1.951   5.780
 8187SOL    HW125460   1.062   1.936   5.877
 8187SOL    HW225461   1.107   1.864   5.738
 8188SOL     OW25462   5.684   3.979   2.534
 8188SOL    HW125463   5.680   4.072   2.570
 8188SOL    HW225464   5.758   3.972   2.467
 8189SOL     OW25465   6.215   4.456   2.241
 8189SOL    HW125466   6.291   4.392   2.227
 8189SOL    HW225467   6.166   4.432   2.325
 8190SOL     OW25468   5.304   3.437   2.874
 8190SOL    HW125469   5.253   3.382   2.808
 8190SOL    HW225470   5.374   3.381   2.917
 8191SOL     OW25471   0.918   5.349   2.433
 8191SOL    HW125472   0.878   5.407   2.504
 8191SOL    HW225473   0.893   5.385   2.343
 8192SOL     OW25474   1.671   4.004   1.271
 8192SOL    HW125475   1.752   3.949   1.251
 8192SOL    HW225476   1.610   3.954   1.332
 8193SOL     OW25477   3.643   0.975   5.954
 8193SOL    HW125478   3.721   1.029   5.924
 8193SOL    HW225479   3.612   1.006   6.044
 8194SOL     OW25480   1.700   0.436   0.720
 8194SOL    HW125481   1.665   0.480   0.802
 8194SOL    HW225482   1.796   0.461   0.707
 8195SOL     OW25483   5.862   7.015   1.028
 8195SOL    HW125484   5.885   0.057   0.953
 8195SOL    HW225485   5.945   6.973   1.064
 8196SOL     OW25486   2.667   0.352   5.998
 8196SOL    HW125487   2.657   0.288   5.922
 8196SOL    HW225488   2.593   0.337   6.064
 8197SOL     OW25489   0.837   6.830   6.953
 8197SOL    HW125490   0.799   6.773   0.006
 8197SOL    HW225491   0.906   6.891   6.991
 8198SOL     OW25492   4.196   6.408   2.621
 8198SOL    HW125493   4.193   6.325   2.676
 8198SOL    HW225494   4.137   6.478   2.661
 8199SOL     OW25495   6.022   3.870   0.469
 8199SOL    HW125496   5.986   3.961   0.450
 8199SOL    HW225497   5.949   3.811   0.504
 8200SOL     OW25498   5.105   3.621   1.322
 8200SOL    HW125499   5.090   3.720   1.320
 8200SOL    HW225500   5.038   3.578   1.383
 8201SOL     OW25501   6.493   1.355   4.658
 8201SOL    HW125502   6.516   1.452   4.668
 8201SOL    HW225503   6.396   1.346   4.633
 8202SOL     OW25504   1.770   4.356   4.137
 8202SOL    HW125505   1.736   4.342   4.044
 8202SOL    HW225506   1.830   4.436   4.139
 8203SOL     OW25507   6.216   3.209   1.175
 8203SOL    HW125508   6.155   3.165   1.241
 8203SOL    HW225509   6.300   3.238   1.221
 8204SOL     OW25510   3.707   7.011   0.434
 8204SOL    HW125511   3.670   0.083   0.440
 8204SOL    HW225512   3.762   6.992   0.515
 8205SOL     OW25513   5.800   5.131   2.852
 8205SOL    HW125514   5.781   5.225   2.823
 8205SOL    HW225515   5.842   5.133   2.943
 8206SOL     OW25516   4.624   2.213   3.810
 8206SOL    HW125517   4.719   2.189   3.829
 8206SOL    HW225518   4.577   2.233   3.897
 8207SOL     OW25519   2.886   6.331   6.982
 8207SOL    HW125520   2.802   6.345   0.016
 8207SOL    HW225521   2.920   6.420   6.950
 8208SOL     OW25522   1.576   4.939   6.165
 8208SOL    HW125523   1.521   4.927   6.248
 8208SOL    HW225524   1.614   4.851   6.138
 8209SOL     OW25525   0.729   6.451   5.508
 8209SOL    HW125526   0.712   6.398   5.591
 8209SOL    HW225527   0.680   6.409   5.431
 8210SOL     OW25528   3.110   1.905   0.090
 8210SOL    HW125529   3.175   1.903   0.167
 8210SOL    HW225530   3.039   1.836   0.105
 8211SOL     OW25531   2.999   3.468   4.845
 8211SOL    HW125532   2.912   3.463   4.895
 8211SOL    HW225533   3.017   3.379   4.803
 8212SOL     OW25534   3.893   6.322   1.304
 8212SOL    HW125535   3.961   6.255   1.332
 8212SOL    HW225536   3.906   6.406   1.357
 8213SOL     OW25537   4.338   4.040   1.651
 8213SOL    HW125538   4.265   3.979   1.679
 8213SOL    HW225539   4.364   4.099   1.727
 8214SOL     OW25540   4.021   5.206   4.348
 8214SOL    HW125541   4.121   5.205   4.349
 8214SOL    HW225542   3.988   5.300   4.352
 8215SOL     OW25543   3.439   6.027   6.223
 8215SOL    HW125544   3.370   6.010   6.293
 8215SOL    HW225545   3.463   5.941   6.178
 8216SOL     OW25546   6.247   4.504   1.541
 8216SOL    HW125547   6.153   4.508   1.506
 8216SOL    HW225548   6.246   4.521   1.640
 8217SOL     OW25549   2.507   6.415   3.683
 8217SOL    HW125550   2.521   6.504   3.640
 8217SOL    HW225551   2.489   6.427   3.780
 8218SOL     OW25552   2.741   6.860   5.174
 8218SOL    HW125553   2.697   6.771   5.185
 8218SOL    HW225554   2.794   6.881   5.256
 8219SOL     OW25555   3.934   3.071   1.772
 8219SOL    HW125556   3.988   3.108   1.847
 8219SOL    HW225557   3.963   2.977   1.754
 8220SOL     OW25558   3.135   3.852   4.485
 8220SOL    HW125559   3.095   3.898   4.405
 8220SOL    HW225560   3.062   3.815   4.542
 8221SOL     OW25561   5.719   4.138   3.354
 8221SOL    HW125562   5.626   4.153   3.387
 8221SOL    HW225563   5.723   4.051   3.304
 8222SOL     OW25564   6.526   2.773   0.557
 8222SOL    HW125565   6.498   2.732   0.644
 8222SOL    HW225566   6.479   2.860   0.546
 8223SOL     OW25567   1.935   6.459   6.074
 8223SOL    HW125568   1.876   6.520   6.021
 8223SOL    HW225569   1.892   6.438   6.162
 8224SOL     OW25570   5.106   1.117   0.064
 8224SOL    HW125571   5.185   1.124   0.125
 8224SOL    HW225572   5.024   1.149   0.111
 8225SOL     OW25573   5.868   2.286   0.154
 8225SOL    HW125574   5.958   2.243   0.140
 8225SOL    HW225575   5.797   2.215   0.151
 8226SOL     OW25576   4.096   1.065   0.585
 8226SOL    HW125577   4.098   1.041   0.487
 8226SOL    HW225578   4.017   1.124   0.603
 8227SOL     OW25579   3.852   2.122   2.715
 8227SOL    HW125580   3.931   2.142   2.774
 8227SOL    HW225581   3.879   2.056   2.645
 8228SOL     OW25582   2.212   0.253   4.592
 8228SOL    HW125583   2.153   0.183   4.630
 8228SOL    HW225584   2.281   0.280   4.659
 8229SOL     OW25585   4.533   4.276   0.431
 8229SOL    HW125586   4.462   4.346   0.434
 8229SOL    HW225587   4.532   4.224   0.517
 8230SOL     OW25588   5.673   0.476   6.058
 8230SOL    HW125589   5.748   0.437   6.112
 8230SOL    HW225590   5.671   0.433   5.968
 8231SOL     OW25591   2.888   1.323   2.402
 8231SOL    HW125592   2.803   1.350   2.448
 8231SOL    HW225593   2.883   1.226   2.378
 8232SOL     OW25594   3.294   5.658   3.189
 8232SOL    HW125595   3.314   5.728   3.258
 8232SOL    HW225596   3.234   5.696   3.119
 8233SOL     OW25597   1.382   1.269   6.149
 8233SOL    HW125598   1.459   1.251   6.210
 8233SOL    HW225599   1.297   1.267   6.201
 8234SOL     OW25600   1.268   2.295   0.697
 8234SOL    HW125601   1.220   2.238   0.631
 8234SOL    HW225602   1.203   2.352   0.746
 8235SOL     OW25603   0.509   0.537   1.566
 8235SOL    HW125604   0.573   0.488   1.507
 8235SOL    HW225605   0.443   0.587   1.508
 8236SOL     OW25606   0.951   6.979   1.732
 8236SOL    HW125607   1.030   7.013   1.783
 8236SOL    HW225608   0.979   6.902   1.675
 8237SOL     OW25609   3.758   4.706   5.931
 8237SOL    HW125610   3.843   4.657   5.953
 8237SOL    HW225611   3.715   4.736   6.016
 8238SOL     OW25612   0.841   4.820   0.871
 8238SOL    HW125613   0.847   4.729   0.910
 8238SOL    HW225614   0.874   4.887   0.937
 8239SOL     OW25615   1.884   1.706   6.125
 8239SOL    HW125616   1.846   1.692   6.033
 8239SOL    HW225617   1.924   1.620   6.158
 8240SOL     OW25618   3.705   3.832   4.815
 8240SOL    HW125619   3.789   3.863   4.771
 8240SOL    HW225620   3.725   3.801   4.908
 8241SOL     OW25621   1.835   3.807   5.418
 8241SOL    HW125622   1.809   3.848   5.506
 8241SOL    HW225623   1.850   3.709   5.430
 8242SOL     OW25624   0.844   3.605   2.662
 8242SOL    HW125625   0.765   3.548   2.640
 8242SOL    HW225626   0.920   3.547   2.690
 8243SOL     OW25627   1.601   5.088   3.929
 8243SOL    HW125628   1.617   5.154   4.002
 8243SOL    HW225629   1.540   5.128   3.861
 8244SOL     OW25630   6.651   1.281   3.888
 8244SOL    HW125631   6.696   1.192   3.894
 8244SOL    HW225632   6.710   1.351   3.931
 8245SOL     OW25633   5.687   2.399   2.209
 8245SOL    HW125634   5.664   2.301   2.201
 8245SOL    HW225635   5.747   2.425   2.133
 8246SOL     OW25636   1.753   5.098   6.535
 8246SOL    HW125637   1.789   5.072   6.445
 8246SOL    HW225638   1.825   5.141   6.588
 8247SOL     OW25639   3.107   5.395   3.039
 8247SOL    HW125640   3.140   5.305   3.065
 8247SOL    HW225641   3.007   5.396   3.039
 8248SOL     OW25642   6.250   5.162   3.924
 8248SOL    HW125643   6.312   5.129   3.852
 8248SOL    HW225644   6.273   5.257   3.946
 8249SOL     OW25645   3.273   1.418   6.626
 8249SOL    HW125646   3.204   1.357   6.666
 8249SOL    HW225647   3.250   1.436   6.531
 8250SOL     OW25648   1.014   2.018   6.912
 8250SOL    HW125649   1.010   1.947   6.842
 8250SOL    HW225650   1.076   2.091   6.882
 8251SOL     OW25651   0.829   2.432   4.907
 8251SOL    HW125652   0.889   2.394   4.977
 8251SOL    HW225653   0.790   2.518   4.939
 8252SOL     OW25654   0.895   2.198   6.589
 8252SOL    HW125655   0.818   2.249   6.626
 8252SOL    HW225656   0.873   2.165   6.497
 8253SOL     OW25657   4.290   5.978   6.886
 8253SOL    HW125658   4.314   6.059   6.939
 8253SOL    HW225659   4.297   5.896   6.943
 8254SOL     OW25660   5.867   5.155   0.141
 8254SOL    HW125661   5.782   5.193   0.177
 8254SOL    HW225662   5.892   5.074   0.194
 8255SOL     OW25663   2.171   0.597   5.676
 8255SOL    HW125664   2.125   0.574   5.761
 8255SOL    HW225665   2.153   0.693   5.653
 8256SOL     OW25666   1.188   5.041   4.987
 8256SOL    HW125667   1.098   5.083   4.993
 8256SOL    HW225668   1.231   5.040   5.077
 8257SOL     OW25669   5.123   3.933   3.042
 8257SOL    HW125670   5.069   3.905   2.963
 8257SOL    HW225671   5.183   3.858   3.070
 8258SOL     OW25672   0.574   3.151   2.619
 8258SOL    HW125673   0.480   3.169   2.588
 8258SOL    HW225674   0.632   3.230   2.596
 8259SOL     OW25675   5.464   1.833   4.120
 8259SOL    HW125676   5.454   1.918   4.067
 8259SOL    HW225677   5.558   1.801   4.115
 8260SOL     OW25678   4.835   2.614   1.077
 8260SOL    HW125679   4.903   2.637   1.146
 8260SOL    HW225680   4.743   2.627   1.114
 8261SOL     OW25681   5.535   1.483   2.649
 8261SOL    HW125682   5.454   1.524   2.693
 8261SOL    HW225683   5.520   1.385   2.636
 8262SOL     OW25684   5.467   3.477   2.037
 8262SOL    HW125685   5.405   3.532   2.092
 8262SOL    HW225686   5.494   3.528   1.955
 8263SOL     OW25687   6.236   1.468   5.407
 8263SOL    HW125688   6.271   1.393   5.352
 8263SOL    HW225689   6.245   1.554   5.357
 8264SOL     OW25690   3.549   0.426   2.547
 8264SOL    HW125691   3.546   0.525   2.565
 8264SOL    HW225692   3.605   0.382   2.616
 8265SOL     OW25693   4.890   6.204   0.606
 8265SOL    HW125694   4.920   6.133   0.543
 8265SOL    HW225695   4.913   6.179   0.700
 8266SOL     OW25696   2.795   0.933   4.030
 8266SOL    HW125697   2.767   0.851   4.080
 8266SOL    HW225698   2.780   1.013   4.088
 8267SOL     OW25699   2.106   3.396   2.480
 8267SOL    HW125700   2.151   3.431   2.397
 8267SOL    HW225701   2.162   3.322   2.519
 8268SOL     OW25702   3.253   4.245   6.401
 8268SOL    HW125703   3.342   4.209   6.430
 8268SOL    HW225704   3.251   4.252   6.302
 8269SOL     OW25705   6.484   3.252   4.521
 8269SOL    HW125706   6.493   3.162   4.478
 8269SOL    HW225707   6.575   3.287   4.544
 8270SOL     OW25708   4.129   5.886   6.399
 8270SOL    HW125709   4.102   5.806   6.346
 8270SOL    HW225710   4.087   5.968   6.359
 8271SOL     OW25711   3.408   6.719   6.135
 8271SOL    HW125712   3.479   6.654   6.107
 8271SOL    HW225713   3.446   6.783   6.202
 8272SOL     OW25714   1.029   0.772   2.240
 8272SOL    HW125715   0.950   0.724   2.203
 8272SOL    HW225716   1.031   0.761   2.339
 8273SOL     OW25717   3.890   0.905   0.125
 8273SOL    HW125718   3.936   0.909   0.037
 8273SOL    HW225719   3.794   0.930   0.114
 8274SOL     OW25720   5.384   6.356   5.437
 8274SOL    HW125721   5.356   6.397   5.350
 8274SOL    HW225722   5.337   6.269   5.449
 8275SOL     OW25723   5.414   0.799   4.484
 8275SOL    HW125724   5.329   0.821   4.436
 8275SOL    HW225725   5.475   0.879   4.483
 8276SOL     OW25726   6.811   2.087   6.928
 8276SOL    HW125727   6.748   2.057   6.857
 8276SOL    HW225728   6.899   2.111   6.887
 8277SOL     OW25729   1.504   0.171   0.263
 8277SOL    HW125730   1.482   0.074   0.254
 8277SOL    HW225731   1.496   0.198   0.359
 8278SOL     OW25732   2.978   1.085   1.035
 8278SOL    HW125733   2.956   1.032   1.117
 8278SOL    HW225734   2.955   1.181   1.051
 8279SOL     OW25735   3.881   5.753   5.201
 8279SOL    HW125736   3.805   5.738   5.264
 8279SOL    HW225737   3.926   5.839   5.222
 8280SOL     OW25738   5.553   3.879   6.864
 8280SOL    HW125739   5.500   3.795   6.854
 8280SOL    HW225740   5.550   3.909   6.959
 8281SOL     OW25741   3.005   5.372   0.037
 8281SOL    HW125742   3.056   5.425   6.989
 8281SOL    HW225743   2.916   5.347   7.019
 8282SOL     OW25744   2.932   3.206   1.940
 8282SOL    HW125745   2.909   3.152   1.859
 8282SOL    HW225746   2.980   3.289   1.913
 8283SOL     OW25747   0.420   0.008   3.815
 8283SOL    HW125748   0.322   0.023   3.834
 8283SOL    HW225749   0.458   0.089   3.772
 8284SOL     OW25750   3.688   1.509   2.234
 8284SOL    HW125751   3.651   1.515   2.327
 8284SOL    HW225752   3.685   1.599   2.190
 8285SOL     OW25753   2.154   4.400   6.910
 8285SOL    HW125754   2.197   4.471   6.854
 8285SOL    HW225755   2.062   4.430   6.936
 8286SOL     OW25756   5.770   2.331   5.431
 8286SOL    HW125757   5.700   2.279   5.480
 8286SOL    HW225758   5.770   2.305   5.335
 8287SOL     OW25759   1.889   0.132   3.464
 8287SOL    HW125760   1.930   0.058   3.518
 8287SOL    HW225761   1.939   0.142   3.378
 8288SOL     OW25762   2.059   6.953   2.928
 8288SOL    HW125763   1.980   6.920   2.979
 8288SOL    HW225764   2.139   6.954   2.987
 8289SOL     OW25765   6.385   0.699   6.672
 8289SOL    HW125766   6.356   0.648   6.590
 8289SOL    HW225767   6.399   0.635   6.748
 8290SOL     OW25768   4.574   2.774   1.790
 8290SOL    HW125769   4.628   2.846   1.833
 8290SOL    HW225770   4.599   2.765   1.694
 8291SOL     OW25771   4.720   5.766   6.542
 8291SOL    HW125772   4.748   5.711   6.620
 8291SOL    HW225773   4.661   5.712   6.482
 8292SOL     OW25774   0.737   2.662   4.995
 8292SOL    HW125775   0.768   2.751   5.028
 8292SOL    HW225776   0.685   2.674   4.910
 8293SOL     OW25777   2.859   5.461   3.952
 8293SOL    HW125778   2.868   5.427   3.859
 8293SOL    HW225779   2.896   5.393   4.016
 8294SOL     OW25780   5.409   4.003   5.666
 8294SOL    HW125781   5.320   3.959   5.650
 8294SOL    HW225782   5.473   3.974   5.595
 8295SOL     OW25783   5.136   4.565   2.231
 8295SOL    HW125784   5.165   4.661   2.231
 8295SOL    HW225785   5.052   4.556   2.176
 8296SOL     OW25786   3.759   6.767   2.398
 8296SOL    HW125787   3.835   6.704   2.411
 8296SOL    HW225788   3.696   6.761   2.475
 8297SOL     OW25789   5.348   4.484   3.452
 8297SOL    HW125790   5.440   4.523   3.448
 8297SOL    HW225791   5.299   4.523   3.529
 8298SOL     OW25792   6.987   6.788   0.129
 8298SOL    HW125793   0.022   6.867   0.157
 8298SOL    HW225794   0.025   6.721   0.084
 8299SOL     OW25795   0.476   3.217   0.299
 8299SOL    HW125796   0.492   3.226   0.200
 8299SOL    HW225797   0.472   3.120   0.323
 8300SOL     OW25798   6.011   5.042   3.845
 8300SOL    HW125799   6.093   5.087   3.880
 8300SOL    HW225800   6.025   5.017   3.749
 8301SOL     OW25801   5.496   6.194   0.654
 8301SOL    HW125802   5.445   6.250   0.718
 8301SOL    HW225803   5.463   6.210   0.561
 8302SOL     OW25804   3.614   6.913   5.437
 8302SOL    HW125805   3.615   6.813   5.433
 8302SOL    HW225806   3.614   6.950   5.344
 8303SOL     OW25807   0.257   5.422   2.420
 8303SOL    HW125808   0.191   5.364   2.372
 8303SOL    HW225809   0.332   5.445   2.358
 8304SOL     OW25810   5.832   4.360   3.506
 8304SOL    HW125811   5.782   4.288   3.458
 8304SOL    HW225812   5.870   4.424   3.439
 8305SOL     OW25813   5.300   6.480   5.983
 8305SOL    HW125814   5.391   6.452   5.955
 8305SOL    HW225815   5.240   6.482   5.903
 8306SOL     OW25816   6.347   1.620   3.282
 8306SOL    HW125817   6.380   1.527   3.296
 8306SOL    HW225818   6.325   1.633   3.185
 8307SOL     OW25819   1.680   3.356   2.774
 8307SOL    HW125820   1.729   3.442   2.758
 8307SOL    HW225821   1.582   3.372   2.761
 8308SOL     OW25822   1.123   5.694   0.946
 8308SOL    HW125823   1.031   5.723   0.972
 8308SOL    HW225824   1.180   5.774   0.926
 8309SOL     OW25825   6.237   5.333   4.439
 8309SOL    HW125826   6.165   5.296   4.497
 8309SOL    HW225827   6.297   5.259   4.407
 8310SOL     OW25828   1.736   0.797   1.249
 8310SOL    HW125829   1.707   0.721   1.307
 8310SOL    HW225830   1.656   0.849   1.219
 8311SOL     OW25831   4.910   5.884   3.195
 8311SOL    HW125832   4.998   5.849   3.230
 8311SOL    HW225833   4.906   5.871   3.096
 8312SOL     OW25834   6.058   1.593   0.154
 8312SOL    HW125835   5.974   1.542   0.178
 8312SOL    HW225836   6.120   1.593   0.233
 8313SOL     OW25837   5.606   2.013   5.345
 8313SOL    HW125838   5.580   2.096   5.393
 8313SOL    HW225839   5.613   2.031   5.247
 8314SOL     OW25840   4.824   6.043   4.326
 8314SOL    HW125841   4.820   6.129   4.378
 8314SOL    HW225842   4.828   6.064   4.228
 8315SOL     OW25843   3.630   2.957   4.789
 8315SOL    HW125844   3.730   2.956   4.787
 8315SOL    HW225845   3.595   2.957   4.696
 8316SOL     OW25846   2.418   2.282   5.299
 8316SOL    HW125847   2.380   2.341   5.229
 8316SOL    HW225848   2.481   2.217   5.257
 8317SOL     OW25849   1.322   1.492   4.095
 8317SOL    HW125850   1.226   1.463   4.088
 8317SOL    HW225851   1.351   1.488   4.190
 8318SOL     OW25852   4.275   6.524   6.062
 8318SOL    HW125853   4.298   6.529   6.159
 8318SOL    HW225854   4.229   6.608   6.034
 8319SOL     OW25855   2.149   5.610   6.231
 8319SOL    HW125856   2.116   5.591   6.139
 8319SOL    HW225857   2.216   5.684   6.228
 8320SOL     OW25858   3.810   3.393   5.281
 8320SOL    HW125859   3.775   3.324   5.218
 8320SOL    HW225860   3.735   3.430   5.335
 8321SOL     OW25861   0.044   0.054   0.222
 8321SOL    HW125862   0.008   0.111   0.148
 8321SOL    HW225863   6.996   0.047   0.295
 8322SOL     OW25864   0.893   6.887   0.453
 8322SOL    HW125865   0.936   6.802   0.421
 8322SOL    HW225866   0.869   6.944   0.374
 8323SOL     OW25867   5.772   4.520   0.232
 8323SOL    HW125868   5.799   4.607   0.191
 8323SOL    HW225869   5.672   4.515   0.238
 8324SOL     OW25870   5.432   6.236   0.095
 8324SOL    HW125871   5.527   6.258   0.074
 8324SOL    HW225872   5.420   6.137   0.095
 8325SOL     OW25873   1.521   6.649   5.256
 8325SOL    HW125874   1.449   6.685   5.314
 8325SOL    HW225875   1.607   6.645   5.308
 8326SOL     OW25876   1.818   2.843   6.858
 8326SOL    HW125877   1.883   2.868   6.930
 8326SOL    HW225878   1.866   2.793   6.786
 8327SOL     OW25879   0.967   5.809   4.794
 8327SOL    HW125880   0.979   5.750   4.874
 8327SOL    HW225881   1.049   5.864   4.781
 8328SOL     OW25882   0.422   6.455   6.829
 8328SOL    HW125883   0.429   6.518   6.906
 8328SOL    HW225884   0.460   6.367   6.854
 8329SOL     OW25885   1.146   2.462   4.496
 8329SOL    HW125886   1.162   2.516   4.414
 8329SOL    HW225887   1.050   2.431   4.498
 8330SOL     OW25888   2.994   0.866   6.994
 8330SOL    HW125889   3.020   0.935   6.926
 8330SOL    HW225890   2.988   0.776   6.949
 8331SOL     OW25891   1.849   2.125   6.350
 8331SOL    HW125892   1.761   2.142   6.307
 8331SOL    HW225893   1.910   2.202   6.333
 8332SOL     OW25894   6.559   4.204   1.431
 8332SOL    HW125895   6.523   4.197   1.338
 8332SOL    HW225896   6.487   4.236   1.493
 8333SOL     OW25897   1.993   3.575   6.998
 8333SOL    HW125898   2.078   3.527   6.978
 8333SOL    HW225899   1.989   3.660   6.945
 8334SOL     OW25900   3.048   1.843   5.394
 8334SOL    HW125901   3.098   1.928   5.379
 8334SOL    HW225902   3.084   1.772   5.334
 8335SOL     OW25903   5.446   4.600   5.899
 8335SOL    HW125904   5.461   4.609   5.801
 8335SOL    HW225905   5.349   4.613   5.920
 8336SOL     OW25906   1.081   4.387   3.626
 8336SOL    HW125907   1.053   4.306   3.678
 8336SOL    HW225908   1.038   4.468   3.665
 8337SOL     OW25909   0.133   1.203   3.977
 8337SOL    HW125910   0.171   1.279   3.925
 8337SOL    HW225911   0.045   1.230   4.018
 8338SOL     OW25912   3.178   5.456   1.049
 8338SOL    HW125913   3.208   5.394   1.121
 8338SOL    HW225914   3.214   5.548   1.066
 8339SOL     OW25915   5.842   0.491   1.434
 8339SOL    HW125916   5.829   0.553   1.357
 8339SOL    HW225917   5.934   0.503   1.471
 8340SOL     OW25918   6.235   1.959   6.576
 8340SOL    HW125919   6.146   1.915   6.582
 8340SOL    HW225920   6.240   2.033   6.643
 8341SOL     OW25921   3.785   1.257   0.954
 8341SOL    HW125922   3.854   1.324   0.927
 8341SOL    HW225923   3.753   1.277   1.046
 8342SOL     OW25924   4.759   0.438   0.029
 8342SOL    HW125925   4.738   0.444   6.951
 8342SOL    HW225926   4.778   0.530   0.064
 8343SOL     OW25927   6.032   4.684   3.846
 8343SOL    HW125928   5.978   4.746   3.904
 8343SOL    HW225929   6.111   4.651   3.897
 8344SOL     OW25930   1.418   4.946   6.398
 8344SOL    HW125931   1.408   4.952   6.498
 8344SOL    HW225932   1.392   5.033   6.357
 8345SOL     OW25933   5.348   6.860   3.586
 8345SOL    HW125934   5.388   6.783   3.637
 8345SOL    HW225935   5.248   6.852   3.588
 8346SOL     OW25936   5.830   2.802   4.379
 8346SOL    HW125937   5.789   2.824   4.467
 8346SOL    HW225938   5.762   2.811   4.306
 8347SOL     OW25939   2.299   1.706   6.654
 8347SOL    HW125940   2.336   1.799   6.650
 8347SOL    HW225941   2.332   1.654   6.576
 8348SOL     OW25942   2.662   6.124   2.404
 8348SOL    HW125943   2.651   6.165   2.314
 8348SOL    HW225944   2.749   6.153   2.444
 8349SOL     OW25945   5.903   6.107   2.152
 8349SOL    HW125946   5.810   6.127   2.122
 8349SOL    HW225947   5.963   6.103   2.072
 8350SOL     OW25948   2.093   1.355   6.714
 8350SOL    HW125949   2.144   1.274   6.684
 8350SOL    HW225950   2.042   1.333   6.797
 8351SOL     OW25951   0.317   3.005   2.891
 8351SOL    HW125952   0.321   2.907   2.911
 8351SOL    HW225953   0.406   3.046   2.909
 8352SOL     OW25954   3.039   5.820   0.712
 8352SOL    HW125955   3.096   5.739   0.697
 8352SOL    HW225956   3.001   5.817   0.804
 8353SOL     OW25957   0.933   5.183   1.699
 8353SOL    HW125958   0.969   5.110   1.758
 8353SOL    HW225959   1.006   5.249   1.680
 8354SOL     OW25960   3.342   1.028   3.560
 8354SOL    HW125961   3.277   1.009   3.486
 8354SOL    HW225962   3.407   0.953   3.569
 8355SOL     OW25963   3.163   5.901   6.641
 8355SOL    HW125964   3.212   5.901   6.728
 8355SOL    HW225965   3.097   5.976   6.641
 8356SOL     OW25966   2.398   5.219   0.488
 8356SOL    HW125967   2.466   5.242   0.558
 8356SOL    HW225968   2.361   5.303   0.449
 8357SOL     OW25969   4.811   6.690   5.392
 8357SOL    HW125970   4.776   6.778   5.361
 8357SOL    HW225971   4.860   6.702   5.478
 8358SOL     OW25972   1.256   0.921   4.983
 8358SOL    HW125973   1.263   0.861   5.063
 8358SOL    HW225974   1.225   1.011   5.012
 8359SOL     OW25975   4.078   2.048   6.131
 8359SOL    HW125976   4.125   2.056   6.043
 8359SOL    HW225977   4.029   2.133   6.150
 8360SOL     OW25978   4.358   0.143   0.748
 8360SOL    HW125979   4.272   0.175   0.707
 8360SOL    HW225980   4.418   0.110   0.675
 8361SOL     OW25981   4.268   1.486   6.885
 8361SOL    HW125982   4.199   1.510   6.817
 8361SOL    HW225983   4.359   1.506   6.849
 8362SOL     OW25984   0.249   4.088   1.564
 8362SOL    HW125985   0.187   4.092   1.642
 8362SOL    HW225986   0.312   4.166   1.568
 8363SOL     OW25987   1.988   3.109   0.927
 8363SOL    HW125988   2.060   3.068   0.983
 8363SOL    HW225989   2.008   3.092   0.830
 8364SOL     OW25990   0.189   2.798   4.288
 8364SOL    HW125991   0.208   2.880   4.342
 8364SOL    HW225992   0.202   2.716   4.344
 8365SOL     OW25993   1.442   2.201   2.120
 8365SOL    HW125994   1.542   2.197   2.107
 8365SOL    HW225995   1.422   2.210   2.218
 8366SOL     OW25996   5.271   4.945   2.434
 8366SOL    HW125997   5.227   5.024   2.476
 8366SOL    HW225998   5.365   4.938   2.467
 8367SOL     OW25999   2.345   4.804   4.206
 8367SOL    HW126000   2.277   4.859   4.256
 8367SOL    HW226001   2.304   4.769   4.122
 8368SOL     OW26002   6.138   6.505   5.681
 8368SOL    HW126003   6.173   6.592   5.646
 8368SOL    HW226004   6.060   6.523   5.741
 8369SOL     OW26005   2.382   6.380   0.758
 8369SOL    HW126006   2.456   6.364   0.693
 8369SOL    HW226007   2.387   6.474   0.792
 8370SOL     OW26008   2.896   3.956   6.774
 8370SOL    HW126009   2.959   3.986   6.846
 8370SOL    HW226010   2.848   4.035   6.736
 8371SOL     OW26011   2.253   4.369   5.566
 8371SOL    HW126012   2.268   4.288   5.509
 8371SOL    HW226013   2.331   4.381   5.628
 8372SOL     OW26014   2.231   6.866   1.090
 8372SOL    HW126015   2.190   6.924   1.160
 8372SOL    HW226016   2.166   6.796   1.063
 8373SOL     OW26017   6.283   1.763   3.897
 8373SOL    HW126018   6.303   1.710   3.815
 8373SOL    HW226019   6.200   1.726   3.940
 8374SOL     OW26020   0.021   1.134   4.383
 8374SOL    HW126021   0.077   1.142   4.465
 8374SOL    HW226022   0.067   1.074   4.317
 8375SOL     OW26023   2.534   1.633   4.936
 8375SOL    HW126024   2.539   1.596   4.844
 8375SOL    HW226025   2.567   1.728   4.936
 8376SOL     OW26026   0.801   1.741   3.483
 8376SOL    HW126027   0.774   1.737   3.386
 8376SOL    HW226028   0.858   1.821   3.498
 8377SOL     OW26029   4.715   4.651   0.342
 8377SOL    HW126030   4.635   4.671   0.286
 8377SOL    HW226031   4.689   4.652   0.439
 8378SOL     OW26032   4.877   5.778   4.342
 8378SOL    HW126033   4.880   5.874   4.368
 8378SOL    HW226034   4.820   5.727   4.406
 8379SOL     OW26035   6.058   2.016   1.503
 8379SOL    HW126036   6.016   2.088   1.447
 8379SOL    HW226037   6.023   2.021   1.596
 8380SOL     OW26038   0.128   6.263   0.953
 8380SOL    HW126039   0.142   6.245   1.050
 8380SOL    HW226040   0.056   6.203   0.918
 8381SOL     OW26041   0.182   1.333   2.841
 8381SOL    HW126042   0.163   1.427   2.812
 8381SOL    HW226043   0.182   1.272   2.762
 8382SOL     OW26044   1.643   0.526   0.960
 8382SOL    HW126045   1.654   0.456   1.031
 8382SOL    HW226046   1.709   0.599   0.976
 8383SOL     OW26047   2.988   0.503   6.432
 8383SOL    HW126048   2.891   0.488   6.417
 8383SOL    HW226049   3.031   0.418   6.464
 8384SOL     OW26050   0.928   3.988   3.052
 8384SOL    HW126051   0.912   4.082   3.023
 8384SOL    HW226052   0.921   3.927   2.973
 8385SOL     OW26053   4.419   3.092   1.154
 8385SOL    HW126054   4.402   3.063   1.248
 8385SOL    HW226055   4.358   3.043   1.092
 8386SOL     OW26056   2.188   5.786   1.831
 8386SOL    HW126057   2.169   5.709   1.892
 8386SOL    HW226058   2.287   5.798   1.822
 8387SOL     OW26059   0.895   1.527   3.175
 8387SOL    HW126060   0.944   1.447   3.210
 8387SOL    HW226061   0.810   1.539   3.226
 8388SOL     OW26062   4.540   5.933   0.603
 8388SOL    HW126063   4.459   5.921   0.661
 8388SOL    HW226064   4.612   5.870   0.633
 8389SOL     OW26065   0.439   2.946   4.067
 8389SOL    HW126066   0.528   2.904   4.088
 8389SOL    HW226067   0.426   2.949   3.968
 8390SOL     OW26068   2.640   0.065   5.886
 8390SOL    HW126069   2.653   0.091   5.790
 8390SOL    HW226070   2.543   0.051   5.905
 8391SOL     OW26071   5.538   6.037   0.922
 8391SOL    HW126072   5.514   6.068   0.830
 8391SOL    HW226073   5.637   6.037   0.933
 8392SOL     OW26074   5.577   6.499   5.512
 8392SOL    HW126075   5.658   6.444   5.533
 8392SOL    HW226076   5.506   6.440   5.473
 8393SOL     OW26077   0.083   5.546   2.575
 8393SOL    HW126078   0.151   5.488   2.531
 8393SOL    HW226079   0.126   5.597   2.650
 8394SOL     OW26080   0.372   1.905   3.175
 8394SOL    HW126081   0.356   1.916   3.077
 8394SOL    HW226082   0.284   1.895   3.222
 8395SOL     OW26083   0.817   6.167   5.562
 8395SOL    HW126084   0.722   6.139   5.577
 8395SOL    HW226085   0.833   6.176   5.463
 8396SOL     OW26086   4.400   3.689   0.700
 8396SOL    HW126087   4.404   3.605   0.646
 8396SOL    HW226088   4.310   3.732   0.688
 8397SOL     OW26089   1.926   5.167   3.308
 8397SOL    HW126090   1.966   5.181   3.398
 8397SOL    HW226091   1.850   5.102   3.315
 8398SOL     OW26092   4.990   1.451   0.251
 8398SOL    HW126093   5.066   1.409   0.301
 8398SOL    HW226094   4.931   1.380   0.213
 8399SOL     OW26095   5.848   5.543   0.177
 8399SOL    HW126096   5.940   5.557   0.139
 8399SOL    HW226097   5.853   5.536   0.276
 8400SOL     OW26098   5.891   0.436   4.683
 8400SOL    HW126099   5.970   0.443   4.622
 8400SOL    HW226100   5.915   0.381   4.762
 8401SOL     OW26101   3.011   4.678   6.314
 8401SOL    HW126102   3.102   4.636   6.324
 8401SOL    HW226103   3.007   4.728   6.228
 8402SOL     OW26104   4.529   1.524   0.055
 8402SOL    HW126105   4.439   1.533   0.012
 8402SOL    HW226106   4.575   1.613   0.054
 8403SOL     OW26107   1.233   2.103   4.399
 8403SOL    HW126108   1.241   2.086   4.498
 8403SOL    HW226109   1.232   2.016   4.351
 8404SOL     OW26110   4.239   5.147   5.285
 8404SOL    HW126111   4.190   5.143   5.372
 8404SOL    HW226112   4.295   5.229   5.281
 8405SOL     OW26113   0.945   2.636   5.271
 8405SOL    HW126114   0.930   2.735   5.269
 8405SOL    HW226115   0.857   2.588   5.266
 8406SOL     OW26116   5.201   3.472   0.936
 8406SOL    HW126117   5.131   3.436   0.873
 8406SOL    HW226118   5.265   3.399   0.960
 8407SOL     OW26119   5.169   3.501   2.501
 8407SOL    HW126120   5.251   3.557   2.493
 8407SOL    HW226121   5.141   3.468   2.410
 8408SOL     OW26122   4.790   2.837   3.761
 8408SOL    HW126123   4.794   2.840   3.661
 8408SOL    HW226124   4.824   2.924   3.799
 8409SOL     OW26125   1.202   1.947   3.870
 8409SOL    HW126126   1.238   1.887   3.942
 8409SOL    HW226127   1.255   2.031   3.867
 8410SOL     OW26128   3.196   6.497   2.042
 8410SOL    HW126129   3.117   6.438   2.059
 8410SOL    HW226130   3.218   6.496   1.945
 8411SOL     OW26131   1.936   2.881   3.553
 8411SOL    HW126132   1.995   2.957   3.527
 8411SOL    HW226133   1.945   2.807   3.486
 8412SOL     OW26134   6.412   3.065   2.259
 8412SOL    HW126135   6.504   3.062   2.222
 8412SOL    HW226136   6.359   3.136   2.212
 8413SOL     OW26137   2.422   4.395   1.339
 8413SOL    HW126138   2.388   4.430   1.426
 8413SOL    HW226139   2.432   4.296   1.345
 8414SOL     OW26140   5.192   6.872   2.492
 8414SOL    HW126141   5.093   6.866   2.509
 8414SOL    HW226142   5.208   6.884   2.394
 8415SOL     OW26143   6.520   3.363   2.087
 8415SOL    HW126144   6.578   3.330   2.161
 8415SOL    HW226145   6.426   3.372   2.120
 8416SOL     OW26146   5.100   3.907   2.280
 8416SOL    HW126147   5.045   3.872   2.203
 8416SOL    HW226148   5.074   3.859   2.363
 8417SOL     OW26149   2.448   5.853   6.241
 8417SOL    HW126150   2.469   5.768   6.289
 8417SOL    HW226151   2.531   5.886   6.195
 8418SOL     OW26152   5.762   5.255   2.304
 8418SOL    HW126153   5.727   5.348   2.293
 8418SOL    HW226154   5.827   5.252   2.380
 8419SOL     OW26155   4.017   6.805   3.506
 8419SOL    HW126156   4.029   6.708   3.484
 8419SOL    HW226157   3.981   6.814   3.598
 8420SOL     OW26158   3.799   2.071   5.781
 8420SOL    HW126159   3.756   2.137   5.844
 8420SOL    HW226160   3.787   1.979   5.816
 8421SOL     OW26161   1.788   6.718   1.853
 8421SOL    HW126162   1.812   6.639   1.797
 8421SOL    HW226163   1.707   6.696   1.907
 8422SOL     OW26164   3.976   6.712   1.214
 8422SOL    HW126165   4.020   6.653   1.146
 8422SOL    HW226166   3.944   6.656   1.291
 8423SOL     OW26167   2.344   4.133   1.310
 8423SOL    HW126168   2.383   4.042   1.321
 8423SOL    HW226169   2.277   4.149   1.382
 8424SOL     OW26170   2.961   2.200   2.591
 8424SOL    HW126171   2.892   2.257   2.636
 8424SOL    HW226172   2.970   2.227   2.495
 8425SOL     OW26173   6.188   4.785   0.189
 8425SOL    HW126174   6.152   4.723   0.259
 8425SOL    HW226175   6.146   4.765   0.101
 8426SOL     OW26176   4.054   3.494   2.320
 8426SOL    HW126177   4.080   3.491   2.224
 8426SOL    HW226178   3.957   3.472   2.329
 8427SOL     OW26179   2.299   3.302   6.477
 8427SOL    HW126180   2.258   3.351   6.400
 8427SOL    HW226181   2.253   3.214   6.489
 8428SOL     OW26182   6.083   4.465   1.977
 8428SOL    HW126183   6.004   4.415   1.942
 8428SOL    HW226184   6.099   4.438   2.072
 8429SOL     OW26185   2.205   6.569   3.093
 8429SOL    HW126186   2.107   6.585   3.098
 8429SOL    HW226187   2.232   6.554   2.997
 8430SOL     OW26188   4.774   4.146   3.071
 8430SOL    HW126189   4.812   4.058   3.100
 8430SOL    HW226190   4.717   4.133   2.990
 8431SOL     OW26191   2.982   3.850   1.092
 8431SOL    HW126192   2.995   3.845   0.993
 8431SOL    HW226193   2.889   3.821   1.115
 8432SOL     OW26194   4.613   6.412   7.014
 8432SOL    HW126195   4.571   6.322   7.011
 8432SOL    HW226196   4.644   6.432   0.087
 8433SOL     OW26197   1.072   1.110   5.132
 8433SOL    HW126198   1.112   1.198   5.160
 8433SOL    HW226199   0.984   1.126   5.088
 8434SOL     OW26200   5.561   6.470   5.843
 8434SOL    HW126201   5.598   6.389   5.889
 8434SOL    HW226202   5.550   6.452   5.746
 8435SOL     OW26203   4.809   2.351   1.325
 8435SOL    HW126204   4.864   2.364   1.242
 8435SOL    HW226205   4.833   2.421   1.392
 8436SOL     OW26206   3.756   4.460   1.365
 8436SOL    HW126207   3.721   4.392   1.300
 8436SOL    HW226208   3.853   4.443   1.382
 8437SOL     OW26209   0.102   2.060   1.223
 8437SOL    HW126210   0.051   2.094   1.301
 8437SOL    HW226211   0.200   2.064   1.242
 8438SOL     OW26212   1.949   6.413   1.702
 8438SOL    HW126213   2.030   6.471   1.698
 8438SOL    HW226214   1.879   6.450   1.640
 8439SOL     OW26215   6.187   6.491   2.217
 8439SOL    HW126216   6.240   6.489   2.301
 8439SOL    HW226217   6.090   6.475   2.238
 8440SOL     OW26218   0.134   1.854   3.293
 8440SOL    HW126219   0.081   1.774   3.322
 8440SOL    HW226220   0.120   1.928   3.359
 8441SOL     OW26221   4.770   4.862   1.274
 8441SOL    HW126222   4.731   4.889   1.362
 8441SOL    HW226223   4.719   4.784   1.237
 8442SOL     OW26224   1.836   3.443   0.141
 8442SOL    HW126225   1.775   3.493   0.203
 8442SOL    HW226226   1.906   3.506   0.105
 8443SOL     OW26227   1.305   1.548   2.424
 8443SOL    HW126228   1.371   1.520   2.493
 8443SOL    HW226229   1.236   1.477   2.412
 8444SOL     OW26230   4.280   6.870   3.177
 8444SOL    HW126231   4.300   6.776   3.204
 8444SOL    HW226232   4.237   6.919   3.253
 8445SOL     OW26233   3.791   5.225   1.827
 8445SOL    HW126234   3.876   5.247   1.875
 8445SOL    HW226235   3.752   5.141   1.865
 8446SOL     OW26236   6.810   4.936   3.505
 8446SOL    HW126237   6.868   5.004   3.460
 8446SOL    HW226238   6.778   4.972   3.592
 8447SOL     OW26239   4.759   2.961   1.455
 8447SOL    HW126240   4.763   3.004   1.545
 8447SOL    HW226241   4.788   3.027   1.385
 8448SOL     OW26242   0.942   2.884   6.526
 8448SOL    HW126243   0.894   2.809   6.482
 8448SOL    HW226244   0.968   2.953   6.458
 8449SOL     OW26245   1.457   1.890   5.014
 8449SOL    HW126246   1.493   1.971   5.060
 8449SOL    HW226247   1.359   1.900   5.000
 8450SOL     OW26248   2.493   5.244   2.449
 8450SOL    HW126249   2.516   5.326   2.501
 8450SOL    HW226250   2.507   5.261   2.351
 8451SOL     OW26251   4.142   3.075   0.591
 8451SOL    HW126252   4.059   3.026   0.616
 8451SOL    HW226253   4.149   3.081   0.491
 8452SOL     OW26254   6.896   5.962   0.968
 8452SOL    HW126255   6.913   6.005   0.880
 8452SOL    HW226256   6.959   5.885   0.981
 8453SOL     OW26257   0.889   4.912   5.284
 8453SOL    HW126258   0.810   4.852   5.275
 8453SOL    HW226259   0.859   5.007   5.285
 8454SOL     OW26260   1.810   6.652   4.656
 8454SOL    HW126261   1.776   6.739   4.623
 8454SOL    HW226262   1.735   6.586   4.663
 8455SOL     OW26263   6.266   2.254   1.148
 8455SOL    HW126264   6.304   2.194   1.219
 8455SOL    HW226265   6.172   2.228   1.130
 8456SOL     OW26266   5.441   5.414   3.181
 8456SOL    HW126267   5.469   5.504   3.215
 8456SOL    HW226268   5.368   5.426   3.113
 8457SOL     OW26269   0.013   6.350   6.610
 8457SOL    HW126270   0.073   6.281   6.651
 8457SOL    HW226271   6.954   6.366   6.670
 8458SOL     OW26272   1.067   1.561   1.488
 8458SOL    HW126273   1.051   1.468   1.520
 8458SOL    HW226274   1.000   1.622   1.530
 8459SOL     OW26275   3.045   5.417   2.528
 8459SOL    HW126276   3.109   5.362   2.582
 8459SOL    HW226277   2.967   5.443   2.584
 8460SOL     OW26278   3.885   1.212   0.243
 8460SOL    HW126279   3.897   1.217   0.144
 8460SOL    HW226280   3.928   1.129   0.278
 8461SOL     OW26281   5.269   3.976   2.743
 8461SOL    HW126282   5.270   4.055   2.805
 8461SOL    HW226283   5.176   3.940   2.737
 8462SOL     OW26284   2.735   4.588   0.085
 8462SOL    HW126285   2.824   4.543   0.073
 8462SOL    HW226286   2.715   4.596   0.183
 8463SOL     OW26287   6.716   0.835   6.775
 8463SOL    HW126288   6.729   0.741   6.742
 8463SOL    HW226289   6.654   0.834   6.853
 8464SOL     OW26290   0.230   3.710   6.400
 8464SOL    HW126291   0.308   3.738   6.343
 8464SOL    HW226292   0.263   3.682   6.490
 8465SOL     OW26293   4.779   3.246   0.892
 8465SOL    HW126294   4.860   3.296   0.862
 8465SOL    HW226295   4.729   3.300   0.959
 8466SOL     OW26296   5.771   1.366   5.585
 8466SOL    HW126297   5.858   1.414   5.584
 8466SOL    HW226298   5.786   1.270   5.610
 8467SOL     OW26299   3.275   1.595   0.750
 8467SOL    HW126300   3.199   1.552   0.799
 8467SOL    HW226301   3.333   1.523   0.711
 8468SOL     OW26302   6.074   3.166   0.242
 8468SOL    HW126303   5.976   3.187   0.232
 8468SOL    HW226304   6.114   3.154   0.151
 8469SOL     OW26305   4.638   3.261   6.158
 8469SOL    HW126306   4.733   3.294   6.155
 8469SOL    HW226307   4.609   3.236   6.066
 8470SOL     OW26308   1.476   5.182   1.344
 8470SOL    HW126309   1.551   5.160   1.282
 8470SOL    HW226310   1.408   5.109   1.342
 8471SOL     OW26311   3.291   2.082   4.384
 8471SOL    HW126312   3.209   2.131   4.413
 8471SOL    HW226313   3.360   2.088   4.457
 8472SOL     OW26314   6.098   1.629   5.797
 8472SOL    HW126315   6.025   1.693   5.821
 8472SOL    HW226316   6.131   1.584   5.880
 8473SOL     OW26317   4.605   4.546   6.571
 8473SOL    HW126318   4.593   4.472   6.637
 8473SOL    HW226319   4.516   4.586   6.550
 8474SOL     OW26320   3.976   3.872   3.034
 8474SOL    HW126321   4.004   3.818   2.954
 8474SOL    HW226322   4.026   3.840   3.115
 8475SOL     OW26323   0.144   2.889   2.717
 8475SOL    HW126324   0.154   2.790   2.731
 8475SOL    HW226325   0.218   2.937   2.764
 8476SOL     OW26326   6.066   0.580   1.594
 8476SOL    HW126327   6.115   0.506   1.548
 8476SOL    HW226328   6.067   0.662   1.537
 8477SOL     OW26329   5.492   6.918   1.855
 8477SOL    HW126330   5.448   6.944   1.940
 8477SOL    HW226331   5.424   6.917   1.781
 8478SOL     OW26332   6.557   0.894   5.897
 8478SOL    HW126333   6.588   0.912   5.991
 8478SOL    HW226334   6.488   0.961   5.872
 8479SOL     OW26335   0.780   2.496   0.490
 8479SOL    HW126336   0.850   2.444   0.442
 8479SOL    HW226337   0.821   2.574   0.536
 8480SOL     OW26338   4.067   3.820   6.842
 8480SOL    HW126339   4.071   3.882   6.764
 8480SOL    HW226340   4.101   3.867   6.924
 8481SOL     OW26341   4.621   1.631   2.926
 8481SOL    HW126342   4.532   1.674   2.919
 8481SOL    HW226343   4.630   1.587   3.016
 8482SOL     OW26344   4.611   0.682   1.179
 8482SOL    HW126345   4.582   0.586   1.172
 8482SOL    HW226346   4.547   0.731   1.238
 8483SOL     OW26347   3.431   5.103   2.866
 8483SOL    HW126348   3.446   5.199   2.843
 8483SOL    HW226349   3.428   5.049   2.783
 8484SOL     OW26350   5.731   5.692   4.736
 8484SOL    HW126351   5.767   5.756   4.804
 8484SOL    HW226352   5.631   5.699   4.734
 8485SOL     OW26353   3.572   2.371   0.455
 8485SOL    HW126354   3.508   2.328   0.391
 8485SOL    HW226355   3.665   2.340   0.436
 8486SOL     OW26356   0.004   2.212   3.121
 8486SOL    HW126357   6.994   2.261   3.203
 8486SOL    HW226358   6.968   2.130   3.110
 8487SOL     OW26359   6.643   1.288   5.817
 8487SOL    HW126360   6.732   1.251   5.790
 8487SOL    HW226361   6.584   1.294   5.737
 8488SOL     OW26362   4.515   4.989   1.985
 8488SOL    HW126363   4.490   4.898   1.952
 8488SOL    HW226364   4.590   5.025   1.930
 8489SOL     OW26365   5.642   2.186   1.544
 8489SOL    HW126366   5.606   2.269   1.502
 8489SOL    HW226367   5.568   2.139   1.593
 8490SOL     OW26368   3.233   0.578   6.365
 8490SOL    HW126369   3.244   0.537   6.275
 8490SOL    HW226370   3.136   0.587   6.387
 8491SOL     OW26371   3.031   5.928   2.023
 8491SOL    HW126372   3.125   5.931   1.989
 8491SOL    HW226373   2.969   5.909   1.947
 8492SOL     OW26374   6.284   6.238   4.374
 8492SOL    HW126375   6.272   6.140   4.358
 8492SOL    HW226376   6.235   6.290   4.304
 8493SOL     OW26377   4.686   1.345   6.911
 8493SOL    HW126378   4.632   1.405   6.971
 8493SOL    HW226379   4.726   1.399   6.837
 8494SOL     OW26380   6.556   4.754   2.388
 8494SOL    HW126381   6.536   4.656   2.385
 8494SOL    HW226382   6.650   4.769   2.418
 8495SOL     OW26383   6.182   5.524   6.140
 8495SOL    HW126384   6.210   5.576   6.221
 8495SOL    HW226385   6.108   5.461   6.165
 8496SOL     OW26386   5.657   3.150   2.244
 8496SOL    HW126387   5.598   3.228   2.266
 8496SOL    HW226388   5.617   3.066   2.280
 8497SOL     OW26389   6.702   0.824   3.757
 8497SOL    HW126390   6.700   0.744   3.697
 8497SOL    HW226391   6.668   0.799   3.848
 8498SOL     OW26392   4.703   6.936   3.744
 8498SOL    HW126393   4.670   7.016   3.794
 8498SOL    HW226394   4.701   6.856   3.805
 8499SOL     OW26395   5.817   6.450   5.614
 8499SOL    HW126396   5.818   6.484   5.708
 8499SOL    HW226397   5.842   6.524   5.552
 8500SOL     OW26398   0.625   0.890   5.612
 8500SOL    HW126399   0.565   0.879   5.533
 8500SOL    HW226400   0.577   0.860   5.694
 8501SOL     OW26401   1.022   1.838   6.718
 8501SOL    HW126402   1.056   1.900   6.647
 8501SOL    HW226403   1.058   1.746   6.703
 8502SOL     OW26404   0.610   4.422   0.013
 8502SOL    HW126405   0.549   4.355   6.990
 8502SOL    HW226406   0.677   4.374   0.069
 8503SOL     OW26407   5.139   0.684   4.671
 8503SOL    HW126408   5.078   0.709   4.596
 8503SOL    HW226409   5.111   0.732   4.754
 8504SOL     OW26410   1.181   0.078   1.902
 8504SOL    HW126411   1.092   0.122   1.899
 8504SOL    HW226412   1.228   0.102   1.987
 8505SOL     OW26413   5.115   3.048   2.688
 8505SOL    HW126414   5.034   2.991   2.679
 8505SOL    HW226415   5.196   2.990   2.699
 8506SOL     OW26416   1.405   0.435   5.944
 8506SOL    HW126417   1.446   0.457   5.855
 8506SOL    HW226418   1.395   0.336   5.952
 8507SOL     OW26419   3.343   6.161   5.375
 8507SOL    HW126420   3.434   6.167   5.416
 8507SOL    HW226421   3.335   6.228   5.302
 8508SOL     OW26422   3.057   1.690   6.572
 8508SOL    HW126423   3.129   1.631   6.609
 8508SOL    HW226424   3.088   1.785   6.574
 8509SOL     OW26425   5.805   1.855   2.914
 8509SOL    HW126426   5.743   1.930   2.937
 8509SOL    HW226427   5.830   1.805   2.997
 8510SOL     OW26428   6.908   2.446   4.415
 8510SOL    HW126429   6.986   2.384   4.403
 8510SOL    HW226430   6.845   2.408   4.482
 8511SOL     OW26431   5.212   2.546   2.322
 8511SOL    HW126432   5.301   2.533   2.365
 8511SOL    HW226433   5.141   2.552   2.392
 8512SOL     OW26434   1.762   6.623   5.949
 8512SOL    HW126435   1.794   6.677   5.871
 8512SOL    HW226436   1.675   6.579   5.926
 8513SOL     OW26437   4.833   0.027   6.286
 8513SOL    HW126438   4.877   6.974   6.339
 8513SOL    HW226439   4.750   7.011   6.244
 8514SOL     OW26440   3.199   5.960   4.322
 8514SOL    HW126441   3.187   5.892   4.250
 8514SOL    HW226442   3.110   5.998   4.348
 8515SOL     OW26443   5.885   1.769   0.533
 8515SOL    HW126444   5.810   1.817   0.577
 8515SOL    HW226445   5.869   1.671   0.536
 8516SOL     OW26446   0.413   2.107   2.309
 8516SOL    HW126447   0.434   2.205   2.312
 8516SOL    HW226448   0.344   2.090   2.239
 8517SOL     OW26449   0.831   3.887   0.680
 8517SOL    HW126450   0.911   3.863   0.625
 8517SOL    HW226451   0.847   3.976   0.724
 8518SOL     OW26452   3.187   5.583   0.788
 8518SOL    HW126453   3.147   5.573   0.880
 8518SOL    HW226454   3.260   5.516   0.775
 8519SOL     OW26455   1.628   5.187   2.790
 8519SOL    HW126456   1.678   5.126   2.729
 8519SOL    HW226457   1.564   5.242   2.737
 8520SOL     OW26458   3.091   0.392   6.828
 8520SOL    HW126459   3.174   0.410   6.776
 8520SOL    HW226460   3.094   0.300   6.865
 8521SOL     OW26461   0.987   0.081   0.081
 8521SOL    HW126462   0.928   0.144   0.130
 8521SOL    HW226463   0.996   0.111   7.006
 8522SOL     OW26464   1.875   6.017   4.858
 8522SOL    HW126465   1.878   6.052   4.765
 8522SOL    HW226466   1.958   6.045   4.907
 8523SOL     OW26467   1.233   6.988   0.122
 8523SOL    HW126468   1.266   6.923   0.053
 8523SOL    HW226469   1.140   7.015   0.101
 8524SOL     OW26470   1.635   2.470   6.196
 8524SOL    HW126471   1.570   2.546   6.186
 8524SOL    HW226472   1.658   2.457   6.292
 8525SOL     OW26473   5.146   3.236   3.172
 8525SOL    HW126474   5.184   3.327   3.189
 8525SOL    HW226475   5.149   3.182   3.256
 8526SOL     OW26476   2.140   3.007   1.900
 8526SOL    HW126477   2.080   3.068   1.953
 8526SOL    HW226478   2.211   3.061   1.855
 8527SOL     OW26479   4.109   6.778   4.027
 8527SOL    HW126480   4.155   6.837   3.961
 8527SOL    HW226481   4.143   6.798   4.119
 8528SOL     OW26482   4.991   2.709   6.948
 8528SOL    HW126483   4.947   2.658   0.002
 8528SOL    HW226484   5.044   2.647   6.891
 8529SOL     OW26485   0.197   4.996   6.969
 8529SOL    HW126486   0.219   4.929   6.898
 8529SOL    HW226487   0.198   4.951   0.039
 8530SOL     OW26488   1.717   3.253   5.645
 8530SOL    HW126489   1.664   3.336   5.666
 8530SOL    HW226490   1.693   3.181   5.711
 8531SOL     OW26491   3.923   4.799   2.021
 8531SOL    HW126492   3.859   4.874   2.001
 8531SOL    HW226493   3.918   4.776   2.118
 8532SOL     OW26494   1.685   4.221   6.509
 8532SOL    HW126495   1.675   4.221   6.608
 8532SOL    HW226496   1.656   4.309   6.472
 8533SOL     OW26497   3.995   0.798   5.832
 8533SOL    HW126498   4.081   0.829   5.791
 8533SOL    HW226499   3.919   0.817   5.770
 8534SOL     OW26500   2.236   2.858   3.065
 8534SOL    HW126501   2.259   2.867   2.968
 8534SOL    HW226502   2.208   2.763   3.084
 8535SOL     OW26503   6.476   3.371   4.122
 8535SOL    HW126504   6.425   3.420   4.193
 8535SOL    HW226505   6.420   3.296   4.087
 8536SOL     OW26506   0.188   0.886   4.214
 8536SOL    HW126507   0.202   0.787   4.223
 8536SOL    HW226508   0.275   0.930   4.193
 8537SOL     OW26509   5.779   6.808   2.654
 8537SOL    HW126510   5.829   6.745   2.594
 8537SOL    HW226511   5.727   6.757   2.722
 8538SOL     OW26512   5.543   0.942   4.884
 8538SOL    HW126513   5.462   0.997   4.864
 8538SOL    HW226514   5.547   0.924   4.983
 8539SOL     OW26515   0.052   3.376   3.039
 8539SOL    HW126516   6.981   3.394   3.001
 8539SOL    HW226517   0.070   3.277   3.034
 8540SOL     OW26518   3.675   0.691   0.206
 8540SOL    HW126519   3.590   0.701   0.153
 8540SOL    HW226520   3.747   0.745   0.164
 8541SOL     OW26521   3.039   6.849   5.093
 8541SOL    HW126522   2.944   6.859   5.121
 8541SOL    HW226523   3.098   6.847   5.173
 8542SOL     OW26524   1.209   5.970   6.137
 8542SOL    HW126525   1.188   5.960   6.234
 8542SOL    HW226526   1.125   5.987   6.086
 8543SOL     OW26527   2.524   2.648   5.824
 8543SOL    HW126528   2.527   2.653   5.724
 8543SOL    HW226529   2.513   2.739   5.862
 8544SOL     OW26530   5.614   4.861   5.707
 8544SOL    HW126531   5.698   4.814   5.734
 8544SOL    HW226532   5.558   4.879   5.788
 8545SOL     OW26533   2.700   0.133   6.430
 8545SOL    HW126534   2.678   0.194   6.506
 8545SOL    HW226535   2.734   0.188   6.353
 8546SOL     OW26536   4.727   0.920   2.904
 8546SOL    HW126537   4.694   1.015   2.899
 8546SOL    HW226538   4.809   0.911   2.847
 8547SOL     OW26539   5.765   6.249   5.922
 8547SOL    HW126540   5.778   6.231   5.825
 8547SOL    HW226541   5.851   6.277   5.963
 8548SOL     OW26542   0.945   3.588   5.132
 8548SOL    HW126543   0.994   3.601   5.218
 8548SOL    HW226544   1.011   3.584   5.057
 8549SOL     OW26545   1.604   0.125   4.214
 8549SOL    HW126546   1.667   0.048   4.227
 8549SOL    HW226547   1.641   0.206   4.260
 8550SOL     OW26548   6.589   5.131   5.983
 8550SOL    HW126549   6.607   5.229   5.990
 8550SOL    HW226550   6.547   5.099   6.069
 8551SOL     OW26551   2.329   0.389   5.925
 8551SOL    HW126552   2.345   0.318   5.993
 8551SOL    HW226553   2.233   0.415   5.926
 8552SOL     OW26554   2.789   1.736   2.452
 8552SOL    HW126555   2.697   1.771   2.470
 8552SOL    HW226556   2.857   1.799   2.489
 8553SOL     OW26557   5.217   4.032   6.810
 8553SOL    HW126558   5.283   4.106   6.815
 8553SOL    HW226559   5.216   3.982   6.897
 8554SOL     OW26560   2.197   1.159   0.536
 8554SOL    HW126561   2.117   1.129   0.484
 8554SOL    HW226562   2.168   1.200   0.622
 8555SOL     OW26563   3.417   1.873   4.111
 8555SOL    HW126564   3.337   1.923   4.143
 8555SOL    HW226565   3.496   1.898   4.167
 8556SOL     OW26566   1.056   5.725   6.600
 8556SOL    HW126567   1.123   5.782   6.552
 8556SOL    HW226568   0.967   5.770   6.599
 8557SOL     OW26569   6.690   0.954   6.516
 8557SOL    HW126570   6.642   0.876   6.477
 8557SOL    HW226571   6.710   0.936   6.612
 8558SOL     OW26572   2.905   6.262   4.176
 8558SOL    HW126573   2.971   6.199   4.135
 8558SOL    HW226574   2.871   6.325   4.106
 8559SOL     OW26575   2.070   4.810   2.789
 8559SOL    HW126576   2.160   4.842   2.818
 8559SOL    HW226577   2.001   4.835   2.857
 8560SOL     OW26578   2.529   4.720   0.640
 8560SOL    HW126579   2.493   4.709   0.547
 8560SOL    HW226580   2.456   4.705   0.706
 8561SOL     OW26581   3.883   0.665   3.212
 8561SOL    HW126582   3.973   0.706   3.200
 8561SOL    HW226583   3.816   0.718   3.160
 8562SOL     OW26584   5.605   2.197   0.345
 8562SOL    HW126585   5.630   2.294   0.346
 8562SOL    HW226586   5.560   2.174   0.258
 8563SOL     OW26587   2.801   5.230   2.480
 8563SOL    HW126588   2.730   5.162   2.464
 8563SOL    HW226589   2.861   5.199   2.554
 8564SOL     OW26590   3.985   0.040   0.249
 8564SOL    HW126591   3.892   0.053   0.215
 8564SOL    HW226592   4.007   6.963   0.250
 8565SOL     OW26593   1.965   4.710   1.409
 8565SOL    HW126594   2.024   4.784   1.377
 8565SOL    HW226595   1.877   4.715   1.363
 8566SOL     OW26596   3.035   0.997   2.086
 8566SOL    HW126597   3.055   0.903   2.114
 8566SOL    HW226598   3.093   1.060   2.138
 8567SOL     OW26599   1.729   3.060   2.394
 8567SOL    HW126600   1.767   3.143   2.352
 8567SOL    HW226601   1.726   3.071   2.493
 8568SOL     OW26602   6.195   0.462   6.441
 8568SOL    HW126603   6.159   0.438   6.351
 8568SOL    HW226604   6.145   0.541   6.477
 8569SOL     OW26605   4.432   2.308   0.498
 8569SOL    HW126606   4.405   2.237   0.432
 8569SOL    HW226607   4.417   2.398   0.456
 8570SOL     OW26608   1.850   2.629   1.784
 8570SOL    HW126609   1.754   2.615   1.810
 8570SOL    HW226610   1.909   2.573   1.841
 8571SOL     OW26611   1.619   0.705   3.177
 8571SOL    HW126612   1.645   0.778   3.240
 8571SOL    HW226613   1.569   0.634   3.227
 8572SOL     OW26614   2.581   4.203   5.585
 8572SOL    HW126615   2.598   4.298   5.559
 8572SOL    HW226616   2.540   4.199   5.676
 8573SOL     OW26617   3.218   6.699   0.297
 8573SOL    HW126618   3.224   6.798   0.308
 8573SOL    HW226619   3.286   6.655   0.356
 8574SOL     OW26620   4.573   0.775   5.277
 8574SOL    HW126621   4.646   0.828   5.321
 8574SOL    HW226622   4.613   0.694   5.232
 8575SOL     OW26623   3.280   6.119   3.330
 8575SOL    HW126624   3.181   6.119   3.313
 8575SOL    HW226625   3.297   6.105   3.427
 8576SOL     OW26626   1.815   4.659   4.227
 8576SOL    HW126627   1.742   4.630   4.288
 8576SOL    HW226628   1.789   4.745   4.182
 8577SOL     OW26629   1.564   1.459   0.678
 8577SOL    HW126630   1.632   1.531   0.663
 8577SOL    HW226631   1.473   1.493   0.654
 8578SOL     OW26632   0.402   0.250   6.229
 8578SOL    HW126633   0.399   0.178   6.160
 8578SOL    HW226634   0.324   0.239   6.291
 8579SOL     OW26635   2.914   6.476   2.421
 8579SOL    HW126636   2.909   6.524   2.333
 8579SOL    HW226637   3.002   6.497   2.464
 8580SOL     OW26638   1.628   0.641   1.488
 8580SOL    HW126639   1.590   0.550   1.468
 8580SOL    HW226640   1.556   0.700   1.523
 8581SOL     OW26641   3.428   4.867   1.191
 8581SOL    HW126642   3.448   4.955   1.234
 8581SOL    HW226643   3.469   4.793   1.245
 8582SOL     OW26644   3.657   5.286   5.657
 8582SOL    HW126645   3.744   5.243   5.678
 8582SOL    HW226646   3.584   5.218   5.659
 8583SOL     OW26647   3.931   6.979   2.491
 8583SOL    HW126648   3.867   6.914   2.450
 8583SOL    HW226649   3.991   7.016   2.420
 8584SOL     OW26650   6.491   1.832   4.586
 8584SOL    HW126651   6.439   1.904   4.632
 8584SOL    HW226652   6.428   1.771   4.539
 8585SOL     OW26653   5.470   2.528   2.869
 8585SOL    HW126654   5.405   2.527   2.945
 8585SOL    HW226655   5.428   2.572   2.790
 8586SOL     OW26656   6.685   6.320   0.274
 8586SOL    HW126657   6.699   6.226   0.307
 8586SOL    HW226658   6.619   6.366   0.333
 8587SOL     OW26659   0.171   1.822   0.304
 8587SOL    HW126660   0.223   1.870   0.375
 8587SOL    HW226661   0.117   1.889   0.252
 8588SOL     OW26662   2.600   1.395   5.996
 8588SOL    HW126663   2.503   1.411   5.981
 8588SOL    HW226664   2.612   1.325   6.066
 8589SOL     OW26665   6.519   3.658   6.821
 8589SOL    HW126666   6.555   3.618   6.737
 8589SOL    HW226667   6.494   3.585   6.884
 8590SOL     OW26668   0.602   0.584   4.069
 8590SOL    HW126669   0.656   0.668   4.058
 8590SOL    HW226670   0.531   0.581   3.999
 8591SOL     OW26671   6.732   4.623   6.597
 8591SOL    HW126672   6.635   4.613   6.578
 8591SOL    HW226673   6.769   4.536   6.631
 8592SOL     OW26674   0.401   1.753   4.937
 8592SOL    HW126675   0.424   1.656   4.934
 8592SOL    HW226676   0.476   1.803   4.980
 8593SOL     OW26677   4.955   1.661   6.882
 8593SOL    HW126678   4.960   1.584   6.818
 8593SOL    HW226679   4.958   1.747   6.831
 8594SOL     OW26680   6.573   3.109   5.929
 8594SOL    HW126681   6.533   3.198   5.907
 8594SOL    HW226682   6.503   3.049   5.967
 8595SOL     OW26683   6.209   6.363   3.061
 8595SOL    HW126684   6.202   6.415   3.146
 8595SOL    HW226685   6.121   6.322   3.039
 8596SOL     OW26686   0.740   1.489   3.941
 8596SOL    HW126687   0.834   1.502   3.908
 8596SOL    HW226688   0.702   1.576   3.971
 8597SOL     OW26689   5.999   3.275   5.597
 8597SOL    HW126690   6.043   3.347   5.650
 8597SOL    HW226691   5.993   3.191   5.653
 8598SOL     OW26692   6.386   0.025   4.808
 8598SOL    HW126693   6.440   0.105   4.836
 8598SOL    HW226694   6.435   6.996   4.736
 8599SOL     OW26695   7.005   3.852   3.831
 8599SOL    HW126696   7.016   3.880   3.736
 8599SOL    HW226697   6.910   3.867   3.860
 8600SOL     OW26698   4.761   2.210   0.632
 8600SOL    HW126699   4.679   2.227   0.687
 8600SOL    HW226700   4.773   2.111   0.619
 8601SOL     OW26701   7.001   6.135   3.774
 8601SOL    HW126702   0.029   6.113   3.689
 8601SOL    HW226703   7.019   6.064   3.842
 8602SOL     OW26704   2.029   6.000   5.840
 8602SOL    HW126705   1.937   5.962   5.848
 8602SOL    HW226706   2.034   6.085   5.894
 8603SOL     OW26707   0.342   0.296   0.120
 8603SOL    HW126708   0.259   0.336   0.160
 8603SOL    HW226709   0.316   0.231   0.049
 8604SOL     OW26710   0.756   4.774   6.391
 8604SOL    HW126711   0.709   4.691   6.420
 8604SOL    HW226712   0.855   4.760   6.398
 8605SOL     OW26713   0.162   4.679   4.786
 8605SOL    HW126714   0.219   4.749   4.745
 8605SOL    HW226715   0.145   4.702   4.882
 8606SOL     OW26716   1.711   2.395   0.484
 8606SOL    HW126717   1.770   2.433   0.412
 8606SOL    HW226718   1.761   2.393   0.570
 8607SOL     OW26719   2.166   3.832   1.547
 8607SOL    HW126720   2.147   3.912   1.490
 8607SOL    HW226721   2.179   3.861   1.642
 8608SOL     OW26722   1.934   5.321   2.858
 8608SOL    HW126723   1.947   5.353   2.764
 8608SOL    HW226724   1.853   5.263   2.862
 8609SOL     OW26725   3.727   1.878   4.195
 8609SOL    HW126726   3.778   1.955   4.234
 8609SOL    HW226727   3.788   1.821   4.140
 8610SOL     OW26728   6.800   6.180   3.233
 8610SOL    HW126729   6.878   6.148   3.180
 8610SOL    HW226730   6.716   6.139   3.196
 8611SOL     OW26731   2.435   0.920   4.926
 8611SOL    HW126732   2.369   0.847   4.940
 8611SOL    HW226733   2.389   1.008   4.931
 8612SOL     OW26734   3.025   3.074   4.412
 8612SOL    HW126735   2.933   3.034   4.413
 8612SOL    HW226736   3.065   3.063   4.321
 8613SOL     OW26737   4.016   3.241   2.435
 8613SOL    HW126738   3.982   3.150   2.413
 8613SOL    HW226739   4.069   3.276   2.358
 8614SOL     OW26740   1.340   2.075   3.069
 8614SOL    HW126741   1.329   2.171   3.095
 8614SOL    HW226742   1.324   2.065   2.971
 8615SOL     OW26743   3.603   1.248   4.548
 8615SOL    HW126744   3.620   1.272   4.644
 8615SOL    HW226745   3.511   1.277   4.523
 8616SOL     OW26746   5.779   4.568   4.024
 8616SOL    HW126747   5.798   4.664   4.045
 8616SOL    HW226748   5.753   4.559   3.928
 8617SOL     OW26749   2.463   0.399   3.591
 8617SOL    HW126750   2.386   0.461   3.577
 8617SOL    HW226751   2.434   0.305   3.572
 8618SOL     OW26752   5.768   3.812   1.192
 8618SOL    HW126753   5.816   3.736   1.147
 8618SOL    HW226754   5.833   3.886   1.211
 8619SOL     OW26755   4.982   4.750   0.301
 8619SOL    HW126756   4.892   4.749   0.344
 8619SOL    HW226757   5.026   4.838   0.317
 8620SOL     OW26758   2.279   0.409   4.380
 8620SOL    HW126759   2.249   0.382   4.288
 8620SOL    HW226760   2.256   0.337   4.445
 8621SOL     OW26761   5.547   2.927   1.598
 8621SOL    HW126762   5.539   2.955   1.693
 8621SOL    HW226763   5.562   2.829   1.592
 8622SOL     OW26764   0.051   5.252   2.358
 8622SOL    HW126765   0.010   5.235   2.448
 8622SOL    HW226766   0.144   5.216   2.358
 8623SOL     OW26767   1.086   3.147   4.564
 8623SOL    HW126768   1.130   3.153   4.475
 8623SOL    HW226769   1.118   3.065   4.612
 8624SOL     OW26770   3.156   3.935   4.925
 8624SOL    HW126771   3.108   3.970   5.006
 8624SOL    HW226772   3.095   3.940   4.846
 8625SOL     OW26773   4.021   2.826   5.509
 8625SOL    HW126774   4.030   2.809   5.411
 8625SOL    HW226775   3.992   2.920   5.525
 8626SOL     OW26776   3.941   3.020   0.897
 8626SOL    HW126777   3.912   2.927   0.922
 8626SOL    HW226778   3.876   3.058   0.830
 8627SOL     OW26779   1.810   1.165   2.440
 8627SOL    HW126780   1.748   1.208   2.505
 8627SOL    HW226781   1.842   1.233   2.374
 8628SOL     OW26782   0.237   6.158   0.634
 8628SOL    HW126783   0.313   6.174   0.697
 8628SOL    HW226784   0.228   6.236   0.572
 8629SOL     OW26785   6.801   6.566   5.345
 8629SOL    HW126786   6.803   6.548   5.247
 8629SOL    HW226787   6.858   6.498   5.393
 8630SOL     OW26788   4.795   2.909   2.228
 8630SOL    HW126789   4.744   2.946   2.305
 8630SOL    HW226790   4.753   2.938   2.143
 8631SOL     OW26791   2.849   6.595   6.324
 8631SOL    HW126792   2.792   6.630   6.398
 8631SOL    HW226793   2.939   6.637   6.328
 8632SOL     OW26794   5.460   5.260   4.680
 8632SOL    HW126795   5.362   5.243   4.693
 8632SOL    HW226796   5.490   5.333   4.741
 8633SOL     OW26797   5.930   4.173   5.424
 8633SOL    HW126798   6.020   4.195   5.462
 8633SOL    HW226799   5.903   4.244   5.359
 8634SOL     OW26800   4.321   3.097   0.176
 8634SOL    HW126801   4.286   3.029   0.113
 8634SOL    HW226802   4.421   3.099   0.172
 8635SOL     OW26803   5.028   2.619   5.917
 8635SOL    HW126804   5.006   2.712   5.888
 8635SOL    HW226805   4.947   2.577   5.959
 8636SOL     OW26806   4.445   6.653   1.827
 8636SOL    HW126807   4.474   6.680   1.735
 8636SOL    HW226808   4.345   6.649   1.831
 8637SOL     OW26809   2.236   2.162   6.446
 8637SOL    HW126810   2.170   2.140   6.518
 8637SOL    HW226811   2.198   2.135   6.357
 8638SOL     OW26812   4.864   2.825   3.459
 8638SOL    HW126813   4.959   2.856   3.453
 8638SOL    HW226814   4.816   2.847   3.374
 8639SOL     OW26815   3.648   3.639   0.199
 8639SOL    HW126816   3.642   3.678   0.291
 8639SOL    HW226817   3.672   3.710   0.133
 8640SOL     OW26818   3.111   2.659   0.601
 8640SOL    HW126819   3.165   2.585   0.560
 8640SOL    HW226820   3.122   2.657   0.701
 8641SOL     OW26821   4.594   5.285   1.782
 8641SOL    HW126822   4.560   5.313   1.872
 8641SOL    HW226823   4.545   5.204   1.751
 8642SOL     OW26824   1.269   5.244   3.380
 8642SOL    HW126825   1.278   5.273   3.285
 8642SOL    HW226826   1.318   5.308   3.439
 8643SOL     OW26827   3.833   6.186   1.047
 8643SOL    HW126828   3.857   6.216   1.139
 8643SOL    HW226829   3.780   6.258   1.001
 8644SOL     OW26830   6.171   2.085   6.279
 8644SOL    HW126831   6.084   2.055   6.319
 8644SOL    HW226832   6.246   2.033   6.320
 8645SOL     OW26833   5.865   4.631   3.095
 8645SOL    HW126834   5.844   4.729   3.089
 8645SOL    HW226835   5.780   4.579   3.082
 8646SOL     OW26836   6.629   2.185   5.112
 8646SOL    HW126837   6.582   2.221   5.192
 8646SOL    HW226838   6.668   2.261   5.059
 8647SOL     OW26839   2.164   5.539   1.953
 8647SOL    HW126840   2.201   5.479   1.882
 8647SOL    HW226841   2.180   5.497   2.043
 8648SOL     OW26842   4.931   4.494   0.687
 8648SOL    HW126843   5.030   4.507   0.694
 8648SOL    HW226844   4.912   4.421   0.622
 8649SOL     OW26845   5.019   0.576   0.571
 8649SOL    HW126846   4.951   0.619   0.512
 8649SOL    HW226847   5.025   0.479   0.551
 8650SOL     OW26848   2.307   6.724   5.599
 8650SOL    HW126849   2.222   6.674   5.615
 8650SOL    HW226850   2.364   6.674   5.534
 8651SOL     OW26851   4.325   2.322   1.726
 8651SOL    HW126852   4.354   2.388   1.795
 8651SOL    HW226853   4.272   2.369   1.656
 8652SOL     OW26854   1.328   2.945   3.964
 8652SOL    HW126855   1.298   2.873   3.901
 8652SOL    HW226856   1.250   2.974   4.020
 8653SOL     OW26857   6.281   1.625   6.596
 8653SOL    HW126858   6.269   1.674   6.682
 8653SOL    HW226859   6.379   1.618   6.575
 8654SOL     OW26860   0.356   4.646   2.323
 8654SOL    HW126861   0.436   4.690   2.365
 8654SOL    HW226862   0.295   4.717   2.287
 8655SOL     OW26863   0.307   0.990   4.509
 8655SOL    HW126864   0.306   0.950   4.417
 8655SOL    HW226865   0.383   0.952   4.561
 8656SOL     OW26866   5.025   0.159   1.194
 8656SOL    HW126867   4.973   0.167   1.109
 8656SOL    HW226868   4.973   0.198   1.269
 8657SOL     OW26869   4.103   0.857   3.077
 8657SOL    HW126870   4.199   0.885   3.079
 8657SOL    HW226871   4.074   0.843   2.983
 8658SOL     OW26872   5.859   4.409   0.670
 8658SOL    HW126873   5.812   4.364   0.746
 8658SOL    HW226874   5.802   4.405   0.588
 8659SOL     OW26875   3.159   0.924   2.668
 8659SOL    HW126876   3.112   1.011   2.682
 8659SOL    HW226877   3.172   0.908   2.570
 8660SOL     OW26878   0.396   4.408   1.902
 8660SOL    HW126879   0.421   4.441   1.993
 8660SOL    HW226880   0.467   4.431   1.836
 8661SOL     OW26881   6.455   3.792   2.419
 8661SOL    HW126882   6.526   3.765   2.355
 8661SOL    HW226883   6.375   3.734   2.407
 8662SOL     OW26884   1.639   4.145   3.681
 8662SOL    HW126885   1.597   4.198   3.754
 8662SOL    HW226886   1.658   4.053   3.713
 8663SOL     OW26887   4.265   5.410   2.324
 8663SOL    HW126888   4.192   5.438   2.261
 8663SOL    HW226889   4.280   5.482   2.392
 8664SOL     OW26890   3.858   6.085   3.401
 8664SOL    HW126891   3.773   6.103   3.451
 8664SOL    HW226892   3.932   6.066   3.465
 8665SOL     OW26893   5.549   3.553   6.864
 8665SOL    HW126894   5.632   3.511   6.825
 8665SOL    HW226895   5.468   3.513   6.820
 8666SOL     OW26896   4.671   7.001   2.161
 8666SOL    HW126897   4.683   0.074   2.197
 8666SOL    HW226898   4.574   6.984   2.144
 8667SOL     OW26899   4.957   2.208   2.864
 8667SOL    HW126900   5.010   2.129   2.893
 8667SOL    HW226901   4.971   2.225   2.766
 8668SOL     OW26902   4.948   2.540   4.780
 8668SOL    HW126903   5.006   2.464   4.809
 8668SOL    HW226904   4.863   2.539   4.833
 8669SOL     OW26905   6.381   6.218   6.740
 8669SOL    HW126906   6.374   6.151   6.667
 8669SOL    HW226907   6.361   6.174   6.828
 8670SOL     OW26908   6.523   4.493   5.871
 8670SOL    HW126909   6.535   4.592   5.880
 8670SOL    HW226910   6.457   4.461   5.939
 8671SOL     OW26911   0.810   3.184   3.077
 8671SOL    HW126912   0.835   3.105   3.021
 8671SOL    HW226913   0.845   3.171   3.170
 8672SOL     OW26914   0.402   0.944   2.666
 8672SOL    HW126915   0.335   0.886   2.712
 8672SOL    HW226916   0.492   0.930   2.707
 8673SOL     OW26917   0.636   1.994   1.144
 8673SOL    HW126918   0.697   1.917   1.163
 8673SOL    HW226919   0.661   2.071   1.203
 8674SOL     OW26920   6.982   3.987   3.607
 8674SOL    HW126921   7.002   3.911   3.545
 8674SOL    HW226922   6.888   3.978   3.641
 8675SOL     OW26923   3.737   2.041   4.897
 8675SOL    HW126924   3.724   1.982   4.818
 8675SOL    HW226925   3.833   2.036   4.927
 8676SOL     OW26926   5.535   1.225   1.029
 8676SOL    HW126927   5.541   1.182   0.938
 8676SOL    HW226928   5.452   1.195   1.075
 8677SOL     OW26929   2.118   6.985   6.219
 8677SOL    HW126930   2.211   6.949   6.229
 8677SOL    HW226931   2.052   6.919   6.257
 8678SOL     OW26932   1.386   2.019   0.621
 8678SOL    HW126933   1.469   2.074   0.632
 8678SOL    HW226934   1.408   1.922   0.636
 8679SOL     OW26935   1.526   2.291   5.910
 8679SOL    HW126936   1.464   2.222   5.871
 8679SOL    HW226937   1.615   2.286   5.863
 8680SOL     OW26938   6.510   0.772   6.983
 8680SOL    HW126939   6.533   0.786   0.059
 8680SOL    HW226940   6.412   0.786   6.970
 8681SOL     OW26941   5.712   6.525   1.551
 8681SOL    HW126942   5.619   6.527   1.515
 8681SOL    HW226943   5.775   6.564   1.483
 8682SOL     OW26944   1.875   0.821   1.754
 8682SOL    HW126945   1.775   0.815   1.743
 8682SOL    HW226946   1.895   0.856   1.846
 8683SOL     OW26947   2.235   4.632   4.669
 8683SOL    HW126948   2.289   4.573   4.728
 8683SOL    HW226949   2.291   4.708   4.636
 8684SOL     OW26950   2.402   4.389   4.077
 8684SOL    HW126951   2.362   4.307   4.036
 8684SOL    HW226952   2.348   4.469   4.051
 8685SOL     OW26953   4.797   2.373   4.577
 8685SOL    HW126954   4.782   2.446   4.644
 8685SOL    HW226955   4.856   2.303   4.617
 8686SOL     OW26956   0.895   5.070   3.227
 8686SOL    HW126957   0.926   5.053   3.133
 8686SOL    HW226958   0.839   5.153   3.229
 8687SOL     OW26959   5.311   4.378   6.139
 8687SOL    HW126960   5.383   4.337   6.083
 8687SOL    HW226961   5.285   4.315   6.212
 8688SOL     OW26962   1.241   3.947   4.947
 8688SOL    HW126963   1.317   4.008   4.968
 8688SOL    HW226964   1.221   3.951   4.849
 8689SOL     OW26965   3.885   3.419   6.479
 8689SOL    HW126966   3.908   3.473   6.560
 8689SOL    HW226967   3.794   3.445   6.447
 8690SOL     OW26968   1.580   2.369   2.922
 8690SOL    HW126969   1.623   2.397   2.837
 8690SOL    HW226970   1.487   2.406   2.927
 8691SOL     OW26971   3.591   2.331   5.496
 8691SOL    HW126972   3.678   2.303   5.455
 8691SOL    HW226973   3.516   2.304   5.435
 8692SOL     OW26974   4.550   1.823   5.270
 8692SOL    HW126975   4.502   1.855   5.352
 8692SOL    HW226976   4.648   1.841   5.280
 8693SOL     OW26977   6.574   0.111   6.130
 8693SOL    HW126978   6.638   0.172   6.083
 8693SOL    HW226979   6.484   0.155   6.134
 8694SOL     OW26980   5.008   2.944   5.154
 8694SOL    HW126981   5.053   2.905   5.234
 8694SOL    HW226982   5.076   2.965   5.084
 8695SOL     OW26983   3.619   4.510   6.533
 8695SOL    HW126984   3.641   4.556   6.447
 8695SOL    HW226985   3.522   4.526   6.555
 8696SOL     OW26986   3.308   5.619   5.864
 8696SOL    HW126987   3.292   5.560   5.943
 8696SOL    HW226988   3.266   5.709   5.880
 8697SOL     OW26989   2.030   3.621   5.856
 8697SOL    HW126990   2.060   3.704   5.903
 8697SOL    HW226991   2.111   3.573   5.819
 8698SOL     OW26992   4.632   5.642   5.932
 8698SOL    HW126993   4.632   5.582   5.852
 8698SOL    HW226994   4.606   5.735   5.905
 8699SOL     OW26995   1.699   2.571   6.715
 8699SOL    HW126996   1.604   2.591   6.695
 8699SOL    HW226997   1.725   2.485   6.672
 8700SOL     OW26998   1.178   0.591   3.681
 8700SOL    HW126999   1.194   0.594   3.582
 8700SOL    HW227000   1.106   0.656   3.704
 8701SOL     OW27001   1.186   2.229   6.889
 8701SOL    HW127002   1.182   2.220   6.789
 8701SOL    HW227003   1.185   2.326   6.913
 8702SOL     OW27004   5.341   4.473   1.022
 8702SOL    HW127005   5.282   4.514   1.091
 8702SOL    HW227006   5.406   4.542   0.988
 8703SOL     OW27007   2.420   5.957   0.673
 8703SOL    HW127008   2.426   6.030   0.741
 8703SOL    HW227009   2.511   5.937   0.637
 8704SOL     OW27010   0.669   1.004   4.933
 8704SOL    HW127011   0.761   1.032   4.960
 8704SOL    HW227012   0.648   1.041   4.842
 8705SOL     OW27013   4.303   2.309   6.793
 8705SOL    HW127014   4.394   2.269   6.804
 8705SOL    HW227015   4.276   2.355   6.878
 8706SOL     OW27016   5.136   3.417   6.033
 8706SOL    HW127017   5.150   3.516   6.039
 8706SOL    HW227018   5.038   3.398   6.025
 8707SOL     OW27019   1.870   1.840   4.935
 8707SOL    HW127020   1.871   1.916   4.999
 8707SOL    HW227021   1.954   1.842   4.881
 8708SOL     OW27022   5.682   2.975   0.147
 8708SOL    HW127023   5.699   2.921   0.065
 8708SOL    HW227024   5.686   3.072   0.124
 8709SOL     OW27025   5.988   0.095   5.525
 8709SOL    HW127026   6.029   0.162   5.587
 8709SOL    HW227027   5.892   0.079   5.552
 8710SOL     OW27028   2.056   1.391   3.705
 8710SOL    HW127029   2.144   1.397   3.753
 8710SOL    HW227030   2.063   1.323   3.633
 8711SOL     OW27031   1.425   1.480   1.723
 8711SOL    HW127032   1.394   1.540   1.797
 8711SOL    HW227033   1.433   1.533   1.639
 8712SOL     OW27034   1.357   3.909   5.644
 8712SOL    HW127035   1.270   3.954   5.667
 8712SOL    HW227036   1.351   3.873   5.550
 8713SOL     OW27037   7.015   3.684   1.163
 8713SOL    HW127038   6.969   3.731   1.238
 8713SOL    HW227039   6.949   3.625   1.116
 8714SOL     OW27040   6.595   5.454   6.785
 8714SOL    HW127041   6.661   5.456   6.709
 8714SOL    HW227042   6.639   5.416   6.866
 8715SOL     OW27043   1.861   3.823   1.867
 8715SOL    HW127044   1.943   3.793   1.914
 8715SOL    HW227045   1.847   3.768   1.785
 8716SOL     OW27046   6.504   0.248   1.959
 8716SOL    HW127047   6.466   0.215   1.873
 8716SOL    HW227048   6.560   0.329   1.942
 8717SOL     OW27049   2.632   3.021   0.187
 8717SOL    HW127050   2.588   3.047   0.101
 8717SOL    HW227051   2.678   3.101   0.226
 8718SOL     OW27052   2.396   5.080   6.249
 8718SOL    HW127053   2.467   5.047   6.312
 8718SOL    HW227054   2.314   5.104   6.301
 8719SOL     OW27055   3.462   0.965   4.747
 8719SOL    HW127056   3.446   0.941   4.843
 8719SOL    HW227057   3.509   1.053   4.741
 8720SOL     OW27058   6.899   5.052   4.922
 8720SOL    HW127059   6.878   5.006   5.008
 8720SOL    HW227060   6.826   5.115   4.898
 8721SOL     OW27061   0.346   0.226   6.591
 8721SOL    HW127062   0.345   0.293   6.517
 8721SOL    HW227063   0.330   0.135   6.554
 8722SOL     OW27064   3.212   1.111   0.866
 8722SOL    HW127065   3.128   1.101   0.919
 8722SOL    HW227066   3.245   1.021   0.840
 8723SOL     OW27067   4.041   0.057   2.733
 8723SOL    HW127068   4.008   0.012   2.650
 8723SOL    HW227069   4.137   0.032   2.749
 8724SOL     OW27070   3.861   1.480   4.280
 8724SOL    HW127071   3.787   1.462   4.216
 8724SOL    HW227072   3.943   1.429   4.251
 8725SOL     OW27073   6.531   6.932   3.650
 8725SOL    HW127074   6.517   7.014   3.705
 8725SOL    HW227075   6.481   6.942   3.564
 8726SOL     OW27076   0.104   1.014   0.971
 8726SOL    HW127077   0.203   1.007   0.960
 8726SOL    HW227078   0.081   1.106   1.004
 8727SOL     OW27079   5.025   6.592   6.063
 8727SOL    HW127080   5.090   6.557   6.130
 8727SOL    HW227081   4.989   6.516   6.009
 8728SOL     OW27082   6.719   0.527   4.439
 8728SOL    HW127083   6.631   0.545   4.395
 8728SOL    HW227084   6.761   0.613   4.467
 8729SOL     OW27085   5.035   6.038   6.737
 8729SOL    HW127086   5.088   5.971   6.685
 8729SOL    HW227087   5.096   6.087   6.800
 8730SOL     OW27088   4.636   5.246   0.981
 8730SOL    HW127089   4.703   5.235   0.907
 8730SOL    HW227090   4.664   5.191   1.060
 8731SOL     OW27091   6.733   1.801   3.843
 8731SOL    HW127092   6.732   1.731   3.771
 8731SOL    HW227093   6.688   1.766   3.925
 8732SOL     OW27094   5.950   6.708   0.181
 8732SOL    HW127095   5.910   6.623   0.214
 8732SOL    HW227096   5.945   6.711   0.081
 8733SOL     OW27097   6.309   4.548   2.906
 8733SOL    HW127098   6.209   4.546   2.912
 8733SOL    HW227099   6.340   4.643   2.906
 8734SOL     OW27100   0.280   3.916   1.977
 8734SOL    HW127101   0.328   4.004   1.979
 8734SOL    HW227102   0.328   3.850   2.034
 8735SOL     OW27103   6.995   3.051   5.162
 8735SOL    HW127104   0.053   3.109   5.136
 8735SOL    HW227105   0.003   2.955   5.157
 8736SOL     OW27106   1.146   6.136   3.698
 8736SOL    HW127107   1.199   6.109   3.778
 8736SOL    HW227108   1.125   6.055   3.643
 8737SOL     OW27109   1.584   5.837   0.307
 8737SOL    HW127110   1.676   5.858   0.339
 8737SOL    HW227111   1.589   5.788   0.220
 8738SOL     OW27112   1.522   2.935   3.217
 8738SOL    HW127113   1.507   2.840   3.187
 8738SOL    HW227114   1.546   2.991   3.138
 8739SOL     OW27115   5.931   4.651   5.211
 8739SOL    HW127116   5.995   4.727   5.220
 8739SOL    HW227117   5.844   4.676   5.252
 8740SOL     OW27118   2.966   0.620   4.774
 8740SOL    HW127119   2.878   0.622   4.727
 8740SOL    HW227120   2.982   0.708   4.819
 8741SOL     OW27121   1.267   1.035   3.054
 8741SOL    HW127122   1.364   1.057   3.050
 8741SOL    HW227123   1.217   1.090   2.987
 8742SOL     OW27124   2.618   1.905   1.829
 8742SOL    HW127125   2.576   1.963   1.900
 8742SOL    HW227126   2.579   1.813   1.833
 8743SOL     OW27127   0.706   2.685   1.631
 8743SOL    HW127128   0.796   2.711   1.596
 8743SOL    HW227129   0.712   2.664   1.728
 8744SOL     OW27130   3.329   4.175   5.670
 8744SOL    HW127131   3.273   4.151   5.591
 8744SOL    HW227132   3.425   4.154   5.651
 8745SOL     OW27133   6.169   1.531   6.087
 8745SOL    HW127134   6.102   1.580   6.144
 8745SOL    HW227135   6.193   1.445   6.130
 8746SOL     OW27136   4.389   5.061   5.536
 8746SOL    HW127137   4.294   5.090   5.547
 8746SOL    HW227138   4.393   4.986   5.469
 8747SOL     OW27139   0.703   0.088   2.770
 8747SOL    HW127140   0.680   0.176   2.813
 8747SOL    HW227141   0.798   0.090   2.739
 8748SOL     OW27142   6.028   1.780   4.065
 8748SOL    HW127143   6.045   1.841   4.142
 8748SOL    HW227144   6.010   1.833   3.982
 8749SOL     OW27145   2.351   0.995   4.047
 8749SOL    HW127146   2.403   0.956   3.971
 8749SOL    HW227147   2.323   1.088   4.024
 8750SOL     OW27148   3.583   3.786   0.437
 8750SOL    HW127149   3.629   3.827   0.516
 8750SOL    HW227150   3.547   3.696   0.461
 8751SOL     OW27151   2.377   6.634   0.851
 8751SOL    HW127152   2.333   6.718   0.819
 8751SOL    HW227153   2.317   6.588   0.917
 8752SOL     OW27154   6.628   2.799   5.343
 8752SOL    HW127155   6.605   2.814   5.439
 8752SOL    HW227156   6.556   2.746   5.299
 8753SOL     OW27157   2.619   2.408   0.835
 8753SOL    HW127158   2.525   2.442   0.833
 8753SOL    HW227159   2.675   2.468   0.892
 8754SOL     OW27160   1.567   4.995   6.914
 8754SOL    HW127161   1.483   4.966   6.960
 8754SOL    HW227162   1.550   5.000   6.815
 8755SOL     OW27163   0.638   2.964   1.864
 8755SOL    HW127164   0.561   2.906   1.836
 8755SOL    HW227165   0.608   3.025   1.938
 8756SOL     OW27166   1.534   1.738   2.229
 8756SOL    HW127167   1.532   1.733   2.329
 8756SOL    HW227168   1.474   1.813   2.198
 8757SOL     OW27169   4.900   6.197   5.560
 8757SOL    HW127170   4.802   6.206   5.579
 8757SOL    HW227171   4.936   6.284   5.525
 8758SOL     OW27172   3.816   5.587   4.960
 8758SOL    HW127173   3.874   5.510   4.936
 8758SOL    HW227174   3.863   5.646   5.025
 8759SOL     OW27175   5.830   0.564   0.630
 8759SOL    HW127176   5.867   0.605   0.713
 8759SOL    HW227177   5.901   0.564   0.559
 8760SOL     OW27178   2.474   2.552   4.322
 8760SOL    HW127179   2.478   2.481   4.251
 8760SOL    HW227180   2.469   2.642   4.278
 8761SOL     OW27181   5.204   1.643   2.956
 8761SOL    HW127182   5.227   1.605   2.867
 8761SOL    HW227183   5.287   1.649   3.012
 8762SOL     OW27184   3.076   4.866   3.417
 8762SOL    HW127185   2.984   4.828   3.403
 8762SOL    HW227186   3.115   4.830   3.501
 8763SOL     OW27187   0.507   0.535   6.605
 8763SOL    HW127188   0.417   0.516   6.566
 8763SOL    HW227189   0.562   0.586   6.539
 8764SOL     OW27190   2.779   5.168   5.297
 8764SOL    HW127191   2.841   5.189   5.221
 8764SOL    HW227192   2.725   5.088   5.274
 8765SOL     OW27193   4.083   6.455   4.490
 8765SOL    HW127194   4.028   6.536   4.469
 8765SOL    HW227195   4.090   6.397   4.409
 8766SOL     OW27196   4.591   6.679   6.077
 8766SOL    HW127197   4.634   6.686   5.987
 8766SOL    HW227198   4.608   6.588   6.115
 8767SOL     OW27199   1.807   0.827   3.832
 8767SOL    HW127200   1.734   0.759   3.826
 8767SOL    HW227201   1.768   0.919   3.827
 8768SOL     OW27202   6.629   1.899   6.567
 8768SOL    HW127203   6.557   1.904   6.498
 8768SOL    HW227204   6.604   1.955   6.646
 8769SOL     OW27205   6.095   6.985   0.222
 8769SOL    HW127206   6.079   6.997   0.124
 8769SOL    HW227207   6.051   0.039   0.272
 8770SOL     OW27208   5.035   2.712   0.280
 8770SOL    HW127209   5.027   2.672   0.188
 8770SOL    HW227210   5.095   2.654   0.336
 8771SOL     OW27211   0.380   2.659   6.947
 8771SOL    HW127212   0.415   2.661   0.020
 8771SOL    HW227213   0.286   2.625   6.947
 8772SOL     OW27214   6.936   0.399   4.356
 8772SOL    HW127215   6.903   0.356   4.272
 8772SOL    HW227216   6.859   0.445   4.402
 8773SOL     OW27217   0.506   0.869   4.646
 8773SOL    HW127218   0.590   0.922   4.636
 8773SOL    HW227219   0.521   0.796   4.712
 8774SOL     OW27220   0.782   1.127   0.151
 8774SOL    HW127221   0.806   1.132   0.054
 8774SOL    HW227222   0.856   1.085   0.202
 8775SOL     OW27223   5.879   2.750   3.662
 8775SOL    HW127224   5.950   2.789   3.603
 8775SOL    HW227225   5.844   2.666   3.620
 8776SOL     OW27226   4.574   2.683   0.525
 8776SOL    HW127227   4.635   2.604   0.511
 8776SOL    HW227228   4.538   2.681   0.618
 8777SOL     OW27229   6.699   2.251   2.711
 8777SOL    HW127230   6.773   2.314   2.688
 8777SOL    HW227231   6.735   2.176   2.768
 8778SOL     OW27232   3.085   4.958   0.065
 8778SOL    HW127233   3.171   5.004   0.040
 8778SOL    HW227234   3.106   4.871   0.110
 8779SOL     OW27235   4.187   4.755   2.864
 8779SOL    HW127236   4.157   4.750   2.960
 8779SOL    HW227237   4.108   4.772   2.806
 8780SOL     OW27238   0.328   4.647   3.720
 8780SOL    HW127239   0.315   4.548   3.732
 8780SOL    HW227240   0.417   4.673   3.755
 8781SOL     OW27241   3.077   0.971   1.796
 8781SOL    HW127242   3.054   1.003   1.888
 8781SOL    HW227243   3.131   1.041   1.749
 8782SOL     OW27244   5.228   2.116   0.650
 8782SOL    HW127245   5.245   2.018   0.640
 8782SOL    HW227246   5.315   2.164   0.663
 8783SOL     OW27247   5.250   3.839   4.859
 8783SOL    HW127248   5.311   3.849   4.779
 8783SOL    HW227249   5.279   3.759   4.912
 8784SOL     OW27250   4.605   0.853   0.490
 8784SOL    HW127251   4.561   0.905   0.417
 8784SOL    HW227252   4.549   0.773   0.511
 8785SOL     OW27253   0.084   5.704   5.099
 8785SOL    HW127254   0.022   5.781   5.114
 8785SOL    HW227255   0.033   5.627   5.062
 8786SOL     OW27256   5.104   1.486   2.515
 8786SOL    HW127257   5.105   1.387   2.502
 8786SOL    HW227258   5.105   1.531   2.426
 8787SOL     OW27259   3.939   5.715   0.556
 8787SOL    HW127260   3.999   5.656   0.609
 8787SOL    HW227261   3.948   5.809   0.589
 8788SOL     OW27262   0.045   0.010   3.622
 8788SOL    HW127263   0.061   0.104   3.652
 8788SOL    HW227264   7.019   6.979   3.695
 8789SOL     OW27265   0.519   2.433   6.226
 8789SOL    HW127266   0.558   2.480   6.146
 8789SOL    HW227267   0.421   2.453   6.231
 8790SOL     OW27268   4.474   2.918   5.423
 8790SOL    HW127269   4.402   2.987   5.430
 8790SOL    HW227270   4.441   2.842   5.367
 8791SOL     OW27271   3.203   6.286   4.744
 8791SOL    HW127272   3.123   6.325   4.790
 8791SOL    HW227273   3.251   6.224   4.807
 8792SOL     OW27274   5.331   4.360   1.745
 8792SOL    HW127275   5.388   4.404   1.676
 8792SOL    HW227276   5.359   4.389   1.836
 8793SOL     OW27277   0.025   6.133   5.001
 8793SOL    HW127278   0.061   6.068   4.933
 8793SOL    HW227279   0.056   6.225   4.979
 8794SOL     OW27280   6.601   1.372   2.561
 8794SOL    HW127281   6.660   1.316   2.502
 8794SOL    HW227282   6.516   1.323   2.579
 8795SOL     OW27283   1.797   6.149   6.706
 8795SOL    HW127284   1.841   6.060   6.723
 8795SOL    HW227285   1.837   6.218   6.765
 8796SOL     OW27286   6.369   3.572   4.265
 8796SOL    HW127287   6.269   3.576   4.267
 8796SOL    HW227288   6.404   3.649   4.212
 8797SOL     OW27289   4.674   6.377   3.721
 8797SOL    HW127290   4.634   6.409   3.807
 8797SOL    HW227291   4.705   6.456   3.668
 8798SOL     OW27292   3.065   6.972   5.695
 8798SOL    HW127293   3.005   6.921   5.755
 8798SOL    HW227294   3.149   6.920   5.680
 8799SOL     OW27295   1.411   5.654   2.065
 8799SOL    HW127296   1.484   5.722   2.072
 8799SOL    HW227297   1.340   5.687   2.002
 8800SOL     OW27298   6.537   5.705   5.136
 8800SOL    HW127299   6.557   5.649   5.056
 8800SOL    HW227300   6.612   5.699   5.202
 8801SOL     OW27301   6.181   3.494   5.695
 8801SOL    HW127302   6.153   3.564   5.629
 8801SOL    HW227303   6.278   3.473   5.681
 8802SOL     OW27304   1.201   6.269   6.723
 8802SOL    HW127305   1.286   6.314   6.696
 8802SOL    HW227306   1.184   6.286   6.820
 8803SOL     OW27307   6.562   6.353   5.964
 8803SOL    HW127308   6.480   6.370   5.910
 8803SOL    HW227309   6.536   6.315   6.053
 8804SOL     OW27310   2.254   6.251   2.591
 8804SOL    HW127311   2.348   6.218   2.586
 8804SOL    HW227312   2.217   6.234   2.683
 8805SOL     OW27313   5.452   4.855   3.224
 8805SOL    HW127314   5.500   4.840   3.138
 8805SOL    HW227315   5.413   4.947   3.225
 8806SOL     OW27316   1.634   0.382   1.196
 8806SOL    HW127317   1.554   0.442   1.194
 8806SOL    HW227318   1.604   0.288   1.213
 8807SOL     OW27319   5.361   2.735   1.334
 8807SOL    HW127320   5.324   2.827   1.320
 8807SOL    HW227321   5.439   2.721   1.272
 8808SOL     OW27322   1.395   2.054   6.784
 8808SOL    HW127323   1.358   2.035   6.693
 8808SOL    HW227324   1.411   2.152   6.794
 8809SOL     OW27325   0.606   3.631   2.990
 8809SOL    HW127326   0.695   3.587   3.003
 8809SOL    HW227327   0.594   3.703   3.057
 8810SOL     OW27328   0.895   1.076   5.896
 8810SOL    HW127329   0.842   1.004   5.941
 8810SOL    HW227330   0.894   1.062   5.797
 8811SOL     OW27331   4.187   4.760   2.527
 8811SOL    HW127332   4.233   4.704   2.595
 8811SOL    HW227333   4.251   4.783   2.453
 8812SOL     OW27334   4.815   1.063   6.364
 8812SOL    HW127335   4.829   0.998   6.439
 8812SOL    HW227336   4.899   1.069   6.310
 8813SOL     OW27337   2.023   3.896   3.327
 8813SOL    HW127338   2.007   3.802   3.358
 8813SOL    HW227339   2.107   3.899   3.273
 8814SOL     OW27340   4.692   6.955   5.380
 8814SOL    HW127341   4.612   6.933   5.323
 8814SOL    HW227342   4.666   6.952   5.476
 8815SOL     OW27343   5.417   0.915   0.628
 8815SOL    HW127344   5.340   0.855   0.650
 8815SOL    HW227345   5.382   1.003   0.595
 8816SOL     OW27346   0.723   5.992   4.672
 8816SOL    HW127347   0.718   5.892   4.670
 8816SOL    HW227348   0.817   6.020   4.653
 8817SOL     OW27349   1.592   2.746   3.671
 8817SOL    HW127350   1.517   2.685   3.694
 8817SOL    HW227351   1.630   2.720   3.582
 8818SOL     OW27352   0.817   0.177   5.978
 8818SOL    HW127353   0.747   0.248   5.978
 8818SOL    HW227354   0.904   0.215   5.945
 8819SOL     OW27355   5.197   4.999   6.621
 8819SOL    HW127356   5.268   5.067   6.605
 8819SOL    HW227357   5.142   4.988   6.538
 8820SOL     OW27358   3.937   0.241   5.584
 8820SOL    HW127359   3.838   0.244   5.601
 8820SOL    HW227360   3.955   0.267   5.489
 8821SOL     OW27361   0.093   4.419   6.070
 8821SOL    HW127362   0.016   4.459   6.020
 8821SOL    HW227363   0.164   4.391   6.006
 8822SOL     OW27364   6.413   0.578   4.740
 8822SOL    HW127365   6.490   0.553   4.799
 8822SOL    HW227366   6.377   0.496   4.696
 8823SOL     OW27367   3.501   1.096   3.063
 8823SOL    HW127368   3.507   1.003   3.101
 8823SOL    HW227369   3.470   1.159   3.133
 8824SOL     OW27370   1.604   0.731   2.562
 8824SOL    HW127371   1.646   0.716   2.652
 8824SOL    HW227372   1.660   0.793   2.508
 8825SOL     OW27373   0.273   6.813   0.374
 8825SOL    HW127374   0.258   6.901   0.417
 8825SOL    HW227375   0.370   6.801   0.353
 8826SOL     OW27376   1.147   4.168   0.924
 8826SOL    HW127377   1.112   4.100   0.989
 8826SOL    HW227378   1.199   4.238   0.974
 8827SOL     OW27379   4.567   6.785   2.921
 8827SOL    HW127380   4.540   6.830   3.006
 8827SOL    HW227381   4.598   6.854   2.855
 8828SOL     OW27382   4.794   2.449   6.240
 8828SOL    HW127383   4.808   2.478   6.146
 8828SOL    HW227384   4.747   2.521   6.291
 8829SOL     OW27385   6.738   1.192   1.858
 8829SOL    HW127386   6.823   1.221   1.815
 8829SOL    HW227387   6.674   1.160   1.787
 8830SOL     OW27388   3.193   0.977   3.339
 8830SOL    HW127389   3.191   0.889   3.292
 8830SOL    HW227390   3.200   1.050   3.272
 8831SOL     OW27391   0.420   2.818   2.103
 8831SOL    HW127392   0.435   2.917   2.101
 8831SOL    HW227393   0.497   2.773   2.147
 8832SOL     OW27394   5.408   0.765   5.189
 8832SOL    HW127395   5.317   0.788   5.221
 8832SOL    HW227396   5.405   0.743   5.091
 8833SOL     OW27397   5.286   2.653   1.830
 8833SOL    HW127398   5.328   2.611   1.749
 8833SOL    HW227399   5.228   2.729   1.802
 8834SOL     OW27400   6.123   3.974   5.342
 8834SOL    HW127401   6.043   4.030   5.362
 8834SOL    HW227402   6.123   3.949   5.245
 8835SOL     OW27403   6.677   0.594   5.519
 8835SOL    HW127404   6.738   0.574   5.595
 8835SOL    HW227405   6.725   0.582   5.433
 8836SOL     OW27406   4.378   1.561   1.661
 8836SOL    HW127407   4.421   1.593   1.745
 8836SOL    HW227408   4.443   1.507   1.608
 8837SOL     OW27409   3.462   6.638   0.441
 8837SOL    HW127410   3.516   6.655   0.359
 8837SOL    HW227411   3.509   6.570   0.498
 8838SOL     OW27412   1.688   3.703   3.782
 8838SOL    HW127413   1.657   3.619   3.738
 8838SOL    HW227414   1.757   3.747   3.724
 8839SOL     OW27415   5.461   5.607   2.479
 8839SOL    HW127416   5.491   5.703   2.483
 8839SOL    HW227417   5.370   5.603   2.437
 8840SOL     OW27418   6.756   0.475   1.101
 8840SOL    HW127419   6.751   0.376   1.091
 8840SOL    HW227420   6.685   0.507   1.164
 8841SOL     OW27421   3.406   0.605   1.093
 8841SOL    HW127422   3.354   0.600   1.178
 8841SOL    HW227423   3.502   0.621   1.114
 8842SOL     OW27424   3.952   4.027   4.380
 8842SOL    HW127425   3.994   4.065   4.298
 8842SOL    HW227426   3.940   3.928   4.368
 8843SOL     OW27427   2.938   6.037   6.633
 8843SOL    HW127428   2.939   6.137   6.637
 8843SOL    HW227429   2.878   6.002   6.705
 8844SOL     OW27430   3.635   2.596   6.590
 8844SOL    HW127431   3.705   2.591   6.519
 8844SOL    HW227432   3.666   2.656   6.664
 8845SOL     OW27433   6.648   4.097   2.194
 8845SOL    HW127434   6.708   4.038   2.248
 8845SOL    HW227435   6.694   4.184   2.177
 8846SOL     OW27436   5.324   4.260   4.522
 8846SOL    HW127437   5.325   4.172   4.475
 8846SOL    HW227438   5.387   4.257   4.600
 8847SOL     OW27439   1.833   1.926   3.691
 8847SOL    HW127440   1.769   1.870   3.743
 8847SOL    HW227441   1.911   1.870   3.664
 8848SOL     OW27442   5.431   1.341   0.361
 8848SOL    HW127443   5.336   1.372   0.366
 8848SOL    HW227444   5.484   1.404   0.304
 8849SOL     OW27445   2.889   4.941   4.572
 8849SOL    HW127446   2.987   4.932   4.590
 8849SOL    HW227447   2.838   4.875   4.628
 8850SOL     OW27448   3.162   1.191   1.269
 8850SOL    HW127449   3.124   1.120   1.328
 8850SOL    HW227450   3.087   1.246   1.230
 8851SOL     OW27451   6.697   4.857   2.113
 8851SOL    HW127452   6.761   4.789   2.149
 8851SOL    HW227453   6.730   4.890   2.024
 8852SOL     OW27454   4.694   2.531   4.829
 8852SOL    HW127455   4.681   2.629   4.841
 8852SOL    HW227456   4.606   2.484   4.833
 8853SOL     OW27457   4.158   1.401   5.424
 8853SOL    HW127458   4.105   1.401   5.339
 8853SOL    HW227459   4.248   1.439   5.406
 8854SOL     OW27460   1.337   1.802   6.839
 8854SOL    HW127461   1.300   1.782   6.929
 8854SOL    HW227462   1.333   1.900   6.822
 8855SOL     OW27463   6.357   4.988   0.092
 8855SOL    HW127464   6.455   4.988   0.109
 8855SOL    HW227465   6.317   4.902   0.123
 8856SOL     OW27466   5.567   1.069   4.267
 8856SOL    HW127467   5.567   0.980   4.222
 8856SOL    HW227468   5.650   1.078   4.323
 8857SOL     OW27469   0.034   2.480   4.952
 8857SOL    HW127470   7.008   2.560   4.913
 8857SOL    HW227471   0.082   2.430   4.879
 8858SOL     OW27472   0.038   4.166   6.438
 8858SOL    HW127473   0.029   4.258   6.399
 8858SOL    HW227474   0.134   4.137   6.431
 8859SOL     OW27475   2.918   5.211   5.047
 8859SOL    HW127476   2.964   5.295   5.018
 8859SOL    HW227477   2.978   5.133   5.032
 8860SOL     OW27478   1.367   2.866   1.528
 8860SOL    HW127479   1.292   2.923   1.562
 8860SOL    HW227480   1.335   2.773   1.513
 8861SOL     OW27481   2.972   2.809   0.415
 8861SOL    HW127482   3.031   2.752   0.472
 8861SOL    HW227483   2.961   2.899   0.458
 8862SOL     OW27484   6.775   2.320   4.611
 8862SOL    HW127485   6.866   2.301   4.648
 8862SOL    HW227486   6.719   2.237   4.616
 8863SOL     OW27487   1.606   5.566   5.220
 8863SOL    HW127488   1.699   5.598   5.200
 8863SOL    HW227489   1.582   5.492   5.158
 8864SOL     OW27490   1.018   3.130   6.379
 8864SOL    HW127491   0.951   3.193   6.418
 8864SOL    HW227492   1.108   3.149   6.418
 8865SOL     OW27493   2.439   2.162   5.978
 8865SOL    HW127494   2.503   2.236   5.960
 8865SOL    HW227495   2.426   2.152   6.077
 8866SOL     OW27496   3.956   6.972   5.535
 8866SOL    HW127497   3.991   0.026   5.593
 8866SOL    HW227498   3.903   7.010   5.460
 8867SOL     OW27499   6.864   2.411   3.711
 8867SOL    HW127500   6.959   2.394   3.685
 8867SOL    HW227501   6.806   2.403   3.630
 8868SOL     OW27502   4.564   3.878   1.158
 8868SOL    HW127503   4.574   3.788   1.200
 8868SOL    HW227504   4.570   3.948   1.229
 8869SOL     OW27505   5.179   3.009   3.764
 8869SOL    HW127506   5.183   2.920   3.718
 8869SOL    HW227507   5.111   3.067   3.718
 8870SOL     OW27508   3.945   1.536   0.873
 8870SOL    HW127509   3.866   1.568   0.925
 8870SOL    HW227510   3.919   1.523   0.777
 8871SOL     OW27511   1.764   1.799   4.336
 8871SOL    HW127512   1.713   1.802   4.422
 8871SOL    HW227513   1.706   1.833   4.262
 8872SOL     OW27514   2.046   3.229   3.608
 8872SOL    HW127515   1.949   3.208   3.618
 8872SOL    HW227516   2.097   3.193   3.686
 8873SOL     OW27517   6.627   6.411   4.968
 8873SOL    HW127518   6.646   6.331   5.026
 8873SOL    HW227519   6.713   6.458   4.948
 8874SOL     OW27520   1.654   1.370   0.350
 8874SOL    HW127521   1.671   1.325   0.438
 8874SOL    HW227522   1.563   1.412   0.352
 8875SOL     OW27523   1.774   1.640   4.000
 8875SOL    HW127524   1.724   1.657   3.915
 8875SOL    HW227525   1.851   1.579   3.982
 8876SOL     OW27526   2.005   7.013   4.453
 8876SOL    HW127527   1.953   6.956   4.390
 8876SOL    HW227528   1.978   0.089   4.442
 8877SOL     OW27529   2.647   6.579   5.149
 8877SOL    HW127530   2.661   6.617   5.058
 8877SOL    HW227531   2.719   6.511   5.168
 8878SOL     OW27532   6.114   4.551   6.376
 8878SOL    HW127533   6.107   4.644   6.413
 8878SOL    HW227534   6.117   4.485   6.451
 8879SOL     OW27535   4.600   5.667   4.808
 8879SOL    HW127536   4.634   5.667   4.902
 8879SOL    HW227537   4.588   5.761   4.776
 8880SOL     OW27538   6.866   5.437   5.455
 8880SOL    HW127539   6.824   5.347   5.464
 8880SOL    HW227540   6.963   5.430   5.477
 8881SOL     OW27541   6.891   0.578   2.328
 8881SOL    HW127542   6.913   0.581   2.230
 8881SOL    HW227543   6.884   0.483   2.357
 8882SOL     OW27544   5.928   2.056   6.451
 8882SOL    HW127545   5.868   2.135   6.469
 8882SOL    HW227546   5.943   2.006   6.536
 8883SOL     OW27547   6.585   1.176   5.240
 8883SOL    HW127548   6.547   1.180   5.148
 8883SOL    HW227549   6.516   1.140   5.303
 8884SOL     OW27550   6.184   0.479   5.453
 8884SOL    HW127551   6.219   0.485   5.546
 8884SOL    HW227552   6.088   0.507   5.452
 8885SOL     OW27553   4.904   3.570   1.499
 8885SOL    HW127554   4.821   3.515   1.493
 8885SOL    HW227555   4.884   3.663   1.468
 8886SOL     OW27556   3.142   0.030   6.746
 8886SOL    HW127557   3.219   6.991   6.722
 8886SOL    HW227558   3.165   0.125   6.725
 8887SOL     OW27559   2.071   0.738   1.186
 8887SOL    HW127560   2.135   0.771   1.118
 8887SOL    HW227561   1.989   0.796   1.186
 8888SOL     OW27562   3.166   1.089   3.063
 8888SOL    HW127563   3.215   1.166   3.022
 8888SOL    HW227564   3.198   1.004   3.021
 8889SOL     OW27565   3.667   0.082   5.158
 8889SOL    HW127566   3.644   0.179   5.153
 8889SOL    HW227567   3.619   0.032   5.086
 8890SOL     OW27568   1.077   5.028   4.529
 8890SOL    HW127569   1.151   4.997   4.469
 8890SOL    HW227570   1.093   4.995   4.622
 8891SOL     OW27571   3.198   1.741   6.894
 8891SOL    HW127572   3.175   1.773   6.986
 8891SOL    HW227573   3.148   1.795   6.826
 8892SOL     OW27574   1.265   6.702   2.314
 8892SOL    HW127575   1.340   6.636   2.312
 8892SOL    HW227576   1.249   6.737   2.221
 8893SOL     OW27577   0.740   1.516   1.653
 8893SOL    HW127578   0.700   1.461   1.580
 8893SOL    HW227579   0.777   1.601   1.615
 8894SOL     OW27580   4.064   3.343   6.298
 8894SOL    HW127581   3.994   3.350   6.369
 8894SOL    HW227582   4.154   3.364   6.337
 8895SOL     OW27583   0.568   6.997   2.010
 8895SOL    HW127584   0.533   6.907   2.036
 8895SOL    HW227585   0.646   0.001   2.069
 8896SOL     OW27586   2.068   4.097   5.418
 8896SOL    HW127587   2.168   4.098   5.420
 8896SOL    HW227588   2.037   4.093   5.323
 8897SOL     OW27589   1.307   2.217   1.520
 8897SOL    HW127590   1.250   2.146   1.479
 8897SOL    HW227591   1.325   2.195   1.616
 8898SOL     OW27592   6.502   3.232   4.805
 8898SOL    HW127593   6.487   3.160   4.874
 8898SOL    HW227594   6.477   3.197   4.715
 8899SOL     OW27595   2.329   4.353   0.110
 8899SOL    HW127596   2.261   4.365   0.037
 8899SOL    HW227597   2.420   4.377   0.074
 8900SOL     OW27598   5.865   2.212   3.054
 8900SOL    HW127599   5.789   2.162   3.014
 8900SOL    HW227600   5.908   2.156   3.125
 8901SOL     OW27601   2.294   6.764   2.524
 8901SOL    HW127602   2.370   6.734   2.582
 8901SOL    HW227603   2.213   6.779   2.580
 8902SOL     OW27604   1.836   5.461   6.121
 8902SOL    HW127605   1.865   5.521   6.047
 8902SOL    HW227606   1.843   5.366   6.091
 8903SOL     OW27607   1.124   1.626   3.490
 8903SOL    HW127608   1.105   1.685   3.411
 8903SOL    HW227609   1.190   1.556   3.463
 8904SOL     OW27610   1.062   5.508   3.506
 8904SOL    HW127611   1.158   5.526   3.485
 8904SOL    HW227612   1.041   5.542   3.598
 8905SOL     OW27613   2.734   4.010   5.266
 8905SOL    HW127614   2.637   4.026   5.246
 8905SOL    HW227615   2.762   3.922   5.228
 8906SOL     OW27616   1.687   5.306   5.117
 8906SOL    HW127617   1.762   5.370   5.105
 8906SOL    HW227618   1.717   5.231   5.177
 8907SOL     OW27619   3.529   2.815   5.435
 8907SOL    HW127620   3.573   2.902   5.413
 8907SOL    HW227621   3.562   2.744   5.372
 8908SOL     OW27622   0.030   2.748   1.464
 8908SOL    HW127623   6.967   2.781   1.510
 8908SOL    HW227624   0.052   2.808   1.387
 8909SOL     OW27625   3.172   0.183   5.782
 8909SOL    HW127626   3.109   0.111   5.811
 8909SOL    HW227627   3.120   0.266   5.762
 8910SOL     OW27628   3.824   3.987   6.697
 8910SOL    HW127629   3.775   4.069   6.668
 8910SOL    HW227630   3.903   4.012   6.753
 8911SOL     OW27631   3.192   2.002   4.157
 8911SOL    HW127632   3.101   2.038   4.137
 8911SOL    HW227633   3.230   2.052   4.235
 8912SOL     OW27634   5.074   2.467   5.645
 8912SOL    HW127635   5.052   2.370   5.653
 8912SOL    HW227636   5.050   2.514   5.730
 8913SOL     OW27637   5.059   3.740   0.835
 8913SOL    HW127638   5.000   3.663   0.859
 8913SOL    HW227639   5.003   3.815   0.798
 8914SOL     OW27640   4.304   1.963   3.895
 8914SOL    HW127641   4.273   2.057   3.911
 8914SOL    HW227642   4.375   1.963   3.825
 8915SOL     OW27643   1.354   5.199   1.823
 8915SOL    HW127644   1.435   5.193   1.764
 8915SOL    HW227645   1.382   5.183   1.918
 8916SOL     OW27646   6.798   4.069   1.407
 8916SOL    HW127647   6.875   4.129   1.387
 8916SOL    HW227648   6.717   4.124   1.427
 8917SOL     OW27649   5.825   5.626   6.169
 8917SOL    HW127650   5.882   5.590   6.243
 8917SOL    HW227651   5.776   5.707   6.202
 8918SOL     OW27652   4.384   4.512   6.158
 8918SOL    HW127653   4.474   4.496   6.200
 8918SOL    HW227654   4.351   4.602   6.184
 8919SOL     OW27655   2.350   4.171   1.045
 8919SOL    HW127656   2.439   4.150   1.005
 8919SOL    HW227657   2.351   4.148   1.143
 8920SOL     OW27658   6.114   6.008   5.797
 8920SOL    HW127659   6.139   5.929   5.741
 8920SOL    HW227660   6.015   6.011   5.810
 8921SOL     OW27661   1.194   6.590   3.482
 8921SOL    HW127662   1.118   6.623   3.426
 8921SOL    HW227663   1.224   6.664   3.543
 8922SOL     OW27664   6.080   4.328   0.079
 8922SOL    HW127665   6.160   4.286   0.035
 8922SOL    HW227666   5.999   4.272   0.061
 8923SOL     OW27667   1.862   4.155   5.578
 8923SOL    HW127668   1.930   4.119   5.515
 8923SOL    HW227669   1.791   4.204   5.527
 8924SOL     OW27670   2.605   5.940   5.308
 8924SOL    HW127671   2.591   5.847   5.275
 8924SOL    HW227672   2.701   5.966   5.295
 8925SOL     OW27673   5.924   6.926   2.220
 8925SOL    HW127674   5.979   6.931   2.304
 8925SOL    HW227675   5.952   6.998   2.157
 8926SOL     OW27676   5.735   1.520   0.491
 8926SOL    HW127677   5.799   1.461   0.539
 8926SOL    HW227678   5.765   1.531   0.396
 8927SOL     OW27679   2.667   1.805   5.248
 8927SOL    HW127680   2.697   1.715   5.279
 8927SOL    HW227681   2.662   1.805   5.148
 8928SOL     OW27682   0.302   0.020   5.267
 8928SOL    HW127683   0.295   6.984   5.185
 8928SOL    HW227684   0.222   0.004   5.325
 8929SOL     OW27685   6.024   3.525   4.579
 8929SOL    HW127686   6.021   3.603   4.641
 8929SOL    HW227687   6.117   3.516   4.542
 8930SOL     OW27688   1.028   4.558   4.845
 8930SOL    HW127689   1.068   4.469   4.863
 8930SOL    HW227690   1.045   4.620   4.922
 8931SOL     OW27691   5.434   0.856   1.150
 8931SOL    HW127692   5.499   0.840   1.075
 8931SOL    HW227693   5.477   0.835   1.237
 8932SOL     OW27694   6.806   0.508   6.870
 8932SOL    HW127695   6.718   0.514   6.823
 8932SOL    HW227696   6.874   0.560   6.819
 8933SOL     OW27697   1.842   6.759   5.705
 8933SOL    HW127698   1.875   6.848   5.674
 8933SOL    HW227699   1.744   6.751   5.685
 8934SOL     OW27700   4.647   6.563   3.042
 8934SOL    HW127701   4.685   6.499   2.975
 8934SOL    HW227702   4.610   6.643   2.994
 8935SOL     OW27703   5.690   2.721   3.363
 8935SOL    HW127704   5.645   2.748   3.278
 8935SOL    HW227705   5.640   2.645   3.404
 8936SOL     OW27706   1.935   4.627   2.596
 8936SOL    HW127707   1.995   4.701   2.625
 8936SOL    HW227708   1.853   4.626   2.653
 8937SOL     OW27709   5.176   6.717   5.696
 8937SOL    HW127710   5.184   6.749   5.790
 8937SOL    HW227711   5.226   6.778   5.635
 8938SOL     OW27712   5.751   6.746   2.137
 8938SOL    HW127713   5.818   6.810   2.175
 8938SOL    HW227714   5.665   6.755   2.186
 8939SOL     OW27715   0.326   2.724   3.645
 8939SOL    HW127716   0.233   2.747   3.617
 8939SOL    HW227717   0.323   2.684   3.737
 8940SOL     OW27718   6.506   2.898   0.963
 8940SOL    HW127719   6.469   2.812   0.998
 8940SOL    HW227720   6.447   2.932   0.890
 8941SOL     OW27721   4.473   2.505   1.869
 8941SOL    HW127722   4.524   2.586   1.839
 8941SOL    HW227723   4.476   2.500   1.969
 8942SOL     OW27724   6.061   3.995   4.443
 8942SOL    HW127725   5.992   3.923   4.453
 8942SOL    HW227726   6.147   3.955   4.413
 8943SOL     OW27727   4.828   3.624   0.933
 8943SOL    HW127728   4.835   3.596   1.029
 8943SOL    HW227729   4.751   3.686   0.922
 8944SOL     OW27730   5.414   5.260   4.992
 8944SOL    HW127731   5.329   5.310   5.008
 8944SOL    HW227732   5.477   5.316   4.939
 8945SOL     OW27733   5.143   4.065   3.296
 8945SOL    HW127734   5.068   4.030   3.353
 8945SOL    HW227735   5.135   4.028   3.204
 8946SOL     OW27736   4.938   1.021   5.257
 8946SOL    HW127737   4.903   0.993   5.168
 8946SOL    HW227738   4.892   0.970   5.329
 8947SOL     OW27739   2.155   5.067   6.656
 8947SOL    HW127740   2.224   5.005   6.695
 8947SOL    HW227741   2.170   5.074   6.557
 8948SOL     OW27742   5.185   1.024   3.178
 8948SOL    HW127743   5.196   0.959   3.253
 8948SOL    HW227744   5.227   0.985   3.095
 8949SOL     OW27745   3.877   5.989   0.841
 8949SOL    HW127746   3.845   6.021   0.930
 8949SOL    HW227747   3.816   5.917   0.807
 8950SOL     OW27748   4.055   3.582   1.024
 8950SOL    HW127749   4.082   3.514   0.955
 8950SOL    HW227750   4.136   3.636   1.049
 8951SOL     OW27751   1.445   0.576   4.612
 8951SOL    HW127752   1.404   0.633   4.541
 8951SOL    HW227753   1.378   0.559   4.684
 8952SOL     OW27754   2.048   4.894   3.911
 8952SOL    HW127755   2.058   4.949   3.994
 8952SOL    HW227756   2.139   4.868   3.878
 8953SOL     OW27757   1.003   5.250   1.118
 8953SOL    HW127758   1.002   5.277   1.214
 8953SOL    HW227759   1.083   5.290   1.073
 8954SOL     OW27760   2.706   4.368   5.872
 8954SOL    HW127761   2.607   4.384   5.866
 8954SOL    HW227762   2.752   4.417   5.798
 8955SOL     OW27763   5.333   2.438   4.666
 8955SOL    HW127764   5.357   2.417   4.571
 8955SOL    HW227765   5.278   2.521   4.669
 8956SOL     OW27766   0.957   6.151   0.172
 8956SOL    HW127767   0.858   6.139   0.180
 8956SOL    HW227768   0.998   6.068   0.135
 8957SOL     OW27769   6.934   6.210   2.923
 8957SOL    HW127770   6.875   6.205   2.843
 8957SOL    HW227771   6.999   6.285   2.914
 8958SOL     OW27772   1.896   3.240   4.702
 8958SOL    HW127773   1.847   3.260   4.786
 8958SOL    HW227774   1.832   3.240   4.625
 8959SOL     OW27775   6.244   2.503   3.434
 8959SOL    HW127776   6.247   2.591   3.386
 8959SOL    HW227777   6.295   2.434   3.381
 8960SOL     OW27778   5.271   4.651   2.953
 8960SOL    HW127779   5.269   4.740   2.908
 8960SOL    HW227780   5.268   4.664   3.052
 8961SOL     OW27781   2.094   1.293   4.964
 8961SOL    HW127782   2.178   1.271   4.913
 8961SOL    HW227783   2.093   1.390   4.985
 8962SOL     OW27784   6.640   5.847   2.046
 8962SOL    HW127785   6.604   5.857   2.139
 8962SOL    HW227786   6.571   5.802   1.989
 8963SOL     OW27787   4.525   6.502   5.754
 8963SOL    HW127788   4.507   6.588   5.802
 8963SOL    HW227789   4.503   6.425   5.814
 8964SOL     OW27790   1.519   2.783   4.752
 8964SOL    HW127791   1.512   2.739   4.842
 8964SOL    HW227792   1.580   2.862   4.758
 8965SOL     OW27793   3.853   5.926   6.320
 8965SOL    HW127794   3.855   5.827   6.303
 8965SOL    HW227795   3.831   5.943   6.416
 8966SOL     OW27796   4.267   6.002   4.610
 8966SOL    HW127797   4.180   5.972   4.648
 8966SOL    HW227798   4.252   6.039   4.518
 8967SOL     OW27799   3.268   0.235   3.360
 8967SOL    HW127800   3.331   0.189   3.298
 8967SOL    HW227801   3.307   0.237   3.452
 8968SOL     OW27802   3.176   4.990   2.263
 8968SOL    HW127803   3.258   4.941   2.232
 8968SOL    HW227804   3.204   5.070   2.316
 8969SOL     OW27805   1.087   1.068   2.481
 8969SOL    HW127806   1.114   1.073   2.385
 8969SOL    HW227807   1.137   0.993   2.526
 8970SOL     OW27808   1.765   0.037   3.823
 8970SOL    HW127809   1.817   0.030   3.738
 8970SOL    HW227810   1.759   0.133   3.850
 8971SOL     OW27811   3.258   4.365   0.139
 8971SOL    HW127812   3.283   4.364   0.043
 8971SOL    HW227813   3.336   4.393   0.194
 8972SOL     OW27814   6.078   4.044   6.757
 8972SOL    HW127815   6.162   4.042   6.703
 8972SOL    HW227816   6.100   4.029   6.853
 8973SOL     OW27817   1.780   2.672   2.977
 8973SOL    HW127818   1.683   2.657   2.959
 8973SOL    HW227819   1.792   2.707   3.070
 8974SOL     OW27820   2.368   4.473   4.847
 8974SOL    HW127821   2.433   4.521   4.905
 8974SOL    HW227822   2.331   4.394   4.897
 8975SOL     OW27823   0.211   5.240   5.656
 8975SOL    HW127824   0.232   5.265   5.751
 8975SOL    HW227825   0.273   5.168   5.626
 8976SOL     OW27826   6.111   0.405   2.396
 8976SOL    HW127827   6.096   0.465   2.474
 8976SOL    HW227828   6.186   0.441   2.341
 8977SOL     OW27829   6.459   4.395   6.370
 8977SOL    HW127830   6.478   4.441   6.284
 8977SOL    HW227831   6.380   4.334   6.358
 8978SOL     OW27832   6.234   6.082   6.991
 8978SOL    HW127833   6.283   6.051   0.052
 8978SOL    HW227834   6.193   6.172   7.009
 8979SOL     OW27835   1.518   5.330   4.743
 8979SOL    HW127836   1.523   5.231   4.751
 8979SOL    HW227837   1.588   5.362   4.679
 8980SOL     OW27838   3.721   1.010   6.807
 8980SOL    HW127839   3.734   0.927   6.861
 8980SOL    HW227840   3.647   0.996   6.741
 8981SOL     OW27841   4.696   3.754   6.353
 8981SOL    HW127842   4.788   3.738   6.318
 8981SOL    HW227843   4.635   3.779   6.278
 8982SOL     OW27844   0.282   2.077   2.063
 8982SOL    HW127845   0.314   2.044   1.974
 8982SOL    HW227846   0.303   2.175   2.072
 8983SOL     OW27847   1.930   6.351   2.007
 8983SOL    HW127848   1.936   6.436   2.059
 8983SOL    HW227849   1.917   6.372   1.910
 8984SOL     OW27850   6.995   0.872   4.021
 8984SOL    HW127851   0.061   0.882   4.071
 8984SOL    HW227852   6.927   0.828   4.080
 8985SOL     OW27853   4.905   1.768   1.891
 8985SOL    HW127854   4.905   1.827   1.811
 8985SOL    HW227855   4.901   1.672   1.862
 8986SOL     OW27856   0.003   4.687   0.054
 8986SOL    HW127857   0.068   4.618   0.022
 8986SOL    HW227858   0.042   4.736   0.132
 8987SOL     OW27859   2.236   6.273   1.893
 8987SOL    HW127860   2.139   6.285   1.917
 8987SOL    HW227861   2.251   6.298   1.798
 8988SOL     OW27862   2.516   6.877   1.145
 8988SOL    HW127863   2.416   6.886   1.148
 8988SOL    HW227864   2.553   6.889   1.237
 8989SOL     OW27865   5.424   1.408   3.276
 8989SOL    HW127866   5.477   1.393   3.193
 8989SOL    HW227867   5.377   1.324   3.302
 8990SOL     OW27868   2.734   0.350   2.173
 8990SOL    HW127869   2.816   0.348   2.230
 8990SOL    HW227870   2.721   0.443   2.138
 8991SOL     OW27871   1.051   1.737   0.649
 8991SOL    HW127872   0.994   1.815   0.674
 8991SOL    HW227873   1.019   1.656   0.697
 8992SOL     OW27874   0.609   4.069   6.187
 8992SOL    HW127875   0.580   4.062   6.282
 8992SOL    HW227876   0.538   4.031   6.128
 8993SOL     OW27877   5.405   3.751   5.126
 8993SOL    HW127878   5.340   3.679   5.103
 8993SOL    HW227879   5.355   3.835   5.150
 8994SOL     OW27880   1.166   5.678   2.692
 8994SOL    HW127881   1.134   5.703   2.784
 8994SOL    HW227882   1.223   5.596   2.698
 8995SOL     OW27883   2.097   3.743   4.993
 8995SOL    HW127884   2.126   3.800   4.916
 8995SOL    HW227885   1.997   3.741   4.996
 8996SOL     OW27886   1.352   4.017   1.991
 8996SOL    HW127887   1.418   3.944   1.974
 8996SOL    HW227888   1.260   3.983   1.973
 8997SOL     OW27889   4.417   1.903   5.483
 8997SOL    HW127890   4.331   1.885   5.436
 8997SOL    HW227891   4.407   1.985   5.540
 8998SOL     OW27892   0.881   1.697   6.315
 8998SOL    HW127893   0.869   1.602   6.287
 8998SOL    HW227894   0.973   1.728   6.292
 8999SOL     OW27895   4.979   1.163   4.890
 8999SOL    HW127896   4.931   1.250   4.897
 8999SOL    HW227897   4.936   1.095   4.950
 9000SOL     OW27898   2.426   4.199   0.319
 9000SOL    HW127899   2.382   4.205   0.229
 9000SOL    HW227900   2.368   4.244   0.387
 9001SOL     OW27901   1.820   4.516   3.767
 9001SOL    HW127902   1.919   4.505   3.779
 9001SOL    HW227903   1.795   4.489   3.674
 9002SOL     OW27904   5.239   4.551   5.564
 9002SOL    HW127905   5.339   4.555   5.556
 9002SOL    HW227906   5.209   4.456   5.552
 9003SOL     OW27907   6.361   3.240   6.142
 9003SOL    HW127908   6.320   3.164   6.093
 9003SOL    HW227909   6.360   3.222   6.240
 9004SOL     OW27910   4.650   5.479   0.523
 9004SOL    HW127911   4.686   5.414   0.456
 9004SOL    HW227912   4.591   5.431   0.588
 9005SOL     OW27913   4.330   2.049   3.036
 9005SOL    HW127914   4.373   2.091   2.957
 9005SOL    HW227915   4.230   2.056   3.028
 9006SOL     OW27916   2.028   6.708   0.956
 9006SOL    HW127917   1.939   6.753   0.967
 9006SOL    HW227918   2.035   6.669   0.865
 9007SOL     OW27919   2.505   6.627   4.107
 9007SOL    HW127920   2.558   6.612   4.023
 9007SOL    HW227921   2.443   6.549   4.121
 9008SOL     OW27922   6.500   4.491   2.737
 9008SOL    HW127923   6.548   4.578   2.749
 9008SOL    HW227924   6.425   4.484   2.802
 9009SOL     OW27925   4.106   6.179   1.093
 9009SOL    HW127926   4.105   6.114   1.169
 9009SOL    HW227927   4.012   6.192   1.060
 9010SOL     OW27928   0.896   5.457   4.882
 9010SOL    HW127929   0.987   5.469   4.843
 9010SOL    HW227930   0.889   5.511   4.966
 9011SOL     OW27931   4.140   1.934   1.977
 9011SOL    HW127932   4.113   1.850   2.024
 9011SOL    HW227933   4.108   1.930   1.882
 9012SOL     OW27934   6.139   5.368   1.811
 9012SOL    HW127935   6.070   5.308   1.851
 9012SOL    HW227936   6.133   5.458   1.854
 9013SOL     OW27937   4.847   5.990   2.809
 9013SOL    HW127938   4.774   5.968   2.744
 9013SOL    HW227939   4.880   5.906   2.852
 9014SOL     OW27940   2.602   0.870   0.779
 9014SOL    HW127941   2.519   0.845   0.729
 9014SOL    HW227942   2.653   0.938   0.727
 9015SOL     OW27943   6.658   1.515   5.173
 9015SOL    HW127944   6.568   1.513   5.128
 9015SOL    HW227945   6.650   1.477   5.264
 9016SOL     OW27946   6.831   5.972   6.487
 9016SOL    HW127947   6.832   6.047   6.554
 9016SOL    HW227948   6.762   5.991   6.418
 9017SOL     OW27949   0.489   4.246   3.782
 9017SOL    HW127950   0.538   4.218   3.699
 9017SOL    HW227951   0.453   4.164   3.827
 9018SOL     OW27952   3.521   1.729   5.960
 9018SOL    HW127953   3.437   1.784   5.966
 9018SOL    HW227954   3.523   1.679   5.874
 9019SOL     OW27955   1.914   6.115   0.124
 9019SOL    HW127956   1.824   6.094   0.162
 9019SOL    HW227957   1.904   6.161   0.036
 9020SOL     OW27958   0.063   4.617   2.654
 9020SOL    HW127959   0.142   4.622   2.714
 9020SOL    HW227960   0.022   4.526   2.660
 9021SOL     OW27961   6.598   6.013   5.063
 9021SOL    HW127962   6.634   6.036   4.973
 9021SOL    HW227963   6.639   5.927   5.095
 9022SOL     OW27964   3.290   1.223   6.271
 9022SOL    HW127965   3.231   1.289   6.318
 9022SOL    HW227966   3.281   1.235   6.172
 9023SOL     OW27967   3.412   2.966   3.004
 9023SOL    HW127968   3.388   2.962   3.101
 9023SOL    HW227969   3.505   3.001   2.994
 9024SOL     OW27970   1.794   0.281   6.532
 9024SOL    HW127971   1.775   0.372   6.494
 9024SOL    HW227972   1.892   0.264   6.528
 9025SOL     OW27973   0.283   4.466   0.993
 9025SOL    HW127974   0.192   4.470   1.033
 9025SOL    HW227975   0.317   4.372   0.995
 9026SOL     OW27976   3.053   3.177   5.332
 9026SOL    HW127977   3.099   3.223   5.408
 9026SOL    HW227978   3.029   3.083   5.360
 9027SOL     OW27979   2.617   2.404   2.904
 9027SOL    HW127980   2.556   2.475   2.939
 9027SOL    HW227981   2.646   2.345   2.980
 9028SOL     OW27982   2.353   4.761   5.210
 9028SOL    HW127983   2.447   4.794   5.196
 9028SOL    HW227984   2.295   4.793   5.135
 9029SOL     OW27985   4.727   5.169   2.850
 9029SOL    HW127986   4.777   5.210   2.926
 9029SOL    HW227987   4.629   5.179   2.866
 9030SOL     OW27988   3.065   1.749   1.701
 9030SOL    HW127989   3.144   1.708   1.657
 9030SOL    HW227990   3.062   1.722   1.797
 9031SOL     OW27991   1.573   1.190   0.724
 9031SOL    HW127992   1.499   1.136   0.683
 9031SOL    HW227993   1.558   1.287   0.704
 9032SOL     OW27994   1.201   1.971   2.823
 9032SOL    HW127995   1.232   2.031   2.749
 9032SOL    HW227996   1.228   1.877   2.803
 9033SOL     OW27997   1.653   3.862   2.750
 9033SOL    HW127998   1.737   3.909   2.776
 9033SOL    HW227999   1.574   3.918   2.774
 9034SOL     OW28000   1.597   0.232   5.854
 9034SOL    HW128001   1.648   0.158   5.809
 9034SOL    HW228002   1.500   0.209   5.856
 9035SOL     OW28003   6.784   0.767   4.159
 9035SOL    HW128004   6.700   0.792   4.111
 9035SOL    HW228005   6.784   0.808   4.250
 9036SOL     OW28006   1.122   1.565   5.254
 9036SOL    HW128007   1.107   1.653   5.210
 9036SOL    HW228008   1.215   1.562   5.292
 9037SOL     OW28009   2.770   3.879   6.016
 9037SOL    HW128010   2.765   3.978   6.003
 9037SOL    HW228011   2.850   3.843   5.968
 9038SOL     OW28012   5.587   6.784   5.526
 9038SOL    HW128013   5.657   6.798   5.456
 9038SOL    HW228014   5.553   6.690   5.520
 9039SOL     OW28015   2.133   5.125   6.353
 9039SOL    HW128016   2.067   5.092   6.285
 9039SOL    HW228017   2.121   5.223   6.367
 9040SOL     OW28018   2.411   1.612   1.885
 9040SOL    HW128019   2.343   1.655   1.826
 9040SOL    HW228020   2.498   1.605   1.837
 9041SOL     OW28021   1.675   3.076   7.014
 9041SOL    HW128022   1.756   3.121   0.031
 9041SOL    HW228023   1.702   3.009   6.945
 9042SOL     OW28024   2.482   5.436   3.584
 9042SOL    HW128025   2.507   5.380   3.663
 9042SOL    HW228026   2.392   5.407   3.551
 9043SOL     OW28027   7.007   2.460   0.658
 9043SOL    HW128028   6.963   2.548   0.679
 9043SOL    HW228029   6.943   2.386   0.678
 9044SOL     OW28030   6.618   4.804   0.636
 9044SOL    HW128031   6.700   4.859   0.649
 9044SOL    HW228032   6.644   4.710   0.617
 9045SOL     OW28033   3.449   6.133   3.934
 9045SOL    HW128034   3.534   6.083   3.950
 9045SOL    HW228035   3.469   6.216   3.881
 9046SOL     OW28036   3.553   4.252   5.940
 9046SOL    HW128037   3.578   4.326   5.877
 9046SOL    HW228038   3.486   4.192   5.897
 9047SOL     OW28039   1.290   4.406   4.879
 9047SOL    HW128040   1.303   4.422   4.977
 9047SOL    HW228041   1.213   4.345   4.864
 9048SOL     OW28042   1.279   2.345   5.110
 9048SOL    HW128043   1.315   2.351   5.017
 9048SOL    HW228044   1.355   2.339   5.175
 9049SOL     OW28045   5.047   6.094   6.417
 9049SOL    HW128046   4.971   6.157   6.431
 9049SOL    HW228047   5.125   6.143   6.380
 9050SOL     OW28048   0.131   5.952   5.363
 9050SOL    HW128049   0.174   5.861   5.359
 9050SOL    HW228050   0.189   6.013   5.417
 9051SOL     OW28051   5.139   6.273   6.151
 9051SOL    HW128052   5.158   6.185   6.108
 9051SOL    HW228053   5.193   6.344   6.105
 9052SOL     OW28054   2.055   5.352   4.884
 9052SOL    HW128055   1.977   5.298   4.853
 9052SOL    HW228056   2.117   5.294   4.937
 9053SOL     OW28057   2.588   1.534   3.986
 9053SOL    HW128058   2.644   1.499   4.061
 9053SOL    HW228059   2.508   1.581   4.022
 9054SOL     OW28060   3.703   0.321   1.118
 9054SOL    HW128061   3.801   0.300   1.125
 9054SOL    HW228062   3.654   0.240   1.086
 9055SOL     OW28063   0.862   1.371   4.413
 9055SOL    HW128064   0.895   1.461   4.382
 9055SOL    HW228065   0.780   1.347   4.362
 9056SOL     OW28066   5.662   1.631   2.482
 9056SOL    HW128067   5.687   1.723   2.512
 9056SOL    HW228068   5.629   1.578   2.560
 9057SOL     OW28069   4.272   6.812   6.915
 9057SOL    HW128070   4.359   6.772   6.947
 9057SOL    HW228071   4.196   6.770   6.964
 9058SOL     OW28072   2.144   2.395   4.706
 9058SOL    HW128073   2.073   2.441   4.760
 9058SOL    HW228074   2.187   2.461   4.645
 9059SOL     OW28075   6.479   0.850   3.063
 9059SOL    HW128076   6.477   0.868   2.965
 9059SOL    HW228077   6.464   0.752   3.079
 9060SOL     OW28078   1.061   5.579   1.904
 9060SOL    HW128079   1.004   5.501   1.879
 9060SOL    HW228080   1.122   5.603   1.829
 9061SOL     OW28081   5.866   4.136   2.903
 9061SOL    HW128082   5.900   4.051   2.864
 9061SOL    HW228083   5.794   4.173   2.846
 9062SOL     OW28084   0.361   5.822   2.796
 9062SOL    HW128085   0.411   5.743   2.831
 9062SOL    HW228086   0.307   5.795   2.716
 9063SOL     OW28087   4.576   1.923   1.705
 9063SOL    HW128088   4.500   1.983   1.728
 9063SOL    HW228089   4.584   1.915   1.605
 9064SOL     OW28090   0.712   5.583   2.981
 9064SOL    HW128091   0.676   5.564   3.073
 9064SOL    HW228092   0.805   5.546   2.974
 9065SOL     OW28093   2.923   4.422   5.637
 9065SOL    HW128094   2.927   4.404   5.539
 9065SOL    HW228095   2.933   4.520   5.654
 9066SOL     OW28096   4.852   4.996   4.584
 9066SOL    HW128097   4.754   4.986   4.600
 9066SOL    HW228098   4.893   4.905   4.569
 9067SOL     OW28099   0.961   6.064   4.491
 9067SOL    HW128100   0.976   6.129   4.417
 9067SOL    HW228101   1.047   6.049   4.540
 9068SOL     OW28102   4.585   0.221   6.087
 9068SOL    HW128103   4.551   0.215   5.993
 9068SOL    HW228104   4.645   0.300   6.094
 9069SOL     OW28105   5.077   2.191   0.849
 9069SOL    HW128106   4.986   2.150   0.859
 9069SOL    HW228107   5.111   2.174   0.757
 9070SOL     OW28108   1.750   1.655   5.890
 9070SOL    HW128109   1.818   1.657   5.817
 9070SOL    HW228110   1.658   1.665   5.852
 9071SOL     OW28111   5.153   2.571   6.172
 9071SOL    HW128112   5.211   2.489   6.172
 9071SOL    HW228113   5.101   2.575   6.087
 9072SOL     OW28114   5.032   0.365   2.885
 9072SOL    HW128115   4.975   0.361   2.803
 9072SOL    HW228116   4.982   0.325   2.962
 9073SOL     OW28117   4.616   2.231   5.251
 9073SOL    HW128118   4.647   2.253   5.159
 9073SOL    HW228119   4.694   2.221   5.312
 9074SOL     OW28120   1.618   0.815   2.187
 9074SOL    HW128121   1.542   0.879   2.178
 9074SOL    HW228122   1.597   0.731   2.137
 9075SOL     OW28123   6.032   6.156   0.757
 9075SOL    HW128124   6.085   6.071   0.752
 9075SOL    HW228125   5.997   6.179   0.667
 9076SOL     OW28126   6.487   0.347   2.500
 9076SOL    HW128127   6.527   0.393   2.580
 9076SOL    HW228128   6.447   0.260   2.529
 9077SOL     OW28129   6.604   1.486   6.265
 9077SOL    HW128130   6.698   1.455   6.279
 9077SOL    HW228131   6.562   1.431   6.193
 9078SOL     OW28132   5.027   6.143   0.156
 9078SOL    HW128133   5.057   6.057   0.196
 9078SOL    HW228134   5.044   6.217   0.221
 9079SOL     OW28135   1.253   1.507   0.088
 9079SOL    HW128136   1.246   1.607   0.099
 9079SOL    HW228137   1.315   1.471   0.158
 9080SOL     OW28138   6.245   3.306   1.802
 9080SOL    HW128139   6.327   3.249   1.810
 9080SOL    HW228140   6.207   3.320   1.893
 9081SOL     OW28141   5.316   1.101   0.268
 9081SOL    HW128142   5.364   1.017   0.294
 9081SOL    HW228143   5.379   1.178   0.274
 9082SOL     OW28144   3.487   5.791   6.076
 9082SOL    HW128145   3.473   5.860   6.005
 9082SOL    HW228146   3.474   5.700   6.038
 9083SOL     OW28147   4.428   5.137   6.671
 9083SOL    HW128148   4.496   5.072   6.639
 9083SOL    HW228149   4.434   5.146   6.770
 9084SOL     OW28150   7.009   2.576   6.148
 9084SOL    HW128151   6.995   2.561   6.246
 9084SOL    HW228152   6.962   2.660   6.121
 9085SOL     OW28153   2.084   4.874   6.990
 9085SOL    HW128154   2.053   4.827   0.053
 9085SOL    HW228155   2.080   4.973   7.003
 9086SOL     OW28156   0.450   4.622   0.860
 9086SOL    HW128157   0.411   4.546   0.912
 9086SOL    HW228158   0.377   4.668   0.809
 9087SOL     OW28159   5.627   1.042   1.738
 9087SOL    HW128160   5.687   1.044   1.658
 9087SOL    HW228161   5.536   1.010   1.711
 9088SOL     OW28162   6.386   6.495   0.742
 9088SOL    HW128163   6.310   6.519   0.802
 9088SOL    HW228164   6.400   6.567   0.675
 9089SOL     OW28165   5.372   5.157   3.966
 9089SOL    HW128166   5.278   5.156   3.999
 9089SOL    HW228167   5.417   5.072   3.990
 9090SOL     OW28168   5.073   6.486   5.474
 9090SOL    HW128169   5.002   6.492   5.403
 9090SOL    HW228170   5.162   6.506   5.434
 9091SOL     OW28171   1.994   1.538   1.535
 9091SOL    HW128172   1.985   1.528   1.634
 9091SOL    HW228173   2.081   1.498   1.505
 9092SOL     OW28174   1.650   1.288   5.747
 9092SOL    HW128175   1.653   1.365   5.682
 9092SOL    HW228176   1.691   1.207   5.705
 9093SOL     OW28177   2.173   4.198   0.541
 9093SOL    HW128178   2.208   4.113   0.502
 9093SOL    HW228179   2.074   4.202   0.529
 9094SOL     OW28180   6.892   4.498   1.695
 9094SOL    HW128181   6.915   4.402   1.685
 9094SOL    HW228182   6.800   4.507   1.734
 9095SOL     OW28183   3.345   2.769   0.133
 9095SOL    HW128184   3.429   2.793   0.085
 9095SOL    HW228185   3.308   2.684   0.096
 9096SOL     OW28186   5.147   2.865   2.905
 9096SOL    HW128187   5.111   2.958   2.914
 9096SOL    HW228188   5.089   2.802   2.957
 9097SOL     OW28189   0.924   5.310   6.557
 9097SOL    HW128190   0.877   5.364   6.627
 9097SOL    HW228191   0.859   5.285   6.485
 9098SOL     OW28192   4.148   3.601   2.954
 9098SOL    HW128193   4.172   3.650   2.869
 9098SOL    HW228194   4.054   3.569   2.948
 9099SOL     OW28195   2.159   3.437   0.722
 9099SOL    HW128196   2.232   3.374   0.749
 9099SOL    HW228197   2.078   3.420   0.778
 9100SOL     OW28198   0.377   3.129   1.511
 9100SOL    HW128199   0.431   3.213   1.514
 9100SOL    HW228200   0.439   3.050   1.501
 9101SOL     OW28201   2.012   2.669   1.288
 9101SOL    HW128202   2.002   2.644   1.384
 9101SOL    HW228203   2.065   2.753   1.280
 9102SOL     OW28204   3.690   5.342   2.225
 9102SOL    HW128205   3.621   5.312   2.158
 9102SOL    HW228206   3.644   5.377   2.306
 9103SOL     OW28207   0.495   3.801   0.079
 9103SOL    HW128208   0.422   3.814   0.012
 9103SOL    HW228209   0.457   3.804   0.172
 9104SOL     OW28210   4.729   0.018   1.365
 9104SOL    HW128211   4.733   6.998   1.273
 9104SOL    HW228212   4.721   0.118   1.358
 9105SOL     OW28213   1.754   2.124   5.745
 9105SOL    HW128214   1.846   2.154   5.717
 9105SOL    HW228215   1.692   2.129   5.666
 9106SOL     OW28216   6.870   5.284   0.715
 9106SOL    HW128217   6.782   5.330   0.704
 9106SOL    HW228218   6.874   5.238   0.804
 9107SOL     OW28219   4.263   0.543   1.595
 9107SOL    HW128220   4.277   0.457   1.546
 9107SOL    HW228221   4.335   0.554   1.665
 9108SOL     OW28222   4.618   5.416   5.771
 9108SOL    HW128223   4.699   5.470   5.746
 9108SOL    HW228224   4.591   5.359   5.694
 9109SOL     OW28225   2.920   1.873   3.874
 9109SOL    HW128226   2.987   1.801   3.889
 9109SOL    HW228227   2.930   1.909   3.781
 9110SOL     OW28228   1.824   3.914   3.687
 9110SOL    HW128229   1.894   3.869   3.632
 9110SOL    HW228230   1.868   3.968   3.759
 9111SOL     OW28231   3.959   4.126   1.575
 9111SOL    HW128232   3.874   4.125   1.628
 9111SOL    HW228233   3.936   4.134   1.478
 9112SOL     OW28234   0.172   4.798   2.197
 9112SOL    HW128235   0.146   4.751   2.113
 9112SOL    HW228236   0.134   4.891   2.197
 9113SOL     OW28237   4.501   0.044   0.570
 9113SOL    HW128238   4.529   0.022   0.477
 9113SOL    HW228239   4.544   7.000   0.634
 9114SOL     OW28240   2.761   4.422   1.642
 9114SOL    HW128241   2.824   4.390   1.713
 9114SOL    HW228242   2.792   4.511   1.608
 9115SOL     OW28243   1.604   4.706   5.214
 9115SOL    HW128244   1.549   4.780   5.176
 9115SOL    HW228245   1.549   4.653   5.279
 9116SOL     OW28246   0.342   1.323   6.043
 9116SOL    HW128247   0.258   1.371   6.017
 9116SOL    HW228248   0.417   1.388   6.051
 9117SOL     OW28249   6.642   2.224   0.061
 9117SOL    HW128250   6.637   2.321   0.037
 9117SOL    HW228251   6.723   2.183   0.019
 9118SOL     OW28252   6.302   6.811   1.771
 9118SOL    HW128253   6.360   6.733   1.792
 9118SOL    HW228254   6.290   6.818   1.672
 9119SOL     OW28255   6.534   0.651   1.528
 9119SOL    HW128256   6.458   0.618   1.584
 9119SOL    HW228257   6.618   0.650   1.581
 9120SOL     OW28258   5.647   1.277   6.246
 9120SOL    HW128259   5.615   1.182   6.250
 9120SOL    HW228260   5.733   1.281   6.196
 9121SOL     OW28261   0.629   0.912   6.277
 9121SOL    HW128262   0.587   0.993   6.236
 9121SOL    HW228263   0.641   0.928   6.375
 9122SOL     OW28264   1.504   2.881   2.278
 9122SOL    HW128265   1.568   2.952   2.306
 9122SOL    HW228266   1.555   2.808   2.232
 9123SOL     OW28267   2.248   5.801   6.648
 9123SOL    HW128268   2.277   5.706   6.641
 9123SOL    HW228269   2.214   5.819   6.740
 9124SOL     OW28270   6.346   5.792   5.337
 9124SOL    HW128271   6.279   5.854   5.298
 9124SOL    HW228272   6.433   5.800   5.288
 9125SOL     OW28273   5.075   4.306   3.723
 9125SOL    HW128274   5.104   4.391   3.679
 9125SOL    HW228275   4.976   4.295   3.713
 9126SOL     OW28276   6.123   0.759   1.406
 9126SOL    HW128277   6.173   0.727   1.326
 9126SOL    HW228278   6.174   0.831   1.451
 9127SOL     OW28279   5.249   0.549   0.077
 9127SOL    HW128280   5.180   0.477   0.078
 9127SOL    HW228281   5.339   0.508   0.060
 9128SOL     OW28282   4.000   1.969   4.933
 9128SOL    HW128283   4.063   2.043   4.909
 9128SOL    HW228284   4.033   1.883   4.893
 9129SOL     OW28285   2.023   1.706   6.808
 9129SOL    HW128286   1.973   1.731   6.891
 9129SOL    HW228287   2.107   1.762   6.802
 9130SOL     OW28288   5.903   4.758   0.717
 9130SOL    HW128289   5.954   4.700   0.780
 9130SOL    HW228290   5.865   4.836   0.767
 9131SOL     OW28291   1.013   4.062   4.369
 9131SOL    HW128292   1.098   4.114   4.371
 9131SOL    HW228293   0.939   4.119   4.334
 9132SOL     OW28294   6.961   3.646   4.426
 9132SOL    HW128295   6.911   3.721   4.383
 9132SOL    HW228296   6.897   3.573   4.453
 9133SOL     OW28297   2.980   4.407   0.886
 9133SOL    HW128298   2.991   4.416   0.787
 9133SOL    HW228299   2.977   4.310   0.911
 9134SOL     OW28300   2.909   6.124   6.361
 9134SOL    HW128301   2.963   6.207   6.346
 9134SOL    HW228302   2.909   6.101   6.458
 9135SOL     OW28303   6.348   5.869   3.865
 9135SOL    HW128304   6.250   5.882   3.876
 9135SOL    HW228305   6.395   5.887   3.952
 9136SOL     OW28306   4.918   5.354   5.760
 9136SOL    HW128307   4.948   5.346   5.855
 9136SOL    HW228308   4.906   5.263   5.721
 9137SOL     OW28309   4.255   1.310   1.744
 9137SOL    HW128310   4.304   1.384   1.698
 9137SOL    HW228311   4.306   1.225   1.733
 9138SOL     OW28312   4.784   5.264   6.282
 9138SOL    HW128313   4.756   5.352   6.246
 9138SOL    HW228314   4.751   5.191   6.222
 9139SOL     OW28315   3.643   1.592   5.443
 9139SOL    HW128316   3.680   1.559   5.530
 9139SOL    HW228317   3.601   1.516   5.394
 9140SOL     OW28318   6.905   2.416   2.688
 9140SOL    HW128319   6.842   2.493   2.683
 9140SOL    HW228320   6.967   2.428   2.766
 9141SOL     OW28321   5.295   0.150   5.504
 9141SOL    HW128322   5.373   0.206   5.534
 9141SOL    HW228323   5.220   0.210   5.476
 9142SOL     OW28324   0.384   2.990   6.169
 9142SOL    HW128325   0.290   2.961   6.148
 9142SOL    HW228326   0.446   2.953   6.100
 9143SOL     OW28327   4.535   2.955   0.595
 9143SOL    HW128328   4.622   2.985   0.634
 9143SOL    HW228329   4.534   2.855   0.588
 9144SOL     OW28330   2.216   5.529   5.665
 9144SOL    HW128331   2.202   5.430   5.667
 9144SOL    HW228332   2.305   5.549   5.625
 9145SOL     OW28333   0.152   4.484   6.977
 9145SOL    HW128334   0.115   4.416   0.020
 9145SOL    HW228335   0.165   4.442   6.887
 9146SOL     OW28336   6.124   2.588   1.074
 9146SOL    HW128337   6.118   2.615   1.171
 9146SOL    HW228338   6.047   2.528   1.052
 9147SOL     OW28339   4.457   5.587   4.357
 9147SOL    HW128340   4.406   5.635   4.286
 9147SOL    HW228341   4.397   5.523   4.404
 9148SOL     OW28342   4.982   5.548   3.423
 9148SOL    HW128343   4.996   5.535   3.325
 9148SOL    HW228344   5.039   5.623   3.455
 9149SOL     OW28345   4.841   2.715   4.597
 9149SOL    HW128346   4.864   2.657   4.674
 9149SOL    HW228347   4.808   2.804   4.630
 9150SOL     OW28348   4.862   0.327   3.101
 9150SOL    HW128349   4.814   0.406   3.139
 9150SOL    HW228350   4.798   0.251   3.091
 9151SOL     OW28351   1.516   4.163   2.138
 9151SOL    HW128352   1.439   4.114   2.096
 9151SOL    HW228353   1.522   4.255   2.098
 9152SOL     OW28354   2.376   6.311   3.460
 9152SOL    HW128355   2.293   6.364   3.445
 9152SOL    HW228356   2.417   6.338   3.547
 9153SOL     OW28357   1.760   2.439   6.440
 9153SOL    HW128358   1.692   2.387   6.492
 9153SOL    HW228359   1.843   2.384   6.429
 9154SOL     OW28360   2.738   5.872   6.853
 9154SOL    HW128361   2.687   5.948   6.892
 9154SOL    HW228362   2.708   5.857   6.758
 9155SOL     OW28363   1.915   4.095   6.436
 9155SOL    HW128364   1.974   4.094   6.517
 9155SOL    HW228365   1.830   4.142   6.457
 9156SOL     OW28366   4.283   2.521   1.521
 9156SOL    HW128367   4.378   2.553   1.522
 9156SOL    HW228368   4.228   2.582   1.464
 9157SOL     OW28369   5.604   3.914   5.523
 9157SOL    HW128370   5.609   3.856   5.441
 9157SOL    HW228371   5.696   3.943   5.549
 9158SOL     OW28372   0.424   3.376   4.142
 9158SOL    HW128373   0.420   3.450   4.208
 9158SOL    HW228374   0.370   3.400   4.061
 9159SOL     OW28375   6.437   5.545   2.134
 9159SOL    HW128376   6.410   5.640   2.146
 9159SOL    HW228377   6.504   5.538   2.060
 9160SOL     OW28378   0.727   6.963   6.267
 9160SOL    HW128379   0.705   0.018   6.330
 9160SOL    HW228380   0.707   6.876   6.311
 9161SOL     OW28381   5.011   3.441   4.754
 9161SOL    HW128382   5.008   3.541   4.756
 9161SOL    HW228383   4.967   3.408   4.670
 9162SOL     OW28384   4.543   2.570   2.519
 9162SOL    HW128385   4.459   2.592   2.471
 9162SOL    HW228386   4.614   2.546   2.453
 9163SOL     OW28387   3.006   2.192   3.608
 9163SOL    HW128388   3.081   2.186   3.674
 9163SOL    HW228389   3.041   2.221   3.519
 9164SOL     OW28390   2.674   0.564   6.911
 9164SOL    HW128391   2.735   0.492   6.879
 9164SOL    HW228392   2.619   0.598   6.835
 9165SOL     OW28393   5.688   0.972   6.577
 9165SOL    HW128394   5.624   0.900   6.605
 9165SOL    HW228395   5.697   1.039   6.651
 9166SOL     OW28396   3.621   5.378   0.960
 9166SOL    HW128397   3.710   5.368   0.917
 9166SOL    HW228398   3.587   5.471   0.943
 9167SOL     OW28399   1.571   3.661   5.907
 9167SOL    HW128400   1.570   3.596   5.831
 9167SOL    HW228401   1.477   3.685   5.932
 9168SOL     OW28402   2.242   0.136   5.630
 9168SOL    HW128403   2.225   0.221   5.580
 9168SOL    HW228404   2.198   0.141   5.720
 9169SOL     OW28405   0.437   0.953   4.173
 9169SOL    HW128406   0.465   1.003   4.091
 9169SOL    HW228407   0.496   0.978   4.250
 9170SOL     OW28408   6.890   5.237   0.439
 9170SOL    HW128409   6.840   5.151   0.430
 9170SOL    HW228410   6.909   5.255   0.536
 9171SOL     OW28411   2.981   5.816   6.988
 9171SOL    HW128412   2.905   5.821   6.923
 9171SOL    HW228413   3.048   5.886   6.965
 9172SOL     OW28414   3.515   0.970   4.462
 9172SOL    HW128415   3.529   1.067   4.483
 9172SOL    HW228416   3.489   0.922   4.545
 9173SOL     OW28417   6.595   4.776   5.157
 9173SOL    HW128418   6.549   4.689   5.174
 9173SOL    HW228419   6.544   4.828   5.088
 9174SOL     OW28420   0.189   4.750   6.840
 9174SOL    HW128421   0.102   4.788   6.809
 9174SOL    HW228422   0.175   4.655   6.869
 9175SOL     OW28423   2.175   5.831   6.010
 9175SOL    HW128424   2.156   5.873   5.922
 9175SOL    HW228425   2.274   5.827   6.025
 9176SOL     OW28426   2.088   0.848   5.689
 9176SOL    HW128427   1.993   0.820   5.678
 9176SOL    HW228428   2.107   0.926   5.629
 9177SOL     OW28429   1.215   4.195   4.103
 9177SOL    HW128430   1.300   4.239   4.075
 9177SOL    HW228431   1.173   4.247   4.177
 9178SOL     OW28432   2.492   5.346   0.891
 9178SOL    HW128433   2.553   5.333   0.813
 9178SOL    HW228434   2.397   5.346   0.860
 9179SOL     OW28435   3.149   5.244   3.802
 9179SOL    HW128436   3.154   5.343   3.792
 9179SOL    HW228437   3.193   5.200   3.723
 9180SOL     OW28438   5.801   2.215   4.065
 9180SOL    HW128439   5.861   2.159   4.008
 9180SOL    HW228440   5.836   2.215   4.159
 9181SOL     OW28441   4.183   1.866   2.280
 9181SOL    HW128442   4.203   1.808   2.360
 9181SOL    HW228443   4.190   1.962   2.306
 9182SOL     OW28444   1.137   6.209   2.290
 9182SOL    HW128445   1.151   6.233   2.386
 9182SOL    HW228446   1.152   6.111   2.278
 9183SOL     OW28447   5.013   6.120   0.832
 9183SOL    HW128448   5.044   6.154   0.921
 9183SOL    HW228449   5.017   6.020   0.832
 9184SOL     OW28450   4.882   0.140   0.961
 9184SOL    HW128451   4.971   0.160   0.921
 9184SOL    HW228452   4.815   0.206   0.927
 9185SOL     OW28453   3.358   0.866   5.344
 9185SOL    HW128454   3.308   0.913   5.270
 9185SOL    HW228455   3.426   0.805   5.304
 9186SOL     OW28456   6.268   0.903   5.245
 9186SOL    HW128457   6.239   0.990   5.205
 9186SOL    HW228458   6.253   0.906   5.344
 9187SOL     OW28459   2.322   6.392   2.241
 9187SOL    HW128460   2.254   6.464   2.235
 9187SOL    HW228461   2.288   6.318   2.299
 9188SOL     OW28462   3.114   6.694   0.732
 9188SOL    HW128463   3.018   6.682   0.757
 9188SOL    HW228464   3.163   6.608   0.745
 9189SOL     OW28465   5.288   5.455   2.961
 9189SOL    HW128466   5.339   5.496   2.886
 9189SOL    HW228467   5.190   5.474   2.949
 9190SOL     OW28468   1.981   5.583   0.391
 9190SOL    HW128469   1.896   5.532   0.401
 9190SOL    HW228470   2.001   5.631   0.477
 9191SOL     OW28471   6.278   0.460   5.754
 9191SOL    HW128472   6.358   0.519   5.764
 9191SOL    HW228473   6.275   0.395   5.831
 9192SOL     OW28474   0.539   3.991   4.297
 9192SOL    HW128475   0.459   3.980   4.239
 9192SOL    HW228476   0.539   3.920   4.368
 9193SOL     OW28477   3.575   3.266   6.586
 9193SOL    HW128478   3.483   3.226   6.577
 9193SOL    HW228479   3.581   3.347   6.528
 9194SOL     OW28480   3.158   0.711   3.594
 9194SOL    HW128481   3.199   0.791   3.637
 9194SOL    HW228482   3.064   0.701   3.627
 9195SOL     OW28483   2.151   2.287   4.438
 9195SOL    HW128484   2.113   2.294   4.530
 9195SOL    HW228485   2.246   2.258   4.443
 9196SOL     OW28486   4.741   1.441   5.191
 9196SOL    HW128487   4.770   1.433   5.096
 9196SOL    HW228488   4.645   1.470   5.194
 9197SOL     OW28489   2.465   3.741   1.603
 9197SOL    HW128490   2.547   3.707   1.649
 9197SOL    HW228491   2.486   3.827   1.557
 9198SOL     OW28492   6.256   5.533   5.668
 9198SOL    HW128493   6.213   5.444   5.680
 9198SOL    HW228494   6.268   5.577   5.757
 9199SOL     OW28495   0.068   4.288   5.293
 9199SOL    HW128496   0.156   4.251   5.265
 9199SOL    HW228497   0.003   4.213   5.305
 9200SOL     OW28498   3.212   0.544   0.864
 9200SOL    HW128499   3.155   0.463   0.855
 9200SOL    HW228500   3.268   0.537   0.947
 9201SOL     OW28501   1.643   3.630   0.033
 9201SOL    HW128502   1.741   3.616   0.049
 9201SOL    HW228503   1.594   3.623   0.120
 9202SOL     OW28504   1.667   6.805   3.545
 9202SOL    HW128505   1.683   6.858   3.462
 9202SOL    HW228506   1.668   6.707   3.523
 9203SOL     OW28507   0.106   5.307   0.675
 9203SOL    HW128508   0.147   5.393   0.645
 9203SOL    HW228509   0.010   5.322   0.699
 9204SOL     OW28510   4.922   1.415   6.206
 9204SOL    HW128511   4.933   1.389   6.110
 9204SOL    HW228512   4.921   1.514   6.214
 9205SOL     OW28513   6.843   3.913   2.933
 9205SOL    HW128514   6.822   3.833   2.989
 9205SOL    HW228515   6.761   3.970   2.924
 9206SOL     OW28516   4.206   6.057   0.463
 9206SOL    HW128517   4.143   6.058   0.386
 9206SOL    HW228518   4.295   6.021   0.434
 9207SOL     OW28519   4.884   5.733   0.443
 9207SOL    HW128520   4.955   5.673   0.408
 9207SOL    HW228521   4.810   5.739   0.377
 9208SOL     OW28522   0.087   3.751   4.746
 9208SOL    HW128523   0.068   3.828   4.807
 9208SOL    HW228524   0.005   3.693   4.740
 9209SOL     OW28525   2.846   1.312   6.613
 9209SOL    HW128526   2.778   1.305   6.686
 9209SOL    HW228527   2.908   1.388   6.631
 9210SOL     OW28528   6.652   1.344   3.047
 9210SOL    HW128529   6.650   1.368   3.144
 9210SOL    HW228530   6.582   1.275   3.028
 9211SOL     OW28531   0.150   2.116   3.740
 9211SOL    HW128532   0.072   2.072   3.784
 9211SOL    HW228533   0.230   2.109   3.800
 9212SOL     OW28534   3.063   5.384   4.886
 9212SOL    HW128535   3.018   5.380   4.798
 9212SOL    HW228536   3.035   5.467   4.935
 9213SOL     OW28537   5.887   3.480   5.856
 9213SOL    HW128538   5.931   3.394   5.882
 9213SOL    HW228539   5.888   3.489   5.756
 9214SOL     OW28540   0.295   5.785   0.366
 9214SOL    HW128541   0.371   5.724   0.347
 9214SOL    HW228542   0.321   5.850   0.438
 9215SOL     OW28543   1.219   0.693   0.165
 9215SOL    HW128544   1.291   0.762   0.158
 9215SOL    HW228545   1.259   0.602   0.155
 9216SOL     OW28546   2.214   0.164   2.446
 9216SOL    HW128547   2.183   0.152   2.540
 9216SOL    HW228548   2.253   0.078   2.413
 9217SOL     OW28549   0.255   2.060   6.654
 9217SOL    HW128550   0.295   1.999   6.722
 9217SOL    HW228551   0.315   2.064   6.574
 9218SOL     OW28552   3.527   0.243   0.746
 9218SOL    HW128553   3.601   0.211   0.687
 9218SOL    HW228554   3.484   0.165   0.790
 9219SOL     OW28555   1.150   2.645   0.999
 9219SOL    HW128556   1.153   2.644   0.899
 9219SOL    HW228557   1.126   2.737   1.030
 9220SOL     OW28558   3.609   6.666   1.350
 9220SOL    HW128559   3.663   6.650   1.433
 9220SOL    HW228560   3.534   6.600   1.346
 9221SOL     OW28561   2.949   6.518   3.638
 9221SOL    HW128562   2.916   6.490   3.728
 9221SOL    HW228563   3.023   6.457   3.609
 9222SOL     OW28564   2.339   1.375   6.566
 9222SOL    HW128565   2.260   1.413   6.614
 9222SOL    HW228566   2.382   1.446   6.510
 9223SOL     OW28567   2.081   2.809   5.520
 9223SOL    HW128568   1.990   2.788   5.554
 9223SOL    HW228569   2.074   2.850   5.429
 9224SOL     OW28570   2.111   5.355   4.274
 9224SOL    HW128571   2.081   5.308   4.357
 9224SOL    HW228572   2.175   5.296   4.224
 9225SOL     OW28573   3.229   6.277   6.676
 9225SOL    HW128574   3.169   6.258   6.754
 9225SOL    HW228575   3.187   6.346   6.618
 9226SOL     OW28576   5.132   6.223   1.103
 9226SOL    HW128577   5.065   6.226   1.177
 9226SOL    HW228578   5.204   6.157   1.125
 9227SOL     OW28579   1.215   5.369   2.403
 9227SOL    HW128580   1.232   5.458   2.359
 9227SOL    HW228581   1.117   5.352   2.407
 9228SOL     OW28582   1.569   1.160   6.361
 9228SOL    HW128583   1.615   1.078   6.327
 9228SOL    HW228584   1.627   1.240   6.342
 9229SOL     OW28585   1.307   6.064   3.962
 9229SOL    HW128586   1.228   6.094   4.014
 9229SOL    HW228587   1.333   5.972   3.992
 9230SOL     OW28588   5.557   0.281   4.043
 9230SOL    HW128589   5.601   0.318   4.124
 9230SOL    HW228590   5.597   0.193   4.020
 9231SOL     OW28591   1.153   2.292   4.216
 9231SOL    HW128592   1.083   2.346   4.263
 9231SOL    HW228593   1.187   2.220   4.278
 9232SOL     OW28594   3.553   5.594   0.738
 9232SOL    HW128595   3.493   5.599   0.658
 9232SOL    HW228596   3.631   5.535   0.717
 9233SOL     OW28597   5.728   4.843   1.394
 9233SOL    HW128598   5.755   4.939   1.405
 9233SOL    HW228599   5.654   4.836   1.327
 9234SOL     OW28600   2.890   5.411   3.685
 9234SOL    HW128601   2.982   5.447   3.701
 9234SOL    HW228602   2.853   5.451   3.602
 9235SOL     OW28603   0.774   1.909   3.140
 9235SOL    HW128604   0.752   1.840   3.072
 9235SOL    HW228605   0.808   1.991   3.094
 9236SOL     OW28606   3.167   3.651   4.951
 9236SOL    HW128607   3.169   3.731   4.891
 9236SOL    HW228608   3.088   3.595   4.929
 9237SOL     OW28609   1.377   3.777   4.380
 9237SOL    HW128610   1.429   3.790   4.465
 9237SOL    HW228611   1.280   3.769   4.402
 9238SOL     OW28612   4.789   2.826   6.778
 9238SOL    HW128613   4.846   2.799   6.856
 9238SOL    HW228614   4.755   2.744   6.732
 9239SOL     OW28615   1.098   3.781   0.885
 9239SOL    HW128616   1.048   3.861   0.853
 9239SOL    HW228617   1.034   3.705   0.898
 9240SOL     OW28618   4.900   1.960   1.687
 9240SOL    HW128619   4.911   2.054   1.720
 9240SOL    HW228620   4.895   1.960   1.587
 9241SOL     OW28621   6.812   5.314   6.885
 9241SOL    HW128622   6.855   5.233   6.923
 9241SOL    HW228623   6.848   5.332   6.794
 9242SOL     OW28624   6.536   6.083   1.626
 9242SOL    HW128625   6.611   6.086   1.692
 9242SOL    HW228626   6.452   6.115   1.670
 9243SOL     OW28627   6.685   6.157   4.585
 9243SOL    HW128628   6.772   6.197   4.614
 9243SOL    HW228629   6.644   6.108   4.662
 9244SOL     OW28630   4.195   5.314   6.606
 9244SOL    HW128631   4.234   5.225   6.629
 9244SOL    HW228632   4.261   5.367   6.553
 9245SOL     OW28633   0.611   5.747   2.215
 9245SOL    HW128634   0.606   5.721   2.119
 9245SOL    HW228635   0.695   5.711   2.256
 9246SOL     OW28636   6.379   5.104   3.675
 9246SOL    HW128637   6.299   5.136   3.626
 9246SOL    HW228638   6.454   5.088   3.611
 9247SOL     OW28639   0.708   6.636   2.843
 9247SOL    HW128640   0.774   6.617   2.770
 9247SOL    HW228641   0.634   6.568   2.839
 9248SOL     OW28642   2.859   2.384   6.031
 9248SOL    HW128643   2.861   2.346   6.124
 9248SOL    HW228644   2.919   2.330   5.972
 9249SOL     OW28645   5.026   1.111   4.171
 9249SOL    HW128646   4.962   1.041   4.139
 9249SOL    HW228647   5.107   1.110   4.114
 9250SOL     OW28648   4.896   3.864   4.017
 9250SOL    HW128649   4.898   3.874   4.117
 9250SOL    HW228650   4.973   3.914   3.977
 9251SOL     OW28651   3.585   1.570   3.137
 9251SOL    HW128652   3.633   1.528   3.060
 9251SOL    HW228653   3.633   1.653   3.166
 9252SOL     OW28654   0.218   6.684   4.963
 9252SOL    HW128655   0.193   6.642   4.876
 9252SOL    HW228656   0.188   6.625   5.038
 9253SOL     OW28657   2.017   6.994   5.561
 9253SOL    HW128658   2.108   0.016   5.571
 9253SOL    HW228659   1.951   0.045   5.533
 9254SOL     OW28660   5.557   3.652   1.347
 9254SOL    HW128661   5.480   3.605   1.303
 9254SOL    HW228662   5.632   3.661   1.282
 9255SOL     OW28663   5.405   3.600   0.682
 9255SOL    HW128664   5.321   3.583   0.734
 9255SOL    HW228665   5.449   3.513   0.661
 9256SOL     OW28666   4.219   4.630   2.138
 9256SOL    HW128667   4.140   4.589   2.092
 9256SOL    HW228668   4.302   4.582   2.110
 9257SOL     OW28669   0.921   3.914   2.043
 9257SOL    HW128670   0.900   3.938   2.137
 9257SOL    HW228671   0.858   3.843   2.011
 9258SOL     OW28672   3.327   2.953   3.997
 9258SOL    HW128673   3.331   2.885   3.924
 9258SOL    HW228674   3.352   3.042   3.960
 9259SOL     OW28675   0.977   2.044   1.704
 9259SOL    HW128676   1.032   1.971   1.745
 9259SOL    HW228677   1.026   2.083   1.626
 9260SOL     OW28678   4.982   3.136   6.271
 9260SOL    HW128679   4.954   3.153   6.366
 9260SOL    HW228680   4.983   3.037   6.254
 9261SOL     OW28681   3.988   0.239   6.804
 9261SOL    HW128682   4.057   0.172   6.830
 9261SOL    HW228683   4.004   0.325   6.851
 9262SOL     OW28684   5.325   1.172   5.063
 9262SOL    HW128685   5.252   1.200   5.124
 9262SOL    HW228686   5.286   1.124   4.984
 9263SOL     OW28687   5.480   3.843   1.082
 9263SOL    HW128688   5.439   3.757   1.111
 9263SOL    HW228689   5.555   3.867   1.143
 9264SOL     OW28690   6.194   3.646   6.184
 9264SOL    HW128691   6.197   3.578   6.110
 9264SOL    HW228692   6.104   3.689   6.186
 9265SOL     OW28693   2.684   1.760   0.516
 9265SOL    HW128694   2.739   1.677   0.521
 9265SOL    HW228695   2.628   1.769   0.598
 9266SOL     OW28696   2.546   6.290   2.774
 9266SOL    HW128697   2.537   6.210   2.714
 9266SOL    HW228698   2.554   6.372   2.719
 9267SOL     OW28699   0.815   4.159   4.621
 9267SOL    HW128700   0.810   4.100   4.540
 9267SOL    HW228701   0.816   4.255   4.593
 9268SOL     OW28702   0.442   6.541   2.728
 9268SOL    HW128703   0.344   6.540   2.748
 9268SOL    HW228704   0.483   6.455   2.758
 9269SOL     OW28705   3.033   2.124   6.942
 9269SOL    HW128706   3.105   2.134   6.874
 9269SOL    HW228707   3.058   2.053   7.008
 9270SOL     OW28708   6.799   6.608   6.121
 9270SOL    HW128709   6.771   6.520   6.159
 9270SOL    HW228710   6.865   6.652   6.181
 9271SOL     OW28711   1.774   6.509   0.982
 9271SOL    HW128712   1.745   6.603   0.965
 9271SOL    HW228713   1.788   6.496   1.080
 9272SOL     OW28714   2.480   4.279   6.675
 9272SOL    HW128715   2.460   4.255   6.770
 9272SOL    HW228716   2.468   4.199   6.617
 9273SOL     OW28717   4.406   5.008   4.112
 9273SOL    HW128718   4.355   4.924   4.093
 9273SOL    HW228719   4.483   4.988   4.172
 9274SOL     OW28720   5.587   2.230   6.131
 9274SOL    HW128721   5.489   2.252   6.136
 9274SOL    HW228722   5.638   2.312   6.107
 9275SOL     OW28723   0.907   0.583   6.513
 9275SOL    HW128724   0.893   0.498   6.463
 9275SOL    HW228725   0.984   0.572   6.576
 9276SOL     OW28726   3.557   5.828   4.720
 9276SOL    HW128727   3.511   5.881   4.648
 9276SOL    HW228728   3.605   5.890   4.781
 9277SOL     OW28729   3.790   3.272   6.738
 9277SOL    HW128730   3.850   3.301   6.664
 9277SOL    HW228731   3.699   3.253   6.702
 9278SOL     OW28732   1.323   2.183   3.887
 9278SOL    HW128733   1.402   2.131   3.855
 9278SOL    HW228734   1.353   2.258   3.945
 9279SOL     OW28735   3.049   0.603   2.424
 9279SOL    HW128736   3.007   0.515   2.448
 9279SOL    HW228737   3.126   0.620   2.485
 9280SOL     OW28738   1.511   0.058   3.676
 9280SOL    HW128739   1.452   0.031   3.752
 9280SOL    HW228740   1.601   0.015   3.687
 9281SOL     OW28741   2.040   2.761   1.016
 9281SOL    HW128742   2.006   2.714   0.935
 9281SOL    HW228743   2.009   2.713   1.098
 9282SOL     OW28744   4.119   1.324   4.288
 9282SOL    HW128745   4.160   1.372   4.210
 9282SOL    HW228746   4.178   1.248   4.314
 9283SOL     OW28747   6.159   2.442   2.421
 9283SOL    HW128748   6.091   2.502   2.465
 9283SOL    HW228749   6.235   2.427   2.484
 9284SOL     OW28750   3.873   3.902   1.130
 9284SOL    HW128751   3.876   3.958   1.047
 9284SOL    HW228752   3.786   3.854   1.135
 9285SOL     OW28753   6.823   2.644   6.641
 9285SOL    HW128754   6.858   2.706   6.712
 9285SOL    HW228755   6.811   2.553   6.680
 9286SOL     OW28756   5.366   0.151   5.218
 9286SOL    HW128757   5.356   0.059   5.179
 9286SOL    HW228758   5.309   0.159   5.299
 9287SOL     OW28759   2.805   5.954   1.274
 9287SOL    HW128760   2.787   5.897   1.194
 9287SOL    HW228761   2.893   5.928   1.314
 9288SOL     OW28762   4.147   1.938   5.820
 9288SOL    HW128763   4.102   2.012   5.771
 9288SOL    HW228764   4.177   1.868   5.754
 9289SOL     OW28765   4.977   2.092   2.589
 9289SOL    HW128766   4.953   2.007   2.636
 9289SOL    HW228767   4.908   2.112   2.519
 9290SOL     OW28768   4.545   1.794   4.997
 9290SOL    HW128769   4.555   1.796   5.096
 9290SOL    HW228770   4.448   1.801   4.974
 9291SOL     OW28771   1.495   0.515   5.053
 9291SOL    HW128772   1.413   0.483   5.101
 9291SOL    HW228773   1.570   0.451   5.069
 9292SOL     OW28774   0.183   3.325   6.023
 9292SOL    HW128775   0.230   3.388   5.962
 9292SOL    HW228776   0.128   3.261   5.968
 9293SOL     OW28777   5.136   4.333   0.263
 9293SOL    HW128778   5.051   4.382   0.242
 9293SOL    HW228779   5.123   4.280   0.347
 9294SOL     OW28780   5.365   5.714   0.311
 9294SOL    HW128781   5.435   5.746   0.375
 9294SOL    HW228782   5.298   5.787   0.296
 9295SOL     OW28783   4.462   1.474   3.110
 9295SOL    HW128784   4.413   1.517   3.186
 9295SOL    HW228785   4.397   1.438   3.044
 9296SOL     OW28786   6.250   6.262   5.788
 9296SOL    HW128787   6.207   6.173   5.805
 9296SOL    HW228788   6.181   6.327   5.755
 9297SOL     OW28789   0.505   0.568   1.053
 9297SOL    HW128790   0.442   0.605   1.122
 9297SOL    HW228791   0.466   0.487   1.012
 9298SOL     OW28792   1.740   6.173   5.662
 9298SOL    HW128793   1.768   6.081   5.687
 9298SOL    HW228794   1.666   6.203   5.722
 9299SOL     OW28795   1.211   3.496   4.014
 9299SOL    HW128796   1.165   3.584   4.023
 9299SOL    HW228797   1.250   3.469   4.102
 9300SOL     OW28798   5.636   4.753   4.789
 9300SOL    HW128799   5.725   4.716   4.763
 9300SOL    HW228800   5.649   4.839   4.838
 9301SOL     OW28801   5.020   4.308   2.615
 9301SOL    HW128802   4.971   4.283   2.699
 9301SOL    HW228803   4.997   4.242   2.543
 9302SOL     OW28804   2.521   2.337   3.298
 9302SOL    HW128805   2.468   2.314   3.379
 9302SOL    HW228806   2.485   2.422   3.258
 9303SOL     OW28807   3.896   6.206   0.050
 9303SOL    HW128808   3.830   6.272   0.013
 9303SOL    HW228809   3.927   6.146   6.997
 9304SOL     OW28810   3.322   3.696   0.679
 9304SOL    HW128811   3.354   3.759   0.749
 9304SOL    HW228812   3.293   3.748   0.598
 9305SOL     OW28813   6.358   2.464   2.105
 9305SOL    HW128814   6.322   2.380   2.145
 9305SOL    HW228815   6.330   2.470   2.009
 9306SOL     OW28816   0.181   4.988   3.936
 9306SOL    HW128817   0.270   4.980   3.892
 9306SOL    HW228818   0.157   4.900   3.978
 9307SOL     OW28819   1.498   2.260   0.851
 9307SOL    HW128820   1.471   2.321   0.926
 9307SOL    HW228821   1.427   2.260   0.780
 9308SOL     OW28822   0.711   3.223   0.938
 9308SOL    HW128823   0.752   3.271   0.860
 9308SOL    HW228824   0.612   3.223   0.928
 9309SOL     OW28825   4.400   3.929   5.637
 9309SOL    HW128826   4.385   3.934   5.736
 9309SOL    HW228827   4.348   4.001   5.591
 9310SOL     OW28828   4.114   6.222   6.323
 9310SOL    HW128829   4.032   6.217   6.381
 9310SOL    HW228830   4.193   6.245   6.379
 9311SOL     OW28831   5.748   3.916   0.608
 9311SOL    HW128832   5.796   3.971   0.676
 9311SOL    HW228833   5.663   3.882   0.647
 9312SOL     OW28834   1.441   4.445   6.658
 9312SOL    HW128835   1.500   4.526   6.662
 9312SOL    HW228836   1.484   4.370   6.707
 9313SOL     OW28837   0.368   7.013   2.586
 9313SOL    HW128838   0.273   6.981   2.595
 9313SOL    HW228839   0.420   6.984   2.666
 9314SOL     OW28840   4.357   5.689   6.961
 9314SOL    HW128841   4.317   5.614   6.908
 9314SOL    HW228842   4.419   5.741   6.903
 9315SOL     OW28843   0.166   0.584   5.747
 9315SOL    HW128844   0.249   0.555   5.794
 9315SOL    HW228845   0.118   0.652   5.802
 9316SOL     OW28846   3.588   5.821   3.675
 9316SOL    HW128847   3.678   5.805   3.634
 9316SOL    HW228848   3.590   5.794   3.771
 9317SOL     OW28849   6.458   4.902   3.118
 9317SOL    HW128850   6.471   4.803   3.129
 9317SOL    HW228851   6.442   4.922   3.021
 9318SOL     OW28852   6.992   0.664   6.741
 9318SOL    HW128853   0.068   0.678   6.715
 9318SOL    HW228854   6.974   0.711   6.828
 9319SOL     OW28855   0.952   3.192   6.744
 9319SOL    HW128856   0.892   3.210   6.666
 9319SOL    HW228857   0.989   3.278   6.779
 9320SOL     OW28858   4.538   2.522   6.007
 9320SOL    HW128859   4.545   2.484   6.099
 9320SOL    HW228860   4.465   2.476   5.956
 9321SOL     OW28861   6.383   6.188   2.961
 9321SOL    HW128862   6.325   6.252   3.010
 9321SOL    HW228863   6.430   6.236   2.887
 9322SOL     OW28864   0.412   6.378   5.754
 9322SOL    HW128865   0.382   6.290   5.791
 9322SOL    HW228866   0.512   6.382   5.758
 9323SOL     OW28867   0.539   1.347   6.562
 9323SOL    HW128868   0.587   1.273   6.609
 9323SOL    HW228869   0.486   1.309   6.486
 9324SOL     OW28870   1.419   5.623   0.399
 9324SOL    HW128871   1.476   5.705   0.395
 9324SOL    HW228872   1.393   5.606   0.494
 9325SOL     OW28873   5.582   1.880   1.116
 9325SOL    HW128874   5.618   1.933   1.040
 9325SOL    HW228875   5.566   1.786   1.087
 9326SOL     OW28876   1.533   0.112   1.162
 9326SOL    HW128877   1.559   0.115   1.065
 9326SOL    HW228878   1.438   0.140   1.171
 9327SOL     OW28879   4.850   0.098   2.764
 9327SOL    HW128880   4.852   0.172   2.696
 9327SOL    HW228881   4.924   0.034   2.744
 9328SOL     OW28882   3.529   1.568   0.374
 9328SOL    HW128883   3.597   1.615   0.430
 9328SOL    HW228884   3.572   1.540   0.288
 9329SOL     OW28885   0.530   3.742   2.740
 9329SOL    HW128886   0.556   3.837   2.720
 9329SOL    HW228887   0.587   3.707   2.814
 9330SOL     OW28888   5.986   0.153   0.806
 9330SOL    HW128889   6.075   0.110   0.791
 9330SOL    HW228890   5.998   0.252   0.819
 9331SOL     OW28891   0.343   0.634   7.007
 9331SOL    HW128892   0.287   0.555   0.012
 9331SOL    HW228893   0.440   0.610   7.017
 9332SOL     OW28894   3.176   3.621   4.319
 9332SOL    HW128895   3.227   3.673   4.386
 9332SOL    HW228896   3.088   3.593   4.358
 9333SOL     OW28897   6.442   4.438   0.921
 9333SOL    HW128898   6.426   4.510   0.853
 9333SOL    HW228899   6.468   4.479   1.008
 9334SOL     OW28900   2.646   0.343   4.061
 9334SOL    HW128901   2.669   0.349   3.964
 9334SOL    HW228902   2.628   0.247   4.085
 9335SOL     OW28903   1.707   0.949   6.757
 9335SOL    HW128904   1.739   1.030   6.708
 9335SOL    HW228905   1.619   0.920   6.720
 9336SOL     OW28906   3.044   6.475   5.785
 9336SOL    HW128907   2.988   6.551   5.751
 9336SOL    HW228908   3.140   6.496   5.771
 9337SOL     OW28909   5.237   0.536   2.159
 9337SOL    HW128910   5.170   0.532   2.234
 9337SOL    HW228911   5.229   0.454   2.102
 9338SOL     OW28912   3.508   0.441   2.945
 9338SOL    HW128913   3.528   0.445   3.043
 9338SOL    HW228914   3.582   0.392   2.899
 9339SOL     OW28915   4.897   6.262   1.270
 9339SOL    HW128916   4.854   6.232   1.355
 9339SOL    HW228917   4.837   6.240   1.193
 9340SOL     OW28918   6.266   3.515   5.960
 9340SOL    HW128919   6.342   3.579   5.964
 9340SOL    HW228920   6.225   3.518   5.869
 9341SOL     OW28921   0.642   5.463   6.662
 9341SOL    HW128922   0.612   5.370   6.642
 9341SOL    HW228923   0.642   5.517   6.577
 9342SOL     OW28924   1.320   0.190   5.830
 9342SOL    HW128925   1.296   0.139   5.912
 9342SOL    HW228926   1.275   0.148   5.751
 9343SOL     OW28927   6.164   5.448   5.138
 9343SOL    HW128928   6.166   5.530   5.081
 9343SOL    HW228929   6.102   5.462   5.214
 9344SOL     OW28930   5.413   6.541   1.414
 9344SOL    HW128931   5.314   6.525   1.412
 9344SOL    HW228932   5.431   6.637   1.432
 9345SOL     OW28933   0.076   2.864   0.843
 9345SOL    HW128934   0.169   2.848   0.875
 9345SOL    HW228935   0.021   2.903   0.917
 9346SOL     OW28936   6.136   0.371   1.155
 9346SOL    HW128937   6.143   0.450   1.216
 9346SOL    HW228938   6.054   0.381   1.098
 9347SOL     OW28939   1.794   6.586   1.543
 9347SOL    HW128940   1.834   6.648   1.476
 9347SOL    HW228941   1.712   6.543   1.505
 9348SOL     OW28942   3.104   5.278   0.265
 9348SOL    HW128943   3.064   5.313   0.181
 9348SOL    HW228944   3.169   5.345   0.302
 9349SOL     OW28945   0.904   6.850   2.970
 9349SOL    HW128946   0.835   6.813   3.032
 9349SOL    HW228947   0.919   6.785   2.895
 9350SOL     OW28948   0.573   2.513   5.973
 9350SOL    HW128949   0.608   2.582   5.909
 9350SOL    HW228950   0.499   2.461   5.930
 9351SOL     OW28951   3.953   2.321   6.968
 9351SOL    HW128952   4.051   2.343   6.972
 9351SOL    HW228953   3.923   2.284   0.036
 9352SOL     OW28954   2.476   4.553   6.698
 9352SOL    HW128955   2.471   4.454   6.684
 9352SOL    HW228956   2.549   4.591   6.641
 9353SOL     OW28957   6.703   6.585   1.568
 9353SOL    HW128958   6.659   6.608   1.482
 9353SOL    HW228959   6.754   6.500   1.559
 9354SOL     OW28960   6.139   2.700   6.553
 9354SOL    HW128961   6.231   2.666   6.535
 9354SOL    HW228962   6.074   2.656   6.491
 9355SOL     OW28963   0.616   1.904   5.030
 9355SOL    HW128964   0.676   1.922   4.953
 9355SOL    HW228965   0.668   1.861   5.104
 9356SOL     OW28966   4.499   6.699   2.100
 9356SOL    HW128967   4.474   6.649   2.017
 9356SOL    HW228968   4.597   6.689   2.116
 9357SOL     OW28969   0.780   1.922   6.972
 9357SOL    HW128970   0.864   1.971   6.947
 9357SOL    HW228971   0.804   1.834   7.015
 9358SOL     OW28972   1.449   3.548   2.479
 9358SOL    HW128973   1.354   3.571   2.457
 9358SOL    HW228974   1.507   3.629   2.463
 9359SOL     OW28975   1.531   6.914   6.397
 9359SOL    HW128976   1.567   7.007   6.396
 9359SOL    HW228977   1.431   6.916   6.399
 9360SOL     OW28978   0.646   0.641   6.361
 9360SOL    HW128979   0.731   0.588   6.356
 9360SOL    HW228980   0.651   0.716   6.295
 9361SOL     OW28981   2.074   5.977   4.594
 9361SOL    HW128982   2.055   5.962   4.497
 9361SOL    HW228983   2.053   6.073   4.617
 9362SOL     OW28984   1.839   0.275   2.238
 9362SOL    HW128985   1.887   0.317   2.160
 9362SOL    HW228986   1.748   0.245   2.210
 9363SOL     OW28987   2.977   5.140   2.686
 9363SOL    HW128988   2.925   5.154   2.770
 9363SOL    HW228989   3.021   5.050   2.688
 9364SOL     OW28990   1.173   2.411   1.109
 9364SOL    HW128991   1.106   2.343   1.080
 9364SOL    HW228992   1.154   2.498   1.065
 9365SOL     OW28993   3.086   2.079   4.811
 9365SOL    HW128994   3.077   2.150   4.882
 9365SOL    HW228995   3.000   2.071   4.761
 9366SOL     OW28996   3.840   5.841   0.328
 9366SOL    HW128997   3.871   5.790   0.408
 9366SOL    HW228998   3.826   5.778   0.251
 9367SOL     OW28999   6.486   0.955   1.406
 9367SOL    HW129000   6.516   0.910   1.322
 9367SOL    HW229001   6.519   0.903   1.485
 9368SOL     OW29002   3.527   0.740   2.600
 9368SOL    HW129003   3.495   0.826   2.561
 9368SOL    HW229004   3.619   0.720   2.566
 9369SOL     OW29005   2.168   5.361   6.546
 9369SOL    HW129006   2.102   5.369   6.471
 9369SOL    HW229007   2.126   5.310   6.622
 9370SOL     OW29008   4.529   1.874   4.102
 9370SOL    HW129009   4.452   1.836   4.051
 9370SOL    HW229010   4.614   1.831   4.071
 9371SOL     OW29011   4.503   5.397   1.424
 9371SOL    HW129012   4.455   5.482   1.441
 9371SOL    HW229013   4.479   5.362   1.333
 9372SOL     OW29014   4.858   6.686   1.474
 9372SOL    HW129015   4.818   6.715   1.388
 9372SOL    HW229016   4.875   6.588   1.471
 9373SOL     OW29017   6.517   1.709   0.341
 9373SOL    HW129018   6.523   1.636   0.410
 9373SOL    HW229019   6.524   1.798   0.387
 9374SOL     OW29020   0.231   5.427   5.884
 9374SOL    HW129021   0.133   5.442   5.880
 9374SOL    HW229022   0.256   5.389   5.974
 9375SOL     OW29023   0.245   0.766   0.220
 9375SOL    HW129024   0.295   0.745   0.136
 9375SOL    HW229025   0.208   0.859   0.215
 9376SOL     OW29026   2.138   3.991   1.764
 9376SOL    HW129027   2.057   3.958   1.813
 9376SOL    HW229028   2.213   4.005   1.828
 9377SOL     OW29029   2.353   0.190   3.509
 9377SOL    HW129030   2.358   0.104   3.459
 9377SOL    HW229031   2.282   0.248   3.469
 9378SOL     OW29032   2.895   0.620   4.013
 9378SOL    HW129033   2.930   0.529   3.991
 9378SOL    HW229034   2.967   0.674   4.056
 9379SOL     OW29035   3.932   6.346   4.987
 9379SOL    HW129036   3.867   6.325   4.914
 9379SOL    HW229037   3.887   6.402   5.057
 9380SOL     OW29038   5.128   5.511   0.069
 9380SOL    HW129039   5.148   5.556   0.156
 9380SOL    HW229040   5.211   5.467   0.035
 9381SOL     OW29041   5.495   1.516   4.667
 9381SOL    HW129042   5.534   1.493   4.578
 9381SOL    HW229043   5.401   1.548   4.655
 9382SOL     OW29044   3.182   0.041   4.701
 9382SOL    HW129045   3.133   7.007   4.632
 9382SOL    HW229046   3.245   7.001   4.750
 9383SOL     OW29047   5.383   4.167   3.220
 9383SOL    HW129048   5.293   4.129   3.241
 9383SOL    HW229049   5.424   4.205   3.303
 9384SOL     OW29050   2.421   0.341   2.027
 9384SOL    HW129051   2.392   0.399   1.952
 9384SOL    HW229052   2.349   0.336   2.096
 9385SOL     OW29053   3.854   1.751   3.147
 9385SOL    HW129054   3.816   1.838   3.116
 9385SOL    HW229055   3.896   1.703   3.070
 9386SOL     OW29056   4.765   6.235   6.490
 9386SOL    HW129057   4.726   6.169   6.555
 9386SOL    HW229058   4.842   6.282   6.533
 9387SOL     OW29059   2.404   2.218   0.588
 9387SOL    HW129060   2.438   2.305   0.552
 9387SOL    HW229061   2.424   2.145   0.522
 9388SOL     OW29062   2.493   6.702   4.801
 9388SOL    HW129063   2.511   6.746   4.713
 9388SOL    HW229064   2.486   6.603   4.788
 9389SOL     OW29065   2.487   4.456   1.793
 9389SOL    HW129066   2.438   4.485   1.711
 9389SOL    HW229067   2.572   4.507   1.802
 9390SOL     OW29068   5.196   5.235   4.748
 9390SOL    HW129069   5.161   5.259   4.839
 9390SOL    HW229070   5.129   5.262   4.679
 9391SOL     OW29071   1.679   5.440   4.566
 9391SOL    HW129072   1.664   5.404   4.474
 9391SOL    HW229073   1.776   5.461   4.578
 9392SOL     OW29074   5.457   3.848   2.925
 9392SOL    HW129075   5.502   3.782   2.865
 9392SOL    HW229076   5.391   3.901   2.872
 9393SOL     OW29077   2.852   0.169   6.176
 9393SOL    HW129078   2.839   0.224   6.093
 9393SOL    HW229079   2.943   0.129   6.176
 9394SOL     OW29080   4.010   0.507   0.497
 9394SOL    HW129081   4.095   0.530   0.545
 9394SOL    HW229082   3.942   0.475   0.563
 9395SOL     OW29083   1.444   1.470   1.162
 9395SOL    HW129084   1.377   1.513   1.223
 9395SOL    HW229085   1.442   1.371   1.175
 9396SOL     OW29086   0.703   6.590   6.647
 9396SOL    HW129087   0.778   6.537   6.687
 9396SOL    HW229088   0.616   6.558   6.685
 9397SOL     OW29089   3.515   1.117   5.669
 9397SOL    HW129090   3.434   1.069   5.702
 9397SOL    HW229091   3.568   1.150   5.747
 9398SOL     OW29092   0.561   1.808   0.204
 9398SOL    HW129093   0.486   1.792   0.141
 9398SOL    HW229094   0.646   1.774   0.165
 9399SOL     OW29095   1.824   3.020   4.052
 9399SOL    HW129096   1.850   2.985   3.962
 9399SOL    HW229097   1.900   3.008   4.115
 9400SOL     OW29098   5.336   1.499   0.603
 9400SOL    HW129099   5.402   1.498   0.528
 9400SOL    HW229100   5.341   1.412   0.653
 9401SOL     OW29101   6.988   2.342   3.383
 9401SOL    HW129102   7.016   2.437   3.398
 9401SOL    HW229103   0.015   2.282   3.448
 9402SOL     OW29104   1.869   6.269   4.316
 9402SOL    HW129105   1.784   6.229   4.281
 9402SOL    HW229106   1.947   6.229   4.268
 9403SOL     OW29107   6.189   2.758   2.409
 9403SOL    HW129108   6.266   2.752   2.345
 9403SOL    HW229109   6.113   2.804   2.364
 9404SOL     OW29110   2.070   3.036   0.669
 9404SOL    HW129111   2.168   3.019   0.680
 9404SOL    HW229112   2.023   2.949   0.651
 9405SOL     OW29113   0.239   5.670   5.330
 9405SOL    HW129114   0.192   5.684   5.243
 9405SOL    HW229115   0.334   5.699   5.322
 9406SOL     OW29116   0.249   2.836   0.182
 9406SOL    HW129117   0.183   2.895   0.229
 9406SOL    HW229118   0.341   2.854   0.218
 9407SOL     OW29119   1.120   5.445   5.603
 9407SOL    HW129120   1.096   5.483   5.693
 9407SOL    HW229121   1.219   5.438   5.596
 9408SOL     OW29122   0.575   3.774   4.471
 9408SOL    HW129123   0.667   3.736   4.472
 9408SOL    HW229124   0.532   3.763   4.561
 9409SOL     OW29125   6.505   5.324   2.460
 9409SOL    HW129126   6.575   5.288   2.522
 9409SOL    HW229127   6.414   5.299   2.495
 9410SOL     OW29128   3.466   0.895   0.765
 9410SOL    HW129129   3.378   0.867   0.802
 9410SOL    HW229130   3.453   0.973   0.704
 9411SOL     OW29131   2.899   3.402   3.459
 9411SOL    HW129132   2.964   3.396   3.535
 9411SOL    HW229133   2.948   3.433   3.377
 9412SOL     OW29134   5.912   6.386   0.839
 9412SOL    HW129135   5.953   6.300   0.810
 9412SOL    HW229136   5.831   6.368   0.895
 9413SOL     OW29137   5.013   3.896   2.761
 9413SOL    HW129138   4.990   3.801   2.744
 9413SOL    HW229139   4.936   3.955   2.736
 9414SOL     OW29140   1.731   2.046   3.442
 9414SOL    HW129141   1.811   2.066   3.385
 9414SOL    HW229142   1.759   1.991   3.521
 9415SOL     OW29143   3.892   1.053   2.226
 9415SOL    HW129144   3.878   1.067   2.324
 9415SOL    HW229145   3.807   1.071   2.177
 9416SOL     OW29146   5.317   5.169   5.933
 9416SOL    HW129147   5.296   5.170   5.835
 9416SOL    HW229148   5.320   5.262   5.967
 9417SOL     OW29149   3.482   5.262   2.066
 9417SOL    HW129150   3.408   5.327   2.050
 9417SOL    HW229151   3.490   5.200   1.989
 9418SOL     OW29152   3.461   1.684   5.244
 9418SOL    HW129153   3.526   1.701   5.318
 9418SOL    HW229154   3.398   1.611   5.270
 9419SOL     OW29155   2.063   3.048   6.187
 9419SOL    HW129156   2.011   3.102   6.121
 9419SOL    HW229157   2.158   3.041   6.157
 9420SOL     OW29158   6.676   3.940   6.323
 9420SOL    HW129159   6.730   4.019   6.292
 9420SOL    HW229160   6.722   3.856   6.295
 9421SOL     OW29161   3.738   6.412   6.276
 9421SOL    HW129162   3.732   6.312   6.277
 9421SOL    HW229163   3.819   6.441   6.225
 9422SOL     OW29164   1.925   6.201   5.476
 9422SOL    HW129165   1.858   6.190   5.549
 9422SOL    HW229166   1.940   6.298   5.459
 9423SOL     OW29167   4.869   4.584   3.040
 9423SOL    HW129168   4.899   4.489   3.036
 9423SOL    HW229169   4.770   4.588   3.054
 9424SOL     OW29170   6.187   6.930   4.454
 9424SOL    HW129171   6.136   7.008   4.490
 9424SOL    HW229172   6.185   6.855   4.520
 9425SOL     OW29173   6.638   4.999   1.232
 9425SOL    HW129174   6.691   4.980   1.150
 9425SOL    HW229175   6.613   4.913   1.276
 9426SOL     OW29176   0.044   2.088   6.297
 9426SOL    HW129177   0.053   2.000   6.344
 9426SOL    HW229178   0.130   2.109   6.250
 9427SOL     OW29179   4.902   4.526   2.103
 9427SOL    HW129180   4.876   4.609   2.152
 9427SOL    HW229181   4.874   4.445   2.155
 9428SOL     OW29182   0.282   6.413   5.503
 9428SOL    HW129183   0.328   6.482   5.448
 9428SOL    HW229184   0.331   6.401   5.589
 9429SOL     OW29185   2.476   2.376   4.109
 9429SOL    HW129186   2.409   2.426   4.054
 9429SOL    HW229187   2.505   2.294   4.059
 9430SOL     OW29188   1.405   2.038   4.655
 9430SOL    HW129189   1.473   2.101   4.691
 9430SOL    HW229190   1.451   1.961   4.610
 9431SOL     OW29191   1.120   4.855   5.745
 9431SOL    HW129192   1.202   4.848   5.802
 9431SOL    HW229193   1.145   4.896   5.657
 9432SOL     OW29194   6.972   1.400   3.569
 9432SOL    HW129195   0.028   1.335   3.573
 9432SOL    HW229196   6.887   1.352   3.547
 9433SOL     OW29197   4.744   5.234   2.148
 9433SOL    HW129198   4.791   5.223   2.061
 9433SOL    HW229199   4.652   5.270   2.133
 9434SOL     OW29200   4.854   5.455   4.019
 9434SOL    HW129201   4.799   5.422   4.096
 9434SOL    HW229202   4.802   5.442   3.934
 9435SOL     OW29203   0.505   3.342   1.621
 9435SOL    HW129204   0.512   3.313   1.716
 9435SOL    HW229205   0.470   3.436   1.617
 9436SOL     OW29206   1.972   0.329   2.707
 9436SOL    HW129207   1.946   0.387   2.630
 9436SOL    HW229208   1.941   0.370   2.792
 9437SOL     OW29209   5.242   6.649   4.786
 9437SOL    HW129210   5.150   6.612   4.798
 9437SOL    HW229211   5.248   6.698   4.699
 9438SOL     OW29212   4.889   6.832   2.191
 9438SOL    HW129213   4.816   6.902   2.193
 9438SOL    HW229214   4.856   6.751   2.142
 9439SOL     OW29215   1.955   3.393   0.888
 9439SOL    HW129216   1.901   3.447   0.952
 9439SOL    HW229217   1.944   3.296   0.909
 9440SOL     OW29218   2.235   5.364   3.512
 9440SOL    HW129219   2.161   5.390   3.573
 9440SOL    HW229220   2.206   5.377   3.417
 9441SOL     OW29221   0.167   6.918   4.253
 9441SOL    HW129222   0.258   6.925   4.212
 9441SOL    HW229223   0.158   6.987   4.325
 9442SOL     OW29224   5.328   3.102   0.373
 9442SOL    HW129225   5.363   3.009   0.363
 9442SOL    HW229226   5.324   3.145   0.283
 9443SOL     OW29227   2.322   4.369   2.683
 9443SOL    HW129228   2.321   4.340   2.779
 9443SOL    HW229229   2.364   4.459   2.675
 9444SOL     OW29230   1.067   4.281   5.773
 9444SOL    HW129231   1.107   4.305   5.861
 9444SOL    HW229232   1.052   4.363   5.719
 9445SOL     OW29233   0.818   1.101   3.973
 9445SOL    HW129234   0.886   1.173   3.984
 9445SOL    HW229235   0.759   1.123   3.895
 9446SOL     OW29236   6.557   4.481   3.552
 9446SOL    HW129237   6.466   4.491   3.513
 9446SOL    HW229238   6.616   4.554   3.516
 9447SOL     OW29239   4.849   4.214   1.629
 9447SOL    HW129240   4.850   4.252   1.537
 9447SOL    HW229241   4.941   4.187   1.656
 9448SOL     OW29242   6.843   0.974   5.235
 9448SOL    HW129243   6.918   1.036   5.254
 9448SOL    HW229244   6.756   1.017   5.260
 9449SOL     OW29245   5.258   0.530   1.791
 9449SOL    HW129246   5.302   0.467   1.727
 9449SOL    HW229247   5.162   0.541   1.767
 9450SOL     OW29248   0.946   5.917   2.800
 9450SOL    HW129249   0.920   5.979   2.874
 9450SOL    HW229250   0.971   5.828   2.840
 9451SOL     OW29251   3.315   5.151   6.443
 9451SOL    HW129252   3.235   5.135   6.386
 9451SOL    HW229253   3.298   5.115   6.535
 9452SOL     OW29254   6.343   4.096   6.626
 9452SOL    HW129255   6.310   4.097   6.532
 9452SOL    HW229256   6.370   4.004   6.652
 9453SOL     OW29257   5.192   5.090   1.607
 9453SOL    HW129258   5.097   5.082   1.638
 9453SOL    HW229259   5.252   5.044   1.672
 9454SOL     OW29260   5.960   4.360   0.338
 9454SOL    HW129261   6.021   4.368   0.258
 9454SOL    HW229262   5.870   4.398   0.314
 9455SOL     OW29263   3.506   1.226   1.903
 9455SOL    HW129264   3.481   1.298   1.968
 9455SOL    HW229265   3.556   1.267   1.826
 9456SOL     OW29266   0.334   3.172   2.481
 9456SOL    HW129267   0.299   3.082   2.457
 9456SOL    HW229268   0.282   3.208   2.559
 9457SOL     OW29269   6.395   6.399   4.790
 9457SOL    HW129270   6.317   6.450   4.826
 9457SOL    HW229271   6.470   6.402   4.856
 9458SOL     OW29272   6.557   3.966   0.274
 9458SOL    HW129273   6.512   3.997   0.190
 9458SOL    HW229274   6.595   3.875   0.260
 9459SOL     OW29275   5.022   5.087   5.419
 9459SOL    HW129276   5.115   5.062   5.391
 9459SOL    HW229277   4.990   5.022   5.489
 9460SOL     OW29278   1.194   2.642   2.648
 9460SOL    HW129279   1.153   2.552   2.636
 9460SOL    HW229280   1.208   2.684   2.558
 9461SOL     OW29281   1.663   2.051   2.177
 9461SOL    HW129282   1.568   2.032   2.150
 9461SOL    HW229283   1.684   2.003   2.262
 9462SOL     OW29284   0.280   1.314   4.284
 9462SOL    HW129285   0.275   1.355   4.375
 9462SOL    HW229286   0.189   1.282   4.257
 9463SOL     OW29287   5.957   4.444   1.507
 9463SOL    HW129288   5.909   4.473   1.425
 9463SOL    HW229289   5.986   4.348   1.498
 9464SOL     OW29290   0.987   1.301   1.920
 9464SOL    HW129291   0.946   1.310   2.010
 9464SOL    HW229292   1.083   1.329   1.923
 9465SOL     OW29293   0.062   4.509   1.140
 9465SOL    HW129294   0.085   4.598   1.102
 9465SOL    HW229295   0.084   4.508   1.238
 9466SOL     OW29296   3.673   4.313   5.542
 9466SOL    HW129297   3.640   4.342   5.452
 9466SOL    HW229298   3.734   4.383   5.579
 9467SOL     OW29299   2.290   3.947   0.482
 9467SOL    HW129300   2.295   3.931   0.581
 9467SOL    HW229301   2.346   3.879   0.435
 9468SOL     OW29302   6.289   1.581   0.584
 9468SOL    HW129303   6.382   1.546   0.570
 9468SOL    HW229304   6.251   1.541   0.667
 9469SOL     OW29305   0.243   6.652   1.078
 9469SOL    HW129306   0.337   6.624   1.098
 9469SOL    HW229307   0.235   6.676   0.981
 9470SOL     OW29308   3.472   3.541   0.523
 9470SOL    HW129309   3.423   3.605   0.582
 9470SOL    HW229310   3.414   3.517   0.444
 9471SOL     OW29311   6.577   2.965   4.608
 9471SOL    HW129312   6.607   2.933   4.697
 9471SOL    HW229313   6.643   3.031   4.571
 9472SOL     OW29314   1.508   3.350   6.292
 9472SOL    HW129315   1.529   3.393   6.380
 9472SOL    HW229316   1.414   3.315   6.294
 9473SOL     OW29317   2.701   4.050   1.056
 9473SOL    HW129318   2.787   4.100   1.052
 9473SOL    HW229319   2.696   3.985   0.981
 9474SOL     OW29320   6.236   3.489   0.473
 9474SOL    HW129321   6.220   3.583   0.443
 9474SOL    HW229322   6.201   3.477   0.565
 9475SOL     OW29323   5.183   4.211   6.328
 9475SOL    HW129324   5.193   4.267   6.410
 9475SOL    HW229325   5.087   4.185   6.316
 9476SOL     OW29326   3.967   4.113   6.892
 9476SOL    HW129327   3.969   4.094   6.990
 9476SOL    HW229328   4.057   4.144   6.862
 9477SOL     OW29329   1.973   4.461   0.384
 9477SOL    HW129330   1.878   4.494   0.392
 9477SOL    HW229331   1.974   4.376   0.332
 9478SOL     OW29332   5.418   3.155   6.901
 9478SOL    HW129333   5.508   3.150   6.858
 9478SOL    HW229334   5.371   3.068   6.889
 9479SOL     OW29335   3.980   0.783   2.284
 9479SOL    HW129336   3.975   0.882   2.270
 9479SOL    HW229337   3.938   0.736   2.207
 9480SOL     OW29338   6.668   0.974   0.754
 9480SOL    HW129339   6.659   1.029   0.671
 9480SOL    HW229340   6.763   0.973   0.784
 9481SOL     OW29341   4.216   6.946   3.844
 9481SOL    HW129342   4.260   6.911   3.762
 9481SOL    HW229343   4.213   0.026   3.840
 9482SOL     OW29344   6.565   6.001   6.908
 9482SOL    HW129345   6.516   6.055   6.976
 9482SOL    HW229346   6.618   5.930   6.954
 9483SOL     OW29347   6.294   7.012   0.518
 9483SOL    HW129348   6.322   6.976   0.429
 9483SOL    HW229349   6.363   0.055   0.551
 9484SOL     OW29350   3.987   5.603   4.590
 9484SOL    HW129351   3.998   5.566   4.498
 9484SOL    HW229352   3.891   5.596   4.618
 9485SOL     OW29353   0.332   0.968   7.000
 9485SOL    HW129354   0.316   1.010   6.910
 9485SOL    HW229355   0.426   0.937   7.006
 9486SOL     OW29356   5.405   5.522   0.115
 9486SOL    HW129357   5.399   5.566   0.205
 9486SOL    HW229358   5.446   5.585   0.050
 9487SOL     OW29359   3.643   3.105   3.294
 9487SOL    HW129360   3.686   3.194   3.307
 9487SOL    HW229361   3.696   3.051   3.228
 9488SOL     OW29362   1.823   0.727   1.014
 9488SOL    HW129363   1.922   0.733   1.000
 9488SOL    HW229364   1.801   0.754   1.107
 9489SOL     OW29365   5.676   3.193   6.808
 9489SOL    HW129366   5.711   3.103   6.782
 9489SOL    HW229367   5.727   3.264   6.759
 9490SOL     OW29368   5.463   3.608   4.681
 9490SOL    HW129369   5.445   3.530   4.620
 9490SOL    HW229370   5.457   3.693   4.628
 9491SOL     OW29371   5.328   6.021   2.678
 9491SOL    HW129372   5.397   6.018   2.750
 9491SOL    HW229373   5.309   6.117   2.654
 9492SOL     OW29374   4.986   3.188   3.628
 9492SOL    HW129375   4.915   3.173   3.697
 9492SOL    HW229376   5.048   3.260   3.659
 9493SOL     OW29377   4.338   6.347   1.493
 9493SOL    HW129378   4.317   6.292   1.574
 9493SOL    HW229379   4.329   6.444   1.516
 9494SOL     OW29380   5.883   2.137   1.719
 9494SOL    HW129381   5.968   2.187   1.704
 9494SOL    HW229382   5.810   2.178   1.666
 9495SOL     OW29383   0.369   2.431   1.299
 9495SOL    HW129384   0.428   2.399   1.373
 9495SOL    HW229385   0.423   2.487   1.236
 9496SOL     OW29386   5.658   2.216   1.897
 9496SOL    HW129387   5.644   2.310   1.866
 9496SOL    HW229388   5.750   2.186   1.871
 9497SOL     OW29389   4.792   4.404   5.013
 9497SOL    HW129390   4.856   4.481   5.020
 9497SOL    HW229391   4.725   4.423   4.941
 9498SOL     OW29392   0.604   5.595   4.321
 9498SOL    HW129393   0.666   5.522   4.291
 9498SOL    HW229394   0.642   5.684   4.295
 9499SOL     OW29395   6.321   5.932   5.020
 9499SOL    HW129396   6.419   5.942   5.041
 9499SOL    HW229397   6.288   6.015   4.977
 9500SOL     OW29398   3.997   2.032   0.632
 9500SOL    HW129399   3.918   2.052   0.690
 9500SOL    HW229400   4.066   2.104   0.643
 9501SOL     OW29401   2.254   3.304   5.211
 9501SOL    HW129402   2.195   3.236   5.168
 9501SOL    HW229403   2.246   3.391   5.161
 9502SOL     OW29404   4.930   4.387   4.370
 9502SOL    HW129405   4.987   4.380   4.452
 9502SOL    HW229406   4.865   4.311   4.368
 9503SOL     OW29407   6.956   1.895   0.087
 9503SOL    HW129408   6.888   1.863   0.154
 9503SOL    HW229409   6.908   1.939   0.011
 9504SOL     OW29410   5.726   5.184   1.895
 9504SOL    HW129411   5.676   5.107   1.855
 9504SOL    HW229412   5.691   5.270   1.857
 9505SOL     OW29413   4.113   5.076   5.787
 9505SOL    HW129414   4.180   5.150   5.795
 9505SOL    HW229415   4.125   5.013   5.864
 9506SOL     OW29416   2.693   0.728   1.146
 9506SOL    HW129417   2.595   0.710   1.145
 9506SOL    HW229418   2.731   0.709   1.056
 9507SOL     OW29419   5.260   0.227   2.070
 9507SOL    HW129420   5.324   0.150   2.073
 9507SOL    HW229421   5.240   0.250   1.974
 9508SOL     OW29422   4.980   1.492   2.952
 9508SOL    HW129423   4.966   1.424   3.024
 9508SOL    HW229424   5.069   1.535   2.964
 9509SOL     OW29425   5.529   0.177   3.352
 9509SOL    HW129426   5.434   0.201   3.372
 9509SOL    HW229427   5.555   0.097   3.407
 9510SOL     OW29428   1.156   2.774   3.647
 9510SOL    HW129429   1.134   2.871   3.657
 9510SOL    HW229430   1.079   2.719   3.679
 9511SOL     OW29431   0.798   1.695   0.910
 9511SOL    HW129432   0.781   1.640   0.828
 9511SOL    HW229433   0.775   1.790   0.891
 9512SOL     OW29434   6.390   2.117   1.334
 9512SOL    HW129435   6.454   2.184   1.371
 9512SOL    HW229436   6.363   2.053   1.407
 9513SOL     OW29437   4.447   4.546   5.463
 9513SOL    HW129438   4.389   4.512   5.537
 9513SOL    HW229439   4.543   4.540   5.491
 9514SOL     OW29440   3.670   2.985   6.666
 9514SOL    HW129441   3.576   3.012   6.649
 9514SOL    HW229442   3.732   3.061   6.647
 9515SOL     OW29443   1.033   5.721   2.949
 9515SOL    HW129444   1.038   5.766   3.038
 9515SOL    HW229445   1.028   5.622   2.962
 9516SOL     OW29446   0.491   4.522   6.708
 9516SOL    HW129447   0.474   4.619   6.688
 9516SOL    HW229448   0.404   4.476   6.726
 9517SOL     OW29449   0.852   5.311   0.895
 9517SOL    HW129450   0.881   5.258   0.815
 9517SOL    HW229451   0.907   5.286   0.974
 9518SOL     OW29452   1.086   1.255   0.610
 9518SOL    HW129453   1.019   1.190   0.646
 9518SOL    HW229454   1.044   1.313   0.541
 9519SOL     OW29455   1.576   3.201   5.356
 9519SOL    HW129456   1.655   3.262   5.350
 9519SOL    HW229457   1.595   3.129   5.423
 9520SOL     OW29458   4.183   6.682   1.810
 9520SOL    HW129459   4.124   6.602   1.795
 9520SOL    HW229460   4.126   6.763   1.823
 9521SOL     OW29461   5.222   4.926   3.830
 9521SOL    HW129462   5.256   4.832   3.841
 9521SOL    HW229463   5.171   4.953   3.911
 9522SOL     OW29464   3.448   6.212   1.098
 9522SOL    HW129465   3.502   6.207   1.014
 9522SOL    HW229466   3.483   6.146   1.164
 9523SOL     OW29467   3.211   5.892   5.317
 9523SOL    HW129468   3.261   5.818   5.273
 9523SOL    HW229469   3.247   5.980   5.285
 9524SOL     OW29470   4.337   2.667   1.193
 9524SOL    HW129471   4.299   2.657   1.101
 9524SOL    HW229472   4.268   2.642   1.261
 9525SOL     OW29473   3.688   0.471   5.776
 9525SOL    HW129474   3.593   0.502   5.776
 9525SOL    HW229475   3.743   0.532   5.718
 9526SOL     OW29476   5.204   5.332   2.066
 9526SOL    HW129477   5.195   5.293   2.158
 9526SOL    HW229478   5.116   5.368   2.036
 9527SOL     OW29479   6.240   1.869   1.369
 9527SOL    HW129480   6.221   1.772   1.382
 9527SOL    HW229481   6.172   1.923   1.417
 9528SOL     OW29482   6.229   0.582   1.959
 9528SOL    HW129483   6.212   0.659   2.020
 9528SOL    HW229484   6.260   0.503   2.012
 9529SOL     OW29485   1.019   3.352   4.704
 9529SOL    HW129486   1.035   3.270   4.649
 9529SOL    HW229487   1.014   3.432   4.644
 9530SOL     OW29488   1.657   2.143   4.439
 9530SOL    HW129489   1.594   2.188   4.376
 9530SOL    HW229490   1.745   2.191   4.438
 9531SOL     OW29491   2.718   6.304   3.463
 9531SOL    HW129492   2.758   6.212   3.466
 9531SOL    HW229493   2.677   6.325   3.551
 9532SOL     OW29494   2.747   1.093   1.313
 9532SOL    HW129495   2.802   1.028   1.262
 9532SOL    HW229496   2.650   1.069   1.305
 9533SOL     OW29497   1.539   0.677   5.417
 9533SOL    HW129498   1.555   0.580   5.404
 9533SOL    HW229499   1.517   0.695   5.513
 9534SOL     OW29500   4.774   1.855   4.550
 9534SOL    HW129501   4.805   1.936   4.501
 9534SOL    HW229502   4.727   1.883   4.634
 9535SOL     OW29503   2.420   2.169   5.568
 9535SOL    HW129504   2.409   2.221   5.483
 9535SOL    HW229505   2.516   2.142   5.577
 9536SOL     OW29506   3.112   0.232   6.476
 9536SOL    HW129507   3.210   0.224   6.495
 9536SOL    HW229508   3.078   0.146   6.438
 9537SOL     OW29509   2.876   6.639   0.897
 9537SOL    HW129510   2.838   6.717   0.945
 9537SOL    HW229511   2.926   6.581   0.962
 9538SOL     OW29512   5.917   3.062   3.958
 9538SOL    HW129513   5.998   3.009   3.932
 9538SOL    HW229514   5.941   3.126   4.031
 9539SOL     OW29515   0.104   5.363   0.948
 9539SOL    HW129516   0.016   5.321   0.968
 9539SOL    HW229517   0.131   5.342   0.854
 9540SOL     OW29518   5.097   3.653   5.118
 9540SOL    HW129519   5.155   3.571   5.120
 9540SOL    HW229520   5.012   3.632   5.069
 9541SOL     OW29521   0.556   1.788   3.586
 9541SOL    HW129522   0.564   1.886   3.599
 9541SOL    HW229523   0.644   1.751   3.554
 9542SOL     OW29524   4.899   3.956   4.640
 9542SOL    HW129525   4.905   3.865   4.599
 9542SOL    HW229526   4.989   3.985   4.670
 9543SOL     OW29527   5.199   1.959   1.981
 9543SOL    HW129528   5.287   1.935   1.939
 9543SOL    HW229529   5.216   2.002   2.070
 9544SOL     OW29530   3.086   1.596   1.968
 9544SOL    HW129531   3.171   1.566   1.925
 9544SOL    HW229532   3.080   1.559   2.061
 9545SOL     OW29533   0.127   0.180   4.415
 9545SOL    HW129534   0.129   0.125   4.499
 9545SOL    HW229535   0.034   0.180   4.378
 9546SOL     OW29536   2.608   4.189   1.709
 9546SOL    HW129537   2.524   4.184   1.764
 9546SOL    HW229538   2.641   4.283   1.706
 9547SOL     OW29539   6.467   5.786   2.758
 9547SOL    HW129540   6.563   5.757   2.765
 9547SOL    HW229541   6.424   5.742   2.680
 9548SOL     OW29542   4.791   6.274   2.862
 9548SOL    HW129543   4.790   6.174   2.850
 9548SOL    HW229544   4.842   6.316   2.787
 9549SOL     OW29545   3.184   5.589   0.283
 9549SOL    HW129546   3.126   5.670   0.293
 9549SOL    HW229547   3.232   5.594   0.195
 9550SOL     OW29548   1.491   1.727   0.420
 9550SOL    HW129549   1.500   1.753   0.516
 9550SOL    HW229550   1.515   1.805   0.362
 9551SOL     OW29551   2.259   5.974   5.654
 9551SOL    HW129552   2.179   5.962   5.711
 9551SOL    HW229553   2.231   6.009   5.564
 9552SOL     OW29554   0.749   5.524   3.719
 9552SOL    HW129555   0.744   5.574   3.806
 9552SOL    HW229556   0.823   5.458   3.723
 9553SOL     OW29557   5.310   4.942   5.549
 9553SOL    HW129558   5.272   4.917   5.637
 9553SOL    HW229559   5.409   4.955   5.558
 9554SOL     OW29560   2.047   1.048   2.534
 9554SOL    HW129561   2.114   1.065   2.462
 9554SOL    HW229562   1.955   1.060   2.497
 9555SOL     OW29563   6.487   2.332   6.758
 9555SOL    HW129564   6.434   2.305   6.678
 9555SOL    HW229565   6.457   2.423   6.788
 9556SOL     OW29566   0.105   2.266   1.020
 9556SOL    HW129567   0.074   2.182   1.064
 9556SOL    HW229568   0.204   2.275   1.030
 9557SOL     OW29569   5.687   2.510   1.889
 9557SOL    HW129570   5.652   2.554   1.807
 9557SOL    HW229571   5.643   2.550   1.970
 9558SOL     OW29572   6.264   4.605   1.817
 9558SOL    HW129573   6.244   4.702   1.832
 9558SOL    HW229574   6.202   4.549   1.872
 9559SOL     OW29575   6.951   2.989   2.545
 9559SOL    HW129576   6.852   2.971   2.542
 9559SOL    HW229577   6.990   2.947   2.627
 9560SOL     OW29578   3.395   1.498   4.259
 9560SOL    HW129579   3.367   1.424   4.319
 9560SOL    HW229580   3.468   1.551   4.303
 9561SOL     OW29581   4.099   6.958   0.602
 9561SOL    HW129582   4.166   6.933   0.671
 9561SOL    HW229583   4.123   0.027   0.562
 9562SOL     OW29584   5.715   5.298   3.344
 9562SOL    HW129585   5.780   5.368   3.314
 9562SOL    HW229586   5.721   5.219   3.284
 9563SOL     OW29587   6.870   5.657   6.828
 9563SOL    HW129588   6.809   5.709   6.888
 9563SOL    HW229589   6.842   5.670   6.733
 9564SOL     OW29590   2.268   0.039   6.523
 9564SOL    HW129591   2.340   0.050   6.455
 9564SOL    HW229592   2.235   6.965   6.522
 9565SOL     OW29593   3.746   5.997   3.957
 9565SOL    HW129594   3.815   6.010   4.029
 9565SOL    HW229595   3.780   6.035   3.871
 9566SOL     OW29596   3.107   4.932   5.103
 9566SOL    HW129597   3.109   4.945   5.004
 9566SOL    HW229598   3.017   4.899   5.131
 9567SOL     OW29599   5.868   5.602   5.653
 9567SOL    HW129600   5.775   5.572   5.635
 9567SOL    HW229601   5.883   5.608   5.752
 9568SOL     OW29602   5.465   3.599   6.102
 9568SOL    HW129603   5.450   3.684   6.153
 9568SOL    HW229604   5.429   3.609   6.009
 9569SOL     OW29605   5.551   6.681   1.949
 9569SOL    HW129606   5.612   6.702   2.025
 9569SOL    HW229607   5.547   6.760   1.887
 9570SOL     OW29608   0.604   0.331   6.764
 9570SOL    HW129609   0.700   0.357   6.751
 9570SOL    HW229610   0.547   0.383   6.701
 9571SOL     OW29611   2.405   2.704   6.713
 9571SOL    HW129612   2.323   2.659   6.749
 9571SOL    HW229613   2.404   2.701   6.613
 9572SOL     OW29614   0.663   4.242   0.900
 9572SOL    HW129615   0.593   4.251   0.970
 9572SOL    HW229616   0.621   4.240   0.810
 9573SOL     OW29617   6.576   1.591   1.866
 9573SOL    HW129618   6.633   1.618   1.943
 9573SOL    HW229619   6.634   1.563   1.790
 9574SOL     OW29620   2.434   2.207   4.454
 9574SOL    HW129621   2.516   2.152   4.438
 9574SOL    HW229622   2.438   2.289   4.398
 9575SOL     OW29623   4.996   0.912   2.542
 9575SOL    HW129624   5.070   0.979   2.547
 9575SOL    HW229625   4.921   0.949   2.488
 9576SOL     OW29626   3.850   1.931   5.162
 9576SOL    HW129627   3.861   1.903   5.067
 9576SOL    HW229628   3.876   1.856   5.222
 9577SOL     OW29629   0.627   6.056   3.305
 9577SOL    HW129630   0.639   6.144   3.260
 9577SOL    HW229631   0.715   6.023   3.339
 9578SOL     OW29632   6.221   3.806   2.089
 9578SOL    HW129633   6.243   3.762   2.176
 9578SOL    HW229634   6.235   3.905   2.097
 9579SOL     OW29635   1.355   6.548   2.933
 9579SOL    HW129636   1.360   6.454   2.900
 9579SOL    HW229637   1.379   6.550   3.030
 9580SOL     OW29638   4.437   3.423   5.922
 9580SOL    HW129639   4.404   3.341   5.969
 9580SOL    HW229640   4.359   3.473   5.884
 9581SOL     OW29641   1.518   5.100   5.924
 9581SOL    HW129642   1.540   5.039   6.000
 9581SOL    HW229643   1.559   5.064   5.840
 9582SOL     OW29644   4.713   4.824   3.951
 9582SOL    HW129645   4.643   4.839   4.021
 9582SOL    HW229646   4.690   4.743   3.897
 9583SOL     OW29647   2.314   4.530   2.001
 9583SOL    HW129648   2.376   4.552   2.076
 9583SOL    HW229649   2.367   4.493   1.924
 9584SOL     OW29650   5.482   5.313   6.995
 9584SOL    HW129651   5.484   5.405   0.016
 9584SOL    HW229652   5.388   5.281   6.989
 9585SOL     OW29653   0.234   0.082   3.152
 9585SOL    HW129654   0.273   0.122   3.069
 9585SOL    HW229655   0.185   0.153   3.203
 9586SOL     OW29656   5.269   3.137   2.339
 9586SOL    HW129657   5.311   3.049   2.358
 9586SOL    HW229658   5.339   3.201   2.306
 9587SOL     OW29659   4.837   6.622   2.516
 9587SOL    HW129660   4.803   6.597   2.425
 9587SOL    HW229661   4.760   6.651   2.573
 9588SOL     OW29662   6.872   0.169   3.024
 9588SOL    HW129663   6.876   0.069   3.018
 9588SOL    HW229664   6.860   0.195   3.120
 9589SOL     OW29665   2.791   1.603   5.729
 9589SOL    HW129666   2.720   1.656   5.683
 9589SOL    HW229667   2.764   1.507   5.734
 9590SOL     OW29668   0.325   4.825   4.625
 9590SOL    HW129669   0.321   4.925   4.621
 9590SOL    HW229670   0.382   4.791   4.550
 9591SOL     OW29671   1.450   4.821   2.659
 9591SOL    HW129672   1.389   4.743   2.666
 9591SOL    HW229673   1.446   4.860   2.567
 9592SOL     OW29674   4.932   5.836   1.704
 9592SOL    HW129675   4.864   5.858   1.775
 9592SOL    HW229676   4.928   5.904   1.631
 9593SOL     OW29677   1.699   3.218   3.929
 9593SOL    HW129678   1.612   3.237   3.976
 9593SOL    HW229679   1.755   3.158   3.986
 9594SOL     OW29680   6.363   6.947   2.007
 9594SOL    HW129681   6.333   6.914   1.917
 9594SOL    HW229682   6.461   6.967   2.003
 9595SOL     OW29683   1.116   4.405   4.329
 9595SOL    HW129684   1.069   4.430   4.244
 9595SOL    HW229685   1.106   4.478   4.396
 9596SOL     OW29686   4.984   5.435   2.640
 9596SOL    HW129687   4.941   5.441   2.550
 9596SOL    HW229688   5.010   5.340   2.658
 9597SOL     OW29689   1.778   4.395   0.906
 9597SOL    HW129690   1.804   4.357   0.995
 9597SOL    HW229691   1.861   4.422   0.857
 9598SOL     OW29692   1.126   6.054   5.302
 9598SOL    HW129693   1.175   6.005   5.231
 9598SOL    HW229694   1.180   6.132   5.333
 9599SOL     OW29695   4.731   1.688   4.063
 9599SOL    HW129696   4.808   1.628   4.085
 9599SOL    HW229697   4.732   1.711   3.966
 9600SOL     OW29698   1.605   5.796   6.665
 9600SOL    HW129699   1.574   5.889   6.644
 9600SOL    HW229700   1.705   5.791   6.655
 9601SOL     OW29701   0.683   6.714   6.387
 9601SOL    HW129702   0.606   6.674   6.338
 9601SOL    HW229703   0.676   6.692   6.484
 9602SOL     OW29704   1.218   5.974   0.175
 9602SOL    HW129705   1.286   5.976   0.247
 9602SOL    HW229706   1.251   6.026   0.096
 9603SOL     OW29707   1.178   5.140   3.613
 9603SOL    HW129708   1.089   5.098   3.598
 9603SOL    HW229709   1.213   5.177   3.526
 9604SOL     OW29710   6.495   0.162   0.573
 9604SOL    HW129711   6.586   0.121   0.583
 9604SOL    HW229712   6.504   0.262   0.578
 9605SOL     OW29713   2.544   5.758   6.977
 9605SOL    HW129714   2.631   5.806   6.971
 9605SOL    HW229715   2.478   5.813   0.008
 9606SOL     OW29716   6.257   0.300   5.236
 9606SOL    HW129717   6.248   0.344   5.325
 9606SOL    HW229718   6.286   0.367   5.168
 9607SOL     OW29719   0.465   2.750   2.861
 9607SOL    HW129720   0.505   2.659   2.868
 9607SOL    HW229721   0.483   2.801   2.945
 9608SOL     OW29722   6.214   0.527   2.881
 9608SOL    HW129723   6.143   0.468   2.918
 9608SOL    HW229724   6.188   0.558   2.790
 9609SOL     OW29725   1.512   2.392   3.483
 9609SOL    HW129726   1.545   2.384   3.389
 9609SOL    HW229727   1.591   2.394   3.545
 9610SOL     OW29728   3.653   1.527   6.165
 9610SOL    HW129729   3.604   1.455   6.116
 9610SOL    HW229730   3.678   1.599   6.101
 9611SOL     OW29731   6.012   5.855   1.036
 9611SOL    HW129732   6.023   5.758   1.018
 9611SOL    HW229733   6.101   5.898   1.048
 9612SOL     OW29734   4.882   3.438   2.850
 9612SOL    HW129735   4.967   3.400   2.813
 9612SOL    HW229736   4.840   3.371   2.911
 9613SOL     OW29737   5.777   6.844   5.337
 9613SOL    HW129738   5.838   6.922   5.323
 9613SOL    HW229739   5.756   6.801   5.250
 9614SOL     OW29740   3.410   2.957   1.751
 9614SOL    HW129741   3.373   3.013   1.677
 9614SOL    HW229742   3.363   2.979   1.836
 9615SOL     OW29743   0.291   6.377   3.763
 9615SOL    HW129744   0.331   6.428   3.840
 9615SOL    HW229745   0.343   6.292   3.749
 9616SOL     OW29746   2.124   3.144   1.241
 9616SOL    HW129747   2.043   3.102   1.281
 9616SOL    HW229748   2.162   3.084   1.171
 9617SOL     OW29749   0.968   3.282   2.302
 9617SOL    HW129750   1.032   3.217   2.343
 9617SOL    HW229751   1.003   3.375   2.315
 9618SOL     OW29752   3.714   4.732   0.401
 9618SOL    HW129753   3.715   4.748   0.500
 9618SOL    HW229754   3.776   4.796   0.356
 9619SOL     OW29755   1.557   6.733   1.111
 9619SOL    HW129756   1.566   6.649   1.058
 9619SOL    HW229757   1.461   6.761   1.115
 9620SOL     OW29758   3.727   1.918   6.931
 9620SOL    HW129759   3.779   1.890   7.012
 9620SOL    HW229760   3.653   1.852   6.915
 9621SOL     OW29761   0.426   1.627   2.588
 9621SOL    HW129762   0.386   1.626   2.496
 9621SOL    HW229763   0.443   1.533   2.617
 9622SOL     OW29764   0.022   6.073   5.927
 9622SOL    HW129765   0.037   6.058   6.025
 9622SOL    HW229766   6.995   6.160   5.913
 9623SOL     OW29767   4.386   6.735   5.887
 9623SOL    HW129768   4.390   6.835   5.890
 9623SOL    HW229769   4.437   6.697   5.964
 9624SOL     OW29770   4.858   5.392   4.725
 9624SOL    HW129771   4.837   5.360   4.818
 9624SOL    HW229772   4.877   5.490   4.727
 9625SOL     OW29773   5.175   3.952   6.173
 9625SOL    HW129774   5.142   3.991   6.087
 9625SOL    HW229775   5.170   4.021   6.245
 9626SOL     OW29776   2.509   2.340   6.927
 9626SOL    HW129777   2.447   2.265   6.907
 9626SOL    HW229778   2.603   2.311   6.911
 9627SOL     OW29779   0.461   5.036   0.343
 9627SOL    HW129780   0.558   5.016   0.337
 9627SOL    HW229781   0.440   5.075   0.433
 9628SOL     OW29782   6.266   1.329   6.639
 9628SOL    HW129783   6.216   1.244   6.656
 9628SOL    HW229784   6.306   1.326   6.547
 9629SOL     OW29785   0.067   5.974   3.969
 9629SOL    HW129786   7.009   5.928   4.011
 9629SOL    HW229787   0.143   5.979   4.034
 9630SOL     OW29788   5.872   0.547   5.377
 9630SOL    HW129789   5.830   0.457   5.370
 9630SOL    HW229790   5.887   0.584   5.285
 9631SOL     OW29791   3.804   6.654   0.621
 9631SOL    HW129792   3.830   6.675   0.716
 9631SOL    HW229793   3.887   6.645   0.566
 9632SOL     OW29794   3.048   5.581   2.831
 9632SOL    HW129795   3.062   5.677   2.856
 9632SOL    HW229796   3.051   5.525   2.914
 9633SOL     OW29797   3.797   3.298   3.192
 9633SOL    HW129798   3.817   3.396   3.187
 9633SOL    HW229799   3.883   3.248   3.205
 9634SOL     OW29800   5.613   4.831   3.023
 9634SOL    HW129801   5.546   4.884   2.972
 9634SOL    HW229802   5.649   4.757   2.966
 9635SOL     OW29803   1.150   5.487   3.926
 9635SOL    HW129804   1.108   5.475   4.016
 9635SOL    HW229805   1.249   5.473   3.932
 9636SOL     OW29806   5.172   3.564   3.922
 9636SOL    HW129807   5.086   3.532   3.962
 9636SOL    HW229808   5.152   3.630   3.850
 9637SOL     OW29809   1.649   3.597   0.321
 9637SOL    HW129810   1.560   3.633   0.347
 9637SOL    HW229811   1.655   3.501   0.346
 9638SOL     OW29812   5.615   5.826   5.879
 9638SOL    HW129813   5.533   5.775   5.905
 9638SOL    HW229814   5.652   5.872   5.959
 9639SOL     OW29815   4.340   1.857   1.503
 9639SOL    HW129816   4.370   1.775   1.553
 9639SOL    HW229817   4.251   1.886   1.537
 9640SOL     OW29818   4.258   0.516   3.331
 9640SOL    HW129819   4.338   0.554   3.378
 9640SOL    HW229820   4.271   0.522   3.232
 9641SOL     OW29821   6.719   3.343   3.439
 9641SOL    HW129822   6.628   3.309   3.465
 9641SOL    HW229823   6.759   3.393   3.516
 9642SOL     OW29824   0.592   0.636   4.792
 9642SOL    HW129825   0.561   0.541   4.802
 9642SOL    HW229826   0.635   0.666   4.877
 9643SOL     OW29827   4.850   5.182   3.906
 9643SOL    HW129828   4.772   5.170   3.968
 9643SOL    HW229829   4.827   5.146   3.816
 9644SOL     OW29830   0.870   5.485   4.093
 9644SOL    HW129831   0.831   5.551   4.028
 9644SOL    HW229832   0.801   5.416   4.116
 9645SOL     OW29833   1.023   4.708   6.291
 9645SOL    HW129834   1.048   4.796   6.251
 9645SOL    HW229835   1.104   4.650   6.296
 9646SOL     OW29836   4.330   5.140   6.377
 9646SOL    HW129837   4.241   5.099   6.396
 9646SOL    HW229838   4.390   5.130   6.456
 9647SOL     OW29839   6.181   6.803   2.834
 9647SOL    HW129840   6.266   6.759   2.864
 9647SOL    HW229841   6.203   6.889   2.789
 9648SOL     OW29842   3.972   1.816   1.135
 9648SOL    HW129843   4.060   1.803   1.181
 9648SOL    HW229844   3.985   1.811   1.036
 9649SOL     OW29845   0.751   5.575   0.455
 9649SOL    HW129846   0.762   5.476   0.449
 9649SOL    HW229847   0.818   5.621   0.397
 9650SOL     OW29848   0.133   4.758   4.102
 9650SOL    HW129849   0.228   4.743   4.129
 9650SOL    HW229850   0.081   4.673   4.114
 9651SOL     OW29851   4.409   1.782   0.174
 9651SOL    HW129852   4.331   1.759   0.116
 9651SOL    HW229853   4.479   1.827   0.118
 9652SOL     OW29854   0.419   3.940   0.686
 9652SOL    HW129855   0.346   3.915   0.622
 9652SOL    HW229856   0.461   4.025   0.657
 9653SOL     OW29857   4.764   4.260   6.023
 9653SOL    HW129858   4.730   4.175   5.983
 9653SOL    HW229859   4.720   4.275   6.112
 9654SOL     OW29860   3.260   3.656   2.936
 9654SOL    HW129861   3.295   3.747   2.956
 9654SOL    HW229862   3.283   3.593   3.011
 9655SOL     OW29863   4.702   1.168   1.080
 9655SOL    HW129864   4.689   1.069   1.087
 9655SOL    HW229865   4.736   1.191   0.989
 9656SOL     OW29866   5.824   3.852   6.496
 9656SOL    HW129867   5.862   3.944   6.491
 9656SOL    HW229868   5.887   3.793   6.546
 9657SOL     OW29869   5.559   3.995   4.234
 9657SOL    HW129870   5.468   3.972   4.269
 9657SOL    HW229871   5.562   3.977   4.135
 9658SOL     OW29872   4.947   1.508   1.858
 9658SOL    HW129873   4.982   1.461   1.939
 9658SOL    HW229874   4.951   1.446   1.779
 9659SOL     OW29875   2.488   3.010   6.740
 9659SOL    HW129876   2.515   2.936   6.802
 9659SOL    HW229877   2.413   2.979   6.682
 9660SOL     OW29878   1.489   6.123   2.032
 9660SOL    HW129879   1.391   6.134   2.016
 9660SOL    HW229880   1.527   6.060   1.964
 9661SOL     OW29881   4.872   4.072   1.305
 9661SOL    HW129882   4.790   4.130   1.313
 9661SOL    HW229883   4.913   4.085   1.215
 9662SOL     OW29884   5.676   5.974   6.086
 9662SOL    HW129885   5.603   6.036   6.115
 9662SOL    HW229886   5.754   6.027   6.054
 9663SOL     OW29887   0.892   5.429   2.174
 9663SOL    HW129888   0.844   5.433   2.086
 9663SOL    HW229889   0.967   5.364   2.167
 9664SOL     OW29890   4.721   4.829   2.242
 9664SOL    HW129891   4.783   4.877   2.305
 9664SOL    HW229892   4.640   4.885   2.226
 9665SOL     OW29893   6.834   5.832   6.223
 9665SOL    HW129894   6.896   5.819   6.301
 9665SOL    HW229895   6.792   5.923   6.229
 9666SOL     OW29896   5.771   4.153   6.733
 9666SOL    HW129897   5.817   4.193   6.812
 9666SOL    HW229898   5.763   4.054   6.746
 9667SOL     OW29899   5.745   6.038   6.559
 9667SOL    HW129900   5.683   6.000   6.628
 9667SOL    HW229901   5.838   6.006   6.578
 9668SOL     OW29902   1.122   0.734   5.866
 9668SOL    HW129903   1.111   0.749   5.964
 9668SOL    HW229904   1.149   0.639   5.849
 9669SOL     OW29905   3.333   0.377   0.560
 9669SOL    HW129906   3.354   0.312   0.633
 9669SOL    HW229907   3.388   0.459   0.572
 9670SOL     OW29908   0.235   0.033   0.033
 9670SOL    HW129909   0.166   0.039   0.105
 9670SOL    HW229910   0.194   0.060   6.965
 9671SOL     OW29911   1.133   5.471   6.650
 9671SOL    HW129912   1.108   5.568   6.653
 9671SOL    HW229913   1.078   5.424   6.582
 9672SOL     OW29914   0.826   3.596   3.923
 9672SOL    HW129915   0.873   3.657   3.859
 9672SOL    HW229916   0.820   3.505   3.883
 9673SOL     OW29917   2.033   3.359   0.327
 9673SOL    HW129918   1.970   3.391   0.255
 9673SOL    HW229919   1.984   3.299   0.390
 9674SOL     OW29920   2.259   6.334   4.136
 9674SOL    HW129921   2.197   6.262   4.103
 9674SOL    HW229922   2.278   6.320   4.233
 9675SOL     OW29923   6.556   3.425   6.053
 9675SOL    HW129924   6.475   3.369   6.070
 9675SOL    HW229925   6.531   3.522   6.056
 9676SOL     OW29926   0.936   2.836   6.915
 9676SOL    HW129927   0.846   2.805   6.885
 9676SOL    HW229928   0.990   2.865   6.835
 9677SOL     OW29929   6.806   5.430   1.814
 9677SOL    HW129930   6.896   5.415   1.775
 9677SOL    HW229931   6.792   5.367   1.891
 9678SOL     OW29932   3.567   3.436   5.394
 9678SOL    HW129933   3.505   3.514   5.397
 9678SOL    HW229934   3.525   3.358   5.441
 9679SOL     OW29935   1.785   1.284   4.353
 9679SOL    HW129936   1.862   1.265   4.292
 9679SOL    HW229937   1.779   1.383   4.369
 9680SOL     OW29938   4.504   6.376   2.194
 9680SOL    HW129939   4.551   6.341   2.113
 9680SOL    HW229940   4.429   6.436   2.165
 9681SOL     OW29941   1.016   1.963   2.060
 9681SOL    HW129942   0.936   1.904   2.073
 9681SOL    HW229943   1.092   1.929   2.117
 9682SOL     OW29944   5.014   6.231   5.852
 9682SOL    HW129945   5.066   6.152   5.883
 9682SOL    HW229946   5.074   6.294   5.803
 9683SOL     OW29947   3.065   6.165   3.047
 9683SOL    HW129948   3.165   6.167   3.054
 9683SOL    HW229949   3.038   6.133   2.956
 9684SOL     OW29950   6.954   3.375   5.532
 9684SOL    HW129951   0.020   3.347   5.488
 9684SOL    HW229952   6.891   3.408   5.462
 9685SOL     OW29953   3.599   4.230   1.263
 9685SOL    HW129954   3.569   4.159   1.199
 9685SOL    HW229955   3.519   4.266   1.312
 9686SOL     OW29956   6.163   1.155   5.158
 9686SOL    HW129957   6.082   1.194   5.114
 9686SOL    HW229958   6.244   1.200   5.123
 9687SOL     OW29959   5.917   1.050   3.233
 9687SOL    HW129960   5.985   0.993   3.278
 9687SOL    HW229961   5.898   1.013   3.141
 9688SOL     OW29962   0.929   5.344   1.372
 9688SOL    HW129963   0.838   5.315   1.403
 9688SOL    HW229964   0.995   5.332   1.446
 9689SOL     OW29965   2.385   5.847   1.215
 9689SOL    HW129966   2.288   5.867   1.226
 9689SOL    HW229967   2.399   5.795   1.130
 9690SOL     OW29968   6.784   4.782   4.877
 9690SOL    HW129969   6.811   4.692   4.913
 9690SOL    HW229970   6.847   4.852   4.912
 9691SOL     OW29971   2.715   3.744   1.676
 9691SOL    HW129972   2.783   3.708   1.612
 9691SOL    HW229973   2.757   3.813   1.734
 9692SOL     OW29974   4.944   4.294   0.905
 9692SOL    HW129975   5.040   4.300   0.878
 9692SOL    HW229976   4.886   4.331   0.832
 9693SOL     OW29977   4.782   2.840   5.296
 9693SOL    HW129978   4.864   2.869   5.247
 9693SOL    HW229979   4.744   2.917   5.346
 9694SOL     OW29980   2.433   0.062   2.005
 9694SOL    HW129981   2.358   0.032   1.947
 9694SOL    HW229982   2.465   0.152   1.977
 9695SOL     OW29983   0.994   2.713   3.379
 9695SOL    HW129984   1.068   2.747   3.437
 9695SOL    HW229985   0.948   2.791   3.336
 9696SOL     OW29986   5.178   3.140   3.424
 9696SOL    HW129987   5.123   3.151   3.506
 9696SOL    HW229988   5.222   3.050   3.425
 9697SOL     OW29989   0.362   6.869   0.848
 9697SOL    HW129990   0.444   6.846   0.901
 9697SOL    HW229991   0.290   6.900   0.910
 9698SOL     OW29992   6.192   3.519   1.634
 9698SOL    HW129993   6.188   3.605   1.684
 9698SOL    HW229994   6.241   3.451   1.689
 9699SOL     OW29995   1.643   6.259   0.870
 9699SOL    HW129996   1.683   6.347   0.893
 9699SOL    HW229997   1.544   6.267   0.865
 9700SOL     OW29998   5.470   0.347   5.572
 9700SOL    HW129999   5.504   0.401   5.495
 9700SOL    HW230000   5.541   0.339   5.641
 9701SOL     OW30001   4.515   3.879   6.873
 9701SOL    HW130002   4.521   3.886   6.774
 9701SOL    HW230003   4.596   3.921   6.914
 9702SOL     OW30004   3.803   3.695   2.013
 9702SOL    HW130005   3.823   3.605   1.974
 9702SOL    HW230006   3.778   3.685   2.109
 9703SOL     OW30007   5.978   4.258   4.334
 9703SOL    HW130008   5.986   4.228   4.239
 9703SOL    HW230009   5.946   4.183   4.391
 9704SOL     OW30010   1.523   4.296   2.734
 9704SOL    HW130011   1.544   4.329   2.643
 9704SOL    HW230012   1.541   4.368   2.801
 9705SOL     OW30013   0.013   2.797   5.160
 9705SOL    HW130014   7.014   2.765   5.253
 9705SOL    HW230015   0.092   2.748   5.123
 9706SOL     OW30016   0.465   1.374   2.665
 9706SOL    HW130017   0.557   1.371   2.626
 9706SOL    HW230018   0.471   1.390   2.763
 9707SOL     OW30019   1.299   4.892   2.044
 9707SOL    HW130020   1.329   4.984   2.072
 9707SOL    HW230021   1.249   4.850   2.120
 9708SOL     OW30022   2.454   0.787   1.927
 9708SOL    HW130023   2.400   0.703   1.923
 9708SOL    HW230024   2.544   0.770   1.886
 9709SOL     OW30025   6.083   2.409   1.492
 9709SOL    HW130026   6.054   2.349   1.417
 9709SOL    HW230027   6.013   2.408   1.564
 9710SOL     OW30028   6.503   5.288   4.172
 9710SOL    HW130029   6.466   5.232   4.246
 9710SOL    HW230030   6.431   5.349   4.137
 9711SOL     OW30031   3.212   0.691   0.659
 9711SOL    HW130032   3.233   0.618   0.724
 9711SOL    HW230033   3.124   0.672   0.615
 9712SOL     OW30034   5.564   1.603   6.855
 9712SOL    HW130035   5.480   1.630   6.902
 9712SOL    HW230036   5.643   1.639   6.904
 9713SOL     OW30037   1.127   6.682   2.819
 9713SOL    HW130038   1.173   6.678   2.908
 9713SOL    HW230039   1.106   6.589   2.788
 9714SOL     OW30040   2.563   4.506   4.297
 9714SOL    HW130041   2.548   4.452   4.214
 9714SOL    HW230042   2.478   4.513   4.349
 9715SOL     OW30043   6.687   3.826   6.975
 9715SOL    HW130044   6.625   3.780   6.911
 9715SOL    HW230045   6.779   3.830   6.935
 9716SOL     OW30046   2.872   5.476   0.323
 9716SOL    HW130047   2.892   5.455   0.419
 9716SOL    HW230048   2.931   5.421   0.264
 9717SOL     OW30049   4.081   2.116   5.240
 9717SOL    HW130050   3.996   2.069   5.265
 9717SOL    HW230051   4.103   2.096   5.144
 9718SOL     OW30052   4.245   2.622   6.168
 9718SOL    HW130053   4.259   2.682   6.247
 9718SOL    HW230054   4.280   2.531   6.190
 9719SOL     OW30055   4.752   6.690   5.862
 9719SOL    HW130056   4.816   6.705   5.787
 9719SOL    HW230057   4.762   6.597   5.897
 9720SOL     OW30058   2.206   3.105   3.182
 9720SOL    HW130059   2.196   3.015   3.139
 9720SOL    HW230060   2.182   3.176   3.116
 9721SOL     OW30061   1.194   1.157   0.287
 9721SOL    HW130062   1.196   1.254   0.313
 9721SOL    HW230063   1.288   1.124   0.275
 9722SOL     OW30064   3.914   2.574   5.353
 9722SOL    HW130065   3.983   2.586   5.283
 9722SOL    HW230066   3.946   2.509   5.422
 9723SOL     OW30067   6.539   0.220   4.913
 9723SOL    HW130068   6.536   0.222   5.013
 9723SOL    HW230069   6.556   0.313   4.879
 9724SOL     OW30070   1.956   5.102   0.461
 9724SOL    HW130071   1.910   5.032   0.406
 9724SOL    HW230072   2.039   5.133   0.414
 9725SOL     OW30073   4.029   5.191   4.654
 9725SOL    HW130074   4.069   5.106   4.689
 9725SOL    HW230075   4.005   5.180   4.558
 9726SOL     OW30076   0.241   1.005   3.247
 9726SOL    HW130077   0.334   0.980   3.217
 9726SOL    HW230078   0.198   1.062   3.177
 9727SOL     OW30079   0.090   1.529   1.274
 9727SOL    HW130080   0.101   1.624   1.246
 9727SOL    HW230081   0.167   1.475   1.239
 9728SOL     OW30082   4.674   1.675   4.343
 9728SOL    HW130083   4.707   1.747   4.404
 9728SOL    HW230084   4.710   1.690   4.251
 9729SOL     OW30085   0.030   5.220   3.064
 9729SOL    HW130086   6.984   5.296   3.067
 9729SOL    HW230087   0.093   5.234   2.987
 9730SOL     OW30088   1.260   4.426   3.075
 9730SOL    HW130089   1.273   4.525   3.079
 9730SOL    HW230090   1.171   4.402   3.113
 9731SOL     OW30091   5.690   3.298   1.802
 9731SOL    HW130092   5.757   3.354   1.754
 9731SOL    HW230093   5.707   3.301   1.900
 9732SOL     OW30094   1.887   3.641   3.052
 9732SOL    HW130095   1.879   3.640   2.952
 9732SOL    HW230096   1.967   3.695   3.078
 9733SOL     OW30097   5.646   4.370   1.789
 9733SOL    HW130098   5.572   4.384   1.856
 9733SOL    HW230099   5.730   4.345   1.837
 9734SOL     OW30100   5.102   5.791   6.616
 9734SOL    HW130101   5.194   5.805   6.580
 9734SOL    HW230102   5.045   5.744   6.548
 9735SOL     OW30103   0.756   2.369   1.042
 9735SOL    HW130104   0.762   2.447   0.980
 9735SOL    HW230105   0.691   2.301   1.005
 9736SOL     OW30106   4.699   1.563   4.911
 9736SOL    HW130107   4.673   1.650   4.951
 9736SOL    HW230108   4.629   1.494   4.929
 9737SOL     OW30109   6.214   3.369   3.100
 9737SOL    HW130110   6.277   3.446   3.112
 9737SOL    HW230111   6.150   3.389   3.026
 9738SOL     OW30112   2.440   6.722   1.741
 9738SOL    HW130113   2.470   6.794   1.678
 9738SOL    HW230114   2.462   6.747   1.835
 9739SOL     OW30115   5.954   6.785   0.761
 9739SOL    HW130116   5.964   6.768   0.663
 9739SOL    HW230117   5.859   6.805   0.782
 9740SOL     OW30118   6.207   1.108   3.097
 9740SOL    HW130119   6.172   1.181   3.156
 9740SOL    HW230120   6.215   1.024   3.150
 9741SOL     OW30121   2.582   1.863   4.526
 9741SOL    HW130122   2.632   1.794   4.578
 9741SOL    HW230123   2.488   1.833   4.510
 9742SOL     OW30124   3.616   2.174   6.368
 9742SOL    HW130125   3.546   2.215   6.426
 9742SOL    HW230126   3.675   2.247   6.330
 9743SOL     OW30127   5.304   3.942   4.335
 9743SOL    HW130128   5.228   4.005   4.347
 9743SOL    HW230129   5.278   3.851   4.366
 9744SOL     OW30130   1.762   1.733   3.305
 9744SOL    HW130131   1.723   1.753   3.215
 9744SOL    HW230132   1.785   1.819   3.351
 9745SOL     OW30133   6.721   0.547   6.305
 9745SOL    HW130134   6.790   0.605   6.347
 9745SOL    HW230135   6.708   0.465   6.360
 9746SOL     OW30136   4.271   4.910   5.952
 9746SOL    HW130137   4.282   4.812   5.969
 9746SOL    HW230138   4.357   4.948   5.919
 9747SOL     OW30139   2.526   1.574   2.925
 9747SOL    HW130140   2.527   1.478   2.896
 9747SOL    HW230141   2.462   1.625   2.868
 9748SOL     OW30142   0.901   0.703   3.236
 9748SOL    HW130143   0.910   0.604   3.226
 9748SOL    HW230144   0.992   0.745   3.232
 9749SOL     OW30145   0.004   0.870   2.184
 9749SOL    HW130146   0.028   0.822   2.269
 9749SOL    HW230147   0.053   0.828   2.107
 9750SOL     OW30148   6.105   3.366   4.265
 9750SOL    HW130149   6.062   3.454   4.249
 9750SOL    HW230150   6.056   3.317   4.337
 9751SOL     OW30151   4.032   6.942   1.811
 9751SOL    HW130152   3.936   6.968   1.797
 9751SOL    HW230153   4.060   6.968   1.904
 9752SOL     OW30154   3.179   3.516   0.074
 9752SOL    HW130155   3.226   3.431   0.047
 9752SOL    HW230156   3.086   3.515   0.039
 9753SOL     OW30157   6.758   6.238   5.137
 9753SOL    HW130158   6.843   6.201   5.176
 9753SOL    HW230159   6.683   6.175   5.156
 9754SOL     OW30160   3.109   0.723   1.906
 9754SOL    HW130161   3.097   0.652   1.837
 9754SOL    HW230162   3.095   0.813   1.863
 9755SOL     OW30163   2.806   3.600   0.215
 9755SOL    HW130164   2.835   3.581   0.121
 9755SOL    HW230165   2.781   3.696   0.223
 9756SOL     OW30166   5.684   0.202   5.934
 9756SOL    HW130167   5.706   0.114   5.892
 9756SOL    HW230168   5.688   0.274   5.864
 9757SOL     OW30169   5.335   4.247   4.140
 9757SOL    HW130170   5.251   4.288   4.107
 9757SOL    HW230171   5.394   4.317   4.180
 9758SOL     OW30172   1.913   0.552   2.104
 9758SOL    HW130173   1.944   0.512   2.017
 9758SOL    HW230174   1.985   0.543   2.172
 9759SOL     OW30175   6.994   1.274   1.361
 9759SOL    HW130176   6.941   1.334   1.301
 9759SOL    HW230177   0.070   1.277   1.335
 9760SOL     OW30178   4.878   0.981   6.901
 9760SOL    HW130179   4.793   0.962   6.852
 9760SOL    HW230180   4.925   1.058   6.857
 9761SOL     OW30181   1.438   2.460   1.063
 9761SOL    HW130182   1.342   2.447   1.087
 9761SOL    HW230183   1.494   2.398   1.118
 9762SOL     OW30184   2.970   1.795   5.638
 9762SOL    HW130185   2.907   1.720   5.657
 9762SOL    HW230186   2.989   1.798   5.540
 9763SOL     OW30187   6.239   1.277   0.940
 9763SOL    HW130188   6.199   1.194   0.901
 9763SOL    HW230189   6.265   1.259   1.035
 9764SOL     OW30190   0.017   2.217   2.525
 9764SOL    HW130191   7.001   2.124   2.531
 9764SOL    HW230192   6.981   2.278   2.581
 9765SOL     OW30193   0.063   0.139   2.217
 9765SOL    HW130194   0.002   0.194   2.274
 9765SOL    HW230195   0.134   0.099   2.275
 9766SOL     OW30196   1.651   1.858   4.090
 9766SOL    HW130197   1.683   1.766   4.067
 9766SOL    HW230198   1.721   1.924   4.064
 9767SOL     OW30199   2.421   1.615   5.703
 9767SOL    HW130200   2.502   1.628   5.647
 9767SOL    HW230201   2.382   1.703   5.728
 9768SOL     OW30202   5.643   2.916   0.657
 9768SOL    HW130203   5.739   2.892   0.671
 9768SOL    HW230204   5.636   2.986   0.586
 9769SOL     OW30205   3.907   1.709   5.371
 9769SOL    HW130206   3.843   1.730   5.444
 9769SOL    HW230207   3.890   1.616   5.338
 9770SOL     OW30208   2.375   2.507   6.260
 9770SOL    HW130209   2.443   2.548   6.199
 9770SOL    HW230210   2.283   2.527   6.226
 9771SOL     OW30211   2.667   6.990   2.199
 9771SOL    HW130212   2.641   6.939   2.118
 9771SOL    HW230213   2.616   0.057   2.201
 9772SOL     OW30214   0.953   0.644   1.402
 9772SOL    HW130215   0.926   0.578   1.332
 9772SOL    HW230216   0.992   0.595   1.481
 9773SOL     OW30217   5.411   4.938   1.896
 9773SOL    HW130218   5.415   4.866   1.965
 9773SOL    HW230219   5.420   5.027   1.940
 9774SOL     OW30220   1.425   4.536   5.404
 9774SOL    HW130221   1.380   4.625   5.409
 9774SOL    HW230222   1.394   4.478   5.479
 9775SOL     OW30223   2.646   1.266   3.882
 9775SOL    HW130224   2.627   1.353   3.927
 9775SOL    HW230225   2.636   1.276   3.783
 9776SOL     OW30226   2.524   5.464   0.392
 9776SOL    HW130227   2.447   5.497   0.338
 9776SOL    HW230228   2.609   5.498   0.352
 9777SOL     OW30229   4.442   0.835   5.674
 9777SOL    HW130230   4.526   0.887   5.690
 9777SOL    HW230231   4.420   0.780   5.754
 9778SOL     OW30232   0.389   4.005   3.805
 9778SOL    HW130233   0.311   3.992   3.743
 9778SOL    HW230234   0.474   3.995   3.755
 9779SOL     OW30235   2.291   1.010   3.714
 9779SOL    HW130236   2.370   0.969   3.761
 9779SOL    HW230237   2.222   0.939   3.696
 9780SOL     OW30238   0.998   2.711   2.164
 9780SOL    HW130239   1.008   2.622   2.119
 9780SOL    HW230240   0.958   2.777   2.101
 9781SOL     OW30241   2.237   2.186   3.064
 9781SOL    HW130242   2.333   2.194   3.037
 9781SOL    HW230243   2.231   2.170   3.162
 9782SOL     OW30244   0.304   2.730   0.942
 9782SOL    HW130245   0.243   2.709   1.018
 9782SOL    HW230246   0.397   2.703   0.966
 9783SOL     OW30247   3.814   1.040   3.017
 9783SOL    HW130248   3.735   1.095   2.992
 9783SOL    HW230249   3.813   0.955   2.964
 9784SOL     OW30250   1.194   1.638   6.259
 9784SOL    HW130251   1.233   1.660   6.349
 9784SOL    HW230252   1.182   1.539   6.252
 9785SOL     OW30253   0.195   3.656   4.495
 9785SOL    HW130254   0.104   3.658   4.454
 9785SOL    HW230255   0.190   3.688   4.590
 9786SOL     OW30256   2.408   3.777   0.273
 9786SOL    HW130257   2.353   3.711   0.221
 9786SOL    HW230258   2.480   3.729   0.322
 9787SOL     OW30259   3.236   3.652   3.302
 9787SOL    HW130260   3.305   3.605   3.248
 9787SOL    HW230261   3.145   3.618   3.277
 9788SOL     OW30262   4.164   0.598   2.299
 9788SOL    HW130263   4.181   0.565   2.207
 9788SOL    HW230264   4.107   0.680   2.296
 9789SOL     OW30265   3.598   1.543   0.127
 9789SOL    HW130266   3.564   1.616   0.067
 9789SOL    HW230267   3.677   1.500   0.084
 9790SOL     OW30268   6.968   5.152   4.080
 9790SOL    HW130269   6.878   5.192   4.058
 9790SOL    HW230270   6.963   5.053   4.071
 9791SOL     OW30271   1.035   6.503   1.371
 9791SOL    HW130272   1.026   6.600   1.394
 9791SOL    HW230273   0.959   6.452   1.411
 9792SOL     OW30274   3.863   5.443   0.843
 9792SOL    HW130275   3.947   5.394   0.868
 9792SOL    HW230276   3.864   5.462   0.745
 9793SOL     OW30277   5.866   0.586   3.478
 9793SOL    HW130278   5.803   0.513   3.454
 9793SOL    HW230279   5.892   0.636   3.395
 9794SOL     OW30280   4.675   4.621   4.544
 9794SOL    HW130281   4.750   4.566   4.581
 9794SOL    HW230282   4.705   4.666   4.459
 9795SOL     OW30283   1.861   3.357   3.285
 9795SOL    HW130284   1.918   3.436   3.264
 9795SOL    HW230285   1.918   3.281   3.315
 9796SOL     OW30286   3.887   3.890   3.798
 9796SOL    HW130287   3.873   3.939   3.712
 9796SOL    HW230288   3.970   3.835   3.791
 9797SOL     OW30289   2.687   5.171   7.004
 9797SOL    HW130290   2.665   5.263   0.018
 9797SOL    HW230291   2.716   5.114   0.061
 9798SOL     OW30292   0.286   3.788   6.945
 9798SOL    HW130293   0.347   3.777   6.866
 9798SOL    HW230294   0.236   3.703   6.961
 9799SOL     OW30295   2.634   0.324   6.621
 9799SOL    HW130296   2.561   0.267   6.657
 9799SOL    HW230297   2.700   0.343   6.694
 9800SOL     OW30298   6.650   3.631   4.900
 9800SOL    HW130299   6.677   3.716   4.945
 9800SOL    HW230300   6.667   3.554   4.962
 9801SOL     OW30301   6.491   6.446   6.941
 9801SOL    HW130302   6.463   6.377   6.873
 9801SOL    HW230303   6.453   6.422   0.010
 9802SOL     OW30304   3.612   4.732   0.141
 9802SOL    HW130305   3.647   4.719   0.233
 9802SOL    HW230306   3.516   4.758   0.145
 9803SOL     OW30307   1.046   4.088   6.703
 9803SOL    HW130308   1.044   4.184   6.731
 9803SOL    HW230309   1.037   4.082   6.603
 9804SOL     OW30310   0.068   5.848   2.615
 9804SOL    HW130311   0.055   5.822   2.711
 9804SOL    HW230312   0.039   5.943   2.602
 9805SOL     OW30313   0.551   6.092   4.053
 9805SOL    HW130314   0.618   6.098   3.979
 9805SOL    HW230315   0.551   5.999   4.090
 9806SOL     OW30316   3.950   1.598   0.114
 9806SOL    HW130317   3.899   1.526   0.069
 9806SOL    HW230318   3.892   1.679   0.125
 9807SOL     OW30319   3.590   3.351   2.010
 9807SOL    HW130320   3.523   3.425   2.009
 9807SOL    HW230321   3.569   3.287   1.936
 9808SOL     OW30322   3.988   5.865   2.404
 9808SOL    HW130323   3.918   5.932   2.378
 9808SOL    HW230324   4.040   5.900   2.482
 9809SOL     OW30325   0.029   3.274   1.117
 9809SOL    HW130326   0.125   3.291   1.142
 9809SOL    HW230327   0.022   3.264   1.018
 9810SOL     OW30328   2.809   2.057   0.474
 9810SOL    HW130329   2.748   1.978   0.466
 9810SOL    HW230330   2.778   2.115   0.549
 9811SOL     OW30331   5.879   3.539   4.352
 9811SOL    HW130332   5.905   3.499   4.440
 9811SOL    HW230333   5.799   3.491   4.315
 9812SOL     OW30334   3.771   6.620   5.876
 9812SOL    HW130335   3.832   6.548   5.845
 9812SOL    HW230336   3.725   6.591   5.960
 9813SOL     OW30337   5.294   1.413   1.687
 9813SOL    HW130338   5.332   1.475   1.619
 9813SOL    HW230339   5.198   1.393   1.664
 9814SOL     OW30340   5.607   1.483   0.203
 9814SOL    HW130341   5.594   1.579   0.228
 9814SOL    HW230342   5.696   1.471   0.159
 9815SOL     OW30343   4.499   2.413   4.381
 9815SOL    HW130344   4.579   2.436   4.437
 9815SOL    HW230345   4.485   2.485   4.313
 9816SOL     OW30346   2.414   0.133   0.073
 9816SOL    HW130347   2.470   0.215   0.060
 9816SOL    HW230348   2.377   0.104   7.004
 9817SOL     OW30349   6.590   6.991   2.862
 9817SOL    HW130350   6.588   6.958   2.768
 9817SOL    HW230351   6.578   6.915   2.925
 9818SOL     OW30352   6.099   2.881   4.401
 9818SOL    HW130353   6.095   2.953   4.470
 9818SOL    HW230354   6.006   2.849   4.382
 9819SOL     OW30355   4.258   0.484   2.989
 9819SOL    HW130356   4.283   0.577   3.017
 9819SOL    HW230357   4.165   0.484   2.953
 9820SOL     OW30358   4.664   3.305   5.746
 9820SOL    HW130359   4.701   3.338   5.659
 9820SOL    HW230360   4.595   3.369   5.780
 9821SOL     OW30361   6.301   5.185   6.937
 9821SOL    HW130362   6.319   5.096   6.979
 9821SOL    HW230363   6.232   5.234   6.990
 9822SOL     OW30364   0.760   6.802   2.295
 9822SOL    HW130365   0.752   6.725   2.359
 9822SOL    HW230366   0.723   6.884   2.339
 9823SOL     OW30367   3.250   1.218   1.779
 9823SOL    HW130368   3.308   1.223   1.860
 9823SOL    HW230369   3.289   1.274   1.706
 9824SOL     OW30370   1.383   3.965   6.080
 9824SOL    HW130371   1.385   4.032   6.006
 9824SOL    HW230372   1.289   3.956   6.114
 9825SOL     OW30373   3.937   4.892   5.108
 9825SOL    HW130374   3.866   4.915   5.041
 9825SOL    HW230375   3.902   4.822   5.171
 9826SOL     OW30376   4.437   0.674   5.919
 9826SOL    HW130377   4.423   0.751   5.981
 9826SOL    HW230378   4.521   0.625   5.945
 9827SOL     OW30379   1.177   3.885   4.542
 9827SOL    HW130380   1.208   3.964   4.595
 9827SOL    HW230381   1.087   3.903   4.505
 9828SOL     OW30382   3.735   2.741   6.797
 9828SOL    HW130383   3.760   2.835   6.773
 9828SOL    HW230384   3.794   2.707   6.870
 9829SOL     OW30385   2.832   5.207   0.888
 9829SOL    HW130386   2.746   5.174   0.927
 9829SOL    HW230387   2.872   5.136   0.830
 9830SOL     OW30388   5.754   1.175   1.230
 9830SOL    HW130389   5.670   1.185   1.177
 9830SOL    HW230390   5.829   1.149   1.169
 9831SOL     OW30391   6.164   6.503   1.598
 9831SOL    HW130392   6.151   6.543   1.689
 9831SOL    HW230393   6.252   6.456   1.594
 9832SOL     OW30394   4.503   4.949   1.132
 9832SOL    HW130395   4.430   4.975   1.196
 9832SOL    HW230396   4.588   4.934   1.184
 9833SOL     OW30397   3.710   3.653   5.042
 9833SOL    HW130398   3.675   3.694   5.127
 9833SOL    HW230399   3.651   3.576   5.016
 9834SOL     OW30400   0.663   3.402   4.518
 9834SOL    HW130401   0.687   3.377   4.612
 9834SOL    HW230402   0.568   3.434   4.516
 9835SOL     OW30403   4.906   1.977   4.128
 9835SOL    HW130404   4.936   1.901   4.070
 9835SOL    HW230405   4.887   2.057   4.071
 9836SOL     OW30406   4.883   5.293   3.148
 9836SOL    HW130407   4.915   5.217   3.204
 9836SOL    HW230408   4.794   5.324   3.181
 9837SOL     OW30409   2.639   6.242   4.273
 9837SOL    HW130410   2.735   6.247   4.245
 9837SOL    HW230411   2.623   6.304   4.350
 9838SOL     OW30412   0.834   6.117   5.940
 9838SOL    HW130413   0.888   6.182   5.887
 9838SOL    HW230414   0.767   6.074   5.880
 9839SOL     OW30415   0.089   1.774   1.683
 9839SOL    HW130416   0.118   1.696   1.626
 9839SOL    HW230417   0.001   1.753   1.726
 9840SOL     OW30418   6.326   0.226   1.291
 9840SOL    HW130419   6.412   0.190   1.253
 9840SOL    HW230420   6.266   0.254   1.217
 9841SOL     OW30421   1.463   3.494   4.579
 9841SOL    HW130422   1.369   3.528   4.586
 9841SOL    HW230423   1.506   3.533   4.498
 9842SOL     OW30424   2.937   3.336   2.396
 9842SOL    HW130425   2.890   3.321   2.309
 9842SOL    HW230426   2.947   3.249   2.444
 9843SOL     OW30427   6.888   2.515   2.048
 9843SOL    HW130428   6.922   2.449   1.981
 9843SOL    HW230429   6.815   2.473   2.103
 9844SOL     OW30430   5.502   0.316   2.505
 9844SOL    HW130431   5.411   0.277   2.522
 9844SOL    HW230432   5.500   0.372   2.422
 9845SOL     OW30433   1.452   1.999   3.532
 9845SOL    HW130434   1.539   2.007   3.482
 9845SOL    HW230435   1.462   2.045   3.621
 9846SOL     OW30436   2.905   3.436   2.849
 9846SOL    HW130437   2.844   3.449   2.771
 9846SOL    HW230438   2.916   3.522   2.898
 9847SOL     OW30439   2.079   3.885   5.926
 9847SOL    HW130440   1.998   3.941   5.945
 9847SOL    HW230441   2.161   3.942   5.932
 9848SOL     OW30442   4.684   3.101   6.979
 9848SOL    HW130443   4.747   3.049   6.920
 9848SOL    HW230444   4.662   3.188   6.935
 9849SOL     OW30445   6.999   6.684   6.356
 9849SOL    HW130446   0.052   6.650   6.415
 9849SOL    HW230447   0.004   6.775   6.322
 9850SOL     OW30448   3.810   6.160   2.643
 9850SOL    HW130449   3.747   6.085   2.623
 9850SOL    HW230450   3.857   6.143   2.730
 9851SOL     OW30451   5.295   1.675   5.348
 9851SOL    HW130452   5.382   1.719   5.368
 9851SOL    HW230453   5.275   1.683   5.250
 9852SOL     OW30454   4.973   1.879   3.632
 9852SOL    HW130455   4.936   1.819   3.561
 9852SOL    HW230456   4.898   1.914   3.688
 9853SOL     OW30457   6.039   3.874   2.860
 9853SOL    HW130458   6.107   3.941   2.889
 9853SOL    HW230459   6.030   3.804   2.931
 9854SOL     OW30460   5.715   5.230   4.241
 9854SOL    HW130461   5.743   5.271   4.328
 9854SOL    HW230462   5.748   5.286   4.165
 9855SOL     OW30463   1.497   3.563   1.738
 9855SOL    HW130464   1.525   3.496   1.806
 9855SOL    HW230465   1.533   3.537   1.648
 9856SOL     OW30466   3.656   3.118   0.459
 9856SOL    HW130467   3.561   3.125   0.428
 9856SOL    HW230468   3.693   3.210   0.475
 9857SOL     OW30469   5.732   3.302   3.029
 9857SOL    HW130470   5.689   3.374   3.083
 9857SOL    HW230471   5.689   3.297   2.939
 9858SOL     OW30472   5.466   0.711   1.804
 9858SOL    HW130473   5.526   0.669   1.736
 9858SOL    HW230474   5.371   0.695   1.779
 9859SOL     OW30475   6.133   0.760   2.151
 9859SOL    HW130476   6.037   0.758   2.181
 9859SOL    HW230477   6.193   0.766   2.231
 9860SOL     OW30478   0.423   1.183   2.337
 9860SOL    HW130479   0.448   1.238   2.417
 9860SOL    HW230480   0.473   1.216   2.257
 9861SOL     OW30481   4.043   5.848   4.293
 9861SOL    HW130482   3.991   5.886   4.370
 9861SOL    HW230483   4.045   5.915   4.218
 9862SOL     OW30484   1.469   2.588   0.802
 9862SOL    HW130485   1.560   2.566   0.766
 9862SOL    HW230486   1.461   2.556   0.897
 9863SOL     OW30487   3.700   0.342   2.783
 9863SOL    HW130488   3.794   0.362   2.754
 9863SOL    HW230489   3.701   0.263   2.844
 9864SOL     OW30490   4.930   5.882   2.467
 9864SOL    HW130491   5.004   5.838   2.518
 9864SOL    HW230492   4.920   5.838   2.378
 9865SOL     OW30493   0.552   0.439   3.819
 9865SOL    HW130494   0.480   0.452   3.751
 9865SOL    HW230495   0.587   0.346   3.812
 9866SOL     OW30496   4.988   3.805   4.304
 9866SOL    HW130497   4.993   3.904   4.307
 9866SOL    HW230498   4.957   3.769   4.392
 9867SOL     OW30499   4.941   1.267   0.549
 9867SOL    HW130500   4.977   1.324   0.622
 9867SOL    HW230501   4.850   1.298   0.523
 9868SOL     OW30502   6.446   4.753   6.882
 9868SOL    HW130503   6.517   4.684   6.892
 9868SOL    HW230504   6.487   4.838   6.847
 9869SOL     OW30505   1.994   4.276   2.824
 9869SOL    HW130506   1.989   4.282   2.725
 9869SOL    HW230507   1.956   4.359   2.865
 9870SOL     OW30508   4.743   4.483   2.634
 9870SOL    HW130509   4.662   4.541   2.622
 9870SOL    HW230510   4.734   4.402   2.577
 9871SOL     OW30511   2.163   0.829   5.946
 9871SOL    HW130512   2.123   0.852   5.858
 9871SOL    HW230513   2.239   0.891   5.965
 9872SOL     OW30514   2.937   4.785   3.166
 9872SOL    HW130515   2.904   4.860   3.223
 9872SOL    HW230516   3.028   4.757   3.196
 9873SOL     OW30517   1.328   2.896   0.335
 9873SOL    HW130518   1.272   2.913   0.254
 9873SOL    HW230519   1.277   2.922   0.417
 9874SOL     OW30520   0.616   3.217   3.516
 9874SOL    HW130521   0.560   3.231   3.597
 9874SOL    HW230522   0.659   3.127   3.520
 9875SOL     OW30523   0.516   0.657   2.363
 9875SOL    HW130524   0.477   0.750   2.364
 9875SOL    HW230525   0.479   0.606   2.286
 9876SOL     OW30526   6.628   6.839   2.570
 9876SOL    HW130527   6.701   6.793   2.520
 9876SOL    HW230528   6.546   6.781   2.571
 9877SOL     OW30529   3.163   6.872   2.834
 9877SOL    HW130530   3.143   6.969   2.823
 9877SOL    HW230531   3.230   6.844   2.765
 9878SOL     OW30532   1.372   5.919   5.539
 9878SOL    HW130533   1.469   5.917   5.516
 9878SOL    HW230534   1.355   5.860   5.618
 9879SOL     OW30535   4.031   5.283   5.071
 9879SOL    HW130536   3.962   5.293   5.000
 9879SOL    HW230537   4.085   5.200   5.053
 9880SOL     OW30538   1.075   2.396   5.902
 9880SOL    HW130539   1.111   2.374   5.811
 9880SOL    HW230540   1.095   2.322   5.965
 9881SOL     OW30541   0.636   2.102   6.006
 9881SOL    HW130542   0.688   2.186   5.995
 9881SOL    HW230543   0.583   2.107   6.091
 9882SOL     OW30544   1.012   2.131   3.991
 9882SOL    HW130545   1.083   2.175   4.046
 9882SOL    HW230546   1.054   2.078   3.917
 9883SOL     OW30547   1.353   0.956   1.949
 9883SOL    HW130548   1.439   1.006   1.955
 9883SOL    HW230549   1.355   0.895   1.869
 9884SOL     OW30550   4.055   0.321   4.167
 9884SOL    HW130551   3.981   0.382   4.196
 9884SOL    HW230552   4.136   0.338   4.223
 9885SOL     OW30553   5.913   4.755   4.823
 9885SOL    HW130554   5.991   4.718   4.772
 9885SOL    HW230555   5.946   4.814   4.897
 9886SOL     OW30556   1.254   5.018   2.748
 9886SOL    HW130557   1.287   5.095   2.694
 9886SOL    HW230558   1.311   4.938   2.729
 9887SOL     OW30559   3.312   1.442   0.033
 9887SOL    HW130560   3.335   1.498   0.114
 9887SOL    HW230561   3.390   1.444   6.990
 9888SOL     OW30562   6.986   4.021   0.268
 9888SOL    HW130563   6.981   3.950   0.338
 9888SOL    HW230564   0.035   4.089   0.293
 9889SOL     OW30565   6.077   4.826   0.518
 9889SOL    HW130566   6.020   4.796   0.595
 9889SOL    HW230567   6.105   4.745   0.466
 9890SOL     OW30568   1.277   3.085   1.182
 9890SOL    HW130569   1.182   3.110   1.160
 9890SOL    HW230570   1.278   2.996   1.228
 9891SOL     OW30571   5.755   2.627   0.155
 9891SOL    HW130572   5.701   2.675   0.225
 9891SOL    HW230573   5.831   2.579   0.200
 9892SOL     OW30574   6.721   4.585   0.131
 9892SOL    HW130575   6.764   4.620   0.048
 9892SOL    HW230576   6.628   4.621   0.138
 9893SOL     OW30577   1.959   1.240   1.100
 9893SOL    HW130578   1.909   1.213   1.182
 9893SOL    HW230579   1.895   1.277   1.032
 9894SOL     OW30580   1.173   1.684   0.403
 9894SOL    HW130581   1.110   1.700   0.478
 9894SOL    HW230582   1.259   1.731   0.421
 9895SOL     OW30583   5.343   3.482   5.043
 9895SOL    HW130584   5.428   3.487   4.991
 9895SOL    HW230585   5.358   3.430   5.127
 9896SOL     OW30586   6.580   0.399   0.083
 9896SOL    HW130587   6.587   0.483   0.137
 9896SOL    HW230588   6.500   0.346   0.114
 9897SOL     OW30589   5.831   4.878   3.196
 9897SOL    HW130590   5.880   4.901   3.280
 9897SOL    HW230591   5.737   4.854   3.217
 9898SOL     OW30592   3.291   6.187   5.628
 9898SOL    HW130593   3.326   6.281   5.630
 9898SOL    HW230594   3.305   6.149   5.536
 9899SOL     OW30595   0.350   5.481   0.104
 9899SOL    HW130596   0.259   5.442   0.090
 9899SOL    HW230597   0.405   5.468   0.022
 9900SOL     OW30598   1.799   4.338   3.543
 9900SOL    HW130599   1.781   4.351   3.446
 9900SOL    HW230600   1.745   4.260   3.577
 9901SOL     OW30601   2.550   2.543   5.546
 9901SOL    HW130602   2.454   2.568   5.557
 9901SOL    HW230603   2.569   2.461   5.599
 9902SOL     OW30604   2.212   4.591   6.554
 9902SOL    HW130605   2.293   4.553   6.599
 9902SOL    HW230606   2.142   4.520   6.544
 9903SOL     OW30607   5.252   1.598   3.420
 9903SOL    HW130608   5.167   1.599   3.367
 9903SOL    HW230609   5.319   1.539   3.375
 9904SOL     OW30610   0.350   3.449   6.663
 9904SOL    HW130611   0.257   3.413   6.652
 9904SOL    HW230612   0.411   3.376   6.694
 9905SOL     OW30613   4.412   1.481   0.574
 9905SOL    HW130614   4.361   1.501   0.658
 9905SOL    HW230615   4.408   1.560   0.513
 9906SOL     OW30616   3.795   2.947   2.828
 9906SOL    HW130617   3.880   2.968   2.779
 9906SOL    HW230618   3.721   2.934   2.762
 9907SOL     OW30619   6.989   0.547   2.063
 9907SOL    HW130620   7.018   0.535   1.968
 9907SOL    HW230621   0.041   0.511   2.123
 9908SOL     OW30622   4.758   2.687   2.987
 9908SOL    HW130623   4.723   2.716   2.898
 9908SOL    HW230624   4.754   2.587   2.993
 9909SOL     OW30625   2.843   6.448   3.960
 9909SOL    HW130626   2.754   6.475   3.922
 9909SOL    HW230627   2.876   6.522   4.019
 9910SOL     OW30628   1.049   4.735   2.684
 9910SOL    HW130629   1.040   4.658   2.621
 9910SOL    HW230630   1.138   4.732   2.729
 9911SOL     OW30631   3.964   6.823   2.102
 9911SOL    HW130632   3.878   6.848   2.057
 9911SOL    HW230633   4.026   6.901   2.102
 9912SOL     OW30634   4.841   1.963   0.534
 9912SOL    HW130635   4.822   1.872   0.570
 9912SOL    HW230636   4.879   1.956   0.442
 9913SOL     OW30637   5.875   2.961   6.456
 9913SOL    HW130638   5.969   2.974   6.488
 9913SOL    HW230639   5.833   3.049   6.439
 9914SOL     OW30640   0.540   2.684   4.774
 9914SOL    HW130641   0.503   2.596   4.801
 9914SOL    HW230642   0.468   2.754   4.779
 9915SOL     OW30643   4.604   1.044   3.640
 9915SOL    HW130644   4.648   1.080   3.722
 9915SOL    HW230645   4.568   0.953   3.657
 9916SOL     OW30646   2.152   2.498   2.293
 9916SOL    HW130647   2.072   2.529   2.242
 9916SOL    HW230648   2.235   2.534   2.249
 9917SOL     OW30649   6.901   4.552   6.012
 9917SOL    HW130650   6.821   4.520   6.062
 9917SOL    HW230651   6.896   4.652   6.002
 9918SOL     OW30652   4.181   1.424   3.004
 9918SOL    HW130653   4.185   1.522   3.023
 9918SOL    HW230654   4.131   1.377   3.077
 9919SOL     OW30655   6.106   6.614   1.848
 9919SOL    HW130656   6.006   6.621   1.839
 9919SOL    HW230657   6.146   6.705   1.837
 9920SOL     OW30658   4.761   1.315   2.993
 9920SOL    HW130659   4.852   1.342   2.963
 9920SOL    HW230660   4.692   1.367   2.944
 9921SOL     OW30661   4.289   5.255   5.892
 9921SOL    HW130662   4.267   5.338   5.841
 9921SOL    HW230663   4.319   5.279   5.985
 9922SOL     OW30664   0.926   5.692   0.245
 9922SOL    HW130665   1.022   5.663   0.252
 9922SOL    HW230666   0.919   5.766   0.178
 9923SOL     OW30667   4.546   4.926   6.990
 9923SOL    HW130668   4.541   4.867   0.051
 9923SOL    HW230669   4.642   4.944   6.968
 9924SOL     OW30670   0.197   3.211   5.107
 9924SOL    HW130671   0.284   3.160   5.108
 9924SOL    HW230672   0.215   3.306   5.133
 9925SOL     OW30673   5.282   2.578   4.069
 9925SOL    HW130674   5.281   2.612   4.164
 9925SOL    HW230675   5.351   2.628   4.017
 9926SOL     OW30676   2.275   3.742   0.038
 9926SOL    HW130677   2.300   3.648   0.012
 9926SOL    HW230678   2.190   3.767   7.012
 9927SOL     OW30679   5.929   6.997   2.784
 9927SOL    HW130680   5.871   6.920   2.757
 9927SOL    HW230681   5.890   0.062   2.748
 9928SOL     OW30682   5.187   4.616   1.193
 9928SOL    HW130683   5.123   4.688   1.167
 9928SOL    HW230684   5.210   4.625   1.290
 9929SOL     OW30685   2.185   5.644   5.150
 9929SOL    HW130686   2.270   5.594   5.169
 9929SOL    HW230687   2.146   5.611   5.064
 9930SOL     OW30688   6.901   0.181   4.641
 9930SOL    HW130689   6.833   0.155   4.710
 9930SOL    HW230690   6.929   0.100   4.590
 9931SOL     OW30691   1.175   3.865   5.187
 9931SOL    HW130692   1.076   3.855   5.192
 9931SOL    HW230693   1.202   3.893   5.095
 9932SOL     OW30694   0.967   6.446   6.463
 9932SOL    HW130695   0.942   6.443   6.560
 9932SOL    HW230696   0.977   6.541   6.434
 9933SOL     OW30697   1.630   5.521   2.750
 9933SOL    HW130698   1.694   5.586   2.709
 9933SOL    HW230699   1.657   5.503   2.845
 9934SOL     OW30700   6.021   1.989   5.381
 9934SOL    HW130701   5.976   2.070   5.345
 9934SOL    HW230702   5.957   1.912   5.382
 9935SOL     OW30703   2.279   1.024   6.926
 9935SOL    HW130704   2.312   0.948   6.982
 9935SOL    HW230705   2.331   1.028   6.841
 9936SOL     OW30706   0.712   4.545   4.847
 9936SOL    HW130707   0.792   4.603   4.833
 9936SOL    HW230708   0.630   4.603   4.851
 9937SOL     OW30709   6.408   1.799   5.744
 9937SOL    HW130710   6.320   1.833   5.710
 9937SOL    HW230711   6.449   1.738   5.677
 9938SOL     OW30712   6.837   5.858   3.044
 9938SOL    HW130713   6.785   5.823   3.122
 9938SOL    HW230714   6.886   5.941   3.071
 9939SOL     OW30715   3.141   2.882   1.366
 9939SOL    HW130716   3.206   2.826   1.418
 9939SOL    HW230717   3.072   2.823   1.325
 9940SOL     OW30718   6.784   0.658   0.918
 9940SOL    HW130719   6.779   0.586   0.987
 9940SOL    HW230720   6.773   0.747   0.962
 9941SOL     OW30721   2.813   4.085   5.510
 9941SOL    HW130722   2.820   4.040   5.421
 9941SOL    HW230723   2.723   4.129   5.518
 9942SOL     OW30724   2.062   5.667   2.528
 9942SOL    HW130725   2.063   5.681   2.429
 9942SOL    HW230726   2.155   5.654   2.561
 9943SOL     OW30727   0.640   5.642   5.646
 9943SOL    HW130728   0.579   5.566   5.668
 9943SOL    HW230729   0.603   5.692   5.567
 9944SOL     OW30730   1.641   4.272   6.790
 9944SOL    HW130731   1.567   4.206   6.778
 9944SOL    HW230732   1.718   4.228   6.835
 9945SOL     OW30733   0.088   5.295   0.077
 9945SOL    HW130734   0.023   5.225   0.049
 9945SOL    HW230735   0.058   5.384   0.042
 9946SOL     OW30736   5.014   0.771   4.920
 9946SOL    HW130737   4.985   0.759   5.015
 9946SOL    HW230738   4.934   0.787   4.863
 9947SOL     OW30739   6.302   4.805   5.474
 9947SOL    HW130740   6.398   4.814   5.446
 9947SOL    HW230741   6.276   4.884   5.530
 9948SOL     OW30742   4.696   4.300   4.709
 9948SOL    HW130743   4.632   4.365   4.750
 9948SOL    HW230744   4.779   4.348   4.682
 9949SOL     OW30745   5.708   4.848   3.465
 9949SOL    HW130746   5.804   4.874   3.456
 9949SOL    HW230747   5.667   4.896   3.542
 9950SOL     OW30748   4.445   5.954   5.061
 9950SOL    HW130749   4.413   6.045   5.084
 9950SOL    HW230750   4.367   5.893   5.048
 9951SOL     OW30751   5.676   2.425   3.217
 9951SOL    HW130752   5.607   2.357   3.191
 9951SOL    HW230753   5.633   2.495   3.274
 9952SOL     OW30754   6.719   4.257   0.641
 9952SOL    HW130755   6.717   4.218   0.549
 9952SOL    HW230756   6.633   4.236   0.688
 9953SOL     OW30757   6.123   2.027   3.666
 9953SOL    HW130758   6.170   1.941   3.645
 9953SOL    HW230759   6.190   2.094   3.697
 9954SOL     OW30760   6.002   0.156   5.217
 9954SOL    HW130761   5.937   0.189   5.287
 9954SOL    HW230762   6.082   0.216   5.216
 9955SOL     OW30763   0.067   4.414   4.408
 9955SOL    HW130764   0.135   4.464   4.462
 9955SOL    HW230765   0.104   4.395   4.317
 9956SOL     OW30766   2.195   6.619   2.239
 9956SOL    HW130767   2.139   6.641   2.319
 9956SOL    HW230768   2.153   6.659   2.158
 9957SOL     OW30769   6.490   5.098   3.415
 9957SOL    HW130770   6.485   4.999   3.422
 9957SOL    HW230771   6.413   5.132   3.361
 9958SOL     OW30772   2.932   4.154   0.932
 9958SOL    HW130773   3.025   4.122   0.917
 9958SOL    HW230774   2.868   4.092   0.887
 9959SOL     OW30775   3.989   3.598   6.183
 9959SOL    HW130776   4.021   3.616   6.090
 9959SOL    HW230777   4.009   3.504   6.208
 9960SOL     OW30778   0.120   1.489   2.405
 9960SOL    HW130779   0.046   1.466   2.468
 9960SOL    HW230780   0.130   1.417   2.337
 9961SOL     OW30781   1.919   5.444   4.111
 9961SOL    HW130782   1.994   5.432   4.176
 9961SOL    HW230783   1.955   5.478   4.024
 9962SOL     OW30784   4.872   6.258   5.100
 9962SOL    HW130785   4.942   6.223   5.037
 9962SOL    HW230786   4.908   6.337   5.149
 9963SOL     OW30787   3.494   1.352   0.994
 9963SOL    HW130788   3.459   1.331   0.903
 9963SOL    HW230789   3.483   1.271   1.053
 9964SOL     OW30790   4.010   5.864   4.686
 9964SOL    HW130791   3.959   5.915   4.617
 9964SOL    HW230792   3.992   5.766   4.675
 9965SOL     OW30793   4.155   0.022   6.883
 9965SOL    HW130794   4.234   6.982   6.872
 9965SOL    HW230795   4.167   0.079   6.964
 9966SOL     OW30796   0.852   5.671   2.333
 9966SOL    HW130797   0.933   5.678   2.391
 9966SOL    HW230798   0.854   5.585   2.282
 9967SOL     OW30799   1.510   5.474   1.581
 9967SOL    HW130800   1.567   5.455   1.661
 9967SOL    HW230801   1.552   5.436   1.499
 9968SOL     OW30802   4.083   3.810   2.167
 9968SOL    HW130803   4.122   3.760   2.090
 9968SOL    HW230804   3.999   3.856   2.138
 9969SOL     OW30805   1.417   3.809   2.259
 9969SOL    HW130806   1.477   3.780   2.333
 9969SOL    HW230807   1.332   3.845   2.296
 9970SOL     OW30808   5.871   4.266   1.886
 9970SOL    HW130809   5.942   4.199   1.862
 9970SOL    HW230810   5.821   4.235   1.966
 9971SOL     OW30811   2.304   4.439   0.602
 9971SOL    HW130812   2.249   4.355   0.601
 9971SOL    HW230813   2.394   4.419   0.641
 9972SOL     OW30814   6.855   4.930   2.527
 9972SOL    HW130815   6.819   4.996   2.461
 9972SOL    HW230816   6.947   4.902   2.499
 9973SOL     OW30817   5.972   1.247   4.349
 9973SOL    HW130818   5.972   1.239   4.250
 9973SOL    HW230819   6.067   1.240   4.383
 9974SOL     OW30820   1.599   0.656   3.748
 9974SOL    HW130821   1.602   0.563   3.711
 9974SOL    HW230822   1.511   0.671   3.794
 9975SOL     OW30823   0.119   2.664   0.003
 9975SOL    HW130824   0.020   2.660   0.012
 9975SOL    HW230825   0.157   2.721   0.076
 9976SOL     OW30826   1.186   6.961   5.281
 9976SOL    HW130827   1.135   6.942   5.365
 9976SOL    HW230828   1.123   6.992   5.211
 9977SOL     OW30829   6.190   4.706   4.682
 9977SOL    HW130830   6.275   4.655   4.672
 9977SOL    HW230831   6.121   4.668   4.622
 9978SOL     OW30832   0.156   2.334   4.110
 9978SOL    HW130833   0.198   2.362   4.196
 9978SOL    HW230834   0.217   2.270   4.063
 9979SOL     OW30835   6.308   3.475   4.510
 9979SOL    HW130836   6.358   3.395   4.543
 9979SOL    HW230837   6.343   3.501   4.420
 9980SOL     OW30838   3.492   0.827   6.501
 9980SOL    HW130839   3.506   0.854   6.597
 9980SOL    HW230840   3.400   0.855   6.472
 9981SOL     OW30841   2.771   1.944   4.142
 9981SOL    HW130842   2.829   1.929   4.061
 9981SOL    HW230843   2.676   1.956   4.112
 9982SOL     OW30844   6.893   6.311   4.169
 9982SOL    HW130845   6.966   6.331   4.104
 9982SOL    HW230846   6.832   6.242   4.130
 9983SOL     OW30847   0.197   1.334   2.172
 9983SOL    HW130848   0.133   1.384   2.113
 9983SOL    HW230849   0.291   1.350   2.142
 9984SOL     OW30850   2.704   1.768   6.822
 9984SOL    HW130851   2.661   1.732   6.905
 9984SOL    HW230852   2.685   1.706   6.746
 9985SOL     OW30853   1.301   0.845   2.178
 9985SOL    HW130854   1.203   0.827   2.187
 9985SOL    HW230855   1.323   0.863   2.082
 9986SOL     OW30856   5.762   4.019   5.166
 9986SOL    HW130857   5.830   3.998   5.096
 9986SOL    HW230858   5.745   3.938   5.222
 9987SOL     OW30859   6.717   3.847   5.999
 9987SOL    HW130860   6.646   3.917   5.991
 9987SOL    HW230861   6.807   3.889   5.989
 9988SOL     OW30862   6.666   6.802   5.365
 9988SOL    HW130863   6.704   6.710   5.371
 9988SOL    HW230864   6.643   6.835   5.457
 9989SOL     OW30865   0.677   3.171   5.222
 9989SOL    HW130866   0.738   3.166   5.142
 9989SOL    HW230867   0.682   3.262   5.262
 9990SOL     OW30868   1.061   4.973   2.968
 9990SOL    HW130869   0.979   4.927   2.933
 9990SOL    HW230870   1.128   4.983   2.894
 9991SOL     OW30871   3.170   2.164   3.849
 9991SOL    HW130872   3.215   2.076   3.864
 9991SOL    HW230873   3.109   2.184   3.925
 9992SOL     OW30874   6.133   5.720   5.971
 9992SOL    HW130875   6.134   5.645   6.037
 9992SOL    HW230876   6.062   5.704   5.903
 9993SOL     OW30877   1.104   1.571   1.980
 9993SOL    HW130878   1.114   1.653   1.924
 9993SOL    HW230879   1.160   1.497   1.942
 9994SOL     OW30880   6.157   4.713   3.308
 9994SOL    HW130881   6.186   4.757   3.222
 9994SOL    HW230882   6.090   4.772   3.353
 9995SOL     OW30883   5.844   0.718   4.666
 9995SOL    HW130884   5.854   0.619   4.654
 9995SOL    HW230885   5.934   0.759   4.677
 9996SOL     OW30886   3.053   4.684   6.821
 9996SOL    HW130887   3.019   4.613   6.760
 9996SOL    HW230888   3.004   4.770   6.803
 9997SOL     OW30889   2.350   0.091   5.329
 9997SOL    HW130890   2.407   0.140   5.263
 9997SOL    HW230891   2.357   0.136   5.419
 9998SOL     OW30892   5.585   5.766   5.604
 9998SOL    HW130893   5.589   5.842   5.540
 9998SOL    HW230894   5.591   5.801   5.698
 9999SOL     OW30895   6.816   2.318   5.423
 9999SOL    HW130896   6.809   2.403   5.371
 9999SOL    HW230897   6.871   2.252   5.371
10000SOL     OW30898   0.337   2.679   6.529
10000SOL    HW130899   0.387   2.612   6.585
10000SOL    HW230900   0.362   2.668   6.433
10001SOL     OW30901   4.379   0.446   2.674
10001SOL    HW130902   4.317   0.524   2.670
10001SOL    HW230903   4.461   0.471   2.725
10002SOL     OW30904   0.915   0.688   1.930
10002SOL    HW130905   0.953   0.780   1.936
10002SOL    HW230906   0.832   0.682   1.986
10003SOL     OW30907   4.083   2.048   3.542
10003SOL    HW130908   4.083   1.955   3.578
10003SOL    HW230909   3.990   2.075   3.516
10004SOL     OW30910   6.772   2.002   2.834
10004SOL    HW130911   6.778   1.990   2.933
10004SOL    HW230912   6.728   1.922   2.793
10005SOL     OW30913   4.802   6.650   4.000
10005SOL    HW130914   4.743   6.599   4.062
10005SOL    HW230915   4.832   6.734   4.044
10006SOL     OW30916   3.478   6.673   4.642
10006SOL    HW130917   3.506   6.592   4.694
10006SOL    HW230918   3.410   6.646   4.574
10007SOL     OW30919   0.072   3.629   3.969
10007SOL    HW130920   0.080   3.710   3.912
10007SOL    HW230921   7.002   3.627   4.012
10008SOL     OW30922   2.935   0.201   4.056
10008SOL    HW130923   2.970   0.281   4.007
10008SOL    HW230924   2.838   0.187   4.032
10009SOL     OW30925   1.325   4.473   1.633
10009SOL    HW130926   1.405   4.412   1.634
10009SOL    HW230927   1.284   4.472   1.542
10010SOL     OW30928   0.761   1.411   5.987
10010SOL    HW130929   0.721   1.360   5.911
10010SOL    HW230930   0.844   1.458   5.955
10011SOL     OW30931   0.049   6.613   5.572
10011SOL    HW130932   0.089   6.588   5.660
10011SOL    HW230933   0.024   6.530   5.522
10012SOL     OW30934   6.261   1.406   3.719
10012SOL    HW130935   6.180   1.409   3.776
10012SOL    HW230936   6.310   1.493   3.724
10013SOL     OW30937   0.772   0.851   2.581
10013SOL    HW130938   0.771   0.751   2.584
10013SOL    HW230939   0.747   0.888   2.670
10014SOL     OW30940   0.912   4.630   6.064
10014SOL    HW130941   0.896   4.532   6.053
10014SOL    HW230942   0.917   4.652   6.162
10015SOL     OW30943   1.962   4.188   0.277
10015SOL    HW130944   1.923   4.165   0.365
10015SOL    HW230945   2.034   4.123   0.254
10016SOL     OW30946   2.426   0.985   6.006
10016SOL    HW130947   2.516   0.943   5.997
10016SOL    HW230948   2.408   1.005   6.102
10017SOL     OW30949   1.504   2.240   4.224
10017SOL    HW130950   1.480   2.320   4.169
10017SOL    HW230951   1.420   2.196   4.257
10018SOL     OW30952   5.176   6.790   5.953
10018SOL    HW130953   5.166   6.861   6.023
10018SOL    HW230954   5.116   6.713   5.974
10019SOL     OW30955   0.859   1.182   2.955
10019SOL    HW130956   0.883   1.262   2.900
10019SOL    HW230957   0.932   1.114   2.949
10020SOL     OW30958   0.410   3.042   1.099
10020SOL    HW130959   0.382   3.136   1.119
10020SOL    HW230960   0.330   2.986   1.078
10021SOL     OW30961   0.154   3.580   0.624
10021SOL    HW130962   0.219   3.504   0.621
10021SOL    HW230963   0.201   3.664   0.651
10022SOL     OW30964   1.457   1.978   6.249
10022SOL    HW130965   1.496   2.055   6.198
10022SOL    HW230966   1.508   1.894   6.227
10023SOL     OW30967   0.039   3.794   0.884
10023SOL    HW130968   0.115   3.748   0.838
10023SOL    HW230969   0.029   3.759   0.977
10024SOL     OW30970   1.777   4.872   3.708
10024SOL    HW130971   1.815   4.831   3.791
10024SOL    HW230972   1.812   4.823   3.628
10025SOL     OW30973   1.343   1.101   0.617
10025SOL    HW130974   1.290   1.185   0.603
10025SOL    HW230975   1.354   1.054   0.529
10026SOL     OW30976   6.774   0.607   3.273
10026SOL    HW130977   6.744   0.534   3.334
10026SOL    HW230978   6.778   0.693   3.324
10027SOL     OW30979   4.514   2.588   5.128
10027SOL    HW130980   4.576   2.651   5.081
10027SOL    HW230981   4.500   2.507   5.072
10028SOL     OW30982   2.102   0.636   0.177
10028SOL    HW130983   2.064   0.552   0.140
10028SOL    HW230984   2.202   0.629   0.180
10029SOL     OW30985   5.736   1.694   3.443
10029SOL    HW130986   5.762   1.601   3.467
10029SOL    HW230987   5.786   1.759   3.501
10030SOL     OW30988   2.221   0.375   3.256
10030SOL    HW130989   2.211   0.278   3.234
10030SOL    HW230990   2.153   0.401   3.325
10031SOL     OW30991   6.427   4.837   4.351
10031SOL    HW130992   6.514   4.806   4.390
10031SOL    HW230993   6.435   4.840   4.251
10032SOL     OW30994   2.606   1.580   4.671
10032SOL    HW130995   2.622   1.490   4.632
10032SOL    HW230996   2.510   1.606   4.659
10033SOL     OW30997   5.442   3.034   4.661
10033SOL    HW130998   5.418   2.964   4.728
10033SOL    HW230999   5.496   3.106   4.704
10034SOL     OW31000   5.204   0.699   5.592
10034SOL    HW131001   5.239   0.696   5.686
10034SOL    HW231002   5.280   0.714   5.529
10035SOL     OW31003   0.314   5.889   1.630
10035SOL    HW131004   0.272   5.836   1.704
10035SOL    HW231005   0.404   5.921   1.660
10036SOL     OW31006   6.812   0.922   0.255
10036SOL    HW131007   6.861   0.939   0.169
10036SOL    HW231008   6.876   0.888   0.323
10037SOL     OW31009   0.953   6.667   0.255
10037SOL    HW131010   0.977   6.571   0.238
10037SOL    HW231011   0.868   6.689   0.208
10038SOL     OW31012   6.228   0.369   1.511
10038SOL    HW131013   6.181   0.295   1.559
10038SOL    HW231014   6.294   0.330   1.446
10039SOL     OW31015   3.542   0.448   3.537
10039SOL    HW131016   3.446   0.471   3.519
10039SOL    HW231017   3.600   0.521   3.501
10040SOL     OW31018   0.869   2.865   1.261
10040SOL    HW131019   0.942   2.916   1.217
10040SOL    HW231020   0.788   2.865   1.202
10041SOL     OW31021   2.332   5.832   0.105
10041SOL    HW131022   2.274   5.839   0.024
10041SOL    HW231023   2.275   5.817   0.185
10042SOL     OW31024   5.884   2.976   2.546
10042SOL    HW131025   5.942   2.925   2.610
10042SOL    HW231026   5.904   2.946   2.453
10043SOL     OW31027   0.445   2.146   4.885
10043SOL    HW131028   0.472   2.084   4.811
10043SOL    HW231029   0.527   2.184   4.928
10044SOL     OW31030   3.044   1.849   6.099
10044SOL    HW131031   2.956   1.831   6.056
10044SOL    HW231032   3.030   1.897   6.186
10045SOL     OW31033   3.374   1.319   0.768
10045SOL    HW131034   3.416   1.261   0.698
10045SOL    HW231035   3.297   1.269   0.809
10046SOL     OW31036   1.630   5.553   0.784
10046SOL    HW131037   1.674   5.639   0.757
10046SOL    HW231038   1.565   5.525   0.714
10047SOL     OW31039   0.825   3.390   1.141
10047SOL    HW131040   0.775   3.331   1.078
10047SOL    HW231041   0.779   3.392   1.230
10048SOL     OW31042   5.978   4.969   3.435
10048SOL    HW131043   6.032   5.053   3.433
10048SOL    HW231044   6.013   4.908   3.507
10049SOL     OW31045   6.896   0.456   5.359
10049SOL    HW131046   6.901   0.522   5.284
10049SOL    HW231047   6.968   0.476   5.426
10050SOL     OW31048   6.959   3.133   6.912
10050SOL    HW131049   0.037   3.153   6.911
10050SOL    HW231050   6.943   3.045   6.957
10051SOL     OW31051   2.337   2.859   3.889
10051SOL    HW131052   2.265   2.864   3.819
10051SOL    HW231053   2.407   2.927   3.869
10052SOL     OW31054   1.000   6.723   3.345
10052SOL    HW131055   1.004   6.668   3.262
10052SOL    HW231056   0.968   6.815   3.322
10053SOL     OW31057   5.839   5.166   5.060
10053SOL    HW131058   5.879   5.169   5.152
10053SOL    HW231059   5.807   5.257   5.035
10054SOL     OW31060   6.563   3.919   5.007
10054SOL    HW131061   6.602   4.001   5.049
10054SOL    HW231062   6.529   3.858   5.078
10055SOL     OW31063   1.006   1.781   0.228
10055SOL    HW131064   0.987   1.870   0.270
10055SOL    HW231065   1.056   1.724   0.293
10056SOL     OW31066   6.181   2.277   3.781
10056SOL    HW131067   6.183   2.377   3.782
10056SOL    HW231068   6.240   2.242   3.853
10057SOL     OW31069   5.976   5.128   5.318
10057SOL    HW131070   5.927   5.191   5.379
10057SOL    HW231071   5.949   5.034   5.339
10058SOL     OW31072   0.424   3.397   5.315
10058SOL    HW131073   0.466   3.429   5.400
10058SOL    HW231074   0.488   3.405   5.240
10059SOL     OW31075   6.024   0.747   0.130
10059SOL    HW131076   5.966   0.670   0.156
10059SOL    HW231077   6.084   0.771   0.206
10060SOL     OW31078   2.472   1.591   1.379
10060SOL    HW131079   2.558   1.564   1.422
10060SOL    HW231080   2.483   1.680   1.336
10061SOL     OW31081   4.340   7.015   2.788
10061SOL    HW131082   4.431   6.980   2.768
10061SOL    HW231083   4.345   0.061   2.863
10062SOL     OW31084   0.266   0.356   4.790
10062SOL    HW131085   0.177   0.391   4.760
10062SOL    HW231086   0.257   0.314   4.880
10063SOL     OW31087   2.340   2.468   5.071
10063SOL    HW131088   2.438   2.481   5.057
10063SOL    HW231089   2.307   2.393   5.012
10064SOL     OW31090   2.883   6.962   0.357
10064SOL    HW131091   2.857   6.905   0.435
10064SOL    HW231092   2.926   0.026   0.390
10065SOL     OW31093   0.315   1.959   1.814
10065SOL    HW131094   0.364   2.019   1.751
10065SOL    HW231095   0.303   1.869   1.772
10066SOL     OW31096   6.071   3.912   3.854
10066SOL    HW131097   6.150   3.884   3.799
10066SOL    HW231098   6.024   3.830   3.889
10067SOL     OW31099   6.725   3.155   5.097
10067SOL    HW131100   6.823   3.140   5.109
10067SOL    HW231101   6.680   3.068   5.076
10068SOL     OW31102   1.857   3.083   3.082
10068SOL    HW131103   1.847   3.172   3.037
10068SOL    HW231104   1.843   3.093   3.180
10069SOL     OW31105   2.907   4.778   0.341
10069SOL    HW131106   2.835   4.710   0.326
10069SOL    HW231107   2.866   4.869   0.351
10070SOL     OW31108   4.265   6.506   6.522
10070SOL    HW131109   4.172   6.507   6.558
10070SOL    HW231110   4.302   6.412   6.526
10071SOL     OW31111   5.524   0.235   4.408
10071SOL    HW131112   5.473   0.161   4.365
10071SOL    HW231113   5.478   0.322   4.391
10072SOL     OW31114   6.431   3.432   1.436
10072SOL    HW131115   6.342   3.463   1.468
10072SOL    HW231116   6.428   3.333   1.422
10073SOL     OW31117   5.502   4.497   5.303
10073SOL    HW131118   5.572   4.457   5.362
10073SOL    HW231119   5.527   4.483   5.207
10074SOL     OW31120   1.622   5.494   0.247
10074SOL    HW131121   1.547   5.517   0.310
10074SOL    HW231122   1.694   5.446   0.297
10075SOL     OW31123   1.655   3.375   2.017
10075SOL    HW131124   1.623   3.290   2.059
10075SOL    HW231125   1.638   3.451   2.080
10076SOL     OW31126   5.228   4.961   4.828
10076SOL    HW131127   5.189   4.948   4.919
10076SOL    HW231128   5.205   5.052   4.794
10077SOL     OW31129   5.107   3.743   6.528
10077SOL    HW131130   5.108   3.669   6.595
10077SOL    HW231131   5.201   3.770   6.506
10078SOL     OW31132   6.433   5.424   5.257
10078SOL    HW131133   6.406   5.340   5.304
10078SOL    HW231134   6.354   5.464   5.211
10079SOL     OW31135   5.394   3.370   3.952
10079SOL    HW131136   5.302   3.411   3.944
10079SOL    HW231137   5.456   3.416   3.889
10080SOL     OW31138   5.168   1.600   6.021
10080SOL    HW131139   5.114   1.533   5.970
10080SOL    HW231140   5.242   1.554   6.070
10081SOL     OW31141   1.228   4.347   0.592
10081SOL    HW131142   1.171   4.354   0.674
10081SOL    HW231143   1.249   4.439   0.559
10082SOL     OW31144   1.078   4.863   1.454
10082SOL    HW131145   1.091   4.852   1.552
10082SOL    HW231146   0.984   4.892   1.436
10083SOL     OW31147   3.274   5.788   2.532
10083SOL    HW131148   3.191   5.826   2.571
10083SOL    HW231149   3.354   5.826   2.578
10084SOL     OW31150   1.141   1.239   4.799
10084SOL    HW131151   1.211   1.311   4.804
10084SOL    HW231152   1.166   1.173   4.728
10085SOL     OW31153   5.050   0.213   0.578
10085SOL    HW131154   5.111   0.222   0.657
10085SOL    HW231155   5.103   0.182   0.499
10086SOL     OW31156   5.054   6.874   3.611
10086SOL    HW131157   5.038   6.851   3.707
10086SOL    HW231158   4.972   6.851   3.557
10087SOL     OW31159   0.984   5.948   5.074
10087SOL    HW131160   1.011   5.899   5.157
10087SOL    HW231161   0.892   5.922   5.047
10088SOL     OW31162   6.563   3.127   1.637
10088SOL    HW131163   6.656   3.164   1.637
10088SOL    HW231164   6.530   3.122   1.731
10089SOL     OW31165   3.160   0.814   1.233
10089SOL    HW131166   3.176   0.716   1.223
10089SOL    HW231167   3.213   0.849   1.311
10090SOL     OW31168   2.347   6.578   3.310
10090SOL    HW131169   2.308   6.584   3.218
10090SOL    HW231170   2.424   6.514   3.310
10091SOL     OW31171   6.139   4.846   5.238
10091SOL    HW131172   6.194   4.785   5.181
10091SOL    HW231173   6.183   4.856   5.328
10092SOL     OW31174   0.911   2.366   3.906
10092SOL    HW131175   0.864   2.407   3.984
10092SOL    HW231176   0.934   2.271   3.929
10093SOL     OW31177   4.955   4.468   5.966
10093SOL    HW131178   4.894   4.392   5.988
10093SOL    HW231179   5.002   4.447   5.880
10094SOL     OW31180   3.889   2.323   1.473
10094SOL    HW131181   3.887   2.293   1.569
10094SOL    HW231182   3.841   2.256   1.417
10095SOL     OW31183   4.237   3.111   5.366
10095SOL    HW131184   4.180   3.185   5.402
10095SOL    HW231185   4.188   3.062   5.295
10096SOL     OW31186   6.642   3.569   1.993
10096SOL    HW131187   6.615   3.478   2.024
10096SOL    HW231188   6.561   3.619   1.962
10097SOL     OW31189   0.483   1.651   0.615
10097SOL    HW131190   0.564   1.694   0.576
10097SOL    HW231191   0.497   1.638   0.714
10098SOL     OW31192   2.898   5.446   4.390
10098SOL    HW131193   2.982   5.500   4.398
10098SOL    HW231194   2.919   5.349   4.397
10099SOL     OW31195   0.312   5.162   2.262
10099SOL    HW131196   0.307   5.095   2.336
10099SOL    HW231197   0.407   5.175   2.235
10100SOL     OW31198   5.306   4.674   4.166
10100SOL    HW131199   5.305   4.581   4.201
10100SOL    HW231200   5.349   4.735   4.233
10101SOL     OW31201   6.842   3.361   0.769
10101SOL    HW131202   6.785   3.290   0.728
10101SOL    HW231203   6.787   3.442   0.789
10102SOL     OW31204   6.902   5.501   3.323
10102SOL    HW131205   6.804   5.501   3.304
10102SOL    HW231206   6.929   5.592   3.356
10103SOL     OW31207   0.338   5.614   6.738
10103SOL    HW131208   0.400   5.579   6.808
10103SOL    HW231209   0.252   5.562   6.741
10104SOL     OW31210   2.538   0.413   4.763
10104SOL    HW131211   2.470   0.466   4.813
10104SOL    HW231212   2.541   0.444   4.668
10105SOL     OW31213   2.635   1.168   5.005
10105SOL    HW131214   2.667   1.076   4.982
10105SOL    HW231215   2.713   1.230   5.007
10106SOL     OW31216   5.545   4.326   1.302
10106SOL    HW131217   5.602   4.282   1.372
10106SOL    HW231218   5.449   4.309   1.322
10107SOL     OW31219   5.111   5.015   0.387
10107SOL    HW131220   5.190   5.026   0.448
10107SOL    HW231221   5.096   5.101   0.337
10108SOL     OW31222   1.833   2.465   5.717
10108SOL    HW131223   1.880   2.382   5.689
10108SOL    HW231224   1.833   2.472   5.817
10109SOL     OW31225   1.048   2.480   1.531
10109SOL    HW131226   1.005   2.563   1.496
10109SOL    HW231227   0.990   2.441   1.603
10110SOL     OW31228   5.910   5.462   2.584
10110SOL    HW131229   5.814   5.469   2.609
10110SOL    HW231230   5.931   5.368   2.558
10111SOL     OW31231   0.154   2.787   2.188
10111SOL    HW131232   0.104   2.720   2.242
10111SOL    HW231233   0.233   2.744   2.145
10112SOL     OW31234   0.222   2.548   3.164
10112SOL    HW131235   0.244   2.458   3.128
10112SOL    HW231236   0.129   2.547   3.201
10113SOL     OW31237   6.178   0.210   6.585
10113SOL    HW131238   6.097   0.153   6.593
10113SOL    HW231239   6.164   0.279   6.513
10114SOL     OW31240   6.130   2.680   1.884
10114SOL    HW131241   6.052   2.720   1.836
10114SOL    HW231242   6.118   2.580   1.889
10115SOL     OW31243   3.599   2.508   6.008
10115SOL    HW131244   3.507   2.529   5.974
10115SOL    HW231245   3.615   2.558   6.093
10116SOL     OW31246   6.697   0.213   5.666
10116SOL    HW131247   6.752   0.242   5.587
10116SOL    HW231248   6.696   0.286   5.734
10117SOL     OW31249   6.432   4.373   3.171
10117SOL    HW131250   6.430   4.452   3.233
10117SOL    HW231251   6.360   4.382   3.103
10118SOL     OW31252   4.175   5.335   3.866
10118SOL    HW131253   4.101   5.269   3.853
10118SOL    HW231254   4.175   5.400   3.791
10119SOL     OW31255   6.378   6.089   6.523
10119SOL    HW131256   6.444   6.160   6.501
10119SOL    HW231257   6.392   6.010   6.464
10120SOL     OW31258   2.308   2.654   3.486
10120SOL    HW131259   2.371   2.601   3.428
10120SOL    HW231260   2.317   2.751   3.465
10121SOL     OW31261   0.530   5.216   0.960
10121SOL    HW131262   0.550   5.307   0.923
10121SOL    HW231263   0.490   5.159   0.888
10122SOL     OW31264   2.030   0.122   3.240
10122SOL    HW131265   2.111   0.072   3.208
10122SOL    HW231266   1.984   0.165   3.162
10123SOL     OW31267   6.884   5.395   6.585
10123SOL    HW131268   6.979   5.419   6.566
10123SOL    HW231269   6.832   5.396   6.499
10124SOL     OW31270   2.420   5.142   2.737
10124SOL    HW131271   2.450   5.145   2.641
10124SOL    HW231272   2.495   5.109   2.794
10125SOL     OW31273   1.021   0.869   4.740
10125SOL    HW131274   0.939   0.820   4.711
10125SOL    HW231275   1.067   0.818   4.813
10126SOL     OW31276   6.339   6.598   5.917
10126SOL    HW131277   6.320   6.692   5.943
10126SOL    HW231278   6.260   6.559   5.871
10127SOL     OW31279   2.783   6.953   6.075
10127SOL    HW131280   2.809   0.001   6.144
10127SOL    HW231281   2.724   6.995   6.006
10128SOL     OW31282   2.061   2.580   0.214
10128SOL    HW131283   2.105   2.665   0.243
10128SOL    HW231284   2.119   2.533   0.147
10129SOL     OW31285   6.178   1.872   4.670
10129SOL    HW131286   6.178   1.806   4.595
10129SOL    HW231287   6.086   1.909   4.682
10130SOL     OW31288   0.477   1.620   4.434
10130SOL    HW131289   0.451   1.630   4.338
10130SOL    HW231290   0.558   1.676   4.452
10131SOL     OW31291   2.207   6.499   4.442
10131SOL    HW131292   2.153   6.565   4.495
10131SOL    HW231293   2.303   6.507   4.468
10132SOL     OW31294   5.453   7.009   2.118
10132SOL    HW131295   5.526   0.052   2.146
10132SOL    HW231296   5.456   6.926   2.173
10133SOL     OW31297   5.335   6.430   1.018
10133SOL    HW131298   5.342   6.379   1.104
10133SOL    HW231299   5.261   6.497   1.024
10134SOL     OW31300   6.586   0.306   3.075
10134SOL    HW131301   6.531   0.259   3.006
10134SOL    HW231302   6.657   0.359   3.030
10135SOL     OW31303   5.942   0.153   3.023
10135SOL    HW131304   5.943   0.145   3.122
10135SOL    HW231305   5.854   0.124   2.988
10136SOL     OW31306   4.560   1.212   3.165
10136SOL    HW131307   4.510   1.294   3.192
10136SOL    HW231308   4.632   1.238   3.099
10137SOL     OW31309   6.860   4.823   5.167
10137SOL    HW131310   6.860   4.827   5.267
10137SOL    HW231311   6.778   4.775   5.136
10138SOL     OW31312   6.986   2.746   1.885
10138SOL    HW131313   6.990   2.834   1.932
10138SOL    HW231314   6.960   2.675   1.950
10139SOL     OW31315   3.126   3.029   6.614
10139SOL    HW131316   3.191   2.978   6.557
10139SOL    HW231317   3.136   3.001   6.709
10140SOL     OW31318   0.871   6.167   5.287
10140SOL    HW131319   0.815   6.135   5.210
10140SOL    HW231320   0.958   6.119   5.288
10141SOL     OW31321   1.899   2.784   4.325
10141SOL    HW131322   1.877   2.712   4.259
10141SOL    HW231323   1.889   2.748   4.418
10142SOL     OW31324   4.562   6.223   3.111
10142SOL    HW131325   4.560   6.309   3.160
10142SOL    HW231326   4.610   6.154   3.165
10143SOL     OW31327   6.041   2.736   5.990
10143SOL    HW131328   5.995   2.825   5.990
10143SOL    HW231329   6.027   2.691   5.903
10144SOL     OW31330   3.391   6.806   0.776
10144SOL    HW131331   3.294   6.798   0.749
10144SOL    HW231332   3.448   6.761   0.707
10145SOL     OW31333   6.231   7.017   6.332
10145SOL    HW131334   6.325   6.983   6.321
10145SOL    HW231335   6.184   6.963   6.403
10146SOL     OW31336   1.237   2.768   4.985
10146SOL    HW131337   1.263   2.707   5.060
10146SOL    HW231338   1.227   2.861   5.020
10147SOL     OW31339   4.180   5.790   5.480
10147SOL    HW131340   4.149   5.705   5.523
10147SOL    HW231341   4.170   5.783   5.381
10148SOL     OW31342   0.561   4.148   0.288
10148SOL    HW131343   0.474   4.129   0.243
10148SOL    HW231344   0.557   4.238   0.332
10149SOL     OW31345   4.138   3.357   1.317
10149SOL    HW131346   4.066   3.421   1.291
10149SOL    HW231347   4.141   3.281   1.251
10150SOL     OW31348   4.644   4.360   1.173
10150SOL    HW131349   4.604   4.288   1.229
10150SOL    HW231350   4.583   4.381   1.097
10151SOL     OW31351   6.431   1.009   6.300
10151SOL    HW131352   6.511   0.968   6.257
10151SOL    HW231353   6.382   0.939   6.353
10152SOL     OW31354   3.682   6.514   2.794
10152SOL    HW131355   3.589   6.478   2.802
10152SOL    HW231356   3.739   6.472   2.864
10153SOL     OW31357   4.771   4.151   1.908
10153SOL    HW131358   4.691   4.201   1.939
10153SOL    HW231359   4.789   4.172   1.812
10154SOL     OW31360   3.924   5.114   5.298
10154SOL    HW131361   3.911   5.054   5.219
10154SOL    HW231362   3.997   5.179   5.279
10155SOL     OW31363   4.137   1.494   4.069
10155SOL    HW131364   4.179   1.585   4.077
10155SOL    HW231365   4.072   1.494   3.993
10156SOL     OW31366   4.142   1.856   6.446
10156SOL    HW131367   4.074   1.919   6.484
10156SOL    HW231368   4.096   1.791   6.385
10157SOL     OW31369   0.144   4.488   1.523
10157SOL    HW131370   0.233   4.443   1.513
10157SOL    HW231371   0.132   4.514   1.619
10158SOL     OW31372   5.679   5.140   6.886
10158SOL    HW131373   5.626   5.058   6.866
10158SOL    HW231374   5.617   5.214   6.915
10159SOL     OW31375   3.115   2.813   1.815
10159SOL    HW131376   3.100   2.780   1.909
10159SOL    HW231377   3.148   2.907   1.818
10160SOL     OW31378   6.950   4.396   2.713
10160SOL    HW131379   6.936   4.377   2.810
10160SOL    HW231380   6.985   4.313   2.668
10161SOL     OW31381   5.484   3.321   5.224
10161SOL    HW131382   5.549   3.353   5.292
10161SOL    HW231383   5.403   3.284   5.269
10162SOL     OW31384   1.434   2.445   2.000
10162SOL    HW131385   1.346   2.477   1.965
10162SOL    HW231386   1.421   2.368   2.062
10163SOL     OW31387   2.638   5.366   5.079
10163SOL    HW131388   2.728   5.340   5.045
10163SOL    HW231389   2.591   5.285   5.114
10164SOL     OW31390   0.244   1.409   3.828
10164SOL    HW131391   0.246   1.480   3.757
10164SOL    HW231392   0.316   1.428   3.896
10165SOL     OW31393   0.923   3.566   4.536
10165SOL    HW131394   0.866   3.492   4.501
10165SOL    HW231395   0.883   3.654   4.511
10166SOL     OW31396   2.552   6.523   2.607
10166SOL    HW131397   2.619   6.597   2.617
10166SOL    HW231398   2.527   6.512   2.511
10167SOL     OW31399   2.366   2.029   0.108
10167SOL    HW131400   2.400   2.036   0.014
10167SOL    HW231401   2.324   1.940   0.122
10168SOL     OW31402   6.842   0.260   6.726
10168SOL    HW131403   6.753   0.223   6.751
10168SOL    HW231404   6.858   0.344   6.778
10169SOL     OW31405   4.925   4.704   3.485
10169SOL    HW131406   4.826   4.709   3.471
10169SOL    HW231407   4.972   4.743   3.406
10170SOL     OW31408   5.408   5.973   0.073
10170SOL    HW131409   5.341   5.930   0.013
10170SOL    HW231410   5.482   5.909   0.093
10171SOL     OW31411   2.059   4.588   5.075
10171SOL    HW131412   2.103   4.517   5.130
10171SOL    HW231413   2.128   4.636   5.021
10172SOL     OW31414   6.610   1.017   3.220
10172SOL    HW131415   6.555   1.027   3.302
10172SOL    HW231416   6.561   0.962   3.153
10173SOL     OW31417   3.837   3.376   4.941
10173SOL    HW131418   3.743   3.343   4.929
10173SOL    HW231419   3.897   3.331   4.875
10174SOL     OW31420   4.442   5.336   1.122
10174SOL    HW131421   4.519   5.310   1.064
10174SOL    HW231422   4.377   5.261   1.127
10175SOL     OW31423   0.166   6.950   4.592
10175SOL    HW131424   0.079   6.925   4.636
10175SOL    HW231425   0.211   6.868   4.558
10176SOL     OW31426   6.861   0.548   4.870
10176SOL    HW131427   6.927   0.501   4.811
10176SOL    HW231428   6.889   0.643   4.883
10177SOL     OW31429   2.373   0.780   4.352
10177SOL    HW131430   2.410   0.717   4.283
10177SOL    HW231431   2.297   0.831   4.313
10178SOL     OW31432   0.650   1.622   1.339
10178SOL    HW131433   0.665   1.532   1.300
10178SOL    HW231434   0.697   1.691   1.285
10179SOL     OW31435   0.641   4.606   0.242
10179SOL    HW131436   0.669   4.532   0.181
10179SOL    HW231437   0.661   4.694   0.199
10180SOL     OW31438   3.691   0.147   6.234
10180SOL    HW131439   3.722   0.216   6.168
10180SOL    HW231440   3.769   0.117   6.289
10181SOL     OW31441   6.649   3.462   3.183
10181SOL    HW131442   6.657   3.382   3.123
10181SOL    HW231443   6.670   3.435   3.277
10182SOL     OW31444   4.291   1.048   1.109
10182SOL    HW131445   4.237   1.004   1.181
10182SOL    HW231446   4.230   1.099   1.048
10183SOL     OW31447   4.641   6.928   5.641
10183SOL    HW131448   4.552   6.961   5.672
10183SOL    HW231449   4.707   6.937   5.716
10184SOL     OW31450   5.302   1.846   5.781
10184SOL    HW131451   5.312   1.762   5.727
10184SOL    HW231452   5.277   1.824   5.875
10185SOL     OW31453   3.561   5.125   1.012
10185SOL    HW131454   3.642   5.086   1.056
10185SOL    HW231455   3.579   5.219   0.985
10186SOL     OW31456   3.613   3.512   6.469
10186SOL    HW131457   3.600   3.599   6.518
10186SOL    HW231458   3.610   3.529   6.371
10187SOL     OW31459   1.869   4.286   5.834
10187SOL    HW131460   1.895   4.243   5.747
10187SOL    HW231461   1.795   4.233   5.876
10188SOL     OW31462   3.223   0.143   6.050
10188SOL    HW131463   3.220   0.235   6.089
10188SOL    HW231464   3.216   0.149   5.950
10189SOL     OW31465   1.868   1.548   4.944
10189SOL    HW131466   1.884   1.489   5.023
10189SOL    HW231467   1.805   1.621   4.970
10190SOL     OW31468   4.584   4.389   0.815
10190SOL    HW131469   4.606   4.469   0.760
10190SOL    HW231470   4.524   4.328   0.762
10191SOL     OW31471   5.676   0.264   0.055
10191SOL    HW131472   5.770   0.244   0.025
10191SOL    HW231473   5.662   0.226   0.146
10192SOL     OW31474   1.809   1.099   4.717
10192SOL    HW131475   1.836   1.178   4.663
10192SOL    HW231476   1.849   1.016   4.677
10193SOL     OW31477   3.728   3.484   3.638
10193SOL    HW131478   3.726   3.556   3.707
10193SOL    HW231479   3.807   3.425   3.654
10194SOL     OW31480   3.246   0.314   2.842
10194SOL    HW131481   3.176   0.385   2.834
10194SOL    HW231482   3.331   0.354   2.875
10195SOL     OW31483   5.240   0.223   2.423
10195SOL    HW131484   5.292   0.219   2.338
10195SOL    HW231485   5.218   0.131   2.454
10196SOL     OW31486   5.242   3.313   4.840
10196SOL    HW131487   5.176   3.376   4.800
10196SOL    HW231488   5.274   3.349   4.927
10197SOL     OW31489   5.428   1.539   2.338
10197SOL    HW131490   5.514   1.590   2.342
10197SOL    HW231491   5.405   1.505   2.429
10198SOL     OW31492   2.316   0.402   1.498
10198SOL    HW131493   2.280   0.414   1.406
10198SOL    HW231494   2.395   0.461   1.512
10199SOL     OW31495   0.917   1.940   0.751
10199SOL    HW131496   0.839   2.000   0.734
10199SOL    HW231497   0.996   1.996   0.775
10200SOL     OW31498   5.804   5.193   5.750
10200SOL    HW131499   5.716   5.153   5.723
10200SOL    HW231500   5.791   5.250   5.831
10201SOL     OW31501   1.780   4.793   2.888
10201SOL    HW131502   1.818   4.817   2.978
10201SOL    HW231503   1.683   4.817   2.886
10202SOL     OW31504   0.817   2.944   2.959
10202SOL    HW131505   0.882   2.890   2.905
10202SOL    HW231506   0.740   2.887   2.986
10203SOL     OW31507   1.189   3.648   2.100
10203SOL    HW131508   1.286   3.651   2.127
10203SOL    HW231509   1.173   3.715   2.027
10204SOL     OW31510   3.045   5.062   4.254
10204SOL    HW131511   3.081   5.034   4.166
10204SOL    HW231512   2.978   4.995   4.286
10205SOL     OW31513   4.280   0.885   1.893
10205SOL    HW131514   4.199   0.832   1.917
10205SOL    HW231515   4.350   0.873   1.964
10206SOL     OW31516   4.295   0.317   6.024
10206SOL    HW131517   4.330   0.340   5.933
10206SOL    HW231518   4.331   0.382   6.091
10207SOL     OW31519   3.990   0.898   3.405
10207SOL    HW131520   4.089   0.892   3.407
10207SOL    HW231521   3.951   0.831   3.469
10208SOL     OW31522   6.177   4.203   4.937
10208SOL    HW131523   6.085   4.242   4.943
10208SOL    HW231524   6.190   4.163   4.847
10209SOL     OW31525   5.212   6.684   6.842
10209SOL    HW131526   5.293   6.670   6.899
10209SOL    HW231527   5.162   6.599   6.834
10210SOL     OW31528   5.086   5.787   1.225
10210SOL    HW131529   5.186   5.783   1.229
10210SOL    HW231530   5.047   5.724   1.292
10211SOL     OW31531   3.755   5.644   4.701
10211SOL    HW131532   3.785   5.654   4.796
10211SOL    HW231533   3.674   5.700   4.685
10212SOL     OW31534   6.049   6.525   5.309
10212SOL    HW131535   6.016   6.547   5.400
10212SOL    HW231536   6.069   6.609   5.259
10213SOL     OW31537   4.721   0.580   4.095
10213SOL    HW131538   4.742   0.499   4.040
10213SOL    HW231539   4.803   0.607   4.147
10214SOL     OW31540   6.999   0.851   1.134
10214SOL    HW131541   0.026   0.895   1.057
10214SOL    HW231542   6.966   0.920   1.198
10215SOL     OW31543   3.986   2.973   6.719
10215SOL    HW131544   4.071   2.933   6.686
10215SOL    HW231545   3.938   3.017   6.643
10216SOL     OW31546   4.903   0.157   2.384
10216SOL    HW131547   4.941   0.149   2.291
10216SOL    HW231548   4.884   0.066   2.420
10217SOL     OW31549   3.077   2.168   5.594
10217SOL    HW131550   3.119   2.160   5.504
10217SOL    HW231551   3.004   2.100   5.602
10218SOL     OW31552   2.187   2.350   0.861
10218SOL    HW131553   2.272   2.403   0.853
10218SOL    HW231554   2.202   2.258   0.826
10219SOL     OW31555   0.906   4.138   0.782
10219SOL    HW131556   0.993   4.133   0.832
10219SOL    HW231557   0.831   4.145   0.847
10220SOL     OW31558   3.941   2.915   0.604
10220SOL    HW131559   3.998   2.834   0.613
10220SOL    HW231560   3.876   2.902   0.529
10221SOL     OW31561   2.959   0.874   4.961
10221SOL    HW131562   3.003   0.958   4.929
10221SOL    HW231563   2.861   0.890   4.974
10222SOL     OW31564   1.963   5.170   5.482
10222SOL    HW131565   1.996   5.176   5.388
10222SOL    HW231566   2.012   5.097   5.530
10223SOL     OW31567   6.669   4.543   0.585
10223SOL    HW131568   6.733   4.567   0.512
10223SOL    HW231569   6.695   4.454   0.624
10224SOL     OW31570   2.278   0.098   4.932
10224SOL    HW131571   2.270   0.158   5.012
10224SOL    HW231572   2.198   0.039   4.926
10225SOL     OW31573   5.612   5.963   4.536
10225SOL    HW131574   5.698   5.913   4.541
10225SOL    HW231575   5.598   5.997   4.443
10226SOL     OW31576   6.949   2.915   0.057
10226SOL    HW131577   0.004   2.925   0.122
10226SOL    HW231578   6.871   2.871   0.101
10227SOL     OW31579   5.391   5.680   6.024
10227SOL    HW131580   5.328   5.703   5.950
10227SOL    HW231581   5.408   5.761   6.080
10228SOL     OW31582   1.187   4.125   3.119
10228SOL    HW131583   1.251   4.138   3.042
10228SOL    HW231584   1.098   4.096   3.084
10229SOL     OW31585   1.794   1.154   2.141
10229SOL    HW131586   1.770   1.251   2.137
10229SOL    HW231587   1.745   1.110   2.216
10230SOL     OW31588   6.255   6.621   4.974
10230SOL    HW131589   6.155   6.623   4.968
10230SOL    HW231590   6.289   6.715   4.974
10231SOL     OW31591   4.393   6.656   4.138
10231SOL    HW131592   4.310   6.649   4.193
10231SOL    HW231593   4.416   6.752   4.124
10232SOL     OW31594   3.760   2.093   4.417
10232SOL    HW131595   3.675   2.093   4.471
10232SOL    HW231596   3.838   2.099   4.479
10233SOL     OW31597   4.839   1.285   5.373
10233SOL    HW131598   4.771   1.219   5.405
10233SOL    HW231599   4.796   1.349   5.309
10234SOL     OW31600   5.036   6.168   1.630
10234SOL    HW131601   5.039   6.104   1.553
10234SOL    HW231602   5.121   6.220   1.634
10235SOL     OW31603   5.141   1.716   6.284
10235SOL    HW131604   5.045   1.738   6.298
10235SOL    HW231605   5.150   1.649   6.210
10236SOL     OW31606   2.143   6.007   2.386
10236SOL    HW131607   2.164   5.942   2.313
10236SOL    HW231608   2.161   6.100   2.355
10237SOL     OW31609   6.092   2.289   3.507
10237SOL    HW131610   6.113   2.268   3.603
10237SOL    HW231611   6.140   2.372   3.480
10238SOL     OW31612   4.684   5.383   4.492
10238SOL    HW131613   4.590   5.360   4.518
10238SOL    HW231614   4.745   5.361   4.568
10239SOL     OW31615   7.013   4.269   3.923
10239SOL    HW131616   6.945   4.218   3.869
10239SOL    HW231617   0.035   4.208   3.990
10240SOL     OW31618   6.271   3.814   3.686
10240SOL    HW131619   6.295   3.882   3.617
10240SOL    HW231620   6.271   3.722   3.645
10241SOL     OW31621   2.142   1.205   3.506
10241SOL    HW131622   2.241   1.203   3.520
10241SOL    HW231623   2.113   1.123   3.458
10242SOL     OW31624   0.741   6.273   6.145
10242SOL    HW131625   0.778   6.236   6.231
10242SOL    HW231626   0.768   6.214   6.069
10243SOL     OW31627   1.169   6.210   2.571
10243SOL    HW131628   1.214   6.196   2.659
10243SOL    HW231629   1.115   6.129   2.548
10244SOL     OW31630   1.526   5.946   6.949
10244SOL    HW131631   1.533   5.852   6.984
10244SOL    HW231632   1.526   5.943   6.849
10245SOL     OW31633   1.939   2.218   0.233
10245SOL    HW131634   1.921   2.159   0.312
10245SOL    HW231635   2.038   2.219   0.215
10246SOL     OW31636   3.658   4.047   3.935
10246SOL    HW131637   3.635   4.021   4.029
10246SOL    HW231638   3.731   3.987   3.901
10247SOL     OW31639   0.933   6.293   5.756
10247SOL    HW131640   0.894   6.244   5.678
10247SOL    HW231641   0.990   6.368   5.723
10248SOL     OW31642   4.566   0.741   2.369
10248SOL    HW131643   4.609   0.751   2.459
10248SOL    HW231644   4.543   0.646   2.353
10249SOL     OW31645   4.165   1.230   0.341
10249SOL    HW131646   4.184   1.228   0.243
10249SOL    HW231647   4.108   1.309   0.363
10250SOL     OW31648   5.680   6.997   0.502
10250SOL    HW131649   5.692   0.015   0.594
10250SOL    HW231650   5.761   6.944   0.477
10251SOL     OW31651   3.700   4.250   6.580
10251SOL    HW131652   3.670   4.344   6.569
10251SOL    HW231653   3.672   4.196   6.500
10252SOL     OW31654   6.089   5.080   2.051
10252SOL    HW131655   6.169   5.141   2.054
10252SOL    HW231656   6.056   5.072   1.957
10253SOL     OW31657   3.834   5.092   6.486
10253SOL    HW131658   3.764   5.049   6.430
10253SOL    HW231659   3.803   5.183   6.515
10254SOL     OW31660   2.181   1.526   4.493
10254SOL    HW131661   2.273   1.523   4.454
10254SOL    HW231662   2.141   1.435   4.490
10255SOL     OW31663   3.418   5.389   3.074
10255SOL    HW131664   3.347   5.459   3.074
10255SOL    HW231665   3.379   5.301   3.101
10256SOL     OW31666   5.862   6.151   6.913
10256SOL    HW131667   5.962   6.157   6.918
10256SOL    HW231668   5.828   6.213   6.842
10257SOL     OW31669   1.593   6.355   6.450
10257SOL    HW131670   1.560   6.367   6.356
10257SOL    HW231671   1.621   6.260   6.463
10258SOL     OW31672   4.210   0.352   3.559
10258SOL    HW131673   4.231   0.366   3.462
10258SOL    HW231674   4.280   0.294   3.600
10259SOL     OW31675   0.771   3.912   3.625
10259SOL    HW131676   0.821   3.859   3.693
10259SOL    HW231677   0.761   3.858   3.542
10260SOL     OW31678   6.929   6.585   1.342
10260SOL    HW131679   6.896   6.543   1.257
10260SOL    HW231680   6.910   6.683   1.339
10261SOL     OW31681   2.129   6.729   1.494
10261SOL    HW131682   2.069   6.724   1.414
10261SOL    HW231683   2.084   6.782   1.566
10262SOL     OW31684   1.390   5.343   5.068
10262SOL    HW131685   1.483   5.309   5.082
10262SOL    HW231686   1.361   5.324   4.975
10263SOL     OW31687   6.661   2.001   5.756
10263SOL    HW131688   6.714   1.975   5.675
10263SOL    HW231689   6.594   1.930   5.776
10264SOL     OW31690   0.149   6.489   6.806
10264SOL    HW131691   0.107   6.458   6.721
10264SOL    HW231692   0.245   6.460   6.808
10265SOL     OW31693   4.177   2.073   2.565
10265SOL    HW131694   4.184   2.114   2.473
10265SOL    HW231695   4.090   2.026   2.574
10266SOL     OW31696   4.384   4.201   6.330
10266SOL    HW131697   4.298   4.251   6.345
10266SOL    HW231698   4.447   4.257   6.277
10267SOL     OW31699   6.948   1.795   6.018
10267SOL    HW131700   6.922   1.758   6.107
10267SOL    HW231701   6.881   1.766   5.949
10268SOL     OW31702   6.343   4.255   1.598
10268SOL    HW131703   6.324   4.351   1.580
10268SOL    HW231704   6.259   4.202   1.588
10269SOL     OW31705   3.174   2.845   6.086
10269SOL    HW131706   3.260   2.844   6.036
10269SOL    HW231707   3.098   2.844   6.021
10270SOL     OW31708   3.000   6.466   1.113
10270SOL    HW131709   3.046   6.377   1.120
10270SOL    HW231710   2.906   6.457   1.144
10271SOL     OW31711   3.636   5.017   0.684
10271SOL    HW131712   3.642   5.083   0.609
10271SOL    HW231713   3.625   5.066   0.770
10272SOL     OW31714   0.787   0.845   6.057
10272SOL    HW131715   0.880   0.828   6.090
10272SOL    HW231716   0.729   0.872   6.134
10273SOL     OW31717   4.542   6.309   4.396
10273SOL    HW131718   4.483   6.269   4.325
10273SOL    HW231719   4.485   6.358   4.462
10274SOL     OW31720   2.245   6.027   6.254
10274SOL    HW131721   2.186   6.010   6.176
10274SOL    HW231722   2.324   5.966   6.251
10275SOL     OW31723   1.334   6.846   1.845
10275SOL    HW131724   1.311   6.939   1.817
10275SOL    HW231725   1.411   6.812   1.792
10276SOL     OW31726   6.935   6.160   6.863
10276SOL    HW131727   6.885   6.211   6.933
10276SOL    HW231728   0.005   6.202   6.847
10277SOL     OW31729   1.844   5.417   3.213
10277SOL    HW131730   1.878   5.330   3.251
10277SOL    HW231731   1.920   5.468   3.173
10278SOL     OW31732   6.376   0.325   6.204
10278SOL    HW131733   6.382   0.424   6.193
10278SOL    HW231734   6.372   0.302   6.301
10279SOL     OW31735   3.478   6.443   3.505
10279SOL    HW131736   3.516   6.443   3.412
10279SOL    HW231737   3.462   6.537   3.535
10280SOL     OW31738   3.356   2.566   6.576
10280SOL    HW131739   3.349   2.546   6.478
10280SOL    HW231740   3.453   2.570   6.602
10281SOL     OW31741   3.413   6.822   4.410
10281SOL    HW131742   3.455   6.778   4.489
10281SOL    HW231743   3.363   6.754   4.356
10282SOL     OW31744   1.085   2.241   4.828
10282SOL    HW131745   1.125   2.309   4.767
10282SOL    HW231746   1.020   2.285   4.889
10283SOL     OW31747   1.448   3.280   5.774
10283SOL    HW131748   1.442   3.354   5.842
10283SOL    HW231749   1.476   3.196   5.819
10284SOL     OW31750   5.980   3.334   6.170
10284SOL    HW131751   5.891   3.375   6.190
10284SOL    HW231752   5.986   3.315   6.072
10285SOL     OW31753   5.606   0.392   0.736
10285SOL    HW131754   5.548   0.453   0.790
10285SOL    HW231755   5.685   0.443   0.702
10286SOL     OW31756   4.419   0.146   3.668
10286SOL    HW131757   4.511   0.182   3.685
10286SOL    HW231758   4.361   0.164   3.747
10287SOL     OW31759   2.097   5.585   1.308
10287SOL    HW131760   2.121   5.665   1.362
10287SOL    HW231761   2.089   5.610   1.211
10288SOL     OW31762   5.237   6.117   4.014
10288SOL    HW131763   5.142   6.108   3.982
10288SOL    HW231764   5.242   6.095   4.111
10289SOL     OW31765   3.029   1.271   1.579
10289SOL    HW131766   3.118   1.253   1.620
10289SOL    HW231767   3.023   1.367   1.552
10290SOL     OW31768   2.947   3.628   2.376
10290SOL    HW131769   3.012   3.561   2.412
10290SOL    HW231770   2.883   3.583   2.314
10291SOL     OW31771   4.307   0.450   5.778
10291SOL    HW131772   4.297   0.532   5.834
10291SOL    HW231773   4.349   0.474   5.691
10292SOL     OW31774   6.846   0.861   4.843
10292SOL    HW131775   6.856   0.931   4.913
10292SOL    HW231776   6.904   0.883   4.765
10293SOL     OW31777   2.769   5.912   2.699
10293SOL    HW131778   2.672   5.894   2.716
10293SOL    HW231779   2.791   6.005   2.731
10294SOL     OW31780   5.658   1.577   3.016
10294SOL    HW131781   5.725   1.611   3.082
10294SOL    HW231782   5.704   1.556   2.930
10295SOL     OW31783   1.667   4.319   5.111
10295SOL    HW131784   1.700   4.403   5.069
10295SOL    HW231785   1.734   4.246   5.098
10296SOL     OW31786   6.292   2.317   0.877
10296SOL    HW131787   6.294   2.285   0.972
10296SOL    HW231788   6.275   2.416   0.876
10297SOL     OW31789   2.323   5.452   4.774
10297SOL    HW131790   2.257   5.401   4.720
10297SOL    HW231791   2.275   5.523   4.827
10298SOL     OW31792   5.593   3.804   3.356
10298SOL    HW131793   5.588   3.856   3.271
10298SOL    HW231794   5.531   3.844   3.424
10299SOL     OW31795   4.824   4.274   2.223
10299SOL    HW131796   4.763   4.265   2.301
10299SOL    HW231797   4.787   4.223   2.145
10300SOL     OW31798   2.260   5.109   2.391
10300SOL    HW131799   2.296   5.032   2.338
10300SOL    HW231800   2.332   5.175   2.408
10301SOL     OW31801   5.590   1.845   1.384
10301SOL    HW131802   5.681   1.812   1.411
10301SOL    HW231803   5.586   1.853   1.284
10302SOL     OW31804   1.472   4.922   3.239
10302SOL    HW131805   1.402   4.951   3.303
10302SOL    HW231806   1.473   4.985   3.160
10303SOL     OW31807   3.776   3.238   1.181
10303SOL    HW131808   3.742   3.157   1.227
10303SOL    HW231809   3.874   3.226   1.161
10304SOL     OW31810   6.031   6.448   3.739
10304SOL    HW131811   6.086   6.366   3.753
10304SOL    HW231812   5.934   6.424   3.738
10305SOL     OW31813   1.831   5.852   0.925
10305SOL    HW131814   1.826   5.927   0.859
10305SOL    HW231815   1.780   5.877   1.008
10306SOL     OW31816   4.352   4.909   0.369
10306SOL    HW131817   4.366   4.842   0.442
10306SOL    HW231818   4.255   4.919   0.350
10307SOL     OW31819   2.738   0.975   5.378
10307SOL    HW131820   2.787   1.063   5.377
10307SOL    HW231821   2.785   0.911   5.317
10308SOL     OW31822   3.260   5.743   3.915
10308SOL    HW131823   3.310   5.705   3.993
10308SOL    HW231824   3.162   5.725   3.926
10309SOL     OW31825   0.753   6.329   3.253
10309SOL    HW131826   0.730   6.293   3.163
10309SOL    HW231827   0.734   6.427   3.256
10310SOL     OW31828   3.451   3.249   4.686
10310SOL    HW131829   3.413   3.335   4.654
10310SOL    HW231830   3.499   3.203   4.611
10311SOL     OW31831   0.530   6.417   0.860
10311SOL    HW131832   0.545   6.461   0.948
10311SOL    HW231833   0.474   6.476   0.801
10312SOL     OW31834   2.158   5.097   0.699
10312SOL    HW131835   2.226   5.083   0.627
10312SOL    HW231836   2.113   5.010   0.720
10313SOL     OW31837   5.934   6.016   3.770
10313SOL    HW131838   5.844   6.018   3.725
10313SOL    HW231839   5.993   5.949   3.724
10314SOL     OW31840   6.239   5.038   5.962
10314SOL    HW131841   6.176   5.016   5.888
10314SOL    HW231842   6.269   5.133   5.953
10315SOL     OW31843   5.611   6.173   4.831
10315SOL    HW131844   5.700   6.129   4.818
10315SOL    HW231845   5.606   6.256   4.775
10316SOL     OW31846   0.218   3.905   3.212
10316SOL    HW131847   0.277   3.826   3.227
10316SOL    HW231848   0.273   3.987   3.198
10317SOL     OW31849   3.899   4.467   0.802
10317SOL    HW131850   3.977   4.521   0.770
10317SOL    HW231851   3.875   4.399   0.733
10318SOL     OW31852   6.502   5.849   2.297
10318SOL    HW131853   6.565   5.864   2.373
10318SOL    HW231854   6.411   5.831   2.333
10319SOL     OW31855   4.777   5.902   4.657
10319SOL    HW131856   4.765   5.812   4.615
10319SOL    HW231857   4.689   5.935   4.692
10320SOL     OW31858   4.432   6.227   1.247
10320SOL    HW131859   4.393   6.275   1.169
10320SOL    HW231860   4.403   6.271   1.332
10321SOL     OW31861   4.171   6.771   4.307
10321SOL    HW131862   4.224   6.732   4.382
10321SOL    HW231863   4.099   6.830   4.344
10322SOL     OW31864   6.709   2.526   0.132
10322SOL    HW131865   6.783   2.491   0.074
10322SOL    HW231866   6.746   2.550   0.222
10323SOL     OW31867   6.186   2.105   5.186
10323SOL    HW131868   6.218   2.197   5.207
10323SOL    HW231869   6.131   2.071   5.262
10324SOL     OW31870   2.915   3.350   3.852
10324SOL    HW131871   2.910   3.441   3.894
10324SOL    HW231872   2.917   3.281   3.924
10325SOL     OW31873   1.009   3.508   3.422
10325SOL    HW131874   0.977   3.420   3.386
10325SOL    HW231875   1.016   3.503   3.522
10326SOL     OW31876   4.758   1.575   1.325
10326SOL    HW131877   4.670   1.553   1.366
10326SOL    HW231878   4.746   1.649   1.259
10327SOL     OW31879   6.841   0.861   3.357
10327SOL    HW131880   6.827   0.921   3.435
10327SOL    HW231881   6.801   0.902   3.275
10328SOL     OW31882   6.086   3.164   2.299
10328SOL    HW131883   6.106   3.157   2.397
10328SOL    HW231884   6.030   3.086   2.272
10329SOL     OW31885   3.901   6.439   2.966
10329SOL    HW131886   3.962   6.512   2.935
10329SOL    HW231887   3.885   6.448   3.064
10330SOL     OW31888   3.550   4.588   1.201
10330SOL    HW131889   3.649   4.576   1.192
10330SOL    HW231890   3.515   4.527   1.272
10331SOL     OW31891   5.656   0.438   4.246
10331SOL    HW131892   5.574   0.479   4.286
10331SOL    HW231893   5.725   0.510   4.231
10332SOL     OW31894   6.953   1.791   0.439
10332SOL    HW131895   0.019   1.777   0.390
10332SOL    HW231896   6.972   1.803   0.537
10333SOL     OW31897   4.905   4.483   4.664
10333SOL    HW131898   4.946   4.563   4.619
10333SOL    HW231899   4.977   4.425   4.701
10334SOL     OW31900   1.123   4.897   4.772
10334SOL    HW131901   1.144   4.966   4.841
10334SOL    HW231902   1.036   4.853   4.795
10335SOL     OW31903   2.240   5.389   1.731
10335SOL    HW131904   2.209   5.398   1.636
10335SOL    HW231905   2.339   5.406   1.735
10336SOL     OW31906   4.187   6.247   2.855
10336SOL    HW131907   4.230   6.157   2.859
10336SOL    HW231908   4.254   6.317   2.881
10337SOL     OW31909   1.006   4.719   5.105
10337SOL    HW131910   0.994   4.782   5.181
10337SOL    HW231911   1.001   4.625   5.138
10338SOL     OW31912   3.849   4.980   3.376
10338SOL    HW131913   3.831   4.962   3.279
10338SOL    HW231914   3.778   4.937   3.431
10339SOL     OW31915   3.440   5.377   0.390
10339SOL    HW131916   3.408   5.301   0.447
10339SOL    HW231917   3.491   5.341   0.312
10340SOL     OW31918   2.077   6.892   0.157
10340SOL    HW131919   2.002   6.958   0.159
10340SOL    HW231920   2.151   6.922   0.217
10341SOL     OW31921   1.085   2.422   2.545
10341SOL    HW131922   1.093   2.408   2.446
10341SOL    HW231923   0.990   2.441   2.568
10342SOL     OW31924   2.834   6.873   3.747
10342SOL    HW131925   2.909   6.935   3.728
10342SOL    HW231926   2.756   6.924   3.784
10343SOL     OW31927   2.117   3.208   3.889
10343SOL    HW131928   2.085   3.297   3.920
10343SOL    HW231929   2.132   3.148   3.968
10344SOL     OW31930   4.372   4.028   0.353
10344SOL    HW131931   4.444   4.081   0.398
10344SOL    HW231932   4.408   3.989   0.269
10345SOL     OW31933   1.421   1.732   5.922
10345SOL    HW131934   1.438   1.676   6.004
10345SOL    HW231935   1.467   1.820   5.931
10346SOL     OW31936   5.693   5.000   0.461
10346SOL    HW131937   5.717   4.905   0.437
10346SOL    HW231938   5.609   5.025   0.413
10347SOL     OW31939   4.999   1.377   1.621
10347SOL    HW131940   4.993   1.448   1.552
10347SOL    HW231941   4.910   1.333   1.632
10348SOL     OW31942   7.013   5.132   5.812
10348SOL    HW131943   7.007   5.128   5.712
10348SOL    HW231944   0.089   5.121   5.840
10349SOL     OW31945   7.009   1.793   1.223
10349SOL    HW131946   6.920   1.769   1.183
10349SOL    HW231947   7.011   1.891   1.241
10350SOL     OW31948   1.991   4.234   4.880
10350SOL    HW131949   2.079   4.281   4.889
10350SOL    HW231950   1.935   4.281   4.812
10351SOL     OW31951   4.565   4.500   4.837
10351SOL    HW131952   4.478   4.497   4.886
10351SOL    HW231953   4.560   4.569   4.765
10352SOL     OW31954   6.032   1.146   6.915
10352SOL    HW131955   6.070   1.116   6.828
10352SOL    HW231956   5.991   1.068   6.963
10353SOL     OW31957   6.178   2.573   3.764
10353SOL    HW131958   6.255   2.637   3.754
10353SOL    HW231959   6.132   2.591   3.851
10354SOL     OW31960   6.474   2.901   1.252
10354SOL    HW131961   6.375   2.893   1.251
10354SOL    HW231962   6.509   2.899   1.158
10355SOL     OW31963   0.689   2.092   0.724
10355SOL    HW131964   0.672   2.182   0.686
10355SOL    HW231965   0.640   2.083   0.811
10356SOL     OW31966   6.107   3.435   5.363
10356SOL    HW131967   6.046   3.432   5.442
10356SOL    HW231968   6.177   3.364   5.372
10357SOL     OW31969   1.028   0.768   6.207
10357SOL    HW131970   1.051   0.682   6.252
10357SOL    HW231971   1.068   0.845   6.257
10358SOL     OW31972   1.117   2.936   3.147
10358SOL    HW131973   1.154   2.958   3.056
10358SOL    HW231974   1.189   2.947   3.216
10359SOL     OW31975   6.699   2.344   2.189
10359SOL    HW131976   6.700   2.297   2.277
10359SOL    HW231977   6.669   2.281   2.117
10360SOL     OW31978   5.682   4.213   1.535
10360SOL    HW131979   5.751   4.144   1.555
10360SOL    HW231980   5.655   4.260   1.619
10361SOL     OW31981   6.376   2.133   2.319
10361SOL    HW131982   6.443   2.062   2.340
10361SOL    HW231983   6.398   2.216   2.370
10362SOL     OW31984   1.231   6.154   1.971
10362SOL    HW131985   1.206   6.245   2.005
10362SOL    HW231986   1.164   6.123   1.905
10363SOL     OW31987   5.514   3.948   5.897
10363SOL    HW131988   5.460   3.970   5.816
10363SOL    HW231989   5.562   3.862   5.883
10364SOL     OW31990   5.702   4.820   2.007
10364SOL    HW131991   5.718   4.890   2.076
10364SOL    HW231992   5.628   4.760   2.037
10365SOL     OW31993   5.817   5.014   0.766
10365SOL    HW131994   5.885   5.053   0.828
10365SOL    HW231995   5.842   5.037   0.672
10366SOL     OW31996   3.013   6.015   3.331
10366SOL    HW131997   2.932   6.011   3.272
10366SOL    HW231998   2.989   6.061   3.417
10367SOL     OW31999   5.761   6.249   1.599
10367SOL    HW132000   5.729   6.341   1.581
10367SOL    HW232001   5.683   6.189   1.617
10368SOL     OW32002   2.433   6.126   1.151
10368SOL    HW132003   2.408   6.030   1.162
10368SOL    HW232004   2.351   6.182   1.157
10369SOL     OW32005   2.500   0.401   5.700
10369SOL    HW132006   2.431   0.403   5.772
10369SOL    HW232007   2.471   0.339   5.627
10370SOL     OW32008   1.289   1.300   5.178
10370SOL    HW132009   1.285   1.328   5.274
10370SOL    HW232010   1.334   1.371   5.125
10371SOL     OW32011   4.533   5.314   2.589
10371SOL    HW132012   4.472   5.249   2.636
10371SOL    HW232013   4.576   5.269   2.511
10372SOL     OW32014   2.662   6.119   1.934
10372SOL    HW132015   2.597   6.072   1.993
10372SOL    HW232016   2.677   6.212   1.969
10373SOL     OW32017   6.791   1.195   6.071
10373SOL    HW132018   6.802   1.190   5.972
10373SOL    HW232019   6.710   1.250   6.093
10374SOL     OW32020   3.559   5.482   3.563
10374SOL    HW132021   3.559   5.399   3.506
10374SOL    HW232022   3.622   5.549   3.524
10375SOL     OW32023   2.420   5.232   0.170
10375SOL    HW132024   2.491   5.295   0.139
10375SOL    HW232025   2.457   5.172   0.242
10376SOL     OW32026   2.263   5.186   4.084
10376SOL    HW132027   2.239   5.224   3.995
10376SOL    HW232028   2.345   5.233   4.119
10377SOL     OW32029   1.752   0.908   2.426
10377SOL    HW132030   1.733   0.884   2.331
10377SOL    HW232031   1.744   1.007   2.438
10378SOL     OW32032   0.239   5.732   4.349
10378SOL    HW132033   0.297   5.662   4.392
10378SOL    HW232034   0.144   5.715   4.373
10379SOL     OW32035   2.048   0.047   4.725
10379SOL    HW132036   1.968   0.099   4.753
10379SOL    HW232037   2.038   0.019   4.630
10380SOL     OW32038   2.871   2.027   4.671
10380SOL    HW132039   2.864   1.946   4.612
10380SOL    HW232040   2.786   2.079   4.666
10381SOL     OW32041   4.908   6.405   1.541
10381SOL    HW132042   4.947   6.336   1.601
10381SOL    HW232043   4.818   6.432   1.574
10382SOL     OW32044   4.424   5.668   1.470
10382SOL    HW132045   4.359   5.716   1.411
10382SOL    HW232046   4.457   5.730   1.540
10383SOL     OW32047   1.176   5.130   6.908
10383SOL    HW132048   1.214   5.218   6.934
10383SOL    HW232049   1.131   5.138   6.819
10384SOL     OW32050   5.662   5.907   1.517
10384SOL    HW132051   5.606   5.827   1.541
10384SOL    HW232052   5.745   5.875   1.469
10385SOL     OW32053   4.241   4.639   0.100
10385SOL    HW132054   4.188   4.572   0.153
10385SOL    HW232055   4.309   4.591   0.044
10386SOL     OW32056   0.551   1.056   0.760
10386SOL    HW132057   0.565   1.141   0.710
10386SOL    HW232058   0.639   1.010   0.772
10387SOL     OW32059   5.484   3.099   1.790
10387SOL    HW132060   5.395   3.145   1.789
10387SOL    HW232061   5.557   3.167   1.781
10388SOL     OW32062   2.442   6.895   4.987
10388SOL    HW132063   2.380   6.959   4.942
10388SOL    HW232064   2.444   6.809   4.936
10389SOL     OW32065   0.422   3.785   0.344
10389SOL    HW132066   0.509   3.825   0.376
10389SOL    HW232067   0.428   3.685   0.347
10390SOL     OW32068   2.196   2.486   1.669
10390SOL    HW132069   2.279   2.528   1.705
10390SOL    HW232070   2.213   2.390   1.649
10391SOL     OW32071   4.934   6.861   4.164
10391SOL    HW132072   4.996   6.934   4.190
10391SOL    HW232073   4.899   6.816   4.246
10392SOL     OW32074   6.491   3.861   4.213
10392SOL    HW132075   6.468   3.890   4.120
10392SOL    HW232076   6.591   3.858   4.223
10393SOL     OW32077   1.205   3.286   3.830
10393SOL    HW132078   1.300   3.284   3.802
10393SOL    HW232079   1.191   3.358   3.898
10394SOL     OW32080   3.456   0.219   4.093
10394SOL    HW132081   3.444   0.201   3.996
10394SOL    HW232082   3.403   0.153   4.146
10395SOL     OW32083   1.123   0.472   0.892
10395SOL    HW132084   1.092   0.378   0.903
10395SOL    HW232085   1.044   0.533   0.884
10396SOL     OW32086   2.758   2.261   4.581
10396SOL    HW132087   2.731   2.189   4.517
10396SOL    HW232088   2.716   2.347   4.554
10397SOL     OW32089   3.704   1.682   3.440
10397SOL    HW132090   3.616   1.634   3.443
10397SOL    HW232091   3.693   1.773   3.480
10398SOL     OW32092   6.460   2.610   1.465
10398SOL    HW132093   6.472   2.709   1.470
10398SOL    HW232094   6.454   2.582   1.369
10399SOL     OW32095   0.615   3.986   1.899
10399SOL    HW132096   0.651   3.906   1.946
10399SOL    HW232097   0.683   4.021   1.835
10400SOL     OW32098   4.018   6.329   0.314
10400SOL    HW132099   3.923   6.331   0.284
10400SOL    HW232100   4.023   6.295   0.408
10401SOL     OW32101   0.050   1.455   5.967
10401SOL    HW132102   6.979   1.464   5.925
10401SOL    HW232103   0.094   1.545   5.969
10402SOL     OW32104   6.889   3.029   4.756
10402SOL    HW132105   6.864   3.044   4.660
10402SOL    HW232106   6.988   3.016   4.763
10403SOL     OW32107   2.727   0.245   1.915
10403SOL    HW132108   2.752   0.149   1.931
10403SOL    HW232109   2.711   0.290   2.003
10404SOL     OW32110   6.858   6.325   6.100
10404SOL    HW132111   6.911   6.287   6.176
10404SOL    HW232112   6.852   6.258   6.026
10405SOL     OW32113   6.921   1.891   6.609
10405SOL    HW132114   6.873   1.887   6.522
10405SOL    HW232115   7.016   1.863   6.596
10406SOL     OW32116   2.731   4.703   1.518
10406SOL    HW132117   2.732   4.698   1.618
10406SOL    HW232118   2.653   4.759   1.488
10407SOL     OW32119   3.234   6.748   6.908
10407SOL    HW132120   3.325   6.723   6.942
10407SOL    HW232121   3.241   6.781   6.814
10408SOL     OW32122   3.635   0.988   0.095
10408SOL    HW132123   3.596   1.073   0.060
10408SOL    HW232124   3.562   0.922   0.112
10409SOL     OW32125   6.097   4.567   1.176
10409SOL    HW132126   6.014   4.572   1.231
10409SOL    HW232127   6.130   4.473   1.174
10410SOL     OW32128   5.970   0.687   0.847
10410SOL    HW132129   6.057   0.700   0.801
10410SOL    HW232130   5.969   0.740   0.931
10411SOL     OW32131   2.900   5.363   3.263
10411SOL    HW132132   2.987   5.413   3.265
10411SOL    HW232133   2.833   5.408   3.321
10412SOL     OW32134   6.540   0.426   0.555
10412SOL    HW132135   6.559   0.468   0.644
10412SOL    HW232136   6.574   0.486   0.482
10413SOL     OW32137   6.723   2.576   1.619
10413SOL    HW132138   6.648   2.609   1.562
10413SOL    HW232139   6.692   2.497   1.672
10414SOL     OW32140   4.568   2.584   4.168
10414SOL    HW132141   4.633   2.625   4.232
10414SOL    HW232142   4.606   2.587   4.076
10415SOL     OW32143   0.783   6.206   6.462
10415SOL    HW132144   0.801   6.303   6.444
10415SOL    HW232145   0.859   6.168   6.516
10416SOL     OW32146   5.856   2.510   4.311
10416SOL    HW132147   5.790   2.469   4.247
10416SOL    HW232148   5.868   2.607   4.288
10417SOL     OW32149   2.797   4.956   4.313
10417SOL    HW132150   2.733   4.882   4.291
10417SOL    HW232151   2.798   4.969   4.412
10418SOL     OW32152   1.147   4.604   5.905
10418SOL    HW132153   1.220   4.663   5.939
10418SOL    HW232154   1.060   4.634   5.945
10419SOL     OW32155   1.229   0.757   0.657
10419SOL    HW132156   1.150   0.780   0.713
10419SOL    HW232157   1.313   0.781   0.707
10420SOL     OW32158   0.325   3.402   3.472
10420SOL    HW132159   0.229   3.382   3.494
10420SOL    HW232160   0.370   3.319   3.439
10421SOL     OW32161   0.240   0.750   2.786
10421SOL    HW132162   0.226   0.662   2.743
10421SOL    HW232163   0.212   0.746   2.882
10422SOL     OW32164   6.375   2.593   6.083
10422SOL    HW132165   6.459   2.635   6.118
10422SOL    HW232166   6.381   2.587   5.983
10423SOL     OW32167   5.131   4.309   3.424
10423SOL    HW132168   5.156   4.229   3.369
10423SOL    HW232169   5.196   4.383   3.407
10424SOL     OW32170   5.250   1.896   6.748
10424SOL    HW132171   5.152   1.893   6.733
10424SOL    HW232172   5.282   1.991   6.740
10425SOL     OW32173   1.760   6.410   2.305
10425SOL    HW132174   1.800   6.450   2.388
10425SOL    HW232175   1.812   6.329   2.279
10426SOL     OW32176   6.760   4.328   0.209
10426SOL    HW132177   6.753   4.420   0.170
10426SOL    HW232178   6.701   4.321   0.289
10427SOL     OW32179   5.341   1.893   0.135
10427SOL    HW132180   5.277   1.946   0.080
10427SOL    HW232181   5.314   1.898   0.232
10428SOL     OW32182   5.163   0.240   4.440
10428SOL    HW132183   5.144   0.309   4.370
10428SOL    HW232184   5.149   0.280   4.531
10429SOL     OW32185   6.254   5.725   1.621
10429SOL    HW132186   6.259   5.808   1.565
10429SOL    HW232187   6.188   5.738   1.694
10430SOL     OW32188   4.002   6.623   2.370
10430SOL    HW132189   4.083   6.632   2.312
10430SOL    HW232190   4.030   6.604   2.464
10431SOL     OW32191   2.938   0.247   4.339
10431SOL    HW132192   3.026   0.248   4.385
10431SOL    HW232193   2.951   0.232   4.241
10432SOL     OW32194   5.724   0.775   5.472
10432SOL    HW132195   5.767   0.695   5.431
10432SOL    HW232196   5.783   0.855   5.458
10433SOL     OW32197   2.232   0.021   0.879
10433SOL    HW132198   2.213   6.969   0.813
10433SOL    HW232199   2.238   7.001   0.971
10434SOL     OW32200   1.996   0.503   3.824
10434SOL    HW132201   2.029   0.493   3.731
10434SOL    HW232202   2.052   0.571   3.873
10435SOL     OW32203   5.124   6.367   6.393
10435SOL    HW132204   5.091   6.461   6.392
10435SOL    HW232205   5.131   6.333   6.299
10436SOL     OW32206   1.552   5.303   3.554
10436SOL    HW132207   1.576   5.216   3.511
10436SOL    HW232208   1.525   5.288   3.649
10437SOL     OW32209   0.203   5.149   6.214
10437SOL    HW132210   0.242   5.060   6.237
10437SOL    HW232211   0.110   5.155   6.250
10438SOL     OW32212   4.002   6.583   0.463
10438SOL    HW132213   4.004   6.504   0.402
10438SOL    HW232214   4.026   6.665   0.412
10439SOL     OW32215   3.826   6.896   6.165
10439SOL    HW132216   3.750   6.833   6.154
10439SOL    HW232217   3.878   6.872   6.247
10440SOL     OW32218   1.951   6.219   0.618
10440SOL    HW132219   1.966   6.267   0.531
10440SOL    HW232220   1.977   6.280   0.694
10441SOL     OW32221   5.412   1.724   6.615
10441SOL    HW132222   5.401   1.636   6.663
10441SOL    HW232223   5.349   1.791   6.655
10442SOL     OW32224   3.778   4.958   5.773
10442SOL    HW132225   3.782   4.885   5.841
10442SOL    HW232226   3.683   4.989   5.763
10443SOL     OW32227   6.062   2.904   4.795
10443SOL    HW132228   6.111   2.939   4.715
10443SOL    HW232229   6.013   2.820   4.771
10444SOL     OW32230   4.145   4.765   4.247
10444SOL    HW132231   4.185   4.725   4.329
10444SOL    HW232232   4.064   4.817   4.272
10445SOL     OW32233   6.776   5.715   5.330
10445SOL    HW132234   6.804   5.630   5.375
10445SOL    HW232235   6.857   5.765   5.301
10446SOL     OW32236   1.177   5.376   6.187
10446SOL    HW132237   1.118   5.329   6.120
10446SOL    HW232238   1.130   5.457   6.221
10447SOL     OW32239   5.835   2.688   1.442
10447SOL    HW132240   5.927   2.666   1.477
10447SOL    HW232241   5.844   2.746   1.361
10448SOL     OW32242   3.935   3.973   2.530
10448SOL    HW132243   4.003   3.901   2.516
10448SOL    HW232244   3.870   3.973   2.455
10449SOL     OW32245   2.685   5.602   4.438
10449SOL    HW132246   2.763   5.543   4.420
10449SOL    HW232247   2.709   5.668   4.510
10450SOL     OW32248   6.623   2.415   1.026
10450SOL    HW132249   6.632   2.436   0.929
10450SOL    HW232250   6.674   2.331   1.046
10451SOL     OW32251   2.511   4.502   2.853
10451SOL    HW132252   2.578   4.542   2.916
10451SOL    HW232253   2.477   4.416   2.890
10452SOL     OW32254   1.154   2.862   4.377
10452SOL    HW132255   1.095   2.840   4.455
10452SOL    HW232256   1.248   2.871   4.407
10453SOL     OW32257   4.635   6.910   1.587
10453SOL    HW132258   4.635   6.812   1.568
10453SOL    HW232259   4.674   6.960   1.509
10454SOL     OW32260   5.201   3.212   1.845
10454SOL    HW132261   5.143   3.185   1.922
10454SOL    HW232262   5.216   3.311   1.848
10455SOL     OW32263   0.188   5.236   3.513
10455SOL    HW132264   0.191   5.336   3.512
10455SOL    HW232265   0.140   5.205   3.595
10456SOL     OW32266   4.523   5.679   1.061
10456SOL    HW132267   4.583   5.749   1.022
10456SOL    HW232268   4.558   5.652   1.151
10457SOL     OW32269   4.113   3.543   3.507
10457SOL    HW132270   4.104   3.500   3.597
10457SOL    HW232271   4.151   3.476   3.442
10458SOL     OW32272   1.284   6.642   0.929
10458SOL    HW132273   1.195   6.673   0.896
10458SOL    HW232274   1.303   6.681   1.018
10459SOL     OW32275   6.739   4.953   2.785
10459SOL    HW132276   6.801   4.975   2.860
10459SOL    HW232277   6.792   4.946   2.700
10460SOL     OW32278   1.966   5.294   2.590
10460SOL    HW132279   1.956   5.197   2.609
10460SOL    HW232280   1.958   5.310   2.492
10461SOL     OW32281   2.670   1.578   6.643
10461SOL    HW132282   2.683   1.573   6.544
10461SOL    HW232283   2.627   1.494   6.675
10462SOL     OW32284   6.983   0.224   0.995
10462SOL    HW132285   7.010   0.174   0.912
10462SOL    HW232286   0.043   0.234   1.055
10463SOL     OW32287   3.293   4.479   0.594
10463SOL    HW132288   3.244   4.482   0.681
10463SOL    HW232289   3.275   4.391   0.548
10464SOL     OW32290   4.999   0.877   1.144
10464SOL    HW132291   5.050   0.936   1.207
10464SOL    HW232292   4.901   0.889   1.161
10465SOL     OW32293   6.104   4.794   6.196
10465SOL    HW132294   6.058   4.709   6.222
10465SOL    HW232295   6.132   4.789   6.100
10466SOL     OW32296   4.637   6.254   5.623
10466SOL    HW132297   4.645   6.343   5.669
10466SOL    HW232298   4.544   6.219   5.636
10467SOL     OW32299   3.257   0.721   4.945
10467SOL    HW132300   3.184   0.744   5.009
10467SOL    HW232301   3.221   0.663   4.872
10468SOL     OW32302   3.892   6.357   3.248
10468SOL    HW132303   3.967   6.387   3.306
10468SOL    HW232304   3.866   6.264   3.272
10469SOL     OW32305   1.377   4.661   0.762
10469SOL    HW132306   1.371   4.730   0.834
10469SOL    HW232307   1.468   4.663   0.722
10470SOL     OW32308   2.597   1.340   4.472
10470SOL    HW132309   2.541   1.270   4.518
10470SOL    HW232310   2.692   1.311   4.473
10471SOL     OW32311   3.718   3.396   0.514
10471SOL    HW132312   3.628   3.435   0.537
10471SOL    HW232313   3.762   3.454   0.445
10472SOL     OW32314   4.650   1.138   2.597
10472SOL    HW132315   4.586   1.086   2.539
10472SOL    HW232316   4.743   1.126   2.563
10473SOL     OW32317   4.937   5.845   0.741
10473SOL    HW132318   4.863   5.815   0.681
10473SOL    HW232319   4.929   5.798   0.829
10474SOL     OW32320   3.960   0.434   4.975
10474SOL    HW132321   4.013   0.467   4.897
10474SOL    HW232322   3.880   0.493   4.989
10475SOL     OW32323   3.891   6.493   1.499
10475SOL    HW132324   3.961   6.467   1.566
10475SOL    HW232325   3.833   6.565   1.537
10476SOL     OW32326   0.137   5.208   0.338
10476SOL    HW132327   0.118   5.224   0.242
10476SOL    HW232328   0.079   5.268   0.394
10477SOL     OW32329   5.579   4.523   5.046
10477SOL    HW132330   5.675   4.520   5.019
10477SOL    HW232331   5.523   4.552   4.969
10478SOL     OW32332   0.534   6.560   1.105
10478SOL    HW132333   0.582   6.592   1.187
10478SOL    HW232334   0.533   6.632   1.036
10479SOL     OW32335   1.597   4.689   3.488
10479SOL    HW132336   1.531   4.636   3.436
10479SOL    HW232337   1.576   4.682   3.586
10480SOL     OW32338   6.051   0.114   1.969
10480SOL    HW132339   6.032   0.058   1.889
10480SOL    HW232340   6.059   0.210   1.941
10481SOL     OW32341   1.931   0.562   5.228
10481SOL    HW132342   1.992   0.641   5.220
10481SOL    HW232343   1.865   0.564   5.153
10482SOL     OW32344   1.417   5.531   6.070
10482SOL    HW132345   1.353   5.604   6.049
10482SOL    HW232346   1.385   5.480   6.149
10483SOL     OW32347   0.247   5.066   0.699
10483SOL    HW132348   0.218   5.153   0.659
10483SOL    HW232349   0.347   5.064   0.705
10484SOL     OW32350   6.194   1.591   1.401
10484SOL    HW132351   6.257   1.514   1.405
10484SOL    HW232352   6.101   1.559   1.420
10485SOL     OW32353   4.023   3.904   3.479
10485SOL    HW132354   4.036   3.855   3.565
10485SOL    HW232355   3.992   3.998   3.497
10486SOL     OW32356   6.083   6.248   5.417
10486SOL    HW132357   6.081   6.241   5.517
10486SOL    HW232358   6.118   6.337   5.391
10487SOL     OW32359   4.831   2.216   2.375
10487SOL    HW132360   4.783   2.181   2.294
10487SOL    HW232361   4.926   2.236   2.351
10488SOL     OW32362   6.320   2.438   5.499
10488SOL    HW132363   6.316   2.537   5.515
10488SOL    HW232364   6.356   2.392   5.580
10489SOL     OW32365   6.289   4.413   4.600
10489SOL    HW132366   6.309   4.342   4.667
10489SOL    HW232367   6.374   4.452   4.566
10490SOL     OW32368   5.778   6.346   6.755
10490SOL    HW132369   5.709   6.298   6.701
10490SOL    HW232370   5.850   6.379   6.695
10491SOL     OW32371   1.851   2.742   5.651
10491SOL    HW132372   1.898   2.661   5.687
10491SOL    HW232373   1.781   2.771   5.716
10492SOL     OW32374   3.538   0.403   0.079
10492SOL    HW132375   3.585   0.460   0.011
10492SOL    HW232376   3.550   0.443   0.170
10493SOL     OW32377   4.016   5.500   1.124
10493SOL    HW132378   4.050   5.451   1.204
10493SOL    HW232379   4.004   5.597   1.146
10494SOL     OW32380   1.150   4.200   5.300
10494SOL    HW132381   1.237   4.241   5.325
10494SOL    HW232382   1.165   4.124   5.237
10495SOL     OW32383   6.813   6.424   1.139
10495SOL    HW132384   6.833   6.332   1.173
10495SOL    HW232385   6.722   6.425   1.098
10496SOL     OW32386   0.189   3.289   5.406
10496SOL    HW132387   0.277   3.318   5.370
10496SOL    HW232388   0.148   3.222   5.344
10497SOL     OW32389   1.900   0.295   1.307
10497SOL    HW132390   1.828   0.354   1.268
10497SOL    HW232391   1.901   0.305   1.406
10498SOL     OW32392   4.280   4.236   0.061
10498SOL    HW132393   4.283   4.293   6.999
10498SOL    HW232394   4.281   4.139   0.035
10499SOL     OW32395   6.003   4.569   2.595
10499SOL    HW132396   6.066   4.593   2.669
10499SOL    HW232397   6.049   4.512   2.528
10500SOL     OW32398   1.072   3.039   5.401
10500SOL    HW132399   1.151   2.996   5.357
10500SOL    HW232400   1.072   3.137   5.382
10501SOL     OW32401   3.766   4.995   2.660
10501SOL    HW132402   3.691   5.061   2.653
10501SOL    HW232403   3.806   4.980   2.569
10502SOL     OW32404   3.453   3.710   2.119
10502SOL    HW132405   3.538   3.719   2.171
10502SOL    HW232406   3.376   3.733   2.178
10503SOL     OW32407   6.647   2.571   6.319
10503SOL    HW132408   6.727   2.521   6.350
10503SOL    HW232409   6.571   2.508   6.305
10504SOL     OW32410   1.178   2.793   6.198
10504SOL    HW132411   1.138   2.722   6.139
10504SOL    HW232412   1.202   2.873   6.143
10505SOL     OW32413   5.829   6.472   0.585
10505SOL    HW132414   5.743   6.524   0.591
10505SOL    HW232415   5.861   6.449   0.677
10506SOL     OW32416   1.366   2.414   6.493
10506SOL    HW132417   1.294   2.359   6.535
10506SOL    HW232418   1.389   2.490   6.554
10507SOL     OW32419   0.959   5.294   5.989
10507SOL    HW132420   0.962   5.388   5.955
10507SOL    HW232421   0.928   5.233   5.916
10508SOL     OW32422   1.774   5.011   5.118
10508SOL    HW132423   1.828   4.956   5.182
10508SOL    HW232424   1.676   4.993   5.132
10509SOL     OW32425   4.479   2.373   2.687
10509SOL    HW132426   4.474   2.384   2.787
10509SOL    HW232427   4.524   2.453   2.647
10510SOL     OW32428   5.589   5.872   3.968
10510SOL    HW132429   5.640   5.897   3.886
10510SOL    HW232430   5.493   5.856   3.944
10511SOL     OW32431   4.859   2.253   1.685
10511SOL    HW132432   4.915   2.282   1.763
10511SOL    HW232433   4.841   2.333   1.626
10512SOL     OW32434   4.464   0.865   5.047
10512SOL    HW132435   4.476   0.836   5.142
10512SOL    HW232436   4.543   0.835   4.992
10513SOL     OW32437   4.241   2.914   0.972
10513SOL    HW132438   4.282   2.984   0.914
10513SOL    HW232439   4.186   2.852   0.916
10514SOL     OW32440   1.814   3.294   1.791
10514SOL    HW132441   1.882   3.367   1.796
10514SOL    HW232442   1.759   3.294   1.874
10515SOL     OW32443   2.353   2.736   4.918
10515SOL    HW132444   2.309   2.679   4.987
10515SOL    HW232445   2.374   2.826   4.957
10516SOL     OW32446   3.843   2.013   1.697
10516SOL    HW132447   3.868   2.109   1.708
10516SOL    HW232448   3.927   1.957   1.691
10517SOL     OW32449   1.213   2.337   2.761
10517SOL    HW132450   1.191   2.343   2.663
10517SOL    HW232451   1.129   2.337   2.814
10518SOL     OW32452   0.594   5.204   2.806
10518SOL    HW132453   0.522   5.260   2.766
10518SOL    HW232454   0.631   5.143   2.736
10519SOL     OW32455   4.159   0.115   1.311
10519SOL    HW132456   4.254   0.135   1.287
10519SOL    HW232457   4.100   0.186   1.273
10520SOL     OW32458   0.680   2.676   5.781
10520SOL    HW132459   0.762   2.722   5.816
10520SOL    HW232460   0.629   2.740   5.723
10521SOL     OW32461   0.001   3.055   2.268
10521SOL    HW132462   0.035   2.971   2.225
10521SOL    HW232463   6.942   3.033   2.326
10522SOL     OW32464   5.097   2.341   3.463
10522SOL    HW132465   5.029   2.411   3.484
10522SOL    HW232466   5.123   2.293   3.546
10523SOL     OW32467   0.991   4.403   3.158
10523SOL    HW132468   0.934   4.339   3.108
10523SOL    HW232469   0.982   4.386   3.256
10524SOL     OW32470   6.985   6.151   5.261
10524SOL    HW132471   7.010   6.141   5.165
10524SOL    HW232472   7.011   6.068   5.311
10525SOL     OW32473   4.890   1.567   3.691
10525SOL    HW132474   4.864   1.556   3.595
10525SOL    HW232475   4.875   1.481   3.740
10526SOL     OW32476   0.800   4.273   0.122
10526SOL    HW132477   0.894   4.241   0.110
10526SOL    HW232478   0.760   4.231   0.203
10527SOL     OW32479   0.459   0.247   5.277
10527SOL    HW132480   0.554   0.239   5.308
10527SOL    HW232481   0.410   0.163   5.300
10528SOL     OW32482   1.632   3.525   5.655
10528SOL    HW132483   1.577   3.560   5.579
10528SOL    HW232484   1.728   3.546   5.640
10529SOL     OW32485   0.181   5.959   1.225
10529SOL    HW132486   0.158   5.991   1.317
10529SOL    HW232487   0.279   5.937   1.221
10530SOL     OW32488   0.037   5.776   1.032
10530SOL    HW132489   0.085   5.839   1.093
10530SOL    HW232490   0.062   5.682   1.056
10531SOL     OW32491   2.885   3.228   5.118
10531SOL    HW132492   2.918   3.202   5.209
10531SOL    HW232493   2.785   3.241   5.122
10532SOL     OW32494   5.121   6.430   6.863
10532SOL    HW132495   5.081   6.454   6.951
10532SOL    HW232496   5.160   6.338   6.869
10533SOL     OW32497   4.233   6.813   2.642
10533SOL    HW132498   4.190   6.734   2.686
10533SOL    HW232499   4.263   6.878   2.712
10534SOL     OW32500   1.298   6.290   4.247
10534SOL    HW132501   1.252   6.213   4.203
10534SOL    HW232502   1.360   6.333   4.181
10535SOL     OW32503   3.575   1.773   2.156
10535SOL    HW132504   3.657   1.787   2.100
10535SOL    HW232505   3.527   1.860   2.166
10536SOL     OW32506   5.057   2.837   4.489
10536SOL    HW132507   5.031   2.845   4.393
10536SOL    HW232508   4.987   2.789   4.540
10537SOL     OW32509   3.861   6.732   4.193
10537SOL    HW132510   3.939   6.746   4.133
10537SOL    HW232511   3.784   6.786   4.161
10538SOL     OW32512   0.572   3.490   2.674
10538SOL    HW132513   0.569   3.590   2.669
10538SOL    HW232514   0.570   3.462   2.770
10539SOL     OW32515   6.118   0.194   3.630
10539SOL    HW132516   6.083   0.219   3.539
10539SOL    HW232517   6.157   0.275   3.674
10540SOL     OW32518   1.854   3.880   6.105
10540SOL    HW132519   1.777   3.830   6.146
10540SOL    HW232520   1.939   3.831   6.123
10541SOL     OW32521   3.583   3.296   4.946
10541SOL    HW132522   3.526   3.375   4.967
10541SOL    HW232523   3.547   3.249   4.865
10542SOL     OW32524   4.646   0.474   4.520
10542SOL    HW132525   4.601   0.388   4.545
10542SOL    HW232526   4.744   0.466   4.534
10543SOL     OW32527   1.424   3.479   5.013
10543SOL    HW132528   1.388   3.455   5.103
10543SOL    HW232529   1.362   3.544   4.969
10544SOL     OW32530   2.586   1.748   3.313
10544SOL    HW132531   2.548   1.793   3.394
10544SOL    HW232532   2.512   1.715   3.255
10545SOL     OW32533   2.239   2.826   2.535
10545SOL    HW132534   2.198   2.834   2.444
10545SOL    HW232535   2.238   2.730   2.563
10546SOL     OW32536   2.996   7.016   6.394
10546SOL    HW132537   2.990   6.947   6.466
10546SOL    HW232538   2.908   0.044   6.387
10547SOL     OW32539   4.272   6.645   5.102
10547SOL    HW132540   4.256   6.609   5.194
10547SOL    HW232541   4.320   6.577   5.047
10548SOL     OW32542   6.624   5.791   3.227
10548SOL    HW132543   6.659   5.795   3.321
10548SOL    HW232544   6.528   5.761   3.228
10549SOL     OW32545   0.065   0.586   1.553
10549SOL    HW132546   0.132   0.660   1.541
10549SOL    HW232547   0.049   0.541   1.465
10550SOL     OW32548   4.482   5.386   3.414
10550SOL    HW132549   4.476   5.288   3.436
10550SOL    HW232550   4.401   5.433   3.447
10551SOL     OW32551   2.589   1.225   5.470
10551SOL    HW132552   2.684   1.241   5.441
10551SOL    HW232553   2.568   1.128   5.462
10552SOL     OW32554   3.025   0.393   3.909
10552SOL    HW132555   2.974   0.394   3.823
10552SOL    HW232556   3.114   0.437   3.895
10553SOL     OW32557   6.824   5.634   1.136
10553SOL    HW132558   6.881   5.559   1.170
10553SOL    HW232559   6.883   5.708   1.105
10554SOL     OW32560   5.847   6.036   2.431
10554SOL    HW132561   5.864   6.032   2.333
10554SOL    HW232562   5.790   6.115   2.452
10555SOL     OW32563   3.930   3.541   1.271
10555SOL    HW132564   3.983   3.537   1.187
10555SOL    HW232565   3.832   3.531   1.250
10556SOL     OW32566   2.152   1.414   2.542
10556SOL    HW132567   2.184   1.358   2.619
10556SOL    HW232568   2.088   1.362   2.487
10557SOL     OW32569   2.814   4.784   3.448
10557SOL    HW132570   2.830   4.798   3.546
10557SOL    HW232571   2.717   4.765   3.433
10558SOL     OW32572   3.589   5.515   5.261
10558SOL    HW132573   3.616   5.423   5.291
10558SOL    HW232574   3.639   5.583   5.314
10559SOL     OW32575   4.111   6.622   0.857
10559SOL    HW132576   4.136   6.586   0.947
10559SOL    HW232577   4.013   6.640   0.854
10560SOL     OW32578   5.616   0.175   2.223
10560SOL    HW132579   5.589   0.271   2.209
10560SOL    HW232580   5.670   0.168   2.307
10561SOL     OW32581   6.438   4.652   0.205
10561SOL    HW132582   6.373   4.714   0.248
10561SOL    HW232583   6.394   4.605   0.129
10562SOL     OW32584   4.285   5.684   2.515
10562SOL    HW132585   4.311   5.679   2.419
10562SOL    HW232586   4.245   5.774   2.534
10563SOL     OW32587   0.417   6.464   2.057
10563SOL    HW132588   0.482   6.509   2.119
10563SOL    HW232589   0.346   6.417   2.111
10564SOL     OW32590   5.110   4.562   3.643
10564SOL    HW132591   5.043   4.607   3.583
10564SOL    HW232592   5.074   4.559   3.736
10565SOL     OW32593   0.510   0.479   6.159
10565SOL    HW132594   0.485   0.385   6.184
10565SOL    HW232595   0.542   0.528   6.240
10566SOL     OW32596   3.463   3.177   0.288
10566SOL    HW132597   3.482   3.176   0.190
10566SOL    HW232598   3.364   3.170   0.303
10567SOL     OW32599   1.479   2.055   6.508
10567SOL    HW132600   1.535   1.978   6.541
10567SOL    HW232601   1.488   2.061   6.409
10568SOL     OW32602   4.546   2.211   6.064
10568SOL    HW132603   4.495   2.128   6.042
10568SOL    HW232604   4.499   2.261   6.136
10569SOL     OW32605   5.608   6.660   0.319
10569SOL    HW132606   5.584   6.677   0.414
10569SOL    HW232607   5.629   6.747   0.274
10570SOL     OW32608   1.288   4.399   3.436
10570SOL    HW132609   1.216   4.398   3.506
10570SOL    HW232610   1.322   4.306   3.421
10571SOL     OW32611   6.697   4.276   5.953
10571SOL    HW132612   6.742   4.249   5.868
10571SOL    HW232613   6.635   4.352   5.935
10572SOL     OW32614   6.168   4.020   0.735
10572SOL    HW132615   6.230   4.097   0.724
10572SOL    HW232616   6.128   3.996   0.647
10573SOL     OW32617   5.976   2.040   3.219
10573SOL    HW132618   5.913   2.031   3.296
10573SOL    HW232619   6.019   1.952   3.200
10574SOL     OW32620   6.344   3.230   2.885
10574SOL    HW132621   6.379   3.299   2.821
10574SOL    HW232622   6.278   3.273   2.947
10575SOL     OW32623   6.281   6.843   1.500
10575SOL    HW132624   6.327   6.857   1.412
10575SOL    HW232625   6.193   6.798   1.485
10576SOL     OW32626   1.761   4.257   4.709
10576SOL    HW132627   1.703   4.224   4.635
10576SOL    HW232628   1.766   4.188   4.781
10577SOL     OW32629   3.643   4.416   0.365
10577SOL    HW132630   3.561   4.460   0.329
10577SOL    HW232631   3.716   4.484   0.372
10578SOL     OW32632   0.412   3.486   4.571
10578SOL    HW132633   0.334   3.514   4.515
10578SOL    HW232634   0.399   3.516   4.665
10579SOL     OW32635   1.069   3.849   6.905
10579SOL    HW132636   1.055   3.922   6.838
10579SOL    HW232637   1.050   3.884   6.997
10580SOL     OW32638   6.180   6.972   0.748
10580SOL    HW132639   6.219   6.988   0.658
10580SOL    HW232640   6.100   6.913   0.740
10581SOL     OW32641   5.159   6.695   3.211
10581SOL    HW132642   5.128   6.641   3.289
10581SOL    HW232643   5.229   6.760   3.242
10582SOL     OW32644   6.090   3.963   6.283
10582SOL    HW132645   6.063   4.022   6.360
10582SOL    HW232646   6.036   3.878   6.286
10583SOL     OW32647   3.041   1.832   4.921
10583SOL    HW132648   2.942   1.814   4.921
10583SOL    HW232649   3.057   1.928   4.899
10584SOL     OW32650   0.943   6.762   4.248
10584SOL    HW132651   0.883   6.716   4.312
10584SOL    HW232652   0.972   6.850   4.286
10585SOL     OW32653   0.932   0.292   5.239
10585SOL    HW132654   1.009   0.339   5.196
10585SOL    HW232655   0.852   0.299   5.180
10586SOL     OW32656   4.123   4.251   5.330
10586SOL    HW132657   4.103   4.161   5.290
10586SOL    HW232658   4.190   4.299   5.273
10587SOL     OW32659   2.373   4.985   5.519
10587SOL    HW132660   2.359   4.888   5.503
10587SOL    HW232661   2.426   4.998   5.602
10588SOL     OW32662   1.073   3.992   3.978
10588SOL    HW132663   0.980   3.988   4.014
10588SOL    HW232664   1.121   4.071   4.016
10589SOL     OW32665   5.606   5.729   4.186
10589SOL    HW132666   5.588   5.789   4.108
10589SOL    HW232667   5.523   5.718   4.240
10590SOL     OW32668   0.956   5.118   2.648
10590SOL    HW132669   0.991   5.160   2.731
10590SOL    HW232670   0.951   5.187   2.575
10591SOL     OW32671   6.849   2.840   1.666
10591SOL    HW132672   6.902   2.812   1.747
10591SOL    HW232673   6.807   2.759   1.625
10592SOL     OW32674   6.453   1.869   5.322
10592SOL    HW132675   6.426   1.888   5.228
10592SOL    HW232676   6.544   1.829   5.323
10593SOL     OW32677   3.161   5.516   3.385
10593SOL    HW132678   3.140   5.606   3.424
10593SOL    HW232679   3.218   5.528   3.304
10594SOL     OW32680   3.081   6.123   3.596
10594SOL    HW132681   3.026   6.166   3.668
10594SOL    HW232682   3.142   6.056   3.637
10595SOL     OW32683   5.011   6.511   0.090
10595SOL    HW132684   4.982   6.605   0.109
10595SOL    HW232685   5.000   6.455   0.172
10596SOL     OW32686   4.969   3.291   0.073
10596SOL    HW132687   5.005   3.214   0.126
10596SOL    HW232688   4.888   3.328   0.118
10597SOL     OW32689   2.041   0.322   5.278
10597SOL    HW132690   1.995   0.408   5.252
10597SOL    HW232691   1.972   0.254   5.304
10598SOL     OW32692   2.965   1.310   6.162
10598SOL    HW132693   2.931   1.364   6.085
10598SOL    HW232694   2.888   1.280   6.218
10599SOL     OW32695   0.215   2.068   0.089
10599SOL    HW132696   0.204   2.121   0.004
10599SOL    HW232697   0.253   2.127   0.160
10600SOL     OW32698   2.605   2.380   1.495
10600SOL    HW132699   2.689   2.339   1.529
10600SOL    HW232700   2.533   2.310   1.492
10601SOL     OW32701   1.307   1.197   5.638
10601SOL    HW132702   1.249   1.117   5.655
10601SOL    HW232703   1.355   1.222   5.721
10602SOL     OW32704   6.841   6.837   1.249
10602SOL    HW132705   6.790   6.860   1.332
10602SOL    HW232706   6.872   6.921   1.204
10603SOL     OW32707   5.492   0.826   2.870
10603SOL    HW132708   5.523   0.832   2.775
10603SOL    HW232709   5.536   0.897   2.925
10604SOL     OW32710   4.829   0.055   4.612
10604SOL    HW132711   4.761   0.026   4.679
10604SOL    HW232712   4.889   6.998   4.589
10605SOL     OW32713   2.253   1.688   1.674
10605SOL    HW132714   2.172   1.717   1.724
10605SOL    HW232715   2.231   1.608   1.618
10606SOL     OW32716   6.056   0.618   0.503
10606SOL    HW132717   6.138   0.622   0.560
10606SOL    HW232718   6.079   0.585   0.412
10607SOL     OW32719   2.932   4.914   6.744
10607SOL    HW132720   2.915   5.012   6.748
10607SOL    HW232721   2.926   4.882   6.650
10608SOL     OW32722   5.702   3.868   3.747
10608SOL    HW132723   5.759   3.791   3.719
10608SOL    HW232724   5.758   3.951   3.750
10609SOL     OW32725   4.916   1.404   6.503
10609SOL    HW132726   4.911   1.396   6.404
10609SOL    HW232727   4.966   1.487   6.528
10610SOL     OW32728   0.386   1.559   3.616
10610SOL    HW132729   0.443   1.501   3.673
10610SOL    HW232730   0.432   1.647   3.602
10611SOL     OW32731   3.946   5.471   4.315
10611SOL    HW132732   3.997   5.541   4.264
10611SOL    HW232733   3.848   5.482   4.299
10612SOL     OW32734   5.895   2.026   3.517
10612SOL    HW132735   5.984   2.030   3.563
10612SOL    HW232736   5.873   2.115   3.478
10613SOL     OW32737   4.236   6.166   4.354
10613SOL    HW132738   4.326   6.162   4.309
10613SOL    HW232739   4.165   6.179   4.285
10614SOL     OW32740   3.824   1.889   6.215
10614SOL    HW132741   3.877   1.972   6.196
10614SOL    HW232742   3.783   1.896   6.306
10615SOL     OW32743   1.991   1.866   5.571
10615SOL    HW132744   1.913   1.921   5.541
10615SOL    HW232745   2.010   1.884   5.667
10616SOL     OW32746   2.386   6.506   7.013
10616SOL    HW132747   2.333   6.484   0.075
10616SOL    HW232748   2.437   6.591   0.008
10617SOL     OW32749   2.080   3.234   1.668
10617SOL    HW132750   2.179   3.227   1.666
10617SOL    HW232751   2.039   3.152   1.628
10618SOL     OW32752   1.454   5.482   3.779
10618SOL    HW132753   1.545   5.481   3.820
10618SOL    HW232754   1.414   5.391   3.784
10619SOL     OW32755   2.196   2.441   2.791
10619SOL    HW132756   2.177   2.477   2.699
10619SOL    HW232757   2.130   2.479   2.856
10620SOL     OW32758   3.126   1.409   6.384
10620SOL    HW132759   3.030   1.398   6.408
10620SOL    HW232760   3.135   1.477   6.311
10621SOL     OW32761   0.678   3.948   3.210
10621SOL    HW132762   0.748   4.012   3.178
10621SOL    HW232763   0.720   3.881   3.271
10622SOL     OW32764   4.588   1.912   0.025
10622SOL    HW132765   4.540   1.998   0.012
10622SOL    HW232766   4.630   1.884   6.958
10623SOL     OW32767   4.856   6.770   6.189
10623SOL    HW132768   4.775   6.802   6.139
10623SOL    HW232769   4.919   6.725   6.125
10624SOL     OW32770   0.545   2.203   0.316
10624SOL    HW132771   0.459   2.254   0.316
10624SOL    HW232772   0.554   2.152   0.231
10625SOL     OW32773   5.295   4.947   0.126
10625SOL    HW132774   5.252   5.011   0.189
10625SOL    HW232775   5.249   4.951   0.037
10626SOL     OW32776   5.221   3.007   1.017
10626SOL    HW132777   5.286   2.977   0.947
10626SOL    HW232778   5.256   2.981   1.108
10627SOL     OW32779   5.521   5.363   5.816
10627SOL    HW132780   5.442   5.304   5.800
10627SOL    HW232781   5.544   5.410   5.730
10628SOL     OW32782   3.872   6.745   0.864
10628SOL    HW132783   3.924   6.829   0.884
10628SOL    HW232784   3.816   6.722   0.943
10629SOL     OW32785   3.338   5.578   4.481
10629SOL    HW132786   3.372   5.583   4.575
10629SOL    HW232787   3.369   5.492   4.439
10630SOL     OW32788   4.044   1.027   1.950
10630SOL    HW132789   4.017   1.061   2.040
10630SOL    HW232790   4.132   1.067   1.925
10631SOL     OW32791   3.655   6.072   0.416
10631SOL    HW132792   3.711   5.995   0.388
10631SOL    HW232793   3.700   6.121   0.491
10632SOL     OW32794   4.896   6.119   3.296
10632SOL    HW132795   4.890   6.026   3.260
10632SOL    HW232796   4.963   6.171   3.242
10633SOL     OW32797   1.472   3.537   0.986
10633SOL    HW132798   1.419   3.548   0.902
10633SOL    HW232799   1.422   3.478   1.050
10634SOL     OW32800   0.654   3.709   6.880
10634SOL    HW132801   0.633   3.766   6.959
10634SOL    HW232802   0.586   3.726   6.808
10635SOL     OW32803   2.271   4.884   6.007
10635SOL    HW132804   2.270   4.963   6.068
10635SOL    HW232805   2.345   4.894   5.941
10636SOL     OW32806   6.999   2.132   6.743
10636SOL    HW132807   6.972   2.037   6.724
10636SOL    HW232808   0.073   2.146   6.709
10637SOL     OW32809   2.750   0.759   0.081
10637SOL    HW132810   2.743   0.678   0.021
10637SOL    HW232811   2.805   0.829   0.036
10638SOL     OW32812   6.115   5.440   1.536
10638SOL    HW132813   6.132   5.439   1.634
10638SOL    HW232814   6.198   5.469   1.488
10639SOL     OW32815   1.110   5.082   1.899
10639SOL    HW132816   1.184   5.148   1.895
10639SOL    HW232817   1.148   4.989   1.896
10640SOL     OW32818   4.324   6.583   3.261
10640SOL    HW132819   4.276   6.496   3.257
10640SOL    HW232820   4.341   6.608   3.356
10641SOL     OW32821   1.481   0.872   3.597
10641SOL    HW132822   1.489   0.791   3.656
10641SOL    HW232823   1.384   0.894   3.585
10642SOL     OW32824   6.460   2.370   6.293
10642SOL    HW132825   6.388   2.397   6.229
10642SOL    HW232826   6.530   2.319   6.243
10643SOL     OW32827   2.457   5.109   5.749
10643SOL    HW132828   2.508   5.093   5.834
10643SOL    HW232829   2.425   5.204   5.746
10644SOL     OW32830   6.502   3.420   2.727
10644SOL    HW132831   6.518   3.517   2.709
10644SOL    HW232832   6.589   3.377   2.754
10645SOL     OW32833   2.510   2.466   3.667
10645SOL    HW132834   2.592   2.409   3.661
10645SOL    HW232835   2.432   2.415   3.631
10646SOL     OW32836   5.707   0.360   3.493
10646SOL    HW132837   5.681   0.337   3.586
10646SOL    HW232838   5.665   0.295   3.429
10647SOL     OW32839   3.304   5.328   4.822
10647SOL    HW132840   3.207   5.339   4.846
10647SOL    HW232841   3.340   5.414   4.786
10648SOL     OW32842   4.794   4.799   5.951
10648SOL    HW132843   4.866   4.772   5.887
10648SOL    HW232844   4.834   4.845   6.029
10649SOL     OW32845   6.679   3.747   2.637
10649SOL    HW132846   6.776   3.770   2.634
10649SOL    HW232847   6.625   3.829   2.614
10650SOL     OW32848   0.385   0.390   3.624
10650SOL    HW132849   0.386   0.489   3.611
10650SOL    HW232850   0.405   0.344   3.537
10651SOL     OW32851   3.916   5.897   5.992
10651SOL    HW132852   4.000   5.950   6.002
10651SOL    HW232853   3.857   5.914   6.070
10652SOL     OW32854   2.241   0.260   6.862
10652SOL    HW132855   2.213   0.325   6.932
10652SOL    HW232856   2.194   0.173   6.877
10653SOL     OW32857   4.312   5.746   3.985
10653SOL    HW132858   4.383   5.676   3.990
10653SOL    HW232859   4.341   5.825   4.039
10654SOL     OW32860   6.097   1.536   4.201
10654SOL    HW132861   6.085   1.597   4.123
10654SOL    HW232862   6.009   1.518   4.243
10655SOL     OW32863   0.145   4.805   1.125
10655SOL    HW132864   0.175   4.900   1.118
10655SOL    HW232865   0.135   4.780   1.222
10656SOL     OW32866   5.961   2.822   3.338
10656SOL    HW132867   5.864   2.804   3.354
10656SOL    HW232868   6.014   2.792   3.417
10657SOL     OW32869   4.837   6.700   4.368
10657SOL    HW132870   4.753   6.711   4.422
10657SOL    HW232871   4.826   6.623   4.305
10658SOL     OW32872   0.958   3.063   4.881
10658SOL    HW132873   1.039   3.033   4.831
10658SOL    HW232874   0.984   3.128   4.952
10659SOL     OW32875   1.197   5.485   0.792
10659SOL    HW132876   1.194   5.544   0.873
10659SOL    HW232877   1.105   5.473   0.755
10660SOL     OW32878   5.838   2.849   5.385
10660SOL    HW132879   5.933   2.857   5.417
10660SOL    HW232880   5.817   2.925   5.324
10661SOL     OW32881   2.116   4.997   5.616
10661SOL    HW132882   2.133   4.936   5.693
10661SOL    HW232883   2.202   5.012   5.566
10662SOL     OW32884   2.477   1.238   2.213
10662SOL    HW132885   2.458   1.263   2.119
10662SOL    HW232886   2.509   1.319   2.263
10663SOL     OW32887   1.429   1.524   3.843
10663SOL    HW132888   1.410   1.512   3.940
10663SOL    HW232889   1.369   1.595   3.805
10664SOL     OW32890   1.071   5.254   4.694
10664SOL    HW132891   1.070   5.189   4.617
10664SOL    HW232892   1.160   5.299   4.697
10665SOL     OW32893   2.376   2.734   6.440
10665SOL    HW132894   2.331   2.820   6.415
10665SOL    HW232895   2.377   2.672   6.361
10666SOL     OW32896   3.449   3.584   1.865
10666SOL    HW132897   3.464   3.645   1.943
10666SOL    HW232898   3.479   3.629   1.782
10667SOL     OW32899   5.316   2.371   3.885
10667SOL    HW132900   5.278   2.426   3.960
10667SOL    HW232901   5.414   2.358   3.899
10668SOL     OW32902   3.414   2.571   5.557
10668SOL    HW132903   3.402   2.524   5.470
10668SOL    HW232904   3.496   2.628   5.553
10669SOL     OW32905   6.260   1.327   1.221
10669SOL    HW132906   6.307   1.414   1.204
10669SOL    HW232907   6.165   1.345   1.244
10670SOL     OW32908   4.929   3.454   4.233
10670SOL    HW132909   5.026   3.464   4.256
10670SOL    HW232910   4.909   3.503   4.148
10671SOL     OW32911   1.462   2.644   4.258
10671SOL    HW132912   1.490   2.660   4.164
10671SOL    HW232913   1.543   2.638   4.317
10672SOL     OW32914   6.066   3.088   1.381
10672SOL    HW132915   6.078   3.078   1.480
10672SOL    HW232916   5.968   3.098   1.361
10673SOL     OW32917   1.841   1.561   1.148
10673SOL    HW132918   1.817   1.499   1.224
10673SOL    HW232919   1.759   1.583   1.096
10674SOL     OW32920   3.606   3.878   3.674
10674SOL    HW132921   3.617   3.950   3.743
10674SOL    HW232922   3.598   3.919   3.583
10675SOL     OW32923   4.023   6.712   5.541
10675SOL    HW132924   4.021   6.812   5.549
10675SOL    HW232925   4.076   6.674   5.617
10676SOL     OW32926   1.738   6.669   5.392
10676SOL    HW132927   1.829   6.708   5.399
10676SOL    HW232928   1.720   6.609   5.470
10677SOL     OW32929   0.511   1.617   0.914
10677SOL    HW132930   0.480   1.644   1.005
10677SOL    HW232931   0.519   1.518   0.910
10678SOL     OW32932   4.107   5.759   3.350
10678SOL    HW132933   4.064   5.682   3.397
10678SOL    HW232934   4.205   5.761   3.372
10679SOL     OW32935   4.202   3.283   6.726
10679SOL    HW132936   4.294   3.268   6.764
10679SOL    HW232937   4.156   3.355   6.777
10680SOL     OW32938   4.165   0.825   4.074
10680SOL    HW132939   4.202   0.866   3.991
10680SOL    HW232940   4.159   0.894   4.146
10681SOL     OW32941   0.906   2.812   5.819
10681SOL    HW132942   0.955   2.885   5.771
10681SOL    HW232943   0.955   2.790   5.904
10682SOL     OW32944   5.290   3.182   6.020
10682SOL    HW132945   5.373   3.222   6.058
10682SOL    HW232946   5.217   3.250   6.020
10683SOL     OW32947   3.276   0.511   3.426
10683SOL    HW132948   3.214   0.567   3.481
10683SOL    HW232949   3.224   0.441   3.377
10684SOL     OW32950   4.406   4.749   1.862
10684SOL    HW132951   4.326   4.690   1.853
10684SOL    HW232952   4.489   4.695   1.853
10685SOL     OW32953   0.739   5.625   1.488
10685SOL    HW132954   0.830   5.606   1.451
10685SOL    HW232955   0.671   5.614   1.415
10686SOL     OW32956   2.464   2.389   6.536
10686SOL    HW132957   2.433   2.431   6.451
10686SOL    HW232958   2.388   2.340   6.578
10687SOL     OW32959   0.898   4.402   3.423
10687SOL    HW132960   0.810   4.390   3.469
10687SOL    HW232961   0.971   4.366   3.480
10688SOL     OW32962   5.708   1.869   2.610
10688SOL    HW132963   5.741   1.875   2.704
10688SOL    HW232964   5.716   1.959   2.566
10689SOL     OW32965   7.018   0.307   2.428
10689SOL    HW132966   0.017   0.317   2.526
10689SOL    HW232967   6.921   0.286   2.414
10690SOL     OW32968   0.166   0.012   3.908
10690SOL    HW132969   0.076   0.053   3.915
10690SOL    HW232970   0.157   6.932   3.903
10691SOL     OW32971   3.564   0.692   2.874
10691SOL    HW132972   3.556   0.729   2.782
10691SOL    HW232973   3.533   0.597   2.875
10692SOL     OW32974   2.015   0.330   4.060
10692SOL    HW132975   2.039   0.358   3.967
10692SOL    HW232976   2.010   0.231   4.065
10693SOL     OW32977   1.368   5.961   0.654
10693SOL    HW132978   1.407   5.985   0.565
10693SOL    HW232979   1.425   5.892   0.697
10694SOL     OW32980   4.544   6.343   5.332
10694SOL    HW132981   4.508   6.435   5.349
10694SOL    HW232982   4.556   6.295   5.419
10695SOL     OW32983   0.134   4.167   1.807
10695SOL    HW132984   0.233   4.164   1.821
10695SOL    HW232985   0.087   4.139   1.891
10696SOL     OW32986   0.148   5.217   4.716
10696SOL    HW132987   0.074   5.158   4.682
10696SOL    HW232988   0.142   5.306   4.672
10697SOL     OW32989   1.679   4.712   6.071
10697SOL    HW132990   1.776   4.721   6.094
10697SOL    HW232991   1.650   4.618   6.086
10698SOL     OW32992   4.127   3.313   0.014
10698SOL    HW132993   4.196   3.275   0.075
10698SOL    HW232994   4.150   3.408   7.012
10699SOL     OW32995   3.311   4.028   0.095
10699SOL    HW132996   3.356   3.990   0.015
10699SOL    HW232997   3.312   4.128   0.090
10700SOL     OW32998   4.966   0.519   0.825
10700SOL    HW132999   4.973   0.541   0.727
10700SOL    HW233000   4.939   0.602   0.875
10701SOL     OW33001   2.782   0.712   6.317
10701SOL    HW133002   2.728   0.772   6.376
10701SOL    HW233003   2.752   0.618   6.330
10702SOL     OW33004   5.354   2.334   2.185
10702SOL    HW133005   5.292   2.360   2.260
10702SOL    HW233006   5.330   2.386   2.103
10703SOL     OW33007   1.434   2.671   6.288
10703SOL    HW133008   1.341   2.693   6.259
10703SOL    HW233009   1.432   2.595   6.353
10704SOL     OW33010   6.434   0.109   1.733
10704SOL    HW133011   6.342   0.072   1.727
10704SOL    HW233012   6.500   0.035   1.743
10705SOL     OW33013   5.787   4.536   0.968
10705SOL    HW133014   5.794   4.470   0.894
10705SOL    HW233015   5.873   4.587   0.976
10706SOL     OW33016   4.940   0.662   2.054
10706SOL    HW133017   4.986   0.640   2.140
10706SOL    HW233018   4.845   0.686   2.072
10707SOL     OW33019   5.833   0.060   4.260
10707SOL    HW133020   5.862   6.987   4.281
10707SOL    HW233021   5.791   0.101   4.341
10708SOL     OW33022   4.168   2.135   2.294
10708SOL    HW133023   4.070   2.126   2.275
10708SOL    HW233024   4.213   2.182   2.219
10709SOL     OW33025   5.949   5.271   4.043
10709SOL    HW133026   6.022   5.322   4.088
10709SOL    HW233027   5.988   5.217   3.968
10710SOL     OW33028   5.749   1.256   3.277
10710SOL    HW133029   5.706   1.288   3.192
10710SOL    HW233030   5.808   1.178   3.256
10711SOL     OW33031   3.748   6.722   1.607
10711SOL    HW133032   3.755   6.818   1.584
10711SOL    HW233033   3.675   6.708   1.673
10712SOL     OW33034   4.585   6.984   2.719
10712SOL    HW133035   4.574   7.009   2.623
10712SOL    HW233036   4.672   7.020   2.753
10713SOL     OW33037   1.465   3.809   1.040
10713SOL    HW133038   1.383   3.812   1.097
10713SOL    HW233039   1.492   3.713   1.028
10714SOL     OW33040   3.988   3.096   3.997
10714SOL    HW133041   3.923   3.021   3.990
10714SOL    HW233042   4.008   3.115   4.093
10715SOL     OW33043   5.819   0.768   1.995
10715SOL    HW133044   5.882   0.712   2.048
10715SOL    HW233045   5.734   0.781   2.046
10716SOL     OW33046   6.516   2.488   2.946
10716SOL    HW133047   6.558   2.459   3.031
10716SOL    HW233048   6.542   2.426   2.872
10717SOL     OW33049   0.847   2.458   0.109
10717SOL    HW133050   0.887   2.370   0.136
10717SOL    HW233051   0.911   2.531   0.132
10718SOL     OW33052   1.397   4.776   5.743
10718SOL    HW133053   1.414   4.678   5.737
10718SOL    HW233054   1.483   4.826   5.728
10719SOL     OW33055   6.560   5.684   4.239
10719SOL    HW133056   6.465   5.658   4.254
10719SOL    HW233057   6.586   5.665   4.145
10720SOL     OW33058   5.780   5.539   4.290
10720SOL    HW133059   5.687   5.550   4.257
10720SOL    HW233060   5.791   5.583   4.379
10721SOL     OW33061   5.048   3.929   5.153
10721SOL    HW133062   5.082   3.836   5.150
10721SOL    HW233063   5.108   3.985   5.211
10722SOL     OW33064   6.993   3.672   6.214
10722SOL    HW133065   0.058   3.681   6.266
10722SOL    HW233066   6.916   3.699   6.271
10723SOL     OW33067   0.141   0.501   0.158
10723SOL    HW133068   0.172   0.583   0.206
10723SOL    HW233069   0.088   0.443   0.220
10724SOL     OW33070   6.831   6.646   0.368
10724SOL    HW133071   6.770   6.568   0.358
10724SOL    HW233072   6.842   6.691   0.279
10725SOL     OW33073   2.525   5.522   5.504
10725SOL    HW133074   2.623   5.516   5.490
10725SOL    HW233075   2.501   5.614   5.537
10726SOL     OW33076   4.978   0.746   4.060
10726SOL    HW133077   4.938   0.688   3.990
10726SOL    HW233078   5.077   0.730   4.064
10727SOL     OW33079   1.235   5.855   6.422
10727SOL    HW133080   1.276   5.945   6.432
10727SOL    HW233081   1.294   5.798   6.365
10728SOL     OW33082   6.631   5.423   0.641
10728SOL    HW133083   6.573   5.343   0.625
10728SOL    HW233084   6.631   5.481   0.560
10729SOL     OW33085   6.611   2.291   1.378
10729SOL    HW133086   6.537   2.358   1.378
10729SOL    HW233087   6.697   2.336   1.355
10730SOL     OW33088   4.006   0.524   1.627
10730SOL    HW133089   3.965   0.614   1.611
10730SOL    HW233090   4.106   0.531   1.620
10731SOL     OW33091   3.863   1.011   0.905
10731SOL    HW133092   3.803   1.091   0.914
10731SOL    HW233093   3.829   0.951   0.833
10732SOL     OW33094   6.966   5.174   5.202
10732SOL    HW133095   6.872   5.151   5.176
10732SOL    HW233096   7.003   5.239   5.136
10733SOL     OW33097   5.930   1.940   6.943
10733SOL    HW133098   5.987   1.857   6.944
10733SOL    HW233099   5.953   1.995   6.863
10734SOL     OW33100   0.792   1.499   1.129
10734SOL    HW133101   0.888   1.487   1.157
10734SOL    HW233102   0.787   1.573   1.062
10735SOL     OW33103   6.925   3.671   2.160
10735SOL    HW133104   6.851   3.607   2.181
10735SOL    HW233105   7.013   3.623   2.164
10736SOL     OW33106   2.621   6.915   4.334
10736SOL    HW133107   2.531   6.913   4.291
10736SOL    HW233108   2.632   7.002   4.383
10737SOL     OW33109   0.203   2.278   1.621
10737SOL    HW133110   0.250   2.205   1.571
10737SOL    HW233111   0.198   2.360   1.564
10738SOL     OW33112   4.032   6.795   3.047
10738SOL    HW133113   4.090   6.847   3.109
10738SOL    HW233114   3.958   6.853   3.014
10739SOL     OW33115   1.574   2.553   1.785
10739SOL    HW133116   1.529   2.529   1.871
10739SOL    HW233117   1.550   2.647   1.759
10740SOL     OW33118   5.454   4.908   5.133
10740SOL    HW133119   5.384   4.894   5.063
10740SOL    HW233120   5.543   4.921   5.090
10741SOL     OW33121   3.407   0.632   2.284
10741SOL    HW133122   3.355   0.623   2.198
10741SOL    HW233123   3.430   0.541   2.318
10742SOL     OW33124   5.824   5.111   1.360
10742SOL    HW133125   5.884   5.152   1.429
10742SOL    HW233126   5.878   5.089   1.279
10743SOL     OW33127   2.061   2.292   3.911
10743SOL    HW133128   2.090   2.312   3.817
10743SOL    HW233129   2.048   2.377   3.961
10744SOL     OW33130   3.346   1.822   1.192
10744SOL    HW133131   3.395   1.863   1.115
10744SOL    HW233132   3.413   1.779   1.253
10745SOL     OW33133   6.738   6.150   5.931
10745SOL    HW133134   6.685   6.234   5.938
10745SOL    HW233135   6.788   6.149   5.845
10746SOL     OW33136   1.011   3.595   5.417
10746SOL    HW133137   0.985   3.690   5.436
10746SOL    HW233138   1.071   3.562   5.489
10747SOL     OW33139   2.987   0.948   4.612
10747SOL    HW133140   2.930   0.909   4.539
10747SOL    HW233141   3.084   0.940   4.587
10748SOL     OW33142   5.643   1.328   2.311
10748SOL    HW133143   5.590   1.413   2.308
10748SOL    HW233144   5.633   1.279   2.224
10749SOL     OW33145   0.917   6.527   5.088
10749SOL    HW133146   0.835   6.584   5.085
10749SOL    HW233147   0.951   6.522   5.182
10750SOL     OW33148   3.794   0.607   5.105
10750SOL    HW133149   3.774   0.671   5.032
10750SOL    HW233150   3.745   0.633   5.188
10751SOL     OW33151   2.352   4.860   3.911
10751SOL    HW133152   2.408   4.777   3.918
10751SOL    HW233153   2.409   4.940   3.930
10752SOL     OW33154   5.119   4.915   5.073
10752SOL    HW133155   5.056   4.992   5.081
10752SOL    HW233156   5.152   4.888   5.163
10753SOL     OW33157   0.147   3.261   3.832
10753SOL    HW133158   0.194   3.175   3.853
10753SOL    HW233159   0.198   3.338   3.871
10754SOL     OW33160   0.948   0.153   3.004
10754SOL    HW133161   0.979   0.204   2.924
10754SOL    HW233162   0.920   0.061   2.976
10755SOL     OW33163   6.630   0.138   2.178
10755SOL    HW133164   6.721   0.142   2.136
10755SOL    HW233165   6.564   0.186   2.119
10756SOL     OW33166   6.508   5.582   5.447
10756SOL    HW133167   6.466   5.525   5.376
10756SOL    HW233168   6.600   5.610   5.417
10757SOL     OW33169   1.792   2.534   0.259
10757SOL    HW133170   1.773   2.500   0.167
10757SOL    HW233171   1.890   2.549   0.271
10758SOL     OW33172   0.172   6.410   3.514
10758SOL    HW133173   0.261   6.389   3.473
10758SOL    HW233174   0.179   6.405   3.613
10759SOL     OW33175   0.552   3.183   0.649
10759SOL    HW133176   0.601   3.247   0.590
10759SOL    HW233177   0.457   3.212   0.657
10760SOL     OW33178   5.810   0.960   3.794
10760SOL    HW133179   5.764   1.046   3.771
10760SOL    HW233180   5.765   0.885   3.745
10761SOL     OW33181   1.804   5.018   6.272
10761SOL    HW133182   1.719   5.014   6.218
10761SOL    HW233183   1.882   5.000   6.213
10762SOL     OW33184   2.649   0.351   5.015
10762SOL    HW133185   2.592   0.374   4.936
10762SOL    HW233186   2.745   0.346   4.987
10763SOL     OW33187   3.758   0.725   3.799
10763SOL    HW133188   3.805   0.726   3.887
10763SOL    HW233189   3.823   0.703   3.727
10764SOL     OW33190   4.513   1.347   4.265
10764SOL    HW133191   4.551   1.332   4.173
10764SOL    HW233192   4.504   1.445   4.282
10765SOL     OW33193   4.900   2.992   1.089
10765SOL    HW133194   4.907   3.062   1.159
10765SOL    HW233195   4.976   3.002   1.024
10766SOL     OW33196   3.818   4.074   0.906
10766SOL    HW133197   3.885   4.147   0.924
10766SOL    HW233198   3.726   4.113   0.904
10767SOL     OW33199   2.283   0.030   1.343
10767SOL    HW133200   2.187   0.017   1.318
10767SOL    HW233201   2.322   0.104   1.288
10768SOL     OW33202   6.682   4.885   0.933
10768SOL    HW133203   6.707   4.795   0.897
10768SOL    HW233204   6.750   4.952   0.904
10769SOL     OW33205   2.191   3.432   6.184
10769SOL    HW133206   2.231   3.515   6.224
10769SOL    HW233207   2.141   3.456   6.101
10770SOL     OW33208   4.700   5.639   3.029
10770SOL    HW133209   4.617   5.661   2.978
10770SOL    HW233210   4.681   5.566   3.094
10771SOL     OW33211   3.362   0.070   3.822
10771SOL    HW133212   3.313   0.025   3.897
10771SOL    HW233213   3.331   0.032   3.735
10772SOL     OW33214   6.623   5.471   4.418
10772SOL    HW133215   6.542   5.413   4.424
10772SOL    HW233216   6.605   5.547   4.355
10773SOL     OW33217   5.465   4.548   4.669
10773SOL    HW133218   5.472   4.449   4.682
10773SOL    HW233219   5.551   4.583   4.631
10774SOL     OW33220   1.557   1.208   4.070
10774SOL    HW133221   1.566   1.222   3.971
10774SOL    HW233222   1.542   1.295   4.115
10775SOL     OW33223   1.090   4.209   1.717
10775SOL    HW133224   1.087   4.299   1.761
10775SOL    HW233225   1.055   4.140   1.780
10776SOL     OW33226   2.112   1.130   6.256
10776SOL    HW133227   2.113   1.045   6.202
10776SOL    HW233228   2.145   1.111   6.348
10777SOL     OW33229   3.443   5.130   1.356
10777SOL    HW133230   3.389   5.161   1.434
10777SOL    HW233231   3.537   5.165   1.364
10778SOL     OW33232   5.332   6.371   3.987
10778SOL    HW133233   5.333   6.418   3.898
10778SOL    HW233234   5.314   6.273   3.972
10779SOL     OW33235   6.135   2.759   3.547
10779SOL    HW133236   6.153   2.662   3.563
10779SOL    HW233237   6.205   2.813   3.595
10780SOL     OW33238   1.182   1.076   3.316
10780SOL    HW133239   1.200   1.088   3.218
10780SOL    HW233240   1.150   0.983   3.333
10781SOL     OW33241   4.019   0.059   4.188
10781SOL    HW133242   3.932   0.025   4.154
10781SOL    HW233243   4.029   0.155   4.165
10782SOL     OW33244   5.918   6.551   4.421
10782SOL    HW133245   5.909   6.493   4.340
10782SOL    HW233246   5.972   6.503   4.490
10783SOL     OW33247   6.750   2.654   3.391
10783SOL    HW133248   6.749   2.749   3.359
10783SOL    HW233249   6.710   2.649   3.482
10784SOL     OW33250   2.746   1.128   4.240
10784SOL    HW133251   2.655   1.100   4.270
10784SOL    HW233252   2.806   1.139   4.320
10785SOL     OW33253   0.576   4.014   6.931
10785SOL    HW133254   0.666   4.058   6.923
10785SOL    HW233255   0.570   3.965   7.017
10786SOL     OW33256   6.345   6.043   2.735
10786SOL    HW133257   6.395   5.959   2.755
10786SOL    HW233258   6.329   6.094   2.819
10787SOL     OW33259   0.450   1.147   5.192
10787SOL    HW133260   0.384   1.179   5.123
10787SOL    HW233261   0.493   1.063   5.161
10788SOL     OW33262   0.372   4.122   6.767
10788SOL    HW133263   0.451   4.097   6.824
10788SOL    HW233264   0.304   4.049   6.771
10789SOL     OW33265   6.893   2.417   7.010
10789SOL    HW133266   6.940   2.333   0.015
10789SOL    HW233267   6.854   2.408   6.918
10790SOL     OW33268   0.314   6.768   1.679
10790SOL    HW133269   0.363   6.852   1.655
10790SOL    HW233270   0.270   6.730   1.597
10791SOL     OW33271   6.137   6.082   2.302
10791SOL    HW133272   6.042   6.103   2.281
10791SOL    HW233273   6.195   6.109   2.225
10792SOL     OW33274   3.952   3.697   5.259
10792SOL    HW133275   3.856   3.700   5.288
10792SOL    HW233276   4.011   3.689   5.339
10793SOL     OW33277   5.827   3.244   5.386
10793SOL    HW133278   5.764   3.186   5.438
10793SOL    HW233279   5.904   3.270   5.444
10794SOL     OW33280   3.269   3.449   3.864
10794SOL    HW133281   3.274   3.451   3.964
10794SOL    HW233282   3.325   3.522   3.827
10795SOL     OW33283   1.034   4.394   2.779
10795SOL    HW133284   1.006   4.466   2.842
10795SOL    HW233285   0.969   4.389   2.703
10796SOL     OW33286   0.602   6.273   5.334
10796SOL    HW133287   0.646   6.185   5.318
10796SOL    HW233288   0.586   6.318   5.246
10797SOL     OW33289   4.100   3.129   0.336
10797SOL    HW133290   4.180   3.159   0.284
10797SOL    HW233291   4.024   3.192   0.318
10798SOL     OW33292   1.579   1.273   1.507
10798SOL    HW133293   1.490   1.315   1.491
10798SOL    HW233294   1.568   1.195   1.570
10799SOL     OW33295   4.024   0.580   2.807
10799SOL    HW133296   3.978   0.495   2.780
10799SOL    HW233297   4.074   0.616   2.729
10800SOL     OW33298   0.937   6.332   0.377
10800SOL    HW133299   0.844   6.344   0.412
10800SOL    HW233300   0.940   6.253   0.316
10801SOL     OW33301   1.507   0.554   0.331
10801SOL    HW133302   1.595   0.601   0.329
10801SOL    HW233303   1.442   0.606   0.387
10802SOL     OW33304   6.061   6.297   3.480
10802SOL    HW133305   6.074   6.218   3.420
10802SOL    HW233306   5.983   6.351   3.447
10803SOL     OW33307   1.366   5.707   6.729
10803SOL    HW133308   1.447   5.746   6.686
10803SOL    HW233309   1.304   5.673   6.658
10804SOL     OW33310   0.519   3.196   3.809
10804SOL    HW133311   0.507   3.269   3.876
10804SOL    HW233312   0.578   3.125   3.849
10805SOL     OW33313   6.017   0.833   5.072
10805SOL    HW133314   6.018   0.917   5.018
10805SOL    HW233315   6.070   0.846   5.155
10806SOL     OW33316   2.623   4.806   6.994
10806SOL    HW133317   2.650   4.712   7.016
10806SOL    HW233318   2.533   4.825   0.015
10807SOL     OW33319   2.706   6.076   3.918
10807SOL    HW133320   2.681   5.994   3.866
10807SOL    HW233321   2.623   6.128   3.940
10808SOL     OW33322   6.975   2.122   5.917
10808SOL    HW133323   6.990   2.209   5.964
10808SOL    HW233324   0.041   2.072   5.910
10809SOL     OW33325   2.444   5.334   4.445
10809SOL    HW133326   2.414   5.421   4.406
10809SOL    HW233327   2.512   5.292   4.385
10810SOL     OW33328   0.462   0.458   4.457
10810SOL    HW133329   0.501   0.460   4.549
10810SOL    HW233330   0.528   0.415   4.394
10811SOL     OW33331   4.960   5.617   4.987
10811SOL    HW133332   4.868   5.598   5.019
10811SOL    HW233333   4.967   5.714   4.961
10812SOL     OW33334   0.525   3.238   6.727
10812SOL    HW133335   0.499   3.180   6.650
10812SOL    HW233336   0.578   3.185   6.793
10813SOL     OW33337   0.456   3.718   6.238
10813SOL    HW133338   0.467   3.642   6.174
10813SOL    HW233339   0.429   3.800   6.187
10814SOL     OW33340   2.378   0.546   0.160
10814SOL    HW133341   2.339   0.459   0.189
10814SOL    HW233342   2.374   0.553   0.060
10815SOL     OW33343   5.237   0.685   4.093
10815SOL    HW133344   5.260   0.716   4.001
10815SOL    HW233345   5.291   0.736   4.160
10816SOL     OW33346   3.533   2.910   3.710
10816SOL    HW133347   3.497   2.946   3.623
10816SOL    HW233348   3.601   2.840   3.691
10817SOL     OW33349   2.629   0.022   2.772
10817SOL    HW133350   2.684   6.960   2.755
10817SOL    HW233351   2.690   0.101   2.782
10818SOL     OW33352   4.554   4.967   5.880
10818SOL    HW133353   4.629   4.913   5.918
10818SOL    HW233354   4.546   4.950   5.782
10819SOL     OW33355   0.118   5.516   6.522
10819SOL    HW133356   0.052   5.590   6.508
10819SOL    HW233357   0.201   5.535   6.470
10820SOL     OW33358   1.568   5.013   5.679
10820SOL    HW133359   1.627   4.937   5.705
10820SOL    HW233360   1.608   5.060   5.600
10821SOL     OW33361   4.932   5.078   2.705
10821SOL    HW133362   4.963   4.990   2.669
10821SOL    HW233363   4.838   5.069   2.739
10822SOL     OW33364   5.666   2.746   0.403
10822SOL    HW133365   5.675   2.690   0.485
10822SOL    HW233366   5.683   2.842   0.425
10823SOL     OW33367   6.420   6.481   3.300
10823SOL    HW133368   6.436   6.524   3.389
10823SOL    HW233369   6.508   6.461   3.257
10824SOL     OW33370   1.189   1.481   4.478
10824SOL    HW133371   1.120   1.537   4.433
10824SOL    HW233372   1.195   1.506   4.575
10825SOL     OW33373   1.512   1.985   0.914
10825SOL    HW133374   1.602   1.941   0.908
10825SOL    HW233375   1.522   2.082   0.894
10826SOL     OW33376   1.422   2.162   2.725
10826SOL    HW133377   1.495   2.198   2.668
10826SOL    HW233378   1.363   2.237   2.756
10827SOL     OW33379   6.617   3.255   5.343
10827SOL    HW133380   6.622   3.238   5.245
10827SOL    HW233381   6.671   3.186   5.392
10828SOL     OW33382   6.387   3.962   6.329
10828SOL    HW133383   6.485   3.951   6.311
10828SOL    HW233384   6.336   3.891   6.280
10829SOL     OW33385   4.277   3.595   5.723
10829SOL    HW133386   4.329   3.652   5.659
10829SOL    HW233387   4.280   3.500   5.693
10830SOL     OW33388   5.050   1.243   3.527
10830SOL    HW133389   5.122   1.292   3.478
10830SOL    HW233390   5.081   1.151   3.549
10831SOL     OW33391   3.869   1.116   2.510
10831SOL    HW133392   3.777   1.152   2.497
10831SOL    HW233393   3.867   1.045   2.581
10832SOL     OW33394   6.681   3.295   0.290
10832SOL    HW133395   6.731   3.215   0.323
10832SOL    HW233396   6.720   3.378   0.330
10833SOL     OW33397   0.559   0.765   0.592
10833SOL    HW133398   0.534   0.765   0.688
10833SOL    HW233399   0.642   0.819   0.578
10834SOL     OW33400   6.449   6.704   0.568
10834SOL    HW133401   6.547   6.722   0.569
10834SOL    HW233402   6.401   6.788   0.541
10835SOL     OW33403   6.613   2.764   5.621
10835SOL    HW133404   6.680   2.833   5.648
10835SOL    HW233405   6.625   2.682   5.676
10836SOL     OW33406   0.120   2.082   3.446
10836SOL    HW133407   0.204   2.133   3.430
10836SOL    HW233408   0.091   2.092   3.541
10837SOL     OW33409   0.098   4.081   2.758
10837SOL    HW133410   0.030   4.052   2.824
10837SOL    HW233411   0.188   4.045   2.784
10838SOL     OW33412   6.012   5.559   3.867
10838SOL    HW133413   5.959   5.616   3.929
10838SOL    HW233414   6.091   5.610   3.834
10839SOL     OW33415   4.791   3.942   0.324
10839SOL    HW133416   4.693   3.948   0.307
10839SOL    HW233417   4.841   3.963   0.239
10840SOL     OW33418   3.017   0.358   0.857
10840SOL    HW133419   3.058   0.278   0.901
10840SOL    HW233420   2.930   0.332   0.814
10841SOL     OW33421   1.047   4.602   4.552
10841SOL    HW133422   1.047   4.597   4.652
10841SOL    HW233423   0.973   4.661   4.521
10842SOL     OW33424   5.007   4.074   1.056
10842SOL    HW133425   4.993   4.164   1.014
10842SOL    HW233426   5.093   4.035   1.021
10843SOL     OW33427   1.633   2.310   1.223
10843SOL    HW133428   1.610   2.212   1.216
10843SOL    HW233429   1.732   2.321   1.224
10844SOL     OW33430   1.021   5.576   5.360
10844SOL    HW133431   1.033   5.555   5.457
10844SOL    HW233432   1.111   5.587   5.316
10845SOL     OW33433   4.382   6.447   4.970
10845SOL    HW133434   4.307   6.389   4.940
10845SOL    HW233435   4.464   6.392   4.987
10846SOL     OW33436   5.350   0.269   0.594
10846SOL    HW133437   5.409   0.343   0.626
10846SOL    HW233438   5.328   0.283   0.497
10847SOL     OW33439   1.916   1.833   0.398
10847SOL    HW133440   1.908   1.930   0.419
10847SOL    HW233441   1.849   1.808   0.328
10848SOL     OW33442   2.006   4.500   1.087
10848SOL    HW133443   2.093   4.532   1.126
10848SOL    HW233444   2.024   4.454   1.000
10849SOL     OW33445   2.523   6.259   4.044
10849SOL    HW133446   2.566   6.245   4.133
10849SOL    HW233447   2.427   6.285   4.056
10850SOL     OW33448   3.738   6.724   0.367
10850SOL    HW133449   3.719   6.697   0.461
10850SOL    HW233450   3.745   6.824   0.362
10851SOL     OW33451   2.540   5.071   1.963
10851SOL    HW133452   2.504   4.979   1.972
10851SOL    HW233453   2.633   5.075   2.001
10852SOL     OW33454   1.886   1.824   1.264
10852SOL    HW133455   1.923   1.755   1.203
10852SOL    HW233456   1.832   1.780   1.336
10853SOL     OW33457   2.396   1.968   6.564
10853SOL    HW133458   2.445   1.938   6.483
10853SOL    HW233459   2.313   2.018   6.537
10854SOL     OW33460   4.127   6.295   5.335
10854SOL    HW133461   4.178   6.230   5.279
10854SOL    HW233462   4.175   6.383   5.336
10855SOL     OW33463   2.971   1.041   0.667
10855SOL    HW133464   3.028   1.066   0.745
10855SOL    HW233465   2.961   0.942   0.662
10856SOL     OW33466   6.942   0.906   0.026
10856SOL    HW133467   6.950   0.934   6.950
10856SOL    HW233468   6.950   0.807   0.033
10857SOL     OW33469   6.180   1.432   2.692
10857SOL    HW133470   6.229   1.405   2.610
10857SOL    HW233471   6.134   1.519   2.677
10858SOL     OW33472   2.376   5.660   1.429
10858SOL    HW133473   2.433   5.739   1.454
10858SOL    HW233474   2.290   5.664   1.480
10859SOL     OW33475   0.928   5.913   3.926
10859SOL    HW133476   0.930   6.002   3.879
10859SOL    HW233477   0.913   5.928   4.024
10860SOL     OW33478   0.163   2.613   2.781
10860SOL    HW133479   0.112   2.545   2.835
10860SOL    HW233480   0.244   2.641   2.832
10861SOL     OW33481   3.743   2.988   4.393
10861SOL    HW133482   3.824   3.045   4.411
10861SOL    HW233483   3.737   2.968   4.295
10862SOL     OW33484   1.519   0.090   4.957
10862SOL    HW133485   1.555   7.017   4.945
10862SOL    HW233486   1.519   0.137   4.868
10863SOL     OW33487   3.239   5.735   4.792
10863SOL    HW133488   3.325   5.688   4.811
10863SOL    HW233489   3.163   5.680   4.827
10864SOL     OW33490   3.429   6.424   2.813
10864SOL    HW133491   3.460   6.329   2.825
10864SOL    HW233492   3.432   6.470   2.902
10865SOL     OW33493   6.524   2.103   6.175
10865SOL    HW133494   6.620   2.075   6.163
10865SOL    HW233495   6.494   2.077   6.267
10866SOL     OW33496   5.481   4.529   0.269
10866SOL    HW133497   5.466   4.532   0.171
10866SOL    HW233498   5.395   4.543   0.317
10867SOL     OW33499   3.214   3.220   0.582
10867SOL    HW133500   3.228   3.145   0.647
10867SOL    HW233501   3.208   3.182   0.490
10868SOL     OW33502   3.213   1.778   3.139
10868SOL    HW133503   3.206   1.736   3.230
10868SOL    HW233504   3.148   1.853   3.132
10869NA      NA33505   6.111   2.077   5.596
10870NA      NA33506   4.374   4.597   5.250
10871NA      NA33507   2.292   3.606   1.500
10872NA      NA33508   4.811   3.901   5.102
10873NA      NA33509   4.184   2.334   5.276
10874NA      NA33510   3.711   4.627   1.529
10875NA      NA33511   6.344   5.749   5.562
10876NA      NA33512   3.921   3.546   5.098
10877NA      NA33513   4.713   6.458   6.806
10878NA      NA33514   3.550   0.010   5.639
10879NA      NA33515   6.459   4.836   2.155
10880NA      NA33516   2.296   0.543   3.083
10881NA      NA33517   3.257   4.793   1.035
10882NA      NA33518   3.366   3.616   2.665
   7.01980   7.01980   7.01980
