Generated by trjconv : CNT in water t= 419.00000
33518
    1C        C    1   2.845   2.770   4.746
    1C        C    2   2.898   2.721   4.867
    1C        C    3   2.849   2.777   4.985
    1C        C    4   2.854   2.775   4.260
    1C        C    5   2.907   2.728   4.382
    1C        C    6   2.851   2.773   4.504
    1C        C    7   3.014   2.638   4.625
    1C        C    8   2.899   2.719   4.625
    1C        C    9   3.079   2.606   4.747
    1C        C   10   3.010   2.635   4.866
    1C        C   11   3.180   2.489   4.976
    1C        C   12   3.059   2.558   4.974
    1C        C   13   2.853   2.768   3.771
    1C        C   14   2.900   2.717   3.894
    1C        C   15   2.854   2.772   4.015
    1C        C   16   3.017   2.639   4.139
    1C        C   17   2.902   2.721   4.138
    1C        C   18   3.083   2.606   4.260
    1C        C   19   3.021   2.645   4.381
    1C        C   20   3.210   2.553   4.505
    1C        C   21   3.081   2.611   4.504
    1C        C   22   3.278   2.527   4.626
    1C        C   23   3.212   2.554   4.748
    1C        C   24   3.413   2.484   4.867
    1C        C   25   3.272   2.505   4.867
    1C        C   26   3.491   2.475   4.983
    1C        C   27   2.853   2.769   3.284
    1C        C   28   2.907   2.720   3.405
    1C        C   29   2.855   2.770   3.526
    1C        C   30   3.018   2.635   3.651
    1C        C   31   2.906   2.721   3.649
    1C        C   32   3.076   2.599   3.774
    1C        C   33   3.011   2.630   3.896
    1C        C   34   3.207   2.546   4.018
    1C        C   35   3.075   2.597   4.018
    1C        C   36   3.277   2.523   4.138
    1C        C   37   3.211   2.546   4.261
    1C        C   38   3.417   2.502   4.383
    1C        C   39   3.278   2.526   4.384
    1C        C   40   3.488   2.496   4.505
    1C        C   41   3.416   2.500   4.627
    1C        C   42   3.631   2.483   4.746
    1C        C   43   3.489   2.482   4.746
    1C        C   44   3.708   2.487   4.864
    1C        C   45   3.630   2.469   4.979
    1C        C   46   2.838   2.752   2.796
    1C        C   47   2.890   2.705   2.919
    1C        C   48   2.838   2.757   3.039
    1C        C   49   3.016   2.639   3.159
    1C        C   50   2.898   2.716   3.161
    1C        C   51   3.078   2.604   3.281
    1C        C   52   3.020   2.635   3.406
    1C        C   53   3.206   2.537   3.527
    1C        C   54   3.079   2.598   3.529
    1C        C   55   3.274   2.520   3.650
    1C        C   56   3.206   2.544   3.772
    1C        C   57   3.413   2.505   3.895
    1C        C   58   3.274   2.526   3.895
    1C        C   59   3.486   2.501   4.016
    1C        C   60   3.416   2.498   4.139
    1C        C   61   3.629   2.499   4.261
    1C        C   62   3.487   2.496   4.260
    1C        C   63   3.700   2.511   4.382
    1C        C   64   3.629   2.504   4.504
    1C        C   65   3.837   2.545   4.621
    1C        C   66   3.701   2.506   4.625
    1C        C   67   3.898   2.570   4.746
    1C        C   68   3.845   2.522   4.868
    1C        C   69   4.057   2.578   4.975
    1C        C   70   3.930   2.520   4.979
    1C        C   71   2.821   2.735   2.308
    1C        C   72   2.882   2.694   2.429
    1C        C   73   2.831   2.744   2.550
    1C        C   74   3.006   2.626   2.672
    1C        C   75   2.890   2.706   2.673
    1C        C   76   3.068   2.589   2.794
    1C        C   77   3.007   2.626   2.916
    1C        C   78   3.203   2.540   3.036
    1C        C   79   3.073   2.596   3.037
    1C        C   80   3.272   2.522   3.158
    1C        C   81   3.207   2.546   3.281
    1C        C   82   3.413   2.506   3.403
    1C        C   83   3.272   2.521   3.403
    1C        C   84   3.482   2.498   3.526
    1C        C   85   3.414   2.502   3.650
    1C        C   86   3.625   2.501   3.771
    1C        C   87   3.484   2.497   3.773
    1C        C   88   3.696   2.515   3.892
    1C        C   89   3.627   2.512   4.015
    1C        C   90   3.832   2.553   4.136
    1C        C   91   3.697   2.513   4.138
    1C        C   92   3.898   2.583   4.257
    1C        C   93   3.835   2.554   4.380
    1C        C   94   4.030   2.640   4.502
    1C        C   95   3.905   2.573   4.501
    1C        C   96   4.089   2.674   4.625
    1C        C   97   4.027   2.630   4.744
    1C        C   98   4.190   2.768   4.868
    1C        C   99   4.097   2.658   4.864
    1C        C  100   4.227   2.838   4.983
    1C        C  101   2.817   2.730   2.071
    1C        C  102   2.986   2.590   2.191
    1C        C  103   2.874   2.679   2.189
    1C        C  104   3.061   2.574   2.310
    1C        C  105   3.003   2.621   2.430
    1C        C  106   3.199   2.535   2.552
    1C        C  107   3.069   2.591   2.551
    1C        C  108   3.270   2.518   2.673
    1C        C  109   3.198   2.534   2.794
    1C        C  110   3.409   2.494   2.918
    1C        C  111   3.269   2.512   2.914
    1C        C  112   3.483   2.494   3.038
    1C        C  113   3.412   2.501   3.160
    1C        C  114   3.626   2.501   3.282
    1C        C  115   3.484   2.501   3.282
    1C        C  116   3.697   2.512   3.404
    1C        C  117   3.623   2.506   3.524
    1C        C  118   3.830   2.544   3.646
    1C        C  119   3.692   2.516   3.647
    1C        C  120   3.896   2.574   3.768
    1C        C  121   3.832   2.553   3.892
    1C        C  122   4.024   2.644   4.015
    1C        C  123   3.899   2.578   4.014
    1C        C  124   4.088   2.677   4.137
    1C        C  125   4.024   2.647   4.259
    1C        C  126   4.200   2.767   4.380
    1C        C  127   4.090   2.678   4.380
    1C        C  128   4.243   2.819   4.504
    1C        C  129   4.195   2.768   4.626
    1C        C  130   4.325   2.938   4.740
    1C        C  131   4.242   2.823   4.748
    1C        C  132   4.357   3.004   4.861
    1C        C  133   4.294   2.960   4.978
    1C        C  134   3.173   2.472   2.083
    1C        C  135   3.038   2.510   2.084
    1C        C  136   3.259   2.480   2.194
    1C        C  137   3.193   2.521   2.312
    1C        C  138   3.405   2.481   2.431
    1C        C  139   3.266   2.504   2.432
    1C        C  140   3.480   2.484   2.551
    1C        C  141   3.409   2.494   2.673
    1C        C  142   3.620   2.499   2.794
    1C        C  143   3.479   2.490   2.795
    1C        C  144   3.692   2.513   2.914
    1C        C  145   3.624   2.499   3.037
    1C        C  146   3.830   2.546   3.157
    1C        C  147   3.695   2.505   3.159
    1C        C  148   3.899   2.571   3.278
    1C        C  149   3.833   2.549   3.401
    1C        C  150   4.025   2.631   3.525
    1C        C  151   3.899   2.566   3.525
    1C        C  152   4.079   2.678   3.647
    1C        C  153   4.019   2.643   3.770
    1C        C  154   4.188   2.774   3.887
    1C        C  155   4.078   2.685   3.891
    1C        C  156   4.244   2.814   4.010
    1C        C  157   4.198   2.766   4.135
    1C        C  158   4.336   2.927   4.254
    1C        C  159   4.250   2.815   4.257
    1C        C  160   4.370   2.990   4.376
    1C        C  161   4.328   2.932   4.498
    1C        C  162   4.442   3.115   4.619
    1C        C  163   4.371   2.992   4.618
    1C        C  164   4.470   3.184   4.738
    1C        C  165   4.432   3.124   4.860
    1C        C  166   4.515   3.324   4.976
    1C        C  167   4.476   3.191   4.975
    1C        C  168   3.475   2.435   2.077
    1C        C  169   3.398   2.459   2.192
    1C        C  170   3.619   2.465   2.308
    1C        C  171   3.476   2.465   2.309
    1C        C  172   3.693   2.487   2.427
    1C        C  173   3.621   2.488   2.548
    1C        C  174   3.825   2.544   2.668
    1C        C  175   3.689   2.508   2.671
    1C        C  176   3.894   2.568   2.789
    1C        C  177   3.830   2.545   2.913
    1C        C  178   4.024   2.630   3.033
    1C        C  179   3.897   2.570   3.035
    1C        C  180   4.085   2.667   3.156
    1C        C  181   4.027   2.632   3.280
    1C        C  182   4.197   2.754   3.399
    1C        C  183   4.085   2.668   3.403
    1C        C  184   4.246   2.808   3.521
    1C        C  185   4.191   2.763   3.643
    1C        C  186   4.340   2.918   3.763
    1C        C  187   4.244   2.815   3.764
    1C        C  188   4.378   2.978   3.885
    1C        C  189   4.335   2.922   4.007
    1C        C  190   4.441   3.106   4.131
    1C        C  191   4.372   2.983   4.129
    1C        C  192   4.468   3.174   4.252
    1C        C  193   4.440   3.113   4.376
    1C        C  194   4.508   3.316   4.493
    1C        C  195   4.466   3.181   4.497
    1C        C  196   4.520   3.390   4.613
    1C        C  197   4.508   3.321   4.736
    1C        C  198   4.559   3.535   4.852
    1C        C  199   4.530   3.395   4.856
    1C        C  200   4.579   3.620   4.965
    1C        C  201   3.615   2.423   2.074
    1C        C  202   3.828   2.509   2.183
    1C        C  203   3.693   2.464   2.187
    1C        C  204   3.900   2.540   2.302
    1C        C  205   3.829   2.525   2.423
    1C        C  206   4.019   2.622   2.543
    1C        C  207   3.892   2.559   2.545
    1C        C  208   4.080   2.661   2.664
    1C        C  209   4.023   2.626   2.789
    1C        C  210   4.198   2.749   2.908
    1C        C  211   4.085   2.665   2.910
    1C        C  212   4.247   2.801   3.030
    1C        C  213   4.195   2.755   3.153
    1C        C  214   4.333   2.914   3.274
    1C        C  215   4.245   2.803   3.276
    1C        C  216   4.376   2.974   3.395
    1C        C  217   4.338   2.915   3.517
    1C        C  218   4.441   3.100   3.639
    1C        C  219   4.383   2.971   3.639
    1C        C  220   4.460   3.170   3.761
    1C        C  221   4.441   3.105   3.885
    1C        C  222   4.501   3.307   4.005
    1C        C  223   4.468   3.170   4.007
    1C        C  224   4.514   3.378   4.126
    1C        C  225   4.504   3.311   4.250
    1C        C  226   4.516   3.526   4.369
    1C        C  227   4.516   3.384   4.370
    1C        C  228   4.516   3.600   4.489
    1C        C  229   4.525   3.531   4.612
    1C        C  230   4.505   3.745   4.730
    1C        C  231   4.537   3.606   4.731
    1C        C  232   4.492   3.819   4.849
    1C        C  233   4.549   3.757   4.961
    1C        C  234   4.021   2.606   2.062
    1C        C  235   3.896   2.545   2.066
    1C        C  236   4.087   2.647   2.179
    1C        C  237   4.025   2.609   2.300
    1C        C  238   4.197   2.738   2.420
    1C        C  239   4.081   2.656   2.421
    1C        C  240   4.251   2.784   2.542
    1C        C  241   4.192   2.747   2.665
    1C        C  242   4.336   2.906   2.784
    1C        C  243   4.249   2.795   2.785
    1C        C  244   4.381   2.963   2.905
    1C        C  245   4.339   2.909   3.028
    1C        C  246   4.443   3.091   3.149
    1C        C  247   4.377   2.966   3.151
    1C        C  248   4.466   3.161   3.269
    1C        C  249   4.439   3.101   3.394
    1C        C  250   4.505   3.301   3.516
    1C        C  251   4.465   3.166   3.517
    1C        C  252   4.513   3.373   3.637
    1C        C  253   4.496   3.306   3.760
    1C        C  254   4.522   3.516   3.879
    1C        C  255   4.517   3.375   3.882
    1C        C  256   4.513   3.587   4.001
    1C        C  257   4.517   3.520   4.125
    1C        C  258   4.489   3.733   4.242
    1C        C  259   4.512   3.593   4.245
    1C        C  260   4.476   3.804   4.363
    1C        C  261   4.489   3.738   4.487
    1C        C  262   4.424   3.941   4.606
    1C        C  263   4.479   3.811   4.608
    1C        C  264   4.394   4.009   4.726
    1C        C  265   4.430   3.946   4.847
    1C        C  266   4.322   4.135   4.959
    1C        C  267   4.394   4.016   4.964
    1C        C  268   4.257   2.782   2.061
    1C        C  269   4.194   2.738   2.179
    1C        C  270   4.345   2.893   2.297
    1C        C  271   4.248   2.789   2.299
    1C        C  272   4.382   2.954   2.419
    1C        C  273   4.342   2.893   2.540
    1C        C  274   4.454   3.078   2.661
    1C        C  275   4.378   2.959   2.659
    1C        C  276   4.475   3.151   2.780
    1C        C  277   4.448   3.088   2.903
    1C        C  278   4.504   3.291   3.024
    1C        C  279   4.473   3.153   3.026
    1C        C  280   4.514   3.363   3.146
    1C        C  281   4.499   3.299   3.270
    1C        C  282   4.514   3.510   3.390
    1C        C  283   4.514   3.369   3.392
    1C        C  284   4.511   3.582   3.512
    1C        C  285   4.518   3.515   3.636
    1C        C  286   4.491   3.727   3.753
    1C        C  287   4.515   3.587   3.757
    1C        C  288   4.473   3.794   3.876
    1C        C  289   4.487   3.726   3.999
    1C        C  290   4.422   3.932   4.117
    1C        C  291   4.471   3.800   4.118
    1C        C  292   4.398   4.001   4.239
    1C        C  293   4.430   3.938   4.361
    1C        C  294   4.324   4.125   4.479
    1C        C  295   4.393   4.001   4.482
    1C        C  296   4.284   4.187   4.600
    1C        C  297   4.325   4.133   4.723
    1C        C  298   4.200   4.315   4.838
    1C        C  299   4.289   4.203   4.842
    1C        C  300   4.168   4.401   4.948
    1C        C  301   4.344   2.890   2.057
    1C        C  302   4.474   3.065   2.179
    1C        C  303   4.394   2.946   2.175
    1C        C  304   4.485   3.141   2.298
    1C        C  305   4.452   3.077   2.419
    1C        C  306   4.510   3.283   2.536
    1C        C  307   4.483   3.144   2.540
    1C        C  308   4.515   3.357   2.656
    1C        C  309   4.507   3.289   2.779
    1C        C  310   4.521   3.501   2.900
    1C        C  311   4.515   3.360   2.901
    1C        C  312   4.517   3.573   3.022
    1C        C  313   4.520   3.504   3.145
    1C        C  314   4.489   3.717   3.267
    1C        C  315   4.512   3.578   3.266
    1C        C  316   4.471   3.790   3.386
    1C        C  317   4.486   3.721   3.508
    1C        C  318   4.420   3.924   3.629
    1C        C  319   4.470   3.792   3.630
    1C        C  320   4.392   3.990   3.752
    1C        C  321   4.424   3.927   3.874
    1C        C  322   4.319   4.115   3.993
    1C        C  323   4.392   3.994   3.994
    1C        C  324   4.280   4.176   4.115
    1C        C  325   4.322   4.120   4.238
    1C        C  326   4.193   4.293   4.355
    1C        C  327   4.278   4.180   4.358
    1C        C  328   4.142   4.347   4.475
    1C        C  329   4.195   4.297   4.596
    1C        C  330   4.025   4.435   4.711
    1C        C  331   4.140   4.351   4.714
    1C        C  332   3.972   4.494   4.828
    1C        C  333   4.056   4.485   4.940
    1C        C  334   4.551   3.269   2.062
    1C        C  335   4.532   3.130   2.065
    1C        C  336   4.530   3.350   2.174
    1C        C  337   4.507   3.282   2.295
    1C        C  338   4.523   3.497   2.411
    1C        C  339   4.517   3.356   2.415
    1C        C  340   4.520   3.569   2.532
    1C        C  341   4.520   3.498   2.655
    1C        C  342   4.485   3.707   2.774
    1C        C  343   4.516   3.569   2.777
    1C        C  344   4.473   3.778   2.896
    1C        C  345   4.495   3.713   3.020
    1C        C  346   4.421   3.912   3.139
    1C        C  347   4.475   3.781   3.141
    1C        C  348   4.388   3.981   3.258
    1C        C  349   4.415   3.920   3.383
    1C        C  350   4.320   4.108   3.504
    1C        C  351   4.389   3.984   3.505
    1C        C  352   4.277   4.166   3.626
    1C        C  353   4.318   4.110   3.749
    1C        C  354   4.180   4.273   3.867
    1C        C  355   4.276   4.170   3.870
    1C        C  356   4.131   4.323   3.989
    1C        C  357   4.184   4.279   4.113
    1C        C  358   4.020   4.415   4.230
    1C        C  359   4.137   4.336   4.233
    1C        C  360   3.958   4.455   4.351
    1C        C  361   4.023   4.423   4.472
    1C        C  362   3.831   4.525   4.593
    1C        C  363   3.961   4.469   4.590
    1C        C  364   3.766   4.553   4.715
    1C        C  365   3.840   4.542   4.835
    1C        C  366   3.629   4.595   4.946
    1C        C  367   3.764   4.562   4.951
    1C        C  368   4.513   3.569   2.054
    1C        C  369   4.517   3.491   2.170
    1C        C  370   4.497   3.707   2.288
    1C        C  371   4.520   3.568   2.289
    1C        C  372   4.476   3.776   2.410
    1C        C  373   4.497   3.708   2.532
    1C        C  374   4.424   3.910   2.649
    1C        C  375   4.476   3.779   2.653
    1C        C  376   4.389   3.974   2.771
    1C        C  377   4.421   3.909   2.892
    1C        C  378   4.316   4.092   3.012
    1C        C  379   4.390   3.971   3.015
    1C        C  380   4.268   4.150   3.132
    1C        C  381   4.312   4.100   3.256
    1C        C  382   4.179   4.261   3.379
    1C        C  383   4.277   4.159   3.380
    1C        C  384   4.121   4.307   3.499
    1C        C  385   4.178   4.265   3.622
    1C        C  386   4.009   4.394   3.742
    1C        C  387   4.129   4.319   3.743
    1C        C  388   3.949   4.432   3.864
    1C        C  389   4.015   4.403   3.986
    1C        C  390   3.821   4.490   4.107
    1C        C  391   3.953   4.440   4.108
    1C        C  392   3.756   4.523   4.228
    1C        C  393   3.828   4.509   4.349
    1C        C  394   3.621   4.553   4.472
    1C        C  395   3.761   4.536   4.471
    1C        C  396   3.551   4.566   4.594
    1C        C  397   3.626   4.569   4.714
    1C        C  398   3.410   4.552   4.839
    1C        C  399   3.550   4.575   4.832
    1C        C  400   3.338   4.525   4.956
    1C        C  401   4.504   3.708   2.051
    1C        C  402   4.451   3.917   2.166
    1C        C  403   4.491   3.782   2.169
    1C        C  404   4.404   3.976   2.285
    1C        C  405   4.429   3.909   2.407
    1C        C  406   4.323   4.094   2.526
    1C        C  407   4.401   3.977   2.527
    1C        C  408   4.273   4.147   2.647
    1C        C  409   4.312   4.092   2.771
    1C        C  410   4.178   4.257   2.889
    1C        C  411   4.275   4.154   2.892
    1C        C  412   4.124   4.304   3.011
    1C        C  413   4.174   4.256   3.134
    1C        C  414   4.004   4.379   3.252
    1C        C  415   4.125   4.306   3.256
    1C        C  416   3.945   4.416   3.375
    1C        C  417   4.004   4.386   3.499
    1C        C  418   3.814   4.480   3.619
    1C        C  419   3.944   4.425   3.621
    1C        C  420   3.752   4.511   3.742
    1C        C  421   3.821   4.492   3.864
    1C        C  422   3.612   4.534   3.986
    1C        C  423   3.751   4.509   3.986
    1C        C  424   3.543   4.537   4.109
    1C        C  425   3.615   4.539   4.230
    1C        C  426   3.404   4.553   4.355
    1C        C  427   3.545   4.552   4.352
    1C        C  428   3.335   4.545   4.478
    1C        C  429   3.410   4.552   4.598
    1C        C  430   3.198   4.520   4.722
    1C        C  431   3.338   4.544   4.719
    1C        C  432   3.126   4.497   4.842
    1C        C  433   3.201   4.502   4.960
    1C        C  434   4.391   4.127   2.056
    1C        C  435   4.452   4.001   2.054
    1C        C  436   4.300   4.162   2.160
    1C        C  437   4.328   4.097   2.283
    1C        C  438   4.185   4.255   2.403
    1C        C  439   4.284   4.155   2.404
    1C        C  440   4.131   4.306   2.523
    1C        C  441   4.179   4.253   2.645
    1C        C  442   4.009   4.381   2.764
    1C        C  443   4.126   4.303   2.766
    1C        C  444   3.945   4.416   2.885
    1C        C  445   4.004   4.378   3.008
    1C        C  446   3.814   4.474   3.132
    1C        C  447   3.940   4.411   3.130
    1C        C  448   3.748   4.497   3.254
    1C        C  449   3.814   4.469   3.376
    1C        C  450   3.608   4.527   3.499
    1C        C  451   3.745   4.496   3.497
    1C        C  452   3.541   4.541   3.622
    1C        C  453   3.614   4.540   3.744
    1C        C  454   3.399   4.546   3.866
    1C        C  455   3.541   4.546   3.864
    1C        C  456   3.332   4.531   3.989
    1C        C  457   3.402   4.534   4.111
    1C        C  458   3.196   4.500   4.238
    1C        C  459   3.333   4.531   4.235
    1C        C  460   3.128   4.483   4.361
    1C        C  461   3.198   4.511   4.481
    1C        C  462   3.000   4.435   4.601
    1C        C  463   3.127   4.498   4.602
    1C        C  464   2.931   4.406   4.721
    1C        C  465   2.992   4.447   4.843
    1C        C  466   2.807   4.339   4.960
    1C        C  467   2.912   4.432   4.961
    1C        C  468   4.128   4.295   2.042
    1C        C  469   4.188   4.251   2.161
    1C        C  470   4.009   4.377   2.280
    1C        C  471   4.127   4.296   2.281
    1C        C  472   3.947   4.418   2.400
    1C        C  473   4.013   4.384   2.520
    1C        C  474   3.814   4.463   2.643
    1C        C  475   3.947   4.415   2.641
    1C        C  476   3.747   4.492   2.764
    1C        C  477   3.815   4.470   2.886
    1C        C  478   3.610   4.521   3.010
    1C        C  479   3.749   4.497   3.008
    1C        C  480   3.538   4.530   3.131
    1C        C  481   3.608   4.520   3.254
    1C        C  482   3.397   4.528   3.377
    1C        C  483   3.538   4.531   3.376
    1C        C  484   3.329   4.523   3.501
    1C        C  485   3.400   4.537   3.622
    1C        C  486   3.192   4.499   3.746
    1C        C  487   3.329   4.533   3.744
    1C        C  488   3.129   4.473   3.870
    1C        C  489   3.196   4.491   3.993
    1C        C  490   3.002   4.412   4.113
    1C        C  491   3.129   4.473   4.116
    1C        C  492   2.943   4.381   4.238
    1C        C  493   3.001   4.423   4.360
    1C        C  494   2.825   4.306   4.483
    1C        C  495   2.937   4.392   4.482
    1C        C  496   2.777   4.256   4.606
    1C        C  497   2.820   4.318   4.725
    1C        C  498   2.662   4.173   4.844
    1C        C  499   2.756   4.278   4.845
    1C        C  500   2.596   4.123   4.957
    1C        C  501   4.004   4.358   2.041
    1C        C  502   3.813   4.461   2.156
    1C        C  503   3.942   4.403   2.159
    1C        C  504   3.745   4.480   2.278
    1C        C  505   3.813   4.461   2.401
    1C        C  506   3.605   4.509   2.520
    1C        C  507   3.744   4.485   2.522
    1C        C  508   3.537   4.521   2.643
    1C        C  509   3.609   4.519   2.764
    1C        C  510   3.399   4.524   2.888
    1C        C  511   3.540   4.519   2.888
    1C        C  512   3.326   4.518   3.009
    1C        C  513   3.397   4.528   3.131
    1C        C  514   3.192   4.484   3.258
    1C        C  515   3.328   4.523   3.254
    1C        C  516   3.126   4.459   3.380
    1C        C  517   3.191   4.492   3.501
    1C        C  518   2.997   4.412   3.627
    1C        C  519   3.124   4.474   3.625
    1C        C  520   2.939   4.372   3.749
    1C        C  521   3.004   4.407   3.870
    1C        C  522   2.831   4.285   3.996
    1C        C  523   2.942   4.371   3.992
    1C        C  524   2.781   4.241   4.121
    1C        C  525   2.828   4.298   4.241
    1C        C  526   2.692   4.136   4.365
    1C        C  527   2.773   4.252   4.363
    1C        C  528   2.655   4.077   4.487
    1C        C  529   2.692   4.143   4.607
    1C        C  530   2.587   3.963   4.732
    1C        C  531   2.641   4.094   4.729
    1C        C  532   2.542   3.906   4.854
    1C        C  533   2.534   3.997   4.964
    1C        C  534   3.615   4.553   2.039
    1C        C  535   3.749   4.513   2.043
    1C        C  536   3.535   4.533   2.157
    1C        C  537   3.606   4.512   2.278
    1C        C  538   3.393   4.515   2.401
    1C        C  539   3.534   4.525   2.399
    1C        C  540   3.323   4.508   2.523
    1C        C  541   3.395   4.516   2.645
    1C        C  542   3.189   4.478   2.769
    1C        C  543   3.326   4.516   2.767
    1C        C  544   3.124   4.454   2.892
    1C        C  545   3.190   4.479   3.014
    1C        C  546   2.995   4.400   3.137
    1C        C  547   3.123   4.461   3.137
    1C        C  548   2.938   4.362   3.261
    1C        C  549   3.000   4.396   3.383
    1C        C  550   2.826   4.281   3.506
    1C        C  551   2.936   4.369   3.507
    1C        C  552   2.776   4.233   3.629
    1C        C  553   2.830   4.283   3.750
    1C        C  554   2.695   4.123   3.876
    1C        C  555   2.779   4.236   3.873
    1C        C  556   2.656   4.068   4.001
    1C        C  557   2.694   4.130   4.122
    1C        C  558   2.594   3.945   4.247
    1C        C  559   2.655   4.072   4.245
    1C        C  560   2.567   3.882   4.370
    1C        C  561   2.588   3.952   4.490
    1C        C  562   2.533   3.751   4.616
    1C        C  563   2.563   3.889   4.614
    1C        C  564   2.521   3.684   4.739
    1C        C  565   2.519   3.765   4.857
    1C        C  566   2.520   3.548   4.975
    1C        C  567   2.522   3.687   4.974
    1C        C  568   3.327   4.470   2.041
    1C        C  569   3.395   4.511   2.156
    1C        C  570   3.185   4.475   2.280
    1C        C  571   3.323   4.512   2.279
    1C        C  572   3.116   4.456   2.402
    1C        C  573   3.185   4.480   2.523
    1C        C  574   2.990   4.403   2.647
    1C        C  575   3.120   4.459   2.647
    1C        C  576   2.933   4.365   2.770
    1C        C  577   2.996   4.396   2.893
    1C        C  578   2.823   4.275   3.016
    1C        C  579   2.934   4.362   3.015
    1C        C  580   2.773   4.227   3.139
    1C        C  581   2.826   4.276   3.260
    1C        C  582   2.693   4.115   3.384
    1C        C  583   2.778   4.228   3.384
    1C        C  584   2.659   4.057   3.508
    1C        C  585   2.692   4.120   3.630
    1C        C  586   2.592   3.937   3.759
    1C        C  587   2.656   4.063   3.754
    1C        C  588   2.569   3.873   3.883
    1C        C  589   2.598   3.939   4.004
    1C        C  590   2.531   3.740   4.128
    1C        C  591   2.566   3.876   4.126
    1C        C  592   2.515   3.673   4.251
    1C        C  593   2.528   3.746   4.372
    1C        C  594   2.513   3.537   4.498
    1C        C  595   2.518   3.678   4.495
    1C        C  596   2.523   3.466   4.620
    1C        C  597   2.523   3.542   4.739
    1C        C  598   2.537   3.328   4.861
    1C        C  599   2.524   3.469   4.860
    1C        C  600   2.548   3.250   4.977
    1C        C  601   3.191   4.445   2.041
    1C        C  602   2.983   4.393   2.159
    1C        C  603   3.119   4.437   2.161
    1C        C  604   2.927   4.359   2.285
    1C        C  605   2.989   4.395   2.406
    1C        C  606   2.818   4.270   2.530
    1C        C  607   2.927   4.360   2.528
    1C        C  608   2.771   4.219   2.653
    1C        C  609   2.826   4.273   2.772
    1C        C  610   2.679   4.119   2.895
    1C        C  611   2.771   4.227   2.894
    1C        C  612   2.640   4.061   3.018
    1C        C  613   2.683   4.118   3.140
    1C        C  614   2.585   3.932   3.267
    1C        C  615   2.646   4.059   3.263
    1C        C  616   2.564   3.868   3.391
    1C        C  617   2.595   3.931   3.514
    1C        C  618   2.530   3.732   3.637
    1C        C  619   2.569   3.868   3.638
    1C        C  620   2.520   3.666   3.762
    1C        C  621   2.528   3.738   3.883
    1C        C  622   2.515   3.527   4.010
    1C        C  623   2.523   3.669   4.006
    1C        C  624   2.521   3.459   4.133
    1C        C  625   2.518   3.531   4.254
    1C        C  626   2.536   3.323   4.382
    1C        C  627   2.516   3.463   4.378
    1C        C  628   2.559   3.252   4.502
    1C        C  629   2.546   3.327   4.621
    1C        C  630   2.597   3.119   4.742
    1C        C  631   2.551   3.254   4.742
    1C        C  632   2.616   3.048   4.864
    1C        C  633   2.563   3.111   4.981
    1C        C  634   2.781   4.305   2.056
    1C        C  635   2.893   4.389   2.047
    1C        C  636   2.748   4.230   2.170
    1C        C  637   2.813   4.274   2.288
    1C        C  638   2.674   4.113   2.411
    1C        C  639   2.763   4.223   2.409
    1C        C  640   2.637   4.050   2.532
    1C        C  641   2.680   4.111   2.652
    1C        C  642   2.579   3.928   2.779
    1C        C  643   2.639   4.056   2.775
    1C        C  644   2.552   3.864   2.902
    1C        C  645   2.582   3.932   3.022
    1C        C  646   2.530   3.727   3.148
    1C        C  647   2.565   3.864   3.144
    1C        C  648   2.515   3.658   3.270
    1C        C  649   2.526   3.732   3.390
    1C        C  650   2.517   3.523   3.520
    1C        C  651   2.517   3.664   3.514
    1C        C  652   2.520   3.455   3.644
    1C        C  653   2.516   3.525   3.766
    1C        C  654   2.535   3.315   3.891
    1C        C  655   2.514   3.454   3.889
    1C        C  656   2.550   3.248   4.015
    1C        C  657   2.540   3.319   4.137
    1C        C  658   2.614   3.124   4.258
    1C        C  659   2.558   3.254   4.261
    1C        C  660   2.644   3.058   4.379
    1C        C  661   2.610   3.120   4.501
    1C        C  662   2.718   2.939   4.625
    1C        C  663   2.637   3.054   4.623
    1C        C  664   2.755   2.880   4.748
    1C        C  665   2.698   2.931   4.868
    1C        C  666   2.745   2.869   4.985
    1C        C  667   2.682   4.024   2.055
    1C        C  668   2.684   4.105   2.169
    1C        C  669   2.588   3.915   2.293
    1C        C  670   2.643   4.046   2.291
    1C        C  671   2.558   3.849   2.415
    1C        C  672   2.582   3.920   2.535
    1C        C  673   2.521   3.720   2.662
    1C        C  674   2.559   3.856   2.659
    1C        C  675   2.513   3.652   2.785
    1C        C  676   2.527   3.725   2.904
    1C        C  677   2.517   3.515   3.033
    1C        C  678   2.519   3.656   3.027
    1C        C  679   2.520   3.442   3.154
    1C        C  680   2.511   3.516   3.274
    1C        C  681   2.541   3.311   3.404
    1C        C  682   2.520   3.451   3.398
    1C        C  683   2.560   3.244   3.527
    1C        C  684   2.545   3.316   3.648
    1C        C  685   2.611   3.115   3.773
    1C        C  686   2.557   3.245   3.770
    1C        C  687   2.644   3.054   3.896
    1C        C  688   2.610   3.121   4.016
    1C        C  689   2.715   2.934   4.137
    1C        C  690   2.642   3.056   4.137
    1C        C  691   2.757   2.878   4.259
    1C        C  692   2.720   2.939   4.381
    1C        C  693   2.760   2.881   4.503
    1C        C  694   2.624   3.897   2.056
    1C        C  695   2.530   3.706   2.176
    1C        C  696   2.576   3.839   2.175
    1C        C  697   2.510   3.638   2.298
    1C        C  698   2.521   3.713   2.417
    1C        C  699   2.497   3.507   2.545
    1C        C  700   2.506   3.648   2.541
    1C        C  701   2.509   3.435   2.666
    1C        C  702   2.505   3.511   2.786
    1C        C  703   2.536   3.305   2.912
    1C        C  704   2.514   3.444   2.910
    1C        C  705   2.554   3.234   3.033
    1C        C  706   2.540   3.302   3.156
    1C        C  707   2.603   3.108   3.281
    1C        C  708   2.555   3.241   3.282
    1C        C  709   2.634   3.046   3.404
    1C        C  710   2.607   3.111   3.527
    1C        C  711   2.717   2.932   3.650
    1C        C  712   2.641   3.052   3.650
    1C        C  713   2.761   2.876   3.771
    1C        C  714   2.717   2.933   3.893
    1C        C  715   2.760   2.877   4.015
    1C        C  716   2.450   3.500   2.063
    1C        C  717   2.487   3.635   2.062
    1C        C  718   2.464   3.424   2.183
    1C        C  719   2.485   3.498   2.302
    1C        C  720   2.516   3.293   2.427
    1C        C  721   2.489   3.431   2.427
    1C        C  722   2.543   3.225   2.548
    1C        C  723   2.532   3.296   2.670
    1C        C  724   2.594   3.097   2.791
    1C        C  725   2.545   3.229   2.793
    1C        C  726   2.623   3.034   2.915
    1C        C  727   2.595   3.099   3.038
    1C        C  728   2.718   2.928   3.159
    1C        C  729   2.632   3.041   3.161
    1C        C  730   2.758   2.873   3.283
    1C        C  731   2.716   2.930   3.406
    1C        C  732   2.760   2.875   3.528
    1C        C  733   2.493   3.199   2.074
    1C        C  734   2.494   3.284   2.186
    1C        C  735   2.582   3.088   2.306
    1C        C  736   2.527   3.219   2.308
    1C        C  737   2.616   3.023   2.427
    1C        C  738   2.596   3.094   2.547
    1C        C  739   2.695   2.909   2.671
    1C        C  740   2.624   3.031   2.670
    1C        C  741   2.740   2.854   2.793
    1C        C  742   2.701   2.917   2.913
    1C        C  743   2.748   2.866   3.036
    1C        C  744   2.545   3.070   2.074
    1C        C  745   2.682   2.896   2.185
    1C        C  746   2.610   3.018   2.186
    1C        C  747   2.725   2.840   2.307
    1C        C  748   2.681   2.897   2.428
    1C        C  749   2.735   2.848   2.549
    1C        C  750   2.730   2.839   2.067
    1C        C  751   3.655   2.344   1.955
    1C        O  752   3.672   2.220   1.959
    1C        O  753   3.673   2.406   1.831
    1C        C  754   4.602   3.062   1.953
    1C        O  755   4.537   3.045   1.847
    1C        O  756   4.701   2.968   1.982
    1C        C  757   4.474   4.230   1.989
    1C        O  758   4.573   4.288   2.043
    1C        O  759   4.419   4.300   1.881
    1C        C  760   3.588   4.676   1.961
    1C        O  761   3.669   4.773   1.965
    1C        O  762   3.538   4.648   1.834
    1C        C  763   2.890   4.503   1.954
    1C        O  764   2.901   4.486   1.829
    1C        O  765   2.842   4.624   2.007
    1C        C  766   2.331   3.480   1.976
    1C        O  767   2.345   3.429   1.862
    1C        O  768   2.205   3.484   2.035
    1C        C  769   4.668   3.591   5.080
    1C        O  770   4.625   3.594   5.198
    1C        O  771   4.807   3.588   5.069
    1C        C  772   4.275   4.456   5.034
    1C        O  773   4.266   4.442   5.159
    1C        O  774   4.379   4.533   4.980
    1C        C  775   4.155   2.505   5.059
    1C        O  776   4.242   2.426   5.014
    1C        O  777   4.164   2.520   5.198
    1C        C  778   2.882   4.539   5.059
    1C        O  779   2.837   4.650   5.020
    1C        O  780   2.884   4.519   5.198
    1C        C  781   2.482   3.041   5.084
    1C        O  782   2.356   3.039   5.078
    1C        O  783   2.517   3.058   5.217
    1C        C  784   2.426   3.988   5.066
    1C        O  785   2.305   4.007   5.037
    1C        O  786   2.442   3.926   5.190
    1C        C  787   2.941   2.419   2.018
    1C        O  788   2.923   2.422   1.893
    1C        O  789   2.917   2.294   2.074
    1C        C  790   3.191   2.362   5.051
    1C        O  791   3.151   2.249   5.012
    1C        O  792   3.218   2.383   5.187
    1C        H  793   4.258   3.033   5.047
    1C        H  794   4.246   2.777   5.069
    1C        H  795   4.499   3.136   5.064
    1C        H  796   4.508   3.373   5.071
    1C        H  797   4.575   3.821   5.043
    1C        H  798   4.390   3.957   5.053
    1C        H  799   4.350   4.200   5.039
    1C        H  800   4.024   4.532   5.031
    1C        H  801   3.802   4.538   5.048
    1C        H  802   3.600   4.685   4.995
    1C        H  803   3.371   4.568   5.049
    1C        H  804   3.166   4.436   5.036
    1C        H  805   3.891   2.489   5.074
    1C        H  806   3.680   2.458   5.073
    1C        H  807   3.003   2.559   5.065
    1C        H  808   3.444   2.497   5.076
    1C        H  809   2.859   2.723   5.077
    1C        H  810   2.685   2.871   5.073
    1C        H  811   2.571   3.304   5.067
    1C        H  812   2.509   3.502   5.071
    1C        H  813   2.532   3.742   5.065
    1C        H  814   2.589   4.187   5.043
    1C        H  815   2.766   4.321   5.057
    1C        H  816   2.662   2.841   1.985
    1C        H  817   2.787   2.656   2.000
    1C        H  818   3.219   2.482   1.987
    1C        H  819   3.424   2.444   1.983
    1C        H  820   3.851   2.532   1.970
    1C        H  821   4.081   2.576   1.979
    1C        H  822   4.301   2.700   2.008
    1C        H  823   4.413   2.885   1.975
    1C        H  824   4.535   3.312   1.965
    1C        H  825   4.480   3.521   1.965
    1C        H  826   4.501   3.757   1.955
    1C        H  827   3.819   4.555   1.974
    1C        H  828   3.942   4.335   1.957
    1C        H  829   4.154   4.244   1.952
    1C        H  830   4.492   3.971   1.959
    1C        H  831   2.657   3.834   1.976
    1C        H  832   2.693   4.072   1.959
    1C        H  833   2.706   4.315   1.980
    1C        H  834   3.380   4.399   1.981
    1C        H  835   3.147   4.432   1.945
    1C        H  836   2.527   3.011   1.987
    1C        H  837   2.449   3.238   1.984
    1C        H  838   2.501   3.676   1.964
    2V3OU   H29  839   2.803   3.545   5.042
    2V3OU   C27  840   2.781   3.506   5.145
    2V3OU   H27  841   2.733   3.567   5.226
    2V3OU   H28  842   2.731   3.407   5.128
    2V3OU   O11  843   2.910   3.479   5.201
    2V3OU   C15  844   2.923   3.398   5.312
    2V3OU   C13  845   3.049   3.383   5.373
    2V3OU   C14  846   3.073   3.270   5.452
    2V3OU   C16  847   2.968   3.189   5.493
    2V3OU    H6  848   2.993   3.093   5.541
    2V3OU   C12  849   3.214   3.230   5.474
    2V3OU    O2  850   3.243   3.122   5.530
    2V3OU   C10  851   3.322   3.304   5.408
    2V3OU    C8  852   3.457   3.275   5.426
    2V3OU   O10  853   3.492   3.156   5.483
    2V3OU   H26  854   3.407   3.110   5.492
    2V3OU    C6  855   3.564   3.353   5.373
    2V3OU    C5  856   3.538   3.470   5.303
    2V3OU    C4  857   3.704   3.301   5.383
    2V3OU    H4  858   3.727   3.233   5.471
    2V3OU    H5  859   3.710   3.230   5.296
    2V3OU    C2  860   3.820   3.400   5.374
    2V3OU    O6  861   3.809   3.480   5.492
    2V3OU   H21  862   3.763   3.562   5.467
    2V3OU    C3  863   3.780   3.494   5.259
    2V3OU    H2  864   3.861   3.567   5.235
    2V3OU    H3  865   3.780   3.438   5.162
    2V3OU   C25  866   3.951   3.328   5.345
    2V3OU    O7  867   4.000   3.297   5.236
    2V3OU   C26  868   4.032   3.292   5.468
    2V3OU   H22  869   4.067   3.386   5.519
    2V3OU   H23  870   4.125   3.236   5.437
    2V3OU    O8  871   3.957   3.210   5.555
    2V3OU   H24  872   3.932   3.266   5.630
    2V3OU    C1  873   3.647   3.567   5.272
    2V3OU    H1  874   3.628   3.620   5.174
    2V3OU    O3  875   3.660   3.653   5.386
    2V3OU   C19  876   3.618   3.789   5.372
    2V3OU    H9  877   3.524   3.807   5.312
    2V3OU    O4  878   3.718   3.846   5.290
    2V3OU   C20  879   3.847   3.872   5.345
    2V3OU   H10  880   3.886   3.768   5.367
    2V3OU   C24  881   3.608   3.855   5.510
    2V3OU   H16  882   3.537   3.798   5.576
    2V3OU   H17  883   3.566   3.957   5.490
    2V3OU   C23  884   3.745   3.875   5.574
    2V3OU   H15  885   3.787   3.771   5.595
    2V3OU    N1  886   3.734   3.956   5.694
    2V3OU   H19  887   3.813   3.931   5.750
    2V3OU   H20  888   3.649   3.939   5.745
    2V3OU   C21  889   3.845   3.947   5.479
    2V3OU   H11  890   3.947   3.929   5.524
    2V3OU    O5  891   3.822   4.087   5.477
    2V3OU   H18  892   3.784   4.102   5.565
    2V3OU   C22  893   3.916   3.950   5.235
    2V3OU   H12  894   3.870   4.051   5.220
    2V3OU   H13  895   3.906   3.896   5.137
    2V3OU   H14  896   4.023   3.970   5.259
    2V3OU   C11  897   3.158   3.477   5.343
    2V3OU    O1  898   3.136   3.587   5.289
    2V3OU    C9  899   3.296   3.424   5.335
    2V3OU    C7  900   3.400   3.498   5.280
    2V3OU    O9  901   3.379   3.615   5.210
    2V3OU   H25  902   3.284   3.635   5.211
    2V3OU   C17  903   2.823   3.311   5.361
    2V3OU    H7  904   2.719   3.339   5.344
    2V3OU   C18  905   2.836   3.206   5.451
    2V3OU    H8  906   2.750   3.150   5.490
    3SOL     OW  907   3.697   3.850   4.367
    3SOL    HW1  908   3.781   3.808   4.331
    3SOL    HW2  909   3.706   3.949   4.366
    4SOL     OW  910   6.304   0.206   0.386
    4SOL    HW1  911   6.301   0.109   0.412
    4SOL    HW2  912   6.278   0.215   0.290
    5SOL     OW  913   4.365   0.911   1.228
    5SOL    HW1  914   4.344   1.004   1.197
    5SOL    HW2  915   4.460   0.890   1.208
    6SOL     OW  916   5.453   7.005   2.264
    6SOL    HW1  917   5.481   0.060   2.209
    6SOL    HW2  918   5.467   0.000   2.361
    7SOL     OW  919   2.004   4.487   3.792
    7SOL    HW1  920   2.059   4.424   3.847
    7SOL    HW2  921   2.059   4.522   3.716
    8SOL     OW  922   2.342   3.084   5.569
    8SOL    HW1  923   2.320   3.107   5.474
    8SOL    HW2  924   2.258   3.068   5.620
    9SOL     OW  925   6.112   1.170   6.394
    9SOL    HW1  926   6.021   1.130   6.380
    9SOL    HW2  927   6.175   1.099   6.425
   10SOL     OW  928   4.673   4.762   3.211
   10SOL    HW1  929   4.671   4.855   3.246
   10SOL    HW2  930   4.632   4.700   3.278
   11SOL     OW  931   2.358   0.824   0.456
   11SOL    HW1  932   2.310   0.766   0.522
   11SOL    HW2  933   2.366   0.774   0.369
   12SOL     OW  934   2.959   5.299   3.401
   12SOL    HW1  935   2.985   5.225   3.463
   12SOL    HW2  936   3.038   5.357   3.383
   13SOL     OW  937   4.603   5.715   1.906
   13SOL    HW1  938   4.683   5.774   1.915
   13SOL    HW2  939   4.612   5.658   1.824
   14SOL     OW  940   4.676   5.021   4.846
   14SOL    HW1  941   4.645   4.958   4.775
   14SOL    HW2  942   4.775   5.018   4.854
   15SOL     OW  943   0.301   5.635   5.799
   15SOL    HW1  944   0.243   5.560   5.828
   15SOL    HW2  945   0.246   5.717   5.783
   16SOL     OW  946   0.340   3.630   5.213
   16SOL    HW1  947   0.413   3.566   5.237
   16SOL    HW2  948   0.347   3.712   5.269
   17SOL     OW  949   6.247   1.245   5.114
   17SOL    HW1  950   6.300   1.314   5.165
   17SOL    HW2  951   6.262   1.155   5.155
   18SOL     OW  952   3.382   0.661   5.644
   18SOL    HW1  953   3.457   0.724   5.666
   18SOL    HW2  954   3.310   0.711   5.597
   19SOL     OW  955   1.160   1.430   2.982
   19SOL    HW1  956   1.159   1.510   3.042
   19SOL    HW2  957   1.187   1.458   2.890
   20SOL     OW  958   5.763   1.757   5.091
   20SOL    HW1  959   5.820   1.839   5.084
   20SOL    HW2  960   5.820   1.676   5.092
   21SOL     OW  961   3.029   5.697   2.259
   21SOL    HW1  962   3.022   5.686   2.160
   21SOL    HW2  963   3.063   5.612   2.300
   22SOL     OW  964   2.435   6.527   5.420
   22SOL    HW1  965   2.502   6.597   5.443
   22SOL    HW2  966   2.397   6.487   5.503
   23SOL     OW  967   5.479   4.005   1.827
   23SOL    HW1  968   5.380   3.994   1.836
   23SOL    HW2  969   5.515   4.051   1.908
   24SOL     OW  970   4.329   0.501   1.455
   24SOL    HW1  971   4.358   0.457   1.540
   24SOL    HW2  972   4.408   0.514   1.395
   25SOL     OW  973   2.566   0.449   4.239
   25SOL    HW1  974   2.652   0.486   4.207
   25SOL    HW2  975   2.559   0.353   4.213
   26SOL     OW  976   0.747   3.070   6.933
   26SOL    HW1  977   0.750   3.003   6.859
   26SOL    HW2  978   0.840   3.098   6.957
   27SOL     OW  979   6.411   1.385   1.204
   27SOL    HW1  980   6.393   1.372   1.106
   27SOL    HW2  981   6.361   1.466   1.236
   28SOL     OW  982   2.566   0.576   4.844
   28SOL    HW1  983   2.614   0.584   4.756
   28SOL    HW2  984   2.480   0.526   4.830
   29SOL     OW  985   0.071   0.352   0.279
   29SOL    HW1  986   0.081   0.409   0.197
   29SOL    HW2  987   0.091   0.406   0.360
   30SOL     OW  988   4.155   0.607   5.131
   30SOL    HW1  989   4.237   0.607   5.189
   30SOL    HW2  990   4.181   0.587   5.036
   31SOL     OW  991   0.951   2.985   5.260
   31SOL    HW1  992   0.922   3.059   5.321
   31SOL    HW2  993   1.034   3.013   5.212
   32SOL     OW  994   1.867   0.178   1.374
   32SOL    HW1  995   1.782   0.230   1.384
   32SOL    HW2  996   1.945   0.240   1.383
   33SOL     OW  997   0.414   4.986   5.982
   33SOL    HW1  998   0.418   5.084   6.000
   33SOL    HW2  999   0.506   4.947   5.987
   34SOL     OW 1000   1.974   5.142   5.288
   34SOL    HW1 1001   1.928   5.225   5.319
   34SOL    HW2 1002   1.907   5.081   5.246
   35SOL     OW 1003   3.770   2.500   0.323
   35SOL    HW1 1004   3.727   2.436   0.259
   35SOL    HW2 1005   3.709   2.578   0.339
   36SOL     OW 1006   4.712   0.601   4.268
   36SOL    HW1 1007   4.632   0.543   4.289
   36SOL    HW2 1008   4.721   0.671   4.339
   37SOL     OW 1009   2.063   0.848   3.629
   37SOL    HW1 1010   2.073   0.750   3.642
   37SOL    HW2 1011   2.146   0.885   3.586
   38SOL     OW 1012   1.052   4.485   2.398
   38SOL    HW1 1013   1.050   4.511   2.302
   38SOL    HW2 1014   0.965   4.510   2.441
   39SOL     OW 1015   6.500   5.292   6.381
   39SOL    HW1 1016   6.443   5.311   6.302
   39SOL    HW2 1017   6.594   5.322   6.362
   40SOL     OW 1018   3.740   0.739   6.113
   40SOL    HW1 1019   3.675   0.668   6.083
   40SOL    HW2 1020   3.712   0.775   6.201
   41SOL     OW 1021   6.339   3.942   1.929
   41SOL    HW1 1022   6.251   3.935   1.882
   41SOL    HW2 1023   6.388   4.023   1.895
   42SOL     OW 1024   2.315   5.917   5.721
   42SOL    HW1 1025   2.284   5.930   5.627
   42SOL    HW2 1026   2.390   5.851   5.723
   43SOL     OW 1027   5.201   6.675   4.442
   43SOL    HW1 1028   5.152   6.663   4.529
   43SOL    HW2 1029   5.263   6.598   4.429
   44SOL     OW 1030   5.981   2.044   5.664
   44SOL    HW1 1031   6.044   2.119   5.683
   44SOL    HW2 1032   5.920   2.069   5.588
   45SOL     OW 1033   3.931   5.120   0.132
   45SOL    HW1 1034   3.999   5.054   0.098
   45SOL    HW2 1035   3.974   5.210   0.140
   46SOL     OW 1036   0.626   3.029   4.768
   46SOL    HW1 1037   0.620   3.013   4.669
   46SOL    HW2 1038   0.563   2.967   4.815
   47SOL     OW 1039   5.560   2.713   1.619
   47SOL    HW1 1040   5.555   2.687   1.715
   47SOL    HW2 1041   5.551   2.812   1.611
   48SOL     OW 1042   6.678   3.887   0.019
   48SOL    HW1 1043   6.669   3.931   6.954
   48SOL    HW2 1044   6.764   3.835   0.022
   49SOL     OW 1045   4.133   2.918   6.941
   49SOL    HW1 1046   4.170   2.978   6.870
   49SOL    HW2 1047   4.050   2.873   6.906
   50SOL     OW 1048   6.382   3.308   6.408
   50SOL    HW1 1049   6.308   3.325   6.473
   50SOL    HW2 1050   6.348   3.250   6.333
   51SOL     OW 1051   2.360   5.488   3.356
   51SOL    HW1 1052   2.425   5.469   3.282
   51SOL    HW2 1053   2.327   5.401   3.394
   52SOL     OW 1054   5.836   2.315   1.623
   52SOL    HW1 1055   5.895   2.276   1.693
   52SOL    HW2 1056   5.765   2.249   1.598
   53SOL     OW 1057   3.967   0.786   2.911
   53SOL    HW1 1058   4.047   0.836   2.876
   53SOL    HW2 1059   3.906   0.766   2.835
   54SOL     OW 1060   5.241   6.832   0.103
   54SOL    HW1 1061   5.197   6.744   0.123
   54SOL    HW2 1062   5.234   6.851   0.006
   55SOL     OW 1063   1.728   3.451   6.312
   55SOL    HW1 1064   1.672   3.423   6.234
   55SOL    HW2 1065   1.751   3.548   6.303
   56SOL     OW 1066   1.476   2.339   6.521
   56SOL    HW1 1067   1.467   2.244   6.548
   56SOL    HW2 1068   1.573   2.360   6.506
   57SOL     OW 1069   4.450   0.658   0.263
   57SOL    HW1 1070   4.470   0.665   0.165
   57SOL    HW2 1071   4.493   0.734   0.311
   58SOL     OW 1072   1.016   0.822   6.181
   58SOL    HW1 1073   0.966   0.763   6.245
   58SOL    HW2 1074   1.094   0.772   6.143
   59SOL     OW 1075   5.033   3.348   6.144
   59SOL    HW1 1076   5.050   3.429   6.201
   59SOL    HW2 1077   4.956   3.296   6.182
   60SOL     OW 1078   5.423   0.477   2.860
   60SOL    HW1 1079   5.390   0.428   2.780
   60SOL    HW2 1080   5.376   0.565   2.867
   61SOL     OW 1081   0.095   0.059   4.938
   61SOL    HW1 1082   0.150   7.008   4.903
   61SOL    HW2 1083   0.025   0.023   5.000
   62SOL     OW 1084   7.006   2.045   2.084
   62SOL    HW1 1085   0.018   1.959   2.048
   62SOL    HW2 1086   0.057   2.107   2.105
   63SOL     OW 1087   4.296   6.385   4.748
   63SOL    HW1 1088   4.332   6.317   4.685
   63SOL    HW2 1089   4.202   6.409   4.722
   64SOL     OW 1090   1.288   4.888   6.889
   64SOL    HW1 1091   1.293   4.800   6.841
   64SOL    HW2 1092   1.357   4.890   6.961
   65SOL     OW 1093   0.471   0.242   5.459
   65SOL    HW1 1094   0.434   0.318   5.406
   65SOL    HW2 1095   0.476   0.160   5.402
   66SOL     OW 1096   4.220   0.907   2.364
   66SOL    HW1 1097   4.198   0.814   2.392
   66SOL    HW2 1098   4.233   0.910   2.264
   67SOL     OW 1099   0.261   2.583   0.927
   67SOL    HW1 1100   0.306   2.494   0.917
   67SOL    HW2 1101   0.210   2.586   1.013
   68SOL     OW 1102   6.599   2.459   5.808
   68SOL    HW1 1103   6.655   2.471   5.726
   68SOL    HW2 1104   6.650   2.405   5.875
   69SOL     OW 1105   0.811   5.039   6.273
   69SOL    HW1 1106   0.733   5.050   6.335
   69SOL    HW2 1107   0.855   5.127   6.259
   70SOL     OW 1108   5.223   3.038   4.532
   70SOL    HW1 1109   5.218   3.138   4.538
   70SOL    HW2 1110   5.134   3.002   4.506
   71SOL     OW 1111   4.126   1.625   4.236
   71SOL    HW1 1112   4.086   1.685   4.167
   71SOL    HW2 1113   4.099   1.657   4.327
   72SOL     OW 1114   6.798   1.243   3.616
   72SOL    HW1 1115   6.867   1.285   3.556
   72SOL    HW2 1116   6.707   1.274   3.589
   73SOL     OW 1117   2.370   0.563   1.067
   73SOL    HW1 1118   2.385   0.632   0.995
   73SOL    HW2 1119   2.362   0.609   1.155
   74SOL     OW 1120   1.601   2.072   0.243
   74SOL    HW1 1121   1.595   2.095   0.340
   74SOL    HW2 1122   1.680   2.014   0.227
   75SOL     OW 1123   3.993   2.205   0.741
   75SOL    HW1 1124   3.946   2.127   0.699
   75SOL    HW2 1125   4.085   2.213   0.703
   76SOL     OW 1126   3.190   4.654   5.401
   76SOL    HW1 1127   3.158   4.566   5.364
   76SOL    HW2 1128   3.164   4.727   5.338
   77SOL     OW 1129   1.669   4.212   4.101
   77SOL    HW1 1130   1.616   4.205   4.016
   77SOL    HW2 1131   1.702   4.121   4.127
   78SOL     OW 1132   4.524   1.580   1.185
   78SOL    HW1 1133   4.530   1.662   1.127
   78SOL    HW2 1134   4.567   1.503   1.138
   79SOL     OW 1135   2.064   5.183   2.244
   79SOL    HW1 1136   2.120   5.123   2.301
   79SOL    HW2 1137   2.114   5.206   2.161
   80SOL     OW 1138   4.579   1.664   4.853
   80SOL    HW1 1139   4.644   1.648   4.926
   80SOL    HW2 1140   4.576   1.762   4.832
   81SOL     OW 1141   3.041   5.973   1.503
   81SOL    HW1 1142   3.065   6.014   1.591
   81SOL    HW2 1143   2.999   6.041   1.444
   82SOL     OW 1144   1.422   6.230   1.433
   82SOL    HW1 1145   1.369   6.311   1.407
   82SOL    HW2 1146   1.483   6.205   1.358
   83SOL     OW 1147   5.271   1.674   4.709
   83SOL    HW1 1148   5.298   1.602   4.773
   83SOL    HW2 1149   5.275   1.762   4.754
   84SOL     OW 1150   6.120   2.832   3.033
   84SOL    HW1 1151   6.113   2.800   2.938
   84SOL    HW2 1152   6.185   2.774   3.082
   85SOL     OW 1153   2.303   0.493   4.066
   85SOL    HW1 1154   2.385   0.514   4.119
   85SOL    HW2 1155   2.222   0.528   4.114
   86SOL     OW 1156   5.539   0.719   6.404
   86SOL    HW1 1157   5.457   0.661   6.404
   86SOL    HW2 1158   5.620   0.661   6.414
   87SOL     OW 1159   3.124   3.766   6.582
   87SOL    HW1 1160   3.139   3.798   6.489
   87SOL    HW2 1161   3.193   3.805   6.643
   88SOL     OW 1162   3.284   3.374   0.123
   88SOL    HW1 1163   3.290   3.294   0.064
   88SOL    HW2 1164   3.283   3.345   0.218
   89SOL     OW 1165   2.968   3.731   2.937
   89SOL    HW1 1166   2.903   3.658   2.913
   89SOL    HW2 1167   3.012   3.708   3.024
   90SOL     OW 1168   4.750   4.089   2.863
   90SOL    HW1 1169   4.791   4.043   2.785
   90SOL    HW2 1170   4.676   4.149   2.832
   91SOL     OW 1171   5.335   5.067   6.257
   91SOL    HW1 1172   5.293   5.108   6.338
   91SOL    HW2 1173   5.291   5.103   6.175
   92SOL     OW 1174   5.546   4.219   6.772
   92SOL    HW1 1175   5.579   4.165   6.849
   92SOL    HW2 1176   5.613   4.291   6.752
   93SOL     OW 1177   3.020   3.250   2.018
   93SOL    HW1 1178   3.036   3.260   1.919
   93SOL    HW2 1179   3.034   3.156   2.045
   94SOL     OW 1180   3.127   1.161   6.027
   94SOL    HW1 1181   3.187   1.222   5.976
   94SOL    HW2 1182   3.168   1.070   6.031
   95SOL     OW 1183   6.895   0.579   3.982
   95SOL    HW1 1184   6.914   0.662   4.035
   95SOL    HW2 1185   6.929   0.500   4.032
   96SOL     OW 1186   4.577   5.065   0.692
   96SOL    HW1 1187   4.519   5.089   0.771
   96SOL    HW2 1188   4.521   5.067   0.609
   97SOL     OW 1189   1.853   5.410   5.316
   97SOL    HW1 1190   1.827   5.387   5.410
   97SOL    HW2 1191   1.866   5.509   5.309
   98SOL     OW 1192   1.038   2.757   3.223
   98SOL    HW1 1193   0.960   2.807   3.259
   98SOL    HW2 1194   1.089   2.817   3.160
   99SOL     OW 1195   4.060   3.425   4.384
   99SOL    HW1 1196   4.085   3.371   4.304
   99SOL    HW2 1197   3.974   3.391   4.422
  100SOL     OW 1198   6.818   0.167   3.675
  100SOL    HW1 1199   6.821   0.203   3.581
  100SOL    HW2 1200   6.744   0.212   3.725
  101SOL     OW 1201   6.968   3.403   2.720
  101SOL    HW1 1202   6.904   3.477   2.740
  101SOL    HW2 1203   7.000   3.411   2.625
  102SOL     OW 1204   2.671   6.579   0.934
  102SOL    HW1 1205   2.577   6.613   0.938
  102SOL    HW2 1206   2.699   6.568   0.838
  103SOL     OW 1207   1.981   0.994   1.922
  103SOL    HW1 1208   2.065   0.998   1.868
  103SOL    HW2 1209   1.949   0.900   1.927
  104SOL     OW 1210   1.316   4.895   1.604
  104SOL    HW1 1211   1.286   4.927   1.694
  104SOL    HW2 1212   1.339   4.973   1.546
  105SOL     OW 1213   4.899   1.624   6.092
  105SOL    HW1 1214   4.823   1.623   6.157
  105SOL    HW2 1215   4.891   1.704   6.033
  106SOL     OW 1216   6.071   4.923   2.155
  106SOL    HW1 1217   6.048   4.868   2.075
  106SOL    HW2 1218   6.114   5.009   2.125
  107SOL     OW 1219   6.233   0.424   1.048
  107SOL    HW1 1220   6.154   0.364   1.047
  107SOL    HW2 1221   6.203   0.519   1.053
  108SOL     OW 1222   1.756   0.709   6.136
  108SOL    HW1 1223   1.666   0.697   6.094
  108SOL    HW2 1224   1.755   0.790   6.194
  109SOL     OW 1225   2.428   1.127   3.632
  109SOL    HW1 1226   2.494   1.092   3.698
  109SOL    HW2 1227   2.376   1.051   3.592
  110SOL     OW 1228   2.814   4.414   5.748
  110SOL    HW1 1229   2.721   4.391   5.779
  110SOL    HW2 1230   2.834   4.365   5.664
  111SOL     OW 1231   6.526   1.827   1.861
  111SOL    HW1 1232   6.480   1.810   1.948
  111SOL    HW2 1233   6.536   1.926   1.848
  112SOL     OW 1234   4.821   0.053   6.779
  112SOL    HW1 1235   4.758   0.078   6.706
  112SOL    HW2 1236   4.886   0.128   6.794
  113SOL     OW 1237   6.767   6.279   1.883
  113SOL    HW1 1238   6.818   6.355   1.924
  113SOL    HW2 1239   6.764   6.291   1.783
  114SOL     OW 1240   0.946   3.916   3.444
  114SOL    HW1 1241   0.937   3.970   3.528
  114SOL    HW2 1242   0.857   3.881   3.416
  115SOL     OW 1243   5.913   1.159   3.335
  115SOL    HW1 1244   5.898   1.204   3.247
  115SOL    HW2 1245   5.914   1.227   3.408
  116SOL     OW 1246   1.359   4.788   0.709
  116SOL    HW1 1247   1.331   4.717   0.773
  116SOL    HW2 1248   1.316   4.772   0.620
  117SOL     OW 1249   2.399   1.315   0.173
  117SOL    HW1 1250   2.402   1.376   0.093
  117SOL    HW2 1251   2.408   1.220   0.142
  118SOL     OW 1252   1.760   1.150   4.536
  118SOL    HW1 1253   1.666   1.149   4.501
  118SOL    HW2 1254   1.761   1.114   4.629
  119SOL     OW 1255   0.078   6.030   6.233
  119SOL    HW1 1256   0.004   6.071   6.286
  119SOL    HW2 1257   0.052   5.937   6.206
  120SOL     OW 1258   4.641   2.312   4.641
  120SOL    HW1 1259   4.607   2.277   4.553
  120SOL    HW2 1260   4.576   2.378   4.677
  121SOL     OW 1261   1.225   3.900   6.350
  121SOL    HW1 1262   1.176   3.879   6.434
  121SOL    HW2 1263   1.313   3.853   6.349
  122SOL     OW 1264   0.831   4.143   0.235
  122SOL    HW1 1265   0.849   4.084   0.156
  122SOL    HW2 1266   0.918   4.175   0.273
  123SOL     OW 1267   1.274   0.951   1.523
  123SOL    HW1 1268   1.263   0.853   1.510
  123SOL    HW2 1269   1.196   0.999   1.483
  124SOL     OW 1270   2.202   2.459   0.820
  124SOL    HW1 1271   2.199   2.364   0.789
  124SOL    HW2 1272   2.293   2.479   0.857
  125SOL     OW 1273   3.642   3.112   0.354
  125SOL    HW1 1274   3.625   3.072   0.444
  125SOL    HW2 1275   3.556   3.117   0.303
  126SOL     OW 1276   3.526   3.330   4.055
  126SOL    HW1 1277   3.550   3.342   4.151
  126SOL    HW2 1278   3.607   3.346   3.998
  127SOL     OW 1279   0.409   6.503   5.847
  127SOL    HW1 1280   0.376   6.436   5.780
  127SOL    HW2 1281   0.481   6.462   5.902
  128SOL     OW 1282   4.773   3.746   0.923
  128SOL    HW1 1283   4.826   3.728   0.840
  128SOL    HW2 1284   4.676   3.750   0.901
  129SOL     OW 1285   2.168   6.157   1.293
  129SOL    HW1 1286   2.078   6.184   1.326
  129SOL    HW2 1287   2.195   6.070   1.335
  130SOL     OW 1288   5.761   2.385   4.653
  130SOL    HW1 1289   5.710   2.310   4.610
  130SOL    HW2 1290   5.727   2.400   4.745
  131SOL     OW 1291   6.865   2.673   3.486
  131SOL    HW1 1292   6.870   2.584   3.532
  131SOL    HW2 1293   6.819   2.662   3.398
  132SOL     OW 1294   3.583   3.966   1.833
  132SOL    HW1 1295   3.508   3.906   1.803
  132SOL    HW2 1296   3.558   4.061   1.814
  133SOL     OW 1297   5.245   6.766   5.712
  133SOL    HW1 1298   5.265   6.705   5.788
  133SOL    HW2 1299   5.265   6.720   5.626
  134SOL     OW 1300   5.654   0.783   1.909
  134SOL    HW1 1301   5.684   0.689   1.892
  134SOL    HW2 1302   5.730   0.845   1.890
  135SOL     OW 1303   4.880   3.695   4.515
  135SOL    HW1 1304   4.849   3.666   4.424
  135SOL    HW2 1305   4.899   3.793   4.514
  136SOL     OW 1306   3.477   0.111   5.636
  136SOL    HW1 1307   3.460   0.209   5.648
  136SOL    HW2 1308   3.499   0.092   5.540
  137SOL     OW 1309   2.989   2.463   5.303
  137SOL    HW1 1310   2.960   2.396   5.372
  137SOL    HW2 1311   3.077   2.435   5.265
  138SOL     OW 1312   0.736   6.015   5.692
  138SOL    HW1 1313   0.756   5.941   5.757
  138SOL    HW2 1314   0.637   6.024   5.681
  139SOL     OW 1315   2.238   6.127   6.866
  139SOL    HW1 1316   2.238   6.226   6.849
  139SOL    HW2 1317   2.184   6.107   6.947
  140SOL     OW 1318   2.290   0.515   2.644
  140SOL    HW1 1319   2.306   0.512   2.546
  140SOL    HW2 1320   2.375   0.536   2.691
  141SOL     OW 1321   0.079   4.588   0.367
  141SOL    HW1 1322   0.144   4.546   0.430
  141SOL    HW2 1323   0.102   4.684   0.353
  142SOL     OW 1324   1.799   4.163   2.293
  142SOL    HW1 1325   1.883   4.134   2.340
  142SOL    HW2 1326   1.778   4.099   2.220
  143SOL     OW 1327   4.578   6.929   1.856
  143SOL    HW1 1328   4.564   6.833   1.881
  143SOL    HW2 1329   4.675   6.945   1.838
  144SOL     OW 1330   3.349   5.017   3.534
  144SOL    HW1 1331   3.368   5.085   3.464
  144SOL    HW2 1332   3.434   4.985   3.574
  145SOL     OW 1333   0.000   4.469   3.012
  145SOL    HW1 1334   0.042   4.514   2.933
  145SOL    HW2 1335   0.032   4.514   3.096
  146SOL     OW 1336   5.777   1.485   6.291
  146SOL    HW1 1337   5.847   1.540   6.244
  146SOL    HW2 1338   5.803   1.473   6.387
  147SOL     OW 1339   4.827   1.362   5.483
  147SOL    HW1 1340   4.752   1.302   5.514
  147SOL    HW2 1341   4.825   1.446   5.537
  148SOL     OW 1342   1.210   5.235   0.984
  148SOL    HW1 1343   1.306   5.254   1.004
  148SOL    HW2 1344   1.155   5.316   1.005
  149SOL     OW 1345   2.005   2.493   5.878
  149SOL    HW1 1346   1.973   2.584   5.905
  149SOL    HW2 1347   1.983   2.478   5.781
  150SOL     OW 1348   4.399   1.830   4.525
  150SOL    HW1 1349   4.490   1.798   4.498
  150SOL    HW2 1350   4.367   1.776   4.603
  151SOL     OW 1351   4.328   2.405   0.781
  151SOL    HW1 1352   4.426   2.389   0.772
  151SOL    HW2 1353   4.288   2.334   0.840
  152SOL     OW 1354   0.904   1.084   0.147
  152SOL    HW1 1355   0.836   1.154   0.125
  152SOL    HW2 1356   0.858   1.000   0.176
  153SOL     OW 1357   2.718   1.243   4.006
  153SOL    HW1 1358   2.795   1.187   4.036
  153SOL    HW2 1359   2.696   1.310   4.077
  154SOL     OW 1360   6.086   1.819   1.395
  154SOL    HW1 1361   6.064   1.722   1.390
  154SOL    HW2 1362   6.091   1.858   1.303
  155SOL     OW 1363   1.574   6.880   2.019
  155SOL    HW1 1364   1.604   6.890   2.114
  155SOL    HW2 1365   1.582   6.968   1.972
  156SOL     OW 1366   5.566   2.378   0.316
  156SOL    HW1 1367   5.591   2.345   0.407
  156SOL    HW2 1368   5.523   2.303   0.264
  157SOL     OW 1369   4.739   5.010   0.153
  157SOL    HW1 1370   4.819   4.965   0.192
  157SOL    HW2 1371   4.665   5.010   0.220
  158SOL     OW 1372   0.372   3.154   2.869
  158SOL    HW1 1373   0.313   3.111   2.800
  158SOL    HW2 1374   0.326   3.154   2.957
  159SOL     OW 1375   5.580   5.751   0.790
  159SOL    HW1 1376   5.545   5.680   0.728
  159SOL    HW2 1377   5.590   5.712   0.882
  160SOL     OW 1378   6.242   0.052   1.172
  160SOL    HW1 1379   6.182   0.129   1.192
  160SOL    HW2 1380   6.296   0.072   1.091
  161SOL     OW 1381   0.454   6.753   0.347
  161SOL    HW1 1382   0.357   6.731   0.356
  161SOL    HW2 1383   0.463   6.849   0.321
  162SOL     OW 1384   4.209   6.819   0.487
  162SOL    HW1 1385   4.155   6.758   0.430
  162SOL    HW2 1386   4.154   6.899   0.511
  163SOL     OW 1387   0.029   3.567   3.678
  163SOL    HW1 1388   6.973   3.569   3.737
  163SOL    HW2 1389   0.033   3.652   3.624
  164SOL     OW 1390   1.580   2.018   3.332
  164SOL    HW1 1391   1.573   1.990   3.428
  164SOL    HW2 1392   1.605   2.115   3.327
  165SOL     OW 1393   0.958   5.685   3.332
  165SOL    HW1 1394   0.932   5.635   3.249
  165SOL    HW2 1395   0.876   5.701   3.388
  166SOL     OW 1396   6.779   3.611   2.804
  166SOL    HW1 1397   6.704   3.613   2.738
  166SOL    HW2 1398   6.809   3.704   2.823
  167SOL     OW 1399   5.028   2.152   6.750
  167SOL    HW1 1400   4.979   2.209   6.816
  167SOL    HW2 1401   4.974   2.144   6.667
  168SOL     OW 1402   5.144   3.500   2.127
  168SOL    HW1 1403   5.125   3.414   2.081
  168SOL    HW2 1404   5.079   3.514   2.202
  169SOL     OW 1405   6.230   2.653   0.998
  169SOL    HW1 1406   6.186   2.593   1.064
  169SOL    HW2 1407   6.275   2.598   0.927
  170SOL     OW 1408   0.599   5.022   2.443
  170SOL    HW1 1409   0.633   4.978   2.526
  170SOL    HW2 1410   0.520   4.972   2.409
  171SOL     OW 1411   3.077   3.488   0.504
  171SOL    HW1 1412   2.991   3.523   0.468
  171SOL    HW2 1413   3.151   3.551   0.480
  172SOL     OW 1414   6.459   1.931   0.910
  172SOL    HW1 1415   6.415   1.913   0.822
  172SOL    HW2 1416   6.422   2.015   0.950
  173SOL     OW 1417   6.356   1.949   5.705
  173SOL    HW1 1418   6.297   1.917   5.779
  173SOL    HW2 1419   6.447   1.970   5.740
  174SOL     OW 1420   6.053   5.307   5.677
  174SOL    HW1 1421   5.964   5.276   5.709
  174SOL    HW2 1422   6.043   5.355   5.589
  175SOL     OW 1423   0.641   0.250   0.836
  175SOL    HW1 1424   0.676   0.159   0.858
  175SOL    HW2 1425   0.718   0.313   0.823
  176SOL     OW 1426   5.428   4.576   2.590
  176SOL    HW1 1427   5.437   4.546   2.685
  176SOL    HW2 1428   5.518   4.580   2.548
  177SOL     OW 1429   5.946   2.165   4.105
  177SOL    HW1 1430   6.004   2.150   4.186
  177SOL    HW2 1431   5.882   2.089   4.096
  178SOL     OW 1432   1.708   6.607   5.616
  178SOL    HW1 1433   1.795   6.564   5.592
  178SOL    HW2 1434   1.659   6.632   5.532
  179SOL     OW 1435   3.777   5.111   1.048
  179SOL    HW1 1436   3.756   5.027   1.098
  179SOL    HW2 1437   3.770   5.093   0.950
  180SOL     OW 1438   4.276   1.623   0.964
  180SOL    HW1 1439   4.284   1.654   1.059
  180SOL    HW2 1440   4.300   1.698   0.902
  181SOL     OW 1441   3.534   2.233   5.570
  181SOL    HW1 1442   3.588   2.149   5.571
  181SOL    HW2 1443   3.590   2.308   5.533
  182SOL     OW 1444   4.802   1.993   6.349
  182SOL    HW1 1445   4.827   2.042   6.266
  182SOL    HW2 1446   4.709   1.957   6.340
  183SOL     OW 1447   3.235   1.362   3.585
  183SOL    HW1 1448   3.288   1.318   3.658
  183SOL    HW2 1449   3.171   1.295   3.546
  184SOL     OW 1450   6.532   6.488   3.134
  184SOL    HW1 1451   6.615   6.518   3.088
  184SOL    HW2 1452   6.471   6.445   3.067
  185SOL     OW 1453   0.378   1.098   4.310
  185SOL    HW1 1454   0.403   1.152   4.230
  185SOL    HW2 1455   0.447   1.110   4.381
  186SOL     OW 1456   4.555   5.753   3.564
  186SOL    HW1 1457   4.498   5.811   3.622
  186SOL    HW2 1458   4.501   5.676   3.531
  187SOL     OW 1459   4.302   6.001   2.047
  187SOL    HW1 1460   4.286   6.043   1.958
  187SOL    HW2 1461   4.253   6.052   2.117
  188SOL     OW 1462   2.319   2.877   3.004
  188SOL    HW1 1463   2.288   2.954   3.060
  188SOL    HW2 1464   2.255   2.864   2.928
  189SOL     OW 1465   6.211   4.926   6.299
  189SOL    HW1 1466   6.121   4.898   6.332
  189SOL    HW2 1467   6.201   4.987   6.220
  190SOL     OW 1468   5.808   0.244   0.405
  190SOL    HW1 1469   5.861   0.238   0.490
  190SOL    HW2 1470   5.717   0.206   0.419
  191SOL     OW 1471   6.180   0.801   5.707
  191SOL    HW1 1472   6.254   0.860   5.676
  191SOL    HW2 1473   6.106   0.857   5.744
  192SOL     OW 1474   0.809   5.125   0.680
  192SOL    HW1 1475   0.832   5.082   0.593
  192SOL    HW2 1476   0.879   5.105   0.748
  193SOL     OW 1477   2.544   5.369   6.254
  193SOL    HW1 1478   2.521   5.273   6.239
  193SOL    HW2 1479   2.623   5.375   6.316
  194SOL     OW 1480   3.791   6.913   2.204
  194SOL    HW1 1481   3.808   6.976   2.128
  194SOL    HW2 1482   3.706   6.938   2.250
  195SOL     OW 1483   2.775   1.270   1.613
  195SOL    HW1 1484   2.810   1.291   1.704
  195SOL    HW2 1485   2.729   1.351   1.575
  196SOL     OW 1486   2.044   0.941   6.873
  196SOL    HW1 1487   2.054   1.037   6.897
  196SOL    HW2 1488   1.953   0.909   6.900
  197SOL     OW 1489   2.330   5.791   0.302
  197SOL    HW1 1490   2.298   5.764   0.212
  197SOL    HW2 1491   2.280   5.873   0.332
  198SOL     OW 1492   4.240   6.300   0.098
  198SOL    HW1 1493   4.262   6.385   0.050
  198SOL    HW2 1494   4.316   6.237   0.090
  199SOL     OW 1495   6.173   6.662   2.980
  199SOL    HW1 1496   6.122   6.578   3.000
  199SOL    HW2 1497   6.200   6.706   3.065
  200SOL     OW 1498   0.442   3.966   3.124
  200SOL    HW1 1499   0.539   3.952   3.141
  200SOL    HW2 1500   0.403   3.885   3.081
  201SOL     OW 1501   3.047   0.904   0.161
  201SOL    HW1 1502   3.011   0.820   0.202
  201SOL    HW2 1503   2.986   0.934   0.088
  202SOL     OW 1504   3.616   6.855   3.741
  202SOL    HW1 1505   3.661   6.779   3.693
  202SOL    HW2 1506   3.682   6.926   3.762
  203SOL     OW 1507   5.450   3.519   6.075
  203SOL    HW1 1508   5.411   3.458   6.145
  203SOL    HW2 1509   5.439   3.614   6.105
  204SOL     OW 1510   2.672   6.955   0.549
  204SOL    HW1 1511   2.628   6.878   0.593
  204SOL    HW2 1512   2.763   6.970   0.589
  205SOL     OW 1513   6.124   1.908   1.117
  205SOL    HW1 1514   6.181   1.841   1.069
  205SOL    HW2 1515   6.030   1.901   1.085
  206SOL     OW 1516   0.166   4.796   1.794
  206SOL    HW1 1517   0.249   4.851   1.787
  206SOL    HW2 1518   0.091   4.852   1.830
  207SOL     OW 1519   4.836   0.989   5.708
  207SOL    HW1 1520   4.785   1.044   5.643
  207SOL    HW2 1521   4.773   0.939   5.767
  208SOL     OW 1522   5.080   5.793   6.111
  208SOL    HW1 1523   5.145   5.797   6.035
  208SOL    HW2 1524   5.053   5.885   6.137
  209SOL     OW 1525   6.605   5.291   5.936
  209SOL    HW1 1526   6.622   5.208   5.883
  209SOL    HW2 1527   6.556   5.357   5.879
  210SOL     OW 1528   4.036   2.315   1.443
  210SOL    HW1 1529   3.993   2.260   1.372
  210SOL    HW2 1530   4.076   2.398   1.403
  211SOL     OW 1531   0.804   1.362   0.891
  211SOL    HW1 1532   0.729   1.298   0.908
  211SOL    HW2 1533   0.809   1.382   0.793
  212SOL     OW 1534   0.903   5.255   3.673
  212SOL    HW1 1535   0.886   5.248   3.771
  212SOL    HW2 1536   0.951   5.341   3.654
  213SOL     OW 1537   5.291   2.156   6.695
  213SOL    HW1 1538   5.336   2.073   6.660
  213SOL    HW2 1539   5.192   2.141   6.699
  214SOL     OW 1540   0.990   6.593   2.196
  214SOL    HW1 1541   0.912   6.548   2.152
  214SOL    HW2 1542   1.072   6.579   2.142
  215SOL     OW 1543   3.518   3.175   2.423
  215SOL    HW1 1544   3.530   3.165   2.325
  215SOL    HW2 1545   3.434   3.226   2.441
  216SOL     OW 1546   0.708   0.244   5.578
  216SOL    HW1 1547   0.740   0.337   5.559
  216SOL    HW2 1548   0.623   0.226   5.528
  217SOL     OW 1549   1.134   3.186   3.754
  217SOL    HW1 1550   1.063   3.191   3.824
  217SOL    HW2 1551   1.204   3.120   3.782
  218SOL     OW 1552   1.177   3.087   5.123
  218SOL    HW1 1553   1.231   3.025   5.067
  218SOL    HW2 1554   1.224   3.175   5.131
  219SOL     OW 1555   4.450   4.784   0.452
  219SOL    HW1 1556   4.398   4.713   0.500
  219SOL    HW2 1557   4.547   4.761   0.453
  220SOL     OW 1558   2.660   5.160   6.997
  220SOL    HW1 1559   2.704   5.249   7.012
  220SOL    HW2 1560   2.677   5.129   6.904
  221SOL     OW 1561   5.097   2.299   3.701
  221SOL    HW1 1562   5.194   2.279   3.707
  221SOL    HW2 1563   5.045   2.221   3.738
  222SOL     OW 1564   0.371   5.876   6.019
  222SOL    HW1 1565   0.322   5.962   6.032
  222SOL    HW2 1566   0.343   5.835   5.933
  223SOL     OW 1567   0.147   3.755   1.980
  223SOL    HW1 1568   0.241   3.762   2.015
  223SOL    HW2 1569   0.123   3.841   1.933
  224SOL     OW 1570   2.666   2.311   1.928
  224SOL    HW1 1571   2.760   2.322   1.960
  224SOL    HW2 1572   2.661   2.238   1.861
  225SOL     OW 1573   5.803   0.708   6.993
  225SOL    HW1 1574   5.795   0.806   6.976
  225SOL    HW2 1575   5.896   0.678   6.970
  226SOL     OW 1576   0.761   6.164   0.513
  226SOL    HW1 1577   0.784   6.256   0.542
  226SOL    HW2 1578   0.842   6.118   0.478
  227SOL     OW 1579   1.614   3.624   3.910
  227SOL    HW1 1580   1.702   3.669   3.921
  227SOL    HW2 1581   1.629   3.527   3.888
  228SOL     OW 1582   4.746   6.597   3.695
  228SOL    HW1 1583   4.812   6.663   3.731
  228SOL    HW2 1584   4.787   6.506   3.695
  229SOL     OW 1585   5.990   6.246   1.989
  229SOL    HW1 1586   6.087   6.242   1.967
  229SOL    HW2 1587   5.943   6.303   1.922
  230SOL     OW 1588   2.246   4.266   5.044
  230SOL    HW1 1589   2.328   4.306   5.004
  230SOL    HW2 1590   2.246   4.167   5.029
  231SOL     OW 1591   0.563   3.382   6.235
  231SOL    HW1 1592   0.607   3.472   6.237
  231SOL    HW2 1593   0.473   3.391   6.192
  232SOL     OW 1594   1.346   3.602   6.866
  232SOL    HW1 1595   1.420   3.611   6.933
  232SOL    HW2 1596   1.362   3.521   6.809
  233SOL     OW 1597   2.090   1.823   5.309
  233SOL    HW1 1598   2.166   1.876   5.347
  233SOL    HW2 1599   2.010   1.832   5.369
  234SOL     OW 1600   2.682   5.087   6.742
  234SOL    HW1 1601   2.773   5.045   6.755
  234SOL    HW2 1602   2.668   5.106   6.645
  235SOL     OW 1603   3.131   3.568   4.189
  235SOL    HW1 1604   3.191   3.632   4.238
  235SOL    HW2 1605   3.071   3.620   4.128
  236SOL     OW 1606   6.594   2.513   5.380
  236SOL    HW1 1607   6.623   2.470   5.466
  236SOL    HW2 1608   6.520   2.578   5.398
  237SOL     OW 1609   0.648   0.150   1.578
  237SOL    HW1 1610   0.639   0.236   1.529
  237SOL    HW2 1611   0.567   0.134   1.635
  238SOL     OW 1612   5.514   3.147   2.572
  238SOL    HW1 1613   5.577   3.071   2.553
  238SOL    HW2 1614   5.559   3.233   2.551
  239SOL     OW 1615   6.854   5.851   6.964
  239SOL    HW1 1616   6.911   5.924   6.926
  239SOL    HW2 1617   6.911   5.783   7.010
  240SOL     OW 1618   0.416   4.132   5.898
  240SOL    HW1 1619   0.363   4.048   5.883
  240SOL    HW2 1620   0.374   4.207   5.847
  241SOL     OW 1621   0.292   0.745   3.136
  241SOL    HW1 1622   0.353   0.823   3.125
  241SOL    HW2 1623   0.251   0.722   3.048
  242SOL     OW 1624   1.608   3.538   4.387
  242SOL    HW1 1625   1.634   3.628   4.423
  242SOL    HW2 1626   1.516   3.543   4.348
  243SOL     OW 1627   5.672   6.511   5.217
  243SOL    HW1 1628   5.687   6.539   5.122
  243SOL    HW2 1629   5.676   6.411   5.223
  244SOL     OW 1630   5.732   2.119   4.948
  244SOL    HW1 1631   5.692   2.065   4.874
  244SOL    HW2 1632   5.800   2.064   4.996
  245SOL     OW 1633   6.133   2.794   4.142
  245SOL    HW1 1634   6.136   2.708   4.092
  245SOL    HW2 1635   6.040   2.830   4.142
  246SOL     OW 1636   4.858   3.866   3.192
  246SOL    HW1 1637   4.835   3.850   3.288
  246SOL    HW2 1638   4.777   3.854   3.135
  247SOL     OW 1639   2.047   1.639   3.422
  247SOL    HW1 1640   2.115   1.574   3.454
  247SOL    HW2 1641   2.065   1.729   3.463
  248SOL     OW 1642   5.705   1.559   3.795
  248SOL    HW1 1643   5.773   1.486   3.801
  248SOL    HW2 1644   5.725   1.617   3.715
  249SOL     OW 1645   3.521   6.936   4.243
  249SOL    HW1 1646   3.472   6.962   4.160
  249SOL    HW2 1647   3.578   7.012   4.274
  250SOL     OW 1648   5.209   3.568   5.940
  250SOL    HW1 1649   5.179   3.487   5.888
  250SOL    HW2 1650   5.291   3.545   5.993
  251SOL     OW 1651   4.207   2.667   6.766
  251SOL    HW1 1652   4.238   2.718   6.847
  251SOL    HW2 1653   4.168   2.580   6.795
  252SOL     OW 1654   6.999   0.365   5.918
  252SOL    HW1 1655   6.911   0.380   5.875
  252SOL    HW2 1656   6.986   0.330   6.011
  253SOL     OW 1657   3.051   3.152   0.306
  253SOL    HW1 1658   3.018   3.061   0.332
  253SOL    HW2 1659   3.076   3.203   0.388
  254SOL     OW 1660   5.730   2.850   5.167
  254SOL    HW1 1661   5.775   2.811   5.086
  254SOL    HW2 1662   5.662   2.786   5.202
  255SOL     OW 1663   2.854   2.057   3.121
  255SOL    HW1 1664   2.908   2.116   3.061
  255SOL    HW2 1665   2.766   2.100   3.140
  256SOL     OW 1666   5.255   4.830   0.034
  256SOL    HW1 1667   5.227   4.923   0.012
  256SOL    HW2 1668   5.256   4.818   0.134
  257SOL     OW 1669   2.869   5.759   6.125
  257SOL    HW1 1670   2.862   5.688   6.195
  257SOL    HW2 1671   2.948   5.817   6.144
  258SOL     OW 1672   5.586   4.303   4.351
  258SOL    HW1 1673   5.606   4.229   4.286
  258SOL    HW2 1674   5.489   4.300   4.375
  259SOL     OW 1675   1.356   2.015   2.824
  259SOL    HW1 1676   1.403   2.035   2.910
  259SOL    HW2 1677   1.423   1.995   2.753
  260SOL     OW 1678   5.933   0.539   5.673
  260SOL    HW1 1679   5.997   0.602   5.718
  260SOL    HW2 1680   5.961   0.526   5.578
  261SOL     OW 1681   1.059   4.123   2.238
  261SOL    HW1 1682   1.147   4.097   2.276
  261SOL    HW2 1683   1.068   4.211   2.191
  262SOL     OW 1684   0.771   4.420   1.987
  262SOL    HW1 1685   0.784   4.514   2.017
  262SOL    HW2 1686   0.722   4.369   2.058
  263SOL     OW 1687   0.612   1.713   4.439
  263SOL    HW1 1688   0.631   1.619   4.413
  263SOL    HW2 1689   0.643   1.730   4.532
  264SOL     OW 1690   2.169   4.580   6.412
  264SOL    HW1 1691   2.142   4.588   6.508
  264SOL    HW2 1692   2.089   4.587   6.353
  265SOL     OW 1693   5.163   4.598   4.508
  265SOL    HW1 1694   5.159   4.513   4.455
  265SOL    HW2 1695   5.251   4.603   4.555
  266SOL     OW 1696   3.930   1.768   0.785
  266SOL    HW1 1697   3.915   1.713   0.702
  266SOL    HW2 1698   3.944   1.707   0.863
  267SOL     OW 1699   1.426   2.023   6.174
  267SOL    HW1 1700   1.448   2.111   6.132
  267SOL    HW2 1701   1.355   2.036   6.244
  268SOL     OW 1702   4.177   4.815   4.570
  268SOL    HW1 1703   4.253   4.853   4.516
  268SOL    HW2 1704   4.213   4.780   4.657
  269SOL     OW 1705   0.802   2.214   5.704
  269SOL    HW1 1706   0.810   2.307   5.669
  269SOL    HW2 1707   0.710   2.179   5.687
  270SOL     OW 1708   5.332   1.006   3.065
  270SOL    HW1 1709   5.323   1.070   2.988
  270SOL    HW2 1710   5.336   1.058   3.150
  271SOL     OW 1711   1.454   0.649   6.679
  271SOL    HW1 1712   1.390   0.705   6.731
  271SOL    HW2 1713   1.407   0.603   6.605
  272SOL     OW 1714   3.148   6.087   3.505
  272SOL    HW1 1715   3.119   6.153   3.437
  272SOL    HW2 1716   3.225   6.034   3.469
  273SOL     OW 1717   2.739   6.447   5.010
  273SOL    HW1 1718   2.730   6.416   4.916
  273SOL    HW2 1719   2.728   6.370   5.073
  274SOL     OW 1720   6.303   2.475   2.403
  274SOL    HW1 1721   6.380   2.485   2.466
  274SOL    HW2 1722   6.313   2.541   2.328
  275SOL     OW 1723   6.825   5.887   5.247
  275SOL    HW1 1724   6.891   5.913   5.176
  275SOL    HW2 1725   6.801   5.791   5.236
  276SOL     OW 1726   6.395   6.275   3.594
  276SOL    HW1 1727   6.420   6.193   3.647
  276SOL    HW2 1728   6.335   6.333   3.650
  277SOL     OW 1729   3.951   1.757   5.546
  277SOL    HW1 1730   3.880   1.694   5.579
  277SOL    HW2 1731   4.020   1.771   5.617
  278SOL     OW 1732   5.542   3.470   2.866
  278SOL    HW1 1733   5.472   3.508   2.806
  278SOL    HW2 1734   5.511   3.382   2.902
  279SOL     OW 1735   0.094   2.790   3.529
  279SOL    HW1 1736   0.012   2.753   3.485
  279SOL    HW2 1737   0.119   2.733   3.607
  280SOL     OW 1738   3.566   0.339   4.168
  280SOL    HW1 1739   3.508   0.307   4.243
  280SOL    HW2 1740   3.660   0.350   4.201
  281SOL     OW 1741   4.904   6.155   3.820
  281SOL    HW1 1742   4.839   6.210   3.873
  281SOL    HW2 1743   4.882   6.058   3.831
  282SOL     OW 1744   4.302   1.990   0.111
  282SOL    HW1 1745   4.286   2.089   0.113
  282SOL    HW2 1746   4.369   1.969   0.039
  283SOL     OW 1747   6.423   1.464   4.887
  283SOL    HW1 1748   6.415   1.386   4.826
  283SOL    HW2 1749   6.419   1.549   4.835
  284SOL     OW 1750   5.891   5.013   4.441
  284SOL    HW1 1751   5.881   4.948   4.516
  284SOL    HW2 1752   5.988   5.019   4.415
  285SOL     OW 1753   4.094   0.473   6.693
  285SOL    HW1 1754   4.072   0.398   6.630
  285SOL    HW2 1755   4.175   0.522   6.660
  286SOL     OW 1756   3.684   4.915   5.194
  286SOL    HW1 1757   3.589   4.902   5.165
  286SOL    HW2 1758   3.688   4.987   5.263
  287SOL     OW 1759   2.607   6.580   5.694
  287SOL    HW1 1760   2.560   6.492   5.703
  287SOL    HW2 1761   2.543   6.654   5.712
  288SOL     OW 1762   3.431   0.849   0.661
  288SOL    HW1 1763   3.347   0.795   0.663
  288SOL    HW2 1764   3.423   0.927   0.723
  289SOL     OW 1765   0.376   6.389   4.049
  289SOL    HW1 1766   0.410   6.478   4.019
  289SOL    HW2 1767   0.301   6.401   4.113
  290SOL     OW 1768   3.450   0.687   4.203
  290SOL    HW1 1769   3.493   0.774   4.178
  290SOL    HW2 1770   3.433   0.634   4.120
  291SOL     OW 1771   4.287   0.595   4.882
  291SOL    HW1 1772   4.272   0.559   4.790
  291SOL    HW2 1773   4.370   0.651   4.883
  292SOL     OW 1774   3.756   0.366   3.703
  292SOL    HW1 1775   3.798   0.452   3.674
  292SOL    HW2 1776   3.677   0.345   3.645
  293SOL     OW 1777   5.855   6.752   2.989
  293SOL    HW1 1778   5.941   6.716   3.024
  293SOL    HW2 1779   5.847   6.849   3.011
  294SOL     OW 1780   5.967   0.958   5.827
  294SOL    HW1 1781   6.001   1.019   5.899
  294SOL    HW2 1782   5.881   0.916   5.857
  295SOL     OW 1783   0.826   1.753   5.237
  295SOL    HW1 1784   0.749   1.788   5.290
  295SOL    HW2 1785   0.906   1.810   5.252
  296SOL     OW 1786   7.014   1.762   1.341
  296SOL    HW1 1787   0.075   1.750   1.392
  296SOL    HW2 1788   6.958   1.679   1.349
  297SOL     OW 1789   5.810   4.167   3.790
  297SOL    HW1 1790   5.836   4.071   3.781
  297SOL    HW2 1791   5.857   4.222   3.721
  298SOL     OW 1792   3.652   1.306   0.131
  298SOL    HW1 1793   3.571   1.251   0.107
  298SOL    HW2 1794   3.658   1.313   0.230
  299SOL     OW 1795   2.257   1.525   6.320
  299SOL    HW1 1796   2.222   1.594   6.384
  299SOL    HW2 1797   2.333   1.476   6.362
  300SOL     OW 1798   3.965   0.855   3.178
  300SOL    HW1 1799   3.966   0.821   3.084
  300SOL    HW2 1800   3.973   0.778   3.241
  301SOL     OW 1801   6.278   5.742   1.271
  301SOL    HW1 1802   6.222   5.696   1.341
  301SOL    HW2 1803   6.267   5.694   1.184
  302SOL     OW 1804   6.033   6.267   1.013
  302SOL    HW1 1805   6.123   6.294   0.979
  302SOL    HW2 1806   6.041   6.183   1.067
  303SOL     OW 1807   5.999   5.652   2.402
  303SOL    HW1 1808   6.098   5.640   2.388
  303SOL    HW2 1809   5.958   5.682   2.316
  304SOL     OW 1810   1.159   6.876   5.105
  304SOL    HW1 1811   1.204   6.809   5.163
  304SOL    HW2 1812   1.143   6.960   5.156
  305SOL     OW 1813   1.337   2.627   2.339
  305SOL    HW1 1814   1.378   2.717   2.329
  305SOL    HW2 1815   1.294   2.618   2.429
  306SOL     OW 1816   6.379   0.799   2.930
  306SOL    HW1 1817   6.385   0.762   2.838
  306SOL    HW2 1818   6.399   0.727   2.997
  307SOL     OW 1819   3.396   3.303   2.805
  307SOL    HW1 1820   3.386   3.316   2.904
  307SOL    HW2 1821   3.364   3.212   2.780
  308SOL     OW 1822   5.507   1.474   4.437
  308SOL    HW1 1823   5.496   1.458   4.535
  308SOL    HW2 1824   5.553   1.396   4.395
  309SOL     OW 1825   0.891   6.383   6.129
  309SOL    HW1 1826   0.903   6.432   6.042
  309SOL    HW2 1827   0.861   6.290   6.112
  310SOL     OW 1828   5.372   5.768   5.123
  310SOL    HW1 1829   5.283   5.732   5.097
  310SOL    HW2 1830   5.367   5.868   5.127
  311SOL     OW 1831   1.733   5.946   2.809
  311SOL    HW1 1832   1.804   5.890   2.852
  311SOL    HW2 1833   1.723   5.919   2.713
  312SOL     OW 1834   4.885   2.067   3.023
  312SOL    HW1 1835   4.832   2.127   2.963
  312SOL    HW2 1836   4.918   2.118   3.102
  313SOL     OW 1837   3.416   3.163   3.765
  313SOL    HW1 1838   3.355   3.098   3.720
  313SOL    HW2 1839   3.389   3.257   3.742
  314SOL     OW 1840   2.450   6.780   5.776
  314SOL    HW1 1841   2.397   6.805   5.695
  314SOL    HW2 1842   2.422   6.837   5.853
  315SOL     OW 1843   6.535   1.341   3.567
  315SOL    HW1 1844   6.452   1.312   3.616
  315SOL    HW2 1845   6.510   1.382   3.480
  316SOL     OW 1846   3.663   1.718   5.235
  316SOL    HW1 1847   3.682   1.628   5.195
  316SOL    HW2 1848   3.587   1.710   5.300
  317SOL     OW 1849   1.146   1.119   1.369
  317SOL    HW1 1850   1.198   1.125   1.284
  317SOL    HW2 1851   1.049   1.112   1.348
  318SOL     OW 1852   0.163   0.561   5.253
  318SOL    HW1 1853   0.247   0.554   5.308
  318SOL    HW2 1854   0.176   0.629   5.181
  319SOL     OW 1855   1.343   2.367   2.245
  319SOL    HW1 1856   1.371   2.454   2.285
  319SOL    HW2 1857   1.315   2.380   2.150
  320SOL     OW 1858   6.117   2.726   7.022
  320SOL    HW1 1859   6.043   2.682   6.970
  320SOL    HW2 1860   6.200   2.670   7.015
  321SOL     OW 1861   4.190   3.115   1.118
  321SOL    HW1 1862   4.126   3.095   1.043
  321SOL    HW2 1863   4.279   3.075   1.096
  322SOL     OW 1864   4.135   3.100   6.394
  322SOL    HW1 1865   4.208   3.132   6.454
  322SOL    HW2 1866   4.165   3.018   6.345
  323SOL     OW 1867   0.514   3.449   3.475
  323SOL    HW1 1868   0.592   3.421   3.531
  323SOL    HW2 1869   0.429   3.415   3.518
  324SOL     OW 1870   1.200   6.832   3.321
  324SOL    HW1 1871   1.218   6.884   3.238
  324SOL    HW2 1872   1.129   6.764   3.303
  325SOL     OW 1873   0.598   3.831   2.759
  325SOL    HW1 1874   0.530   3.832   2.833
  325SOL    HW2 1875   0.685   3.865   2.794
  326SOL     OW 1876   1.565   6.374   6.382
  326SOL    HW1 1877   1.615   6.288   6.393
  326SOL    HW2 1878   1.582   6.412   6.291
  327SOL     OW 1879   4.293   5.222   3.778
  327SOL    HW1 1880   4.324   5.235   3.872
  327SOL    HW2 1881   4.243   5.303   3.749
  328SOL     OW 1882   2.434   4.406   2.319
  328SOL    HW1 1883   2.431   4.430   2.416
  328SOL    HW2 1884   2.517   4.445   2.278
  329SOL     OW 1885   3.241   4.122   1.694
  329SOL    HW1 1886   3.285   4.032   1.692
  329SOL    HW2 1887   3.163   4.119   1.756
  330SOL     OW 1888   3.797   4.944   0.308
  330SOL    HW1 1889   3.869   5.008   0.279
  330SOL    HW2 1890   3.756   4.902   0.227
  331SOL     OW 1891   5.135   5.748   0.068
  331SOL    HW1 1892   5.128   5.814   0.143
  331SOL    HW2 1893   5.049   5.748   0.017
  332SOL     OW 1894   5.298   2.072   2.711
  332SOL    HW1 1895   5.221   2.125   2.747
  332SOL    HW2 1896   5.274   1.975   2.710
  333SOL     OW 1897   3.678   0.980   6.003
  333SOL    HW1 1898   3.714   0.896   6.043
  333SOL    HW2 1899   3.578   0.974   5.999
  334SOL     OW 1900   3.808   4.053   3.747
  334SOL    HW1 1901   3.862   3.971   3.761
  334SOL    HW2 1902   3.825   4.118   3.821
  335SOL     OW 1903   3.612   7.011   6.436
  335SOL    HW1 1904   3.560   6.999   6.521
  335SOL    HW2 1905   3.548   7.023   6.360
  336SOL     OW 1906   3.033   1.811   3.056
  336SOL    HW1 1907   2.978   1.883   3.098
  336SOL    HW2 1908   3.065   1.748   3.126
  337SOL     OW 1909   1.916   1.582   5.960
  337SOL    HW1 1910   1.976   1.536   6.025
  337SOL    HW2 1911   1.843   1.519   5.932
  338SOL     OW 1912   4.661   2.280   1.755
  338SOL    HW1 1913   4.734   2.234   1.805
  338SOL    HW2 1914   4.651   2.374   1.788
  339SOL     OW 1915   3.917   4.938   4.496
  339SOL    HW1 1916   4.009   4.900   4.510
  339SOL    HW2 1917   3.861   4.918   4.577
  340SOL     OW 1918   4.833   2.203   4.247
  340SOL    HW1 1919   4.874   2.290   4.275
  340SOL    HW2 1920   4.746   2.191   4.294
  341SOL     OW 1921   5.915   6.477   3.239
  341SOL    HW1 1922   5.951   6.441   3.153
  341SOL    HW2 1923   5.815   6.474   3.237
  342SOL     OW 1924   4.794   2.237   1.505
  342SOL    HW1 1925   4.714   2.220   1.562
  342SOL    HW2 1926   4.877   2.215   1.556
  343SOL     OW 1927   1.191   5.235   3.440
  343SOL    HW1 1928   1.198   5.304   3.512
  343SOL    HW2 1929   1.254   5.258   3.365
  344SOL     OW 1930   2.008   1.099   1.178
  344SOL    HW1 1931   1.940   1.167   1.206
  344SOL    HW2 1932   2.008   1.023   1.243
  345SOL     OW 1933   6.430   2.956   4.440
  345SOL    HW1 1934   6.373   3.015   4.384
  345SOL    HW2 1935   6.446   2.869   4.393
  346SOL     OW 1936   1.349   0.284   2.742
  346SOL    HW1 1937   1.311   0.286   2.650
  346SOL    HW2 1938   1.274   0.288   2.809
  347SOL     OW 1939   2.794   5.181   0.411
  347SOL    HW1 1940   2.765   5.275   0.393
  347SOL    HW2 1941   2.882   5.182   0.458
  348SOL     OW 1942   5.141   5.614   2.170
  348SOL    HW1 1943   5.151   5.518   2.146
  348SOL    HW2 1944   5.226   5.649   2.209
  349SOL     OW 1945   0.031   4.065   1.029
  349SOL    HW1 1946   7.008   3.978   1.033
  349SOL    HW2 1947   7.008   4.132   1.087
  350SOL     OW 1948   3.525   2.663   0.064
  350SOL    HW1 1949   3.498   2.650   6.993
  350SOL    HW2 1950   3.605   2.723   0.068
  351SOL     OW 1951   3.485   4.459   0.597
  351SOL    HW1 1952   3.465   4.468   0.500
  351SOL    HW2 1953   3.399   4.448   0.648
  352SOL     OW 1954   4.225   6.428   3.653
  352SOL    HW1 1955   4.157   6.460   3.586
  352SOL    HW2 1956   4.306   6.396   3.605
  353SOL     OW 1957   2.838   6.767   6.327
  353SOL    HW1 1958   2.764   6.725   6.276
  353SOL    HW2 1959   2.801   6.836   6.389
  354SOL     OW 1960   5.846   2.390   0.759
  354SOL    HW1 1961   5.773   2.325   0.738
  354SOL    HW2 1962   5.898   2.358   0.838
  355SOL     OW 1963   1.984   2.476   2.332
  355SOL    HW1 1964   1.899   2.438   2.296
  355SOL    HW2 1965   1.987   2.574   2.315
  356SOL     OW 1966   1.518   0.210   5.950
  356SOL    HW1 1967   1.604   0.232   5.904
  356SOL    HW2 1968   1.528   0.125   6.002
  357SOL     OW 1969   5.596   6.805   4.966
  357SOL    HW1 1970   5.558   6.894   4.939
  357SOL    HW2 1971   5.648   6.815   5.050
  358SOL     OW 1972   4.768   6.030   0.722
  358SOL    HW1 1973   4.835   6.038   0.796
  358SOL    HW2 1974   4.698   5.963   0.748
  359SOL     OW 1975   3.328   2.049   1.633
  359SOL    HW1 1976   3.423   2.022   1.645
  359SOL    HW2 1977   3.312   2.137   1.678
  360SOL     OW 1978   1.304   5.087   4.143
  360SOL    HW1 1979   1.394   5.094   4.185
  360SOL    HW2 1980   1.264   4.997   4.164
  361SOL     OW 1981   6.740   5.962   3.445
  361SOL    HW1 1982   6.822   5.906   3.435
  361SOL    HW2 1983   6.683   5.926   3.518
  362SOL     OW 1984   3.792   4.307   0.980
  362SOL    HW1 1985   3.830   4.214   0.976
  362SOL    HW2 1986   3.713   4.313   0.918
  363SOL     OW 1987   6.493   4.801   2.554
  363SOL    HW1 1988   6.571   4.745   2.526
  363SOL    HW2 1989   6.410   4.765   2.512
  364SOL     OW 1990   0.898   5.385   6.775
  364SOL    HW1 1991   0.983   5.428   6.805
  364SOL    HW2 1992   0.919   5.308   6.714
  365SOL     OW 1993   3.777   1.412   2.105
  365SOL    HW1 1994   3.701   1.450   2.157
  365SOL    HW2 1995   3.748   1.392   2.011
  366SOL     OW 1996   5.850   2.994   0.410
  366SOL    HW1 1997   5.791   2.980   0.490
  366SOL    HW2 1998   5.881   2.905   0.376
  367SOL     OW 1999   4.340   1.777   5.596
  367SOL    HW1 2000   4.317   1.735   5.508
  367SOL    HW2 2001   4.257   1.799   5.646
  368SOL     OW 2002   6.500   2.088   6.231
  368SOL    HW1 2003   6.581   2.084   6.172
  368SOL    HW2 2004   6.447   2.170   6.209
  369SOL     OW 2005   5.553   3.632   3.099
  369SOL    HW1 2006   5.560   3.598   3.006
  369SOL    HW2 2007   5.493   3.573   3.153
  370SOL     OW 2008   2.042   2.328   4.019
  370SOL    HW1 2009   1.944   2.315   4.035
  370SOL    HW2 2010   2.094   2.271   4.083
  371SOL     OW 2011   2.154   3.889   6.512
  371SOL    HW1 2012   2.253   3.881   6.496
  371SOL    HW2 2013   2.116   3.958   6.451
  372SOL     OW 2014   2.673   6.835   5.944
  372SOL    HW1 2015   2.599   6.788   5.896
  372SOL    HW2 2016   2.718   6.899   5.882
  373SOL     OW 2017   5.891   6.533   4.715
  373SOL    HW1 2018   5.944   6.606   4.671
  373SOL    HW2 2019   5.935   6.445   4.698
  374SOL     OW 2020   2.811   1.675   2.607
  374SOL    HW1 2021   2.833   1.716   2.695
  374SOL    HW2 2022   2.775   1.745   2.546
  375SOL     OW 2023   0.773   5.155   4.797
  375SOL    HW1 2024   0.706   5.095   4.841
  375SOL    HW2 2025   0.850   5.100   4.765
  376SOL     OW 2026   3.019   1.252   4.526
  376SOL    HW1 2027   2.989   1.188   4.597
  376SOL    HW2 2028   3.081   1.205   4.463
  377SOL     OW 2029   1.516   2.146   6.874
  377SOL    HW1 2030   1.500   2.132   6.776
  377SOL    HW2 2031   1.496   2.242   6.897
  378SOL     OW 2032   3.014   1.513   0.570
  378SOL    HW1 2033   3.081   1.585   0.588
  378SOL    HW2 2034   2.955   1.501   0.650
  379SOL     OW 2035   5.559   2.523   6.316
  379SOL    HW1 2036   5.472   2.474   6.303
  379SOL    HW2 2037   5.541   2.620   6.331
  380SOL     OW 2038   3.322   1.268   1.404
  380SOL    HW1 2039   3.297   1.355   1.447
  380SOL    HW2 2040   3.355   1.285   1.311
  381SOL     OW 2041   1.414   4.594   3.603
  381SOL    HW1 2042   1.413   4.674   3.662
  381SOL    HW2 2043   1.384   4.620   3.511
  382SOL     OW 2044   6.274   0.889   0.096
  382SOL    HW1 2045   6.286   0.789   0.100
  382SOL    HW2 2046   6.205   0.917   0.163
  383SOL     OW 2047   3.801   2.938   0.933
  383SOL    HW1 2048   3.886   2.990   0.929
  383SOL    HW2 2049   3.752   2.959   1.018
  384SOL     OW 2050   6.765   3.749   4.514
  384SOL    HW1 2051   6.823   3.674   4.482
  384SOL    HW2 2052   6.687   3.712   4.564
  385SOL     OW 2053   4.162   4.979   6.289
  385SOL    HW1 2054   4.177   5.064   6.237
  385SOL    HW2 2055   4.209   4.903   6.243
  386SOL     OW 2056   4.492   0.255   4.590
  386SOL    HW1 2057   4.554   0.319   4.637
  386SOL    HW2 2058   4.406   0.248   4.642
  387SOL     OW 2059   2.436   5.116   3.087
  387SOL    HW1 2060   2.390   5.161   3.163
  387SOL    HW2 2061   2.399   5.024   3.074
  388SOL     OW 2062   1.996   2.347   6.214
  388SOL    HW1 2063   1.995   2.249   6.194
  388SOL    HW2 2064   2.076   2.369   6.270
  389SOL     OW 2065   3.443   4.144   2.970
  389SOL    HW1 2066   3.491   4.159   2.884
  389SOL    HW2 2067   3.359   4.091   2.953
  390SOL     OW 2068   2.618   1.432   3.823
  390SOL    HW1 2069   2.702   1.461   3.776
  390SOL    HW2 2070   2.642   1.377   3.903
  391SOL     OW 2071   1.413   2.782   0.256
  391SOL    HW1 2072   1.430   2.686   0.277
  391SOL    HW2 2073   1.500   2.826   0.232
  392SOL     OW 2074   2.372   5.127   1.585
  392SOL    HW1 2075   2.429   5.048   1.560
  392SOL    HW2 2076   2.432   5.204   1.607
  393SOL     OW 2077   5.855   4.763   5.709
  393SOL    HW1 2078   5.820   4.704   5.781
  393SOL    HW2 2079   5.946   4.797   5.735
  394SOL     OW 2080   0.238   6.818   6.957
  394SOL    HW1 2081   0.204   6.807   6.863
  394SOL    HW2 2082   0.226   6.732   7.007
  395SOL     OW 2083   4.911   3.341   2.253
  395SOL    HW1 2084   4.903   3.264   2.190
  395SOL    HW2 2085   4.825   3.393   2.252
  396SOL     OW 2086   3.638   3.711   3.189
  396SOL    HW1 2087   3.643   3.808   3.166
  396SOL    HW2 2088   3.730   3.675   3.201
  397SOL     OW 2089   4.528   2.524   5.449
  397SOL    HW1 2090   4.624   2.529   5.477
  397SOL    HW2 2091   4.495   2.430   5.458
  398SOL     OW 2092   0.985   5.895   2.412
  398SOL    HW1 2093   1.032   5.806   2.410
  398SOL    HW2 2094   0.919   5.896   2.487
  399SOL     OW 2095   4.777   5.462   1.900
  399SOL    HW1 2096   4.782   5.450   1.999
  399SOL    HW2 2097   4.866   5.444   1.859
  400SOL     OW 2098   0.103   0.128   5.382
  400SOL    HW1 2099   0.073   0.214   5.423
  400SOL    HW2 2100   0.024   0.077   5.350
  401SOL     OW 2101   4.910   1.285   6.388
  401SOL    HW1 2102   4.822   1.278   6.435
  401SOL    HW2 2103   4.897   1.271   6.290
  402SOL     OW 2104   6.366   6.197   2.583
  402SOL    HW1 2105   6.399   6.218   2.675
  402SOL    HW2 2106   6.409   6.113   2.550
  403SOL     OW 2107   4.635   2.318   5.921
  403SOL    HW1 2108   4.666   2.396   5.866
  403SOL    HW2 2109   4.631   2.345   6.017
  404SOL     OW 2110   1.578   6.803   3.443
  404SOL    HW1 2111   1.583   6.819   3.345
  404SOL    HW2 2112   1.498   6.851   3.481
  405SOL     OW 2113   1.751   2.289   1.054
  405SOL    HW1 2114   1.680   2.349   1.017
  405SOL    HW2 2115   1.720   2.252   1.142
  406SOL     OW 2116   1.097   2.844   4.034
  406SOL    HW1 2117   1.107   2.837   4.133
  406SOL    HW2 2118   1.000   2.849   4.011
  407SOL     OW 2119   2.523   6.994   4.791
  407SOL    HW1 2120   2.578   0.051   4.772
  407SOL    HW2 2121   2.498   6.992   4.887
  408SOL     OW 2122   1.566   0.279   3.039
  408SOL    HW1 2123   1.607   0.298   3.128
  408SOL    HW2 2124   1.626   0.312   2.967
  409SOL     OW 2125   5.898   3.192   2.863
  409SOL    HW1 2126   5.889   3.114   2.801
  409SOL    HW2 2127   5.995   3.215   2.874
  410SOL     OW 2128   2.534   0.312   0.679
  410SOL    HW1 2129   2.608   0.316   0.612
  410SOL    HW2 2130   2.456   0.365   0.645
  411SOL     OW 2131   5.636   5.834   6.685
  411SOL    HW1 2132   5.608   5.930   6.686
  411SOL    HW2 2133   5.687   5.812   6.768
  412SOL     OW 2134   3.979   6.438   2.989
  412SOL    HW1 2135   3.889   6.471   2.961
  412SOL    HW2 2136   3.974   6.401   3.082
  413SOL     OW 2137   3.696   5.045   0.788
  413SOL    HW1 2138   3.683   4.945   0.789
  413SOL    HW2 2139   3.608   5.089   0.769
  414SOL     OW 2140   4.337   5.164   2.210
  414SOL    HW1 2141   4.367   5.259   2.212
  414SOL    HW2 2142   4.294   5.141   2.297
  415SOL     OW 2143   1.433   5.847   0.498
  415SOL    HW1 2144   1.453   5.777   0.430
  415SOL    HW2 2145   1.372   5.915   0.459
  416SOL     OW 2146   4.402   5.488   4.832
  416SOL    HW1 2147   4.479   5.441   4.876
  416SOL    HW2 2148   4.435   5.568   4.784
  417SOL     OW 2149   3.070   6.681   1.448
  417SOL    HW1 2150   2.995   6.616   1.452
  417SOL    HW2 2151   3.068   6.729   1.360
  418SOL     OW 2152   4.745   5.988   0.412
  418SOL    HW1 2153   4.682   5.920   0.449
  418SOL    HW2 2154   4.826   5.993   0.470
  419SOL     OW 2155   0.843   0.579   1.222
  419SOL    HW1 2156   0.764   0.561   1.281
  419SOL    HW2 2157   0.915   0.623   1.275
  420SOL     OW 2158   6.026   3.766   1.275
  420SOL    HW1 2159   6.114   3.720   1.260
  420SOL    HW2 2160   5.992   3.744   1.367
  421SOL     OW 2161   1.044   4.931   6.411
  421SOL    HW1 2162   1.040   4.851   6.471
  421SOL    HW2 2163   0.957   4.940   6.363
  422SOL     OW 2164   6.046   5.314   0.913
  422SOL    HW1 2165   6.041   5.215   0.901
  422SOL    HW2 2166   6.065   5.335   1.009
  423SOL     OW 2167   6.428   3.261   0.561
  423SOL    HW1 2168   6.514   3.307   0.586
  423SOL    HW2 2169   6.354   3.329   0.557
  424SOL     OW 2170   3.332   3.314   0.401
  424SOL    HW1 2171   3.252   3.354   0.445
  424SOL    HW2 2172   3.322   3.215   0.396
  425SOL     OW 2173   5.188   1.197   1.527
  425SOL    HW1 2174   5.268   1.141   1.547
  425SOL    HW2 2175   5.131   1.206   1.609
  426SOL     OW 2176   5.761   2.328   5.141
  426SOL    HW1 2177   5.742   2.318   5.043
  426SOL    HW2 2178   5.686   2.287   5.194
  427SOL     OW 2179   5.307   4.789   2.289
  427SOL    HW1 2180   5.323   4.721   2.361
  427SOL    HW2 2181   5.256   4.747   2.215
  428SOL     OW 2182   4.437   0.341   5.201
  428SOL    HW1 2183   4.394   0.321   5.289
  428SOL    HW2 2184   4.384   0.297   5.128
  429SOL     OW 2185   2.724   5.172   0.825
  429SOL    HW1 2186   2.741   5.129   0.913
  429SOL    HW2 2187   2.785   5.250   0.813
  430SOL     OW 2188   1.417   6.708   4.113
  430SOL    HW1 2189   1.380   6.638   4.052
  430SOL    HW2 2190   1.345   6.773   4.137
  431SOL     OW 2191   3.128   1.201   6.922
  431SOL    HW1 2192   3.202   1.148   6.880
  431SOL    HW2 2193   3.152   1.221   7.017
  432SOL     OW 2194   6.864   2.559   0.623
  432SOL    HW1 2195   6.816   2.480   0.585
  432SOL    HW2 2196   6.861   2.635   0.559
  433SOL     OW 2197   2.445   0.123   4.403
  433SOL    HW1 2198   2.388   0.049   4.439
  433SOL    HW2 2199   2.538   0.090   4.391
  434SOL     OW 2200   5.208   5.087   1.548
  434SOL    HW1 2201   5.193   5.002   1.598
  434SOL    HW2 2202   5.305   5.095   1.523
  435SOL     OW 2203   3.765   2.851   5.341
  435SOL    HW1 2204   3.717   2.849   5.429
  435SOL    HW2 2205   3.856   2.891   5.353
  436SOL     OW 2206   1.740   6.647   0.639
  436SOL    HW1 2207   1.784   6.713   0.578
  436SOL    HW2 2208   1.789   6.644   0.726
  437SOL     OW 2209   0.334   0.428   6.444
  437SOL    HW1 2210   0.308   0.332   6.451
  437SOL    HW2 2211   0.320   0.459   6.350
  438SOL     OW 2212   1.916   2.757   1.903
  438SOL    HW1 2213   2.014   2.752   1.924
  438SOL    HW2 2214   1.894   2.848   1.868
  439SOL     OW 2215   5.970   4.385   3.647
  439SOL    HW1 2216   6.063   4.349   3.660
  439SOL    HW2 2217   5.970   4.452   3.573
  440SOL     OW 2218   1.125   2.054   4.607
  440SOL    HW1 2219   1.089   1.962   4.594
  440SOL    HW2 2220   1.220   2.050   4.637
  441SOL     OW 2221   0.609   2.017   3.067
  441SOL    HW1 2222   0.534   2.028   3.002
  441SOL    HW2 2223   0.629   1.920   3.079
  442SOL     OW 2224   1.616   4.574   0.198
  442SOL    HW1 2225   1.625   4.507   0.125
  442SOL    HW2 2226   1.696   4.568   0.258
  443SOL     OW 2227   1.031   4.281   5.249
  443SOL    HW1 2228   1.015   4.193   5.205
  443SOL    HW2 2229   1.114   4.323   5.211
  444SOL     OW 2230   4.960   2.771   5.819
  444SOL    HW1 2231   5.018   2.848   5.793
  444SOL    HW2 2232   4.885   2.804   5.876
  445SOL     OW 2233   1.769   5.395   3.183
  445SOL    HW1 2234   1.857   5.434   3.154
  445SOL    HW2 2235   1.702   5.468   3.194
  446SOL     OW 2236   4.069   4.953   3.396
  446SOL    HW1 2237   4.131   5.029   3.376
  446SOL    HW2 2238   4.108   4.868   3.362
  447SOL     OW 2239   0.396   4.080   6.704
  447SOL    HW1 2240   0.426   4.087   6.609
  447SOL    HW2 2241   0.305   4.037   6.706
  448SOL     OW 2242   3.571   0.100   4.997
  448SOL    HW1 2243   3.471   0.101   5.008
  448SOL    HW2 2244   3.599   0.016   4.952
  449SOL     OW 2245   4.820   1.088   5.319
  449SOL    HW1 2246   4.771   1.069   5.404
  449SOL    HW2 2247   4.882   1.013   5.298
  450SOL     OW 2248   0.989   5.813   3.032
  450SOL    HW1 2249   0.990   5.841   3.128
  450SOL    HW2 2250   1.050   5.872   2.979
  451SOL     OW 2251   1.086   2.280   2.298
  451SOL    HW1 2252   1.091   2.222   2.379
  451SOL    HW2 2253   1.178   2.296   2.262
  452SOL     OW 2254   6.454   6.150   0.099
  452SOL    HW1 2255   6.427   6.229   0.154
  452SOL    HW2 2256   6.373   6.103   0.066
  453SOL     OW 2257   2.924   0.146   5.992
  453SOL    HW1 2258   2.862   0.167   5.917
  453SOL    HW2 2259   2.980   0.227   6.012
  454SOL     OW 2260   6.899   5.764   5.647
  454SOL    HW1 2261   6.855   5.710   5.576
  454SOL    HW2 2262   6.908   5.709   5.730
  455SOL     OW 2263   6.468   0.632   4.205
  455SOL    HW1 2264   6.451   0.678   4.118
  455SOL    HW2 2265   6.491   0.699   4.275
  456SOL     OW 2266   4.547   5.955   4.888
  456SOL    HW1 2267   4.503   5.883   4.942
  456SOL    HW2 2268   4.642   5.928   4.869
  457SOL     OW 2269   2.092   3.592   3.524
  457SOL    HW1 2270   2.016   3.552   3.473
  457SOL    HW2 2271   2.159   3.629   3.460
  458SOL     OW 2272   5.006   5.547   5.319
  458SOL    HW1 2273   5.036   5.452   5.331
  458SOL    HW2 2274   4.980   5.562   5.223
  459SOL     OW 2275   1.623   0.292   3.863
  459SOL    HW1 2276   1.583   0.240   3.940
  459SOL    HW2 2277   1.609   0.241   3.778
  460SOL     OW 2278   0.357   1.064   2.452
  460SOL    HW1 2279   0.283   1.021   2.504
  460SOL    HW2 2280   0.346   1.043   2.355
  461SOL     OW 2281   5.559   6.715   4.489
  461SOL    HW1 2282   5.590   6.623   4.462
  461SOL    HW2 2283   5.636   6.766   4.526
  462SOL     OW 2284   4.056   2.152   5.854
  462SOL    HW1 2285   4.155   2.160   5.865
  462SOL    HW2 2286   4.010   2.207   5.923
  463SOL     OW 2287   6.043   6.384   2.986
  463SOL    HW1 2288   5.975   6.357   2.917
  463SOL    HW2 2289   6.120   6.320   2.983
  464SOL     OW 2290   3.114   2.118   6.476
  464SOL    HW1 2291   3.207   2.149   6.490
  464SOL    HW2 2292   3.114   2.036   6.418
  465SOL     OW 2293   1.436   1.937   4.191
  465SOL    HW1 2294   1.495   1.994   4.249
  465SOL    HW2 2295   1.492   1.892   4.121
  466SOL     OW 2296   0.545   5.847   3.150
  466SOL    HW1 2297   0.640   5.854   3.182
  466SOL    HW2 2298   0.543   5.850   3.050
  467SOL     OW 2299   1.059   0.368   6.255
  467SOL    HW1 2300   1.037   0.360   6.352
  467SOL    HW2 2301   1.090   0.280   6.220
  468SOL     OW 2302   3.208   6.036   0.499
  468SOL    HW1 2303   3.113   6.067   0.507
  468SOL    HW2 2304   3.210   5.936   0.496
  469SOL     OW 2305   2.876   4.500   0.517
  469SOL    HW1 2306   2.886   4.581   0.460
  469SOL    HW2 2307   2.787   4.501   0.562
  470SOL     OW 2308   3.180   1.000   2.410
  470SOL    HW1 2309   3.142   0.947   2.334
  470SOL    HW2 2310   3.137   0.973   2.496
  471SOL     OW 2311   1.521   2.154   4.441
  471SOL    HW1 2312   1.571   2.220   4.496
  471SOL    HW2 2313   1.435   2.194   4.409
  472SOL     OW 2314   4.960   3.833   6.853
  472SOL    HW1 2315   4.961   3.908   6.918
  472SOL    HW2 2316   4.870   3.790   6.852
  473SOL     OW 2317   0.147   2.583   1.705
  473SOL    HW1 2318   0.056   2.543   1.697
  473SOL    HW2 2319   0.142   2.667   1.758
  474SOL     OW 2320   4.297   4.967   3.849
  474SOL    HW1 2321   4.290   5.061   3.815
  474SOL    HW2 2322   4.373   4.960   3.913
  475SOL     OW 2323   6.135   0.966   6.918
  475SOL    HW1 2324   6.187   0.940   7.000
  475SOL    HW2 2325   6.088   0.886   6.881
  476SOL     OW 2326   0.496   4.110   2.510
  476SOL    HW1 2327   0.577   4.056   2.489
  476SOL    HW2 2328   0.433   4.107   2.432
  477SOL     OW 2329   2.267   4.748   5.174
  477SOL    HW1 2330   2.353   4.712   5.211
  477SOL    HW2 2331   2.225   4.809   5.241
  478SOL     OW 2332   3.100   6.388   2.195
  478SOL    HW1 2333   3.135   6.373   2.288
  478SOL    HW2 2334   3.009   6.348   2.187
  479SOL     OW 2335   4.527   2.410   0.257
  479SOL    HW1 2336   4.518   2.509   0.263
  479SOL    HW2 2337   4.436   2.369   0.256
  480SOL     OW 2338   2.229   0.480   0.261
  480SOL    HW1 2339   2.276   0.562   0.227
  480SOL    HW2 2340   2.152   0.458   0.200
  481SOL     OW 2341   1.508   6.842   0.667
  481SOL    HW1 2342   1.572   6.770   0.693
  481SOL    HW2 2343   1.424   6.801   0.630
  482SOL     OW 2344   4.413   4.521   2.642
  482SOL    HW1 2345   4.404   4.530   2.543
  482SOL    HW2 2346   4.350   4.584   2.688
  483SOL     OW 2347   6.386   2.063   1.331
  483SOL    HW1 2348   6.330   2.090   1.252
  483SOL    HW2 2349   6.475   2.107   1.325
  484SOL     OW 2350   1.049   3.073   4.768
  484SOL    HW1 2351   1.103   3.039   4.845
  484SOL    HW2 2352   1.007   2.995   4.720
  485SOL     OW 2353   4.147   5.763   1.972
  485SOL    HW1 2354   4.201   5.846   1.985
  485SOL    HW2 2355   4.200   5.696   1.920
  486SOL     OW 2356   0.424   2.060   0.782
  486SOL    HW1 2357   0.355   2.060   0.709
  486SOL    HW2 2358   0.385   2.018   0.864
  487SOL     OW 2359   0.629   1.795   0.149
  487SOL    HW1 2360   0.659   1.833   0.061
  487SOL    HW2 2361   0.640   1.696   0.148
  488SOL     OW 2362   0.602   1.175   1.588
  488SOL    HW1 2363   0.525   1.198   1.648
  488SOL    HW2 2364   0.593   1.080   1.559
  489SOL     OW 2365   3.834   5.813   6.936
  489SOL    HW1 2366   3.895   5.890   6.960
  489SOL    HW2 2367   3.857   5.779   6.845
  490SOL     OW 2368   6.749   6.199   3.788
  490SOL    HW1 2369   6.753   6.120   3.849
  490SOL    HW2 2370   6.722   6.169   3.696
  491SOL     OW 2371   0.188   2.745   2.768
  491SOL    HW1 2372   0.284   2.770   2.756
  491SOL    HW2 2373   0.183   2.654   2.810
  492SOL     OW 2374   3.066   7.015   5.096
  492SOL    HW1 2375   2.997   6.980   5.033
  492SOL    HW2 2376   3.021   0.042   5.170
  493SOL     OW 2377   5.643   5.857   5.756
  493SOL    HW1 2378   5.714   5.915   5.795
  493SOL    HW2 2379   5.582   5.912   5.700
  494SOL     OW 2380   0.466   6.960   6.886
  494SOL    HW1 2381   0.409   6.889   6.926
  494SOL    HW2 2382   0.413   0.020   6.877
  495SOL     OW 2383   5.241   5.908   3.071
  495SOL    HW1 2384   5.258   5.836   3.004
  495SOL    HW2 2385   5.277   5.880   3.160
  496SOL     OW 2386   5.141   3.509   3.038
  496SOL    HW1 2387   5.168   3.606   3.042
  496SOL    HW2 2388   5.058   3.500   2.982
  497SOL     OW 2389   3.044   1.892   5.875
  497SOL    HW1 2390   3.143   1.903   5.874
  497SOL    HW2 2391   3.016   1.845   5.959
  498SOL     OW 2392   1.602   3.624   1.750
  498SOL    HW1 2393   1.592   3.646   1.847
  498SOL    HW2 2394   1.646   3.535   1.740
  499SOL     OW 2395   2.991   0.512   4.353
  499SOL    HW1 2396   3.018   0.579   4.422
  499SOL    HW2 2397   3.050   0.522   4.273
  500SOL     OW 2398   1.092   4.044   2.836
  500SOL    HW1 2399   1.100   4.089   2.747
  500SOL    HW2 2400   1.183   4.040   2.879
  501SOL     OW 2401   3.282   0.432   0.307
  501SOL    HW1 2402   3.303   0.512   0.363
  501SOL    HW2 2403   3.212   0.456   0.240
  502SOL     OW 2404   6.534   4.476   6.537
  502SOL    HW1 2405   6.563   4.390   6.494
  502SOL    HW2 2406   6.551   4.552   6.475
  503SOL     OW 2407   5.746   5.487   6.240
  503SOL    HW1 2408   5.713   5.519   6.151
  503SOL    HW2 2409   5.730   5.557   6.309
  504SOL     OW 2410   2.846   5.987   3.351
  504SOL    HW1 2411   2.894   5.899   3.355
  504SOL    HW2 2412   2.798   6.003   3.437
  505SOL     OW 2413   3.793   0.392   5.900
  505SOL    HW1 2414   3.799   0.491   5.913
  505SOL    HW2 2415   3.777   0.373   5.804
  506SOL     OW 2416   1.665   5.368   4.530
  506SOL    HW1 2417   1.727   5.440   4.561
  506SOL    HW2 2418   1.615   5.400   4.450
  507SOL     OW 2419   3.821   0.660   4.428
  507SOL    HW1 2420   3.883   0.614   4.491
  507SOL    HW2 2421   3.728   0.630   4.445
  508SOL     OW 2422   6.541   3.926   3.141
  508SOL    HW1 2423   6.450   3.917   3.099
  508SOL    HW2 2424   6.567   3.838   3.181
  509SOL     OW 2425   3.008   1.141   1.419
  509SOL    HW1 2426   3.106   1.149   1.438
  509SOL    HW2 2427   2.956   1.180   1.495
  510SOL     OW 2428   6.439   4.940   5.939
  510SOL    HW1 2429   6.521   4.948   5.882
  510SOL    HW2 2430   6.373   5.011   5.914
  511SOL     OW 2431   0.332   6.541   6.654
  511SOL    HW1 2432   0.421   6.580   6.679
  511SOL    HW2 2433   0.342   6.442   6.642
  512SOL     OW 2434   0.033   3.342   0.330
  512SOL    HW1 2435   0.131   3.364   0.329
  512SOL    HW2 2436   7.011   3.395   0.259
  513SOL     OW 2437   5.828   6.327   2.771
  513SOL    HW1 2438   5.828   6.422   2.802
  513SOL    HW2 2439   5.837   6.323   2.672
  514SOL     OW 2440   6.660   2.599   3.813
  514SOL    HW1 2441   6.709   2.516   3.787
  514SOL    HW2 2442   6.565   2.576   3.836
  515SOL     OW 2443   1.912   0.280   6.451
  515SOL    HW1 2444   1.930   0.184   6.469
  515SOL    HW2 2445   1.874   0.291   6.359
  516SOL     OW 2446   2.968   4.749   1.757
  516SOL    HW1 2447   2.898   4.694   1.803
  516SOL    HW2 2448   3.055   4.740   1.805
  517SOL     OW 2449   4.989   6.031   2.312
  517SOL    HW1 2450   5.087   6.050   2.314
  517SOL    HW2 2451   4.974   5.933   2.298
  518SOL     OW 2452   3.060   2.085   2.034
  518SOL    HW1 2453   3.000   2.164   2.054
  518SOL    HW2 2454   3.005   2.002   2.029
  519SOL     OW 2455   0.037   0.759   4.409
  519SOL    HW1 2456   7.015   0.832   4.358
  519SOL    HW2 2457   7.006   0.734   4.488
  520SOL     OW 2458   6.263   4.752   6.542
  520SOL    HW1 2459   6.257   4.654   6.528
  520SOL    HW2 2460   6.205   4.800   6.476
  521SOL     OW 2461   6.249   2.476   6.671
  521SOL    HW1 2462   6.217   2.381   6.668
  521SOL    HW2 2463   6.171   2.538   6.655
  522SOL     OW 2464   3.855   2.981   5.094
  522SOL    HW1 2465   3.811   2.902   5.050
  522SOL    HW2 2466   3.922   2.948   5.160
  523SOL     OW 2467   0.413   4.941   2.981
  523SOL    HW1 2468   0.318   4.970   2.975
  523SOL    HW2 2469   0.418   4.842   2.994
  524SOL     OW 2470   2.107   1.159   6.388
  524SOL    HW1 2471   2.089   1.243   6.439
  524SOL    HW2 2472   2.075   1.081   6.442
  525SOL     OW 2473   2.751   3.383   6.350
  525SOL    HW1 2474   2.707   3.326   6.420
  525SOL    HW2 2475   2.718   3.356   6.260
  526SOL     OW 2476   2.533   0.263   5.069
  526SOL    HW1 2477   2.622   0.309   5.067
  526SOL    HW2 2478   2.460   0.331   5.069
  527SOL     OW 2479   5.794   3.147   6.273
  527SOL    HW1 2480   5.734   3.193   6.207
  527SOL    HW2 2481   5.810   3.053   6.243
  528SOL     OW 2482   0.892   1.862   4.122
  528SOL    HW1 2483   0.818   1.929   4.113
  528SOL    HW2 2484   0.978   1.910   4.136
  529SOL     OW 2485   0.565   5.938   4.501
  529SOL    HW1 2486   0.627   5.939   4.423
  529SOL    HW2 2487   0.617   5.950   4.585
  530SOL     OW 2488   2.699   2.943   5.361
  530SOL    HW1 2489   2.705   2.975   5.455
  530SOL    HW2 2490   2.624   2.990   5.315
  531SOL     OW 2491   0.090   0.755   1.439
  531SOL    HW1 2492   0.130   0.670   1.407
  531SOL    HW2 2493   0.130   0.832   1.388
  532SOL     OW 2494   0.828   3.033   6.363
  532SOL    HW1 2495   0.744   3.046   6.416
  532SOL    HW2 2496   0.836   2.938   6.334
  533SOL     OW 2497   4.555   5.729   4.408
  533SOL    HW1 2498   4.637   5.758   4.457
  533SOL    HW2 2499   4.582   5.682   4.323
  534SOL     OW 2500   5.256   5.138   3.634
  534SOL    HW1 2501   5.158   5.126   3.616
  534SOL    HW2 2502   5.277   5.236   3.635
  535SOL     OW 2503   1.040   4.153   4.627
  535SOL    HW1 2504   0.953   4.188   4.662
  535SOL    HW2 2505   1.054   4.059   4.659
  536SOL     OW 2506   0.001   4.865   2.238
  536SOL    HW1 2507   0.061   4.943   2.222
  536SOL    HW2 2508   6.975   4.844   2.155
  537SOL     OW 2509   2.091   6.324   3.919
  537SOL    HW1 2510   2.080   6.270   3.836
  537SOL    HW2 2511   2.142   6.271   3.987
  538SOL     OW 2512   1.882   5.852   3.799
  538SOL    HW1 2513   1.877   5.917   3.875
  538SOL    HW2 2514   1.904   5.901   3.715
  539SOL     OW 2515   0.587   6.157   0.317
  539SOL    HW1 2516   0.605   6.076   0.261
  539SOL    HW2 2517   0.658   6.167   0.386
  540SOL     OW 2518   0.356   1.462   1.657
  540SOL    HW1 2519   0.272   1.412   1.637
  540SOL    HW2 2520   0.365   1.475   1.755
  541SOL     OW 2521   2.770   6.378   4.111
  541SOL    HW1 2522   2.738   6.320   4.186
  541SOL    HW2 2523   2.728   6.347   4.025
  542SOL     OW 2524   6.929   0.043   0.542
  542SOL    HW1 2525   6.867   0.111   0.503
  542SOL    HW2 2526   6.995   0.088   0.602
  543SOL     OW 2527   0.153   5.063   5.449
  543SOL    HW1 2528   0.126   5.036   5.357
  543SOL    HW2 2529   0.119   5.155   5.469
  544SOL     OW 2530   1.935   4.365   1.210
  544SOL    HW1 2531   2.021   4.356   1.159
  544SOL    HW2 2532   1.914   4.278   1.255
  545SOL     OW 2533   3.706   1.554   3.374
  545SOL    HW1 2534   3.789   1.519   3.330
  545SOL    HW2 2535   3.725   1.643   3.416
  546SOL     OW 2536   1.554   3.216   1.411
  546SOL    HW1 2537   1.613   3.157   1.466
  546SOL    HW2 2538   1.520   3.291   1.468
  547SOL     OW 2539   2.312   1.286   6.628
  547SOL    HW1 2540   2.223   1.313   6.592
  547SOL    HW2 2541   2.320   1.186   6.624
  548SOL     OW 2542   4.012   3.396   2.683
  548SOL    HW1 2543   4.036   3.460   2.757
  548SOL    HW2 2544   4.006   3.446   2.597
  549SOL     OW 2545   4.276   3.983   1.662
  549SOL    HW1 2546   4.274   3.892   1.702
  549SOL    HW2 2547   4.289   3.977   1.563
  550SOL     OW 2548   0.111   3.333   3.292
  550SOL    HW1 2549   0.020   3.315   3.327
  550SOL    HW2 2550   0.170   3.364   3.366
  551SOL     OW 2551   0.137   1.339   0.765
  551SOL    HW1 2552   0.125   1.305   0.858
  551SOL    HW2 2553   0.165   1.435   0.768
  552SOL     OW 2554   4.192   5.335   0.737
  552SOL    HW1 2555   4.165   5.373   0.825
  552SOL    HW2 2556   4.238   5.247   0.752
  553SOL     OW 2557   1.952   6.617   2.796
  553SOL    HW1 2558   1.862   6.603   2.836
  553SOL    HW2 2559   1.988   6.529   2.763
  554SOL     OW 2560   5.126   0.291   6.651
  554SOL    HW1 2561   5.127   0.326   6.744
  554SOL    HW2 2562   5.098   0.364   6.588
  555SOL     OW 2563   2.227   5.261   4.196
  555SOL    HW1 2564   2.255   5.224   4.285
  555SOL    HW2 2565   2.137   5.225   4.172
  556SOL     OW 2566   6.339   2.156   4.647
  556SOL    HW1 2567   6.249   2.138   4.687
  556SOL    HW2 2568   6.330   2.226   4.576
  557SOL     OW 2569   6.878   5.620   6.686
  557SOL    HW1 2570   6.938   5.549   6.649
  557SOL    HW2 2571   6.903   5.709   6.649
  558SOL     OW 2572   4.132   3.713   4.995
  558SOL    HW1 2573   4.114   3.678   4.903
  558SOL    HW2 2574   4.138   3.637   5.059
  559SOL     OW 2575   6.079   6.275   6.904
  559SOL    HW1 2576   6.156   6.216   6.883
  559SOL    HW2 2577   6.044   6.254   6.995
  560SOL     OW 2578   3.782   6.521   0.940
  560SOL    HW1 2579   3.834   6.562   1.014
  560SOL    HW2 2580   3.686   6.544   0.949
  561SOL     OW 2581   6.022   0.101   6.255
  561SOL    HW1 2582   5.987   0.013   6.288
  561SOL    HW2 2583   5.950   0.148   6.203
  562SOL     OW 2584   4.565   0.644   6.449
  562SOL    HW1 2585   4.625   0.695   6.511
  562SOL    HW2 2586   4.573   0.681   6.357
  563SOL     OW 2587   2.827   0.153   3.563
  563SOL    HW1 2588   2.916   0.110   3.548
  563SOL    HW2 2589   2.755   0.084   3.556
  564SOL     OW 2590   2.303   2.049   5.898
  564SOL    HW1 2591   2.303   2.138   5.851
  564SOL    HW2 2592   2.379   2.046   5.963
  565SOL     OW 2593   4.358   3.223   5.569
  565SOL    HW1 2594   4.343   3.133   5.528
  565SOL    HW2 2595   4.365   3.292   5.497
  566SOL     OW 2596   4.365   4.636   3.791
  566SOL    HW1 2597   4.311   4.590   3.720
  566SOL    HW2 2598   4.391   4.727   3.760
  567SOL     OW 2599   2.881   3.483   3.833
  567SOL    HW1 2600   2.868   3.486   3.734
  567SOL    HW2 2601   2.924   3.396   3.858
  568SOL     OW 2602   3.423   2.700   1.391
  568SOL    HW1 2603   3.361   2.740   1.324
  568SOL    HW2 2604   3.502   2.660   1.344
  569SOL     OW 2605   1.594   3.260   0.622
  569SOL    HW1 2606   1.508   3.290   0.582
  569SOL    HW2 2607   1.605   3.162   0.608
  570SOL     OW 2608   1.230   6.585   6.635
  570SOL    HW1 2609   1.283   6.542   6.562
  570SOL    HW2 2610   1.135   6.552   6.630
  571SOL     OW 2611   3.150   6.305   2.484
  571SOL    HW1 2612   3.195   6.216   2.482
  571SOL    HW2 2613   3.180   6.356   2.565
  572SOL     OW 2614   2.504   4.596   5.776
  572SOL    HW1 2615   2.485   4.507   5.736
  572SOL    HW2 2616   2.585   4.636   5.732
  573SOL     OW 2617   3.374   1.743   5.027
  573SOL    HW1 2618   3.318   1.730   4.945
  573SOL    HW2 2619   3.323   1.710   5.107
  574SOL     OW 2620   2.220   2.192   4.199
  574SOL    HW1 2621   2.238   2.264   4.266
  574SOL    HW2 2622   2.231   2.103   4.242
  575SOL     OW 2623   6.279   4.214   0.074
  575SOL    HW1 2624   6.286   4.131   0.019
  575SOL    HW2 2625   6.371   4.252   0.089
  576SOL     OW 2626   1.352   1.907   1.811
  576SOL    HW1 2627   1.399   1.819   1.807
  576SOL    HW2 2628   1.287   1.914   1.735
  577SOL     OW 2629   2.382   1.479   3.112
  577SOL    HW1 2630   2.365   1.497   3.015
  577SOL    HW2 2631   2.392   1.380   3.126
  578SOL     OW 2632   6.801   3.494   3.761
  578SOL    HW1 2633   6.748   3.574   3.733
  578SOL    HW2 2634   6.744   3.436   3.820
  579SOL     OW 2635   3.698   2.072   1.362
  579SOL    HW1 2636   3.616   2.015   1.353
  579SOL    HW2 2637   3.691   2.127   1.444
  580SOL     OW 2638   0.678   4.901   6.088
  580SOL    HW1 2639   0.734   4.938   6.163
  580SOL    HW2 2640   0.657   4.805   6.106
  581SOL     OW 2641   4.035   3.164   3.174
  581SOL    HW1 2642   4.126   3.170   3.215
  581SOL    HW2 2643   4.032   3.089   3.109
  582SOL     OW 2644   5.810   4.220   2.368
  582SOL    HW1 2645   5.712   4.237   2.369
  582SOL    HW2 2646   5.840   4.196   2.461
  583SOL     OW 2647   2.542   4.684   6.861
  583SOL    HW1 2648   2.508   4.591   6.848
  583SOL    HW2 2649   2.495   4.746   6.798
  584SOL     OW 2650   0.099   4.572   6.077
  584SOL    HW1 2651   0.059   4.587   5.987
  584SOL    HW2 2652   0.087   4.476   6.103
  585SOL     OW 2653   6.112   2.702   5.913
  585SOL    HW1 2654   6.148   2.640   5.844
  585SOL    HW2 2655   6.169   2.784   5.917
  586SOL     OW 2656   3.261   6.490   0.237
  586SOL    HW1 2657   3.184   6.500   0.300
  586SOL    HW2 2658   3.232   6.434   0.159
  587SOL     OW 2659   2.277   1.984   4.923
  587SOL    HW1 2660   2.200   1.941   4.877
  587SOL    HW2 2661   2.362   1.944   4.889
  588SOL     OW 2662   3.571   6.852   1.568
  588SOL    HW1 2663   3.497   6.882   1.508
  588SOL    HW2 2664   3.652   6.910   1.554
  589SOL     OW 2665   4.057   5.184   1.567
  589SOL    HW1 2666   4.031   5.147   1.478
  589SOL    HW2 2667   4.134   5.247   1.557
  590SOL     OW 2668   0.224   2.753   2.302
  590SOL    HW1 2669   0.228   2.853   2.291
  590SOL    HW2 2670   0.290   2.710   2.240
  591SOL     OW 2671   3.837   0.009   3.736
  591SOL    HW1 2672   3.809   0.081   3.673
  591SOL    HW2 2673   3.930   7.004   3.713
  592SOL     OW 2674   4.632   1.200   0.314
  592SOL    HW1 2675   4.696   1.137   0.356
  592SOL    HW2 2676   4.581   1.248   0.385
  593SOL     OW 2677   4.564   2.376   3.728
  593SOL    HW1 2678   4.471   2.378   3.693
  593SOL    HW2 2679   4.596   2.281   3.731
  594SOL     OW 2680   4.531   2.912   6.441
  594SOL    HW1 2681   4.602   2.976   6.470
  594SOL    HW2 2682   4.450   2.923   6.498
  595SOL     OW 2683   4.424   6.940   4.370
  595SOL    HW1 2684   4.433   7.009   4.299
  595SOL    HW2 2685   4.449   6.979   4.459
  596SOL     OW 2686   1.228   3.958   2.040
  596SOL    HW1 2687   1.200   4.042   1.995
  596SOL    HW2 2688   1.161   3.886   2.022
  597SOL     OW 2689   4.087   6.395   6.478
  597SOL    HW1 2690   4.049   6.460   6.544
  597SOL    HW2 2691   4.100   6.441   6.390
  598SOL     OW 2692   3.888   4.334   0.344
  598SOL    HW1 2693   3.841   4.297   0.424
  598SOL    HW2 2694   3.820   4.371   0.280
  599SOL     OW 2695   0.466   0.670   2.613
  599SOL    HW1 2696   0.400   0.733   2.572
  599SOL    HW2 2697   0.481   0.593   2.552
  600SOL     OW 2698   0.731   0.018   0.899
  600SOL    HW1 2699   0.756   7.023   0.994
  600SOL    HW2 2700   0.657   6.981   0.871
  601SOL     OW 2701   3.063   5.695   3.567
  601SOL    HW1 2702   3.074   5.610   3.516
  601SOL    HW2 2703   3.016   5.763   3.511
  602SOL     OW 2704   1.132   0.211   0.469
  602SOL    HW1 2705   1.186   0.211   0.553
  602SOL    HW2 2706   1.181   0.264   0.399
  603SOL     OW 2707   4.050   2.041   3.655
  603SOL    HW1 2708   4.024   1.945   3.653
  603SOL    HW2 2709   4.014   2.084   3.738
  604SOL     OW 2710   1.051   2.759   6.851
  604SOL    HW1 2711   1.105   2.711   6.782
  604SOL    HW2 2712   1.097   2.752   6.940
  605SOL     OW 2713   0.038   5.963   3.380
  605SOL    HW1 2714   6.996   5.955   3.305
  605SOL    HW2 2715   0.094   6.044   3.365
  606SOL     OW 2716   4.571   1.130   4.986
  606SOL    HW1 2717   4.518   1.076   5.051
  606SOL    HW2 2718   4.510   1.196   4.940
  607SOL     OW 2719   5.619   1.235   4.311
  607SOL    HW1 2720   5.612   1.140   4.280
  607SOL    HW2 2721   5.680   1.285   4.250
  608SOL     OW 2722   3.149   0.169   0.679
  608SOL    HW1 2723   3.245   0.184   0.656
  608SOL    HW2 2724   3.135   0.073   0.703
  609SOL     OW 2725   3.407   2.989   4.495
  609SOL    HW1 2726   3.496   2.956   4.525
  609SOL    HW2 2727   3.401   2.984   4.395
  610SOL     OW 2728   5.445   2.469   3.234
  610SOL    HW1 2729   5.381   2.457   3.158
  610SOL    HW2 2730   5.394   2.491   3.318
  611SOL     OW 2731   0.518   0.676   6.800
  611SOL    HW1 2732   0.500   0.584   6.834
  611SOL    HW2 2733   0.611   0.703   6.824
  612SOL     OW 2734   3.791   5.488   6.033
  612SOL    HW1 2735   3.783   5.535   5.945
  612SOL    HW2 2736   3.882   5.503   6.071
  613SOL     OW 2737   4.181   1.263   5.812
  613SOL    HW1 2738   4.113   1.198   5.846
  613SOL    HW2 2739   4.199   1.244   5.716
  614SOL     OW 2740   6.022   5.381   0.656
  614SOL    HW1 2741   6.052   5.356   0.748
  614SOL    HW2 2742   6.086   5.447   0.617
  615SOL     OW 2743   0.788   0.437   6.641
  615SOL    HW1 2744   0.781   0.341   6.668
  615SOL    HW2 2745   0.713   0.460   6.580
  616SOL     OW 2746   5.703   2.028   4.313
  616SOL    HW1 2747   5.610   2.027   4.279
  616SOL    HW2 2748   5.763   1.978   4.250
  617SOL     OW 2749   0.371   4.684   5.990
  617SOL    HW1 2750   0.291   4.641   6.031
  617SOL    HW2 2751   0.356   4.783   5.985
  618SOL     OW 2752   5.884   3.435   1.688
  618SOL    HW1 2753   5.856   3.503   1.621
  618SOL    HW2 2754   5.893   3.478   1.778
  619SOL     OW 2755   3.391   0.270   6.854
  619SOL    HW1 2756   3.428   0.298   6.943
  619SOL    HW2 2757   3.319   0.333   6.826
  620SOL     OW 2758   5.589   3.795   2.096
  620SOL    HW1 2759   5.524   3.726   2.127
  620SOL    HW2 2760   5.540   3.876   2.065
  621SOL     OW 2761   2.871   6.732   5.749
  621SOL    HW1 2762   2.873   6.827   5.719
  621SOL    HW2 2763   2.777   6.698   5.746
  622SOL     OW 2764   0.931   2.706   5.313
  622SOL    HW1 2765   0.953   2.803   5.304
  622SOL    HW2 2766   0.846   2.696   5.364
  623SOL     OW 2767   6.149   6.378   4.908
  623SOL    HW1 2768   6.246   6.382   4.886
  623SOL    HW2 2769   6.138   6.338   4.999
  624SOL     OW 2770   6.343   1.167   6.653
  624SOL    HW1 2771   6.375   1.257   6.623
  624SOL    HW2 2772   6.256   1.178   6.701
  625SOL     OW 2773   2.360   0.723   0.204
  625SOL    HW1 2774   2.452   0.760   0.190
  625SOL    HW2 2775   2.296   0.767   0.140
  626SOL     OW 2776   1.520   5.786   3.770
  626SOL    HW1 2777   1.594   5.772   3.704
  626SOL    HW2 2778   1.432   5.769   3.725
  627SOL     OW 2779   6.399   6.370   0.291
  627SOL    HW1 2780   6.421   6.460   0.253
  627SOL    HW2 2781   6.461   6.350   0.368
  628SOL     OW 2782   5.381   3.864   5.302
  628SOL    HW1 2783   5.437   3.789   5.337
  628SOL    HW2 2784   5.289   3.859   5.341
  629SOL     OW 2785   0.455   0.663   0.109
  629SOL    HW1 2786   0.523   0.590   0.107
  629SOL    HW2 2787   0.410   0.665   0.198
  630SOL     OW 2788   6.543   0.919   1.045
  630SOL    HW1 2789   6.476   0.850   1.017
  630SOL    HW2 2790   6.579   0.897   1.136
  631SOL     OW 2791   2.544   2.516   4.660
  631SOL    HW1 2792   2.497   2.592   4.704
  631SOL    HW2 2793   2.562   2.444   4.727
  632SOL     OW 2794   5.181   3.358   0.836
  632SOL    HW1 2795   5.147   3.438   0.885
  632SOL    HW2 2796   5.109   3.289   0.830
  633SOL     OW 2797   2.354   5.370   1.104
  633SOL    HW1 2798   2.325   5.312   1.028
  633SOL    HW2 2799   2.454   5.368   1.110
  634SOL     OW 2800   3.389   3.702   3.505
  634SOL    HW1 2801   3.379   3.644   3.424
  634SOL    HW2 2802   3.308   3.693   3.562
  635SOL     OW 2803   4.712   0.831   6.934
  635SOL    HW1 2804   4.773   0.909   6.950
  635SOL    HW2 2805   4.719   0.767   7.010
  636SOL     OW 2806   3.387   0.088   5.904
  636SOL    HW1 2807   3.451   0.129   5.839
  636SOL    HW2 2808   3.426   0.005   5.942
  637SOL     OW 2809   6.268   1.749   2.563
  637SOL    HW1 2810   6.284   1.695   2.645
  637SOL    HW2 2811   6.181   1.723   2.522
  638SOL     OW 2812   5.904   3.570   3.976
  638SOL    HW1 2813   5.987   3.586   3.922
  638SOL    HW2 2814   5.845   3.506   3.928
  639SOL     OW 2815   5.652   5.077   2.974
  639SOL    HW1 2816   5.696   5.149   3.026
  639SOL    HW2 2817   5.554   5.077   2.992
  640SOL     OW 2818   6.950   3.119   2.868
  640SOL    HW1 2819   6.937   3.207   2.821
  640SOL    HW2 2820   6.906   3.122   2.957
  641SOL     OW 2821   1.652   4.637   5.384
  641SOL    HW1 2822   1.746   4.662   5.407
  641SOL    HW2 2823   1.648   4.540   5.360
  642SOL     OW 2824   1.253   3.765   4.613
  642SOL    HW1 2825   1.268   3.786   4.517
  642SOL    HW2 2826   1.290   3.674   4.634
  643SOL     OW 2827   6.142   6.631   6.802
  643SOL    HW1 2828   6.116   6.575   6.723
  643SOL    HW2 2829   6.194   6.575   6.867
  644SOL     OW 2830   0.837   0.674   4.520
  644SOL    HW1 2831   0.923   0.698   4.474
  644SOL    HW2 2832   0.774   0.633   4.455
  645SOL     OW 2833   3.720   4.867   2.958
  645SOL    HW1 2834   3.680   4.950   2.997
  645SOL    HW2 2835   3.685   4.787   3.008
  646SOL     OW 2836   3.826   0.689   5.281
  646SOL    HW1 2837   3.729   0.694   5.259
  646SOL    HW2 2838   3.876   0.758   5.229
  647SOL     OW 2839   5.100   2.059   4.618
  647SOL    HW1 2840   5.149   2.093   4.698
  647SOL    HW2 2841   5.159   2.062   4.538
  648SOL     OW 2842   6.032   2.134   3.293
  648SOL    HW1 2843   6.119   2.087   3.275
  648SOL    HW2 2844   6.002   2.180   3.210
  649SOL     OW 2845   2.392   4.806   0.244
  649SOL    HW1 2846   2.446   4.745   0.302
  649SOL    HW2 2847   2.445   4.832   0.163
  650SOL     OW 2848   6.590   5.823   0.708
  650SOL    HW1 2849   6.519   5.892   0.699
  650SOL    HW2 2850   6.552   5.732   0.690
  651SOL     OW 2851   1.458   0.381   5.515
  651SOL    HW1 2852   1.550   0.392   5.551
  651SOL    HW2 2853   1.393   0.375   5.591
  652SOL     OW 2854   4.150   0.517   1.750
  652SOL    HW1 2855   4.176   0.606   1.711
  652SOL    HW2 2856   4.179   0.512   1.845
  653SOL     OW 2857   6.886   6.515   0.522
  653SOL    HW1 2858   6.920   6.609   0.527
  653SOL    HW2 2859   6.870   6.490   0.427
  654SOL     OW 2860   6.803   6.258   5.531
  654SOL    HW1 2861   6.726   6.266   5.468
  654SOL    HW2 2862   6.836   6.163   5.532
  655SOL     OW 2863   0.114   5.276   1.909
  655SOL    HW1 2864   0.059   5.323   1.839
  655SOL    HW2 2865   0.076   5.294   1.999
  656SOL     OW 2866   3.482   6.163   0.842
  656SOL    HW1 2867   3.481   6.232   0.914
  656SOL    HW2 2868   3.388   6.141   0.816
  657SOL     OW 2869   3.404   3.131   1.925
  657SOL    HW1 2870   3.454   3.199   1.872
  657SOL    HW2 2871   3.345   3.078   1.865
  658SOL     OW 2872   2.202   3.965   4.549
  658SOL    HW1 2873   2.190   3.873   4.512
  658SOL    HW2 2874   2.232   3.958   4.644
  659SOL     OW 2875   3.814   6.009   5.300
  659SOL    HW1 2876   3.737   6.069   5.324
  659SOL    HW2 2877   3.783   5.941   5.234
  660SOL     OW 2878   4.915   4.746   2.528
  660SOL    HW1 2879   4.916   4.649   2.554
  660SOL    HW2 2880   4.830   4.788   2.560
  661SOL     OW 2881   5.030   4.321   3.952
  661SOL    HW1 2882   4.970   4.287   4.024
  661SOL    HW2 2883   5.076   4.405   3.983
  662SOL     OW 2884   4.641   2.111   6.787
  662SOL    HW1 2885   4.718   2.114   6.722
  662SOL    HW2 2886   4.642   2.193   6.844
  663SOL     OW 2887   0.265   4.810   0.172
  663SOL    HW1 2888   0.239   4.725   0.126
  663SOL    HW2 2889   0.196   4.880   0.154
  664SOL     OW 2890   1.505   5.411   6.300
  664SOL    HW1 2891   1.464   5.416   6.209
  664SOL    HW2 2892   1.591   5.361   6.295
  665SOL     OW 2893   3.749   5.410   1.767
  665SOL    HW1 2894   3.814   5.335   1.782
  665SOL    HW2 2895   3.720   5.409   1.671
  666SOL     OW 2896   3.562   2.126   0.506
  666SOL    HW1 2897   3.565   2.193   0.580
  666SOL    HW2 2898   3.576   2.034   0.542
  667SOL     OW 2899   0.569   2.937   4.174
  667SOL    HW1 2900   0.533   2.986   4.095
  667SOL    HW2 2901   0.497   2.879   4.213
  668SOL     OW 2902   4.374   6.614   0.231
  668SOL    HW1 2903   4.356   6.602   0.133
  668SOL    HW2 2904   4.344   6.531   0.280
  669SOL     OW 2905   1.430   6.797   3.171
  669SOL    HW1 2906   1.427   6.730   3.098
  669SOL    HW2 2907   1.355   6.780   3.235
  670SOL     OW 2908   3.182   3.491   2.703
  670SOL    HW1 2909   3.262   3.434   2.723
  670SOL    HW2 2910   3.117   3.439   2.647
  671SOL     OW 2911   1.743   5.814   6.094
  671SOL    HW1 2912   1.647   5.824   6.121
  671SOL    HW2 2913   1.763   5.717   6.076
  672SOL     OW 2914   0.534   3.291   4.076
  672SOL    HW1 2915   0.463   3.360   4.088
  672SOL    HW2 2916   0.495   3.212   4.029
  673SOL     OW 2917   4.663   0.444   7.023
  673SOL    HW1 2918   4.706   0.522   0.044
  673SOL    HW2 2919   4.607   0.394   0.066
  674SOL     OW 2920   0.788   2.800   4.009
  674SOL    HW1 2921   0.786   2.701   3.993
  674SOL    HW2 2922   0.704   2.828   4.055
  675SOL     OW 2923   0.453   2.431   4.411
  675SOL    HW1 2924   0.440   2.398   4.317
  675SOL    HW2 2925   0.547   2.413   4.440
  676SOL     OW 2926   2.918   4.802   4.420
  676SOL    HW1 2927   2.853   4.867   4.459
  676SOL    HW2 2928   2.873   4.748   4.349
  677SOL     OW 2929   6.125   0.347   6.972
  677SOL    HW1 2930   6.087   0.336   6.880
  677SOL    HW2 2931   6.219   0.382   6.965
  678SOL     OW 2932   2.168   1.370   5.267
  678SOL    HW1 2933   2.123   1.281   5.264
  678SOL    HW2 2934   2.252   1.367   5.213
  679SOL     OW 2935   3.540   1.255   3.536
  679SOL    HW1 2936   3.601   1.333   3.541
  679SOL    HW2 2937   3.486   1.248   3.620
  680SOL     OW 2938   5.957   4.114   6.362
  680SOL    HW1 2939   6.033   4.177   6.346
  680SOL    HW2 2940   5.986   4.021   6.338
  681SOL     OW 2941   6.746   6.249   0.965
  681SOL    HW1 2942   6.727   6.326   0.904
  681SOL    HW2 2943   6.827   6.201   0.933
  682SOL     OW 2944   1.916   6.818   6.817
  682SOL    HW1 2945   2.006   6.788   6.847
  682SOL    HW2 2946   1.847   6.750   6.844
  683SOL     OW 2947   3.937   1.334   5.941
  683SOL    HW1 2948   4.033   1.351   5.920
  683SOL    HW2 2949   3.882   1.413   5.915
  684SOL     OW 2950   0.240   0.146   6.482
  684SOL    HW1 2951   0.151   0.168   6.523
  684SOL    HW2 2952   0.243   0.048   6.460
  685SOL     OW 2953   5.149   0.287   6.303
  685SOL    HW1 2954   5.161   0.361   6.237
  685SOL    HW2 2955   5.052   0.279   6.327
  686SOL     OW 2956   5.568   3.060   3.501
  686SOL    HW1 2957   5.520   3.142   3.470
  686SOL    HW2 2958   5.539   2.982   3.446
  687SOL     OW 2959   0.054   3.173   6.515
  687SOL    HW1 2960   0.142   3.188   6.471
  687SOL    HW2 2961   7.013   3.241   6.482
  688SOL     OW 2962   1.811   3.872   0.087
  688SOL    HW1 2963   1.827   3.970   0.078
  688SOL    HW2 2964   1.836   3.842   0.179
  689SOL     OW 2965   0.972   4.137   6.025
  689SOL    HW1 2966   0.983   4.230   5.989
  689SOL    HW2 2967   0.998   4.135   6.121
  690SOL     OW 2968   1.087   2.409   3.583
  690SOL    HW1 2969   1.154   2.448   3.646
  690SOL    HW2 2970   1.102   2.445   3.491
  691SOL     OW 2971   1.655   2.216   6.035
  691SOL    HW1 2972   1.560   2.206   6.005
  691SOL    HW2 2973   1.714   2.225   5.955
  692SOL     OW 2974   2.521   0.191   3.389
  692SOL    HW1 2975   2.615   0.207   3.358
  692SOL    HW2 2976   2.493   0.264   3.452
  693SOL     OW 2977   6.742   1.966   2.404
  693SOL    HW1 2978   6.703   1.874   2.415
  693SOL    HW2 2979   6.728   2.018   2.489
  694SOL     OW 2980   3.302   5.703   1.420
  694SOL    HW1 2981   3.306   5.799   1.449
  694SOL    HW2 2982   3.216   5.686   1.372
  695SOL     OW 2983   5.298   5.190   4.888
  695SOL    HW1 2984   5.327   5.145   4.972
  695SOL    HW2 2985   5.216   5.245   4.905
  696SOL     OW 2986   3.318   5.550   2.654
  696SOL    HW1 2987   3.221   5.553   2.629
  696SOL    HW2 2988   3.325   5.538   2.753
  697SOL     OW 2989   0.822   3.165   5.456
  697SOL    HW1 2990   0.833   3.140   5.552
  697SOL    HW2 2991   0.729   3.198   5.441
  698SOL     OW 2992   5.083   0.126   4.078
  698SOL    HW1 2993   5.080   0.151   3.981
  698SOL    HW2 2994   5.029   0.043   4.092
  699SOL     OW 2995   1.776   4.592   1.169
  699SOL    HW1 2996   1.860   4.538   1.169
  699SOL    HW2 2997   1.715   4.559   1.241
  700SOL     OW 2998   2.701   2.342   3.690
  700SOL    HW1 2999   2.637   2.266   3.681
  700SOL    HW2 3000   2.777   2.315   3.749
  701SOL     OW 3001   1.638   4.486   0.535
  701SOL    HW1 3002   1.712   4.466   0.470
  701SOL    HW2 3003   1.658   4.571   0.584
  702SOL     OW 3004   5.385   6.268   5.323
  702SOL    HW1 3005   5.312   6.203   5.302
  702SOL    HW2 3006   5.473   6.221   5.321
  703SOL     OW 3007   4.628   3.542   6.871
  703SOL    HW1 3008   4.606   3.562   6.967
  703SOL    HW2 3009   4.662   3.625   6.827
  704SOL     OW 3010   0.724   1.260   5.962
  704SOL    HW1 3011   0.778   1.176   5.957
  704SOL    HW2 3012   0.779   1.332   6.004
  705SOL     OW 3013   5.035   0.653   3.738
  705SOL    HW1 3014   5.084   0.614   3.660
  705SOL    HW2 3015   5.071   0.615   3.823
  706SOL     OW 3016   3.782   1.862   3.810
  706SOL    HW1 3017   3.869   1.814   3.823
  706SOL    HW2 3018   3.797   1.961   3.814
  707SOL     OW 3019   4.701   0.382   1.581
  707SOL    HW1 3020   4.629   0.409   1.644
  707SOL    HW2 3021   4.774   0.451   1.581
  708SOL     OW 3022   4.979   0.446   0.711
  708SOL    HW1 3023   5.000   0.397   0.626
  708SOL    HW2 3024   4.963   0.543   0.690
  709SOL     OW 3025   1.586   4.956   1.459
  709SOL    HW1 3026   1.684   4.955   1.480
  709SOL    HW2 3027   1.535   4.974   1.543
  710SOL     OW 3028   3.425   4.170   2.379
  710SOL    HW1 3029   3.373   4.244   2.421
  710SOL    HW2 3030   3.523   4.183   2.398
  711SOL     OW 3031   6.713   2.667   5.165
  711SOL    HW1 3032   6.662   2.648   5.081
  711SOL    HW2 3033   6.660   2.640   5.244
  712SOL     OW 3034   1.161   3.828   1.104
  712SOL    HW1 3035   1.084   3.833   1.168
  712SOL    HW2 3036   1.244   3.861   1.149
  713SOL     OW 3037   3.843   3.681   2.005
  713SOL    HW1 3038   3.922   3.619   2.009
  713SOL    HW2 3039   3.759   3.628   2.019
  714SOL     OW 3040   5.532   4.343   5.324
  714SOL    HW1 3041   5.505   4.259   5.370
  714SOL    HW2 3042   5.619   4.376   5.361
  715SOL     OW 3043   4.513   5.791   6.836
  715SOL    HW1 3044   4.582   5.843   6.785
  715SOL    HW2 3045   4.435   5.772   6.777
  716SOL     OW 3046   0.275   5.362   1.331
  716SOL    HW1 3047   0.312   5.297   1.265
  716SOL    HW2 3048   0.292   5.455   1.298
  717SOL     OW 3049   6.070   4.696   6.766
  717SOL    HW1 3050   6.045   4.783   6.809
  717SOL    HW2 3051   6.140   4.712   6.697
  718SOL     OW 3052   4.091   2.166   6.295
  718SOL    HW1 3053   4.008   2.190   6.245
  718SOL    HW2 3054   4.168   2.161   6.232
  719SOL     OW 3055   6.794   2.907   1.567
  719SOL    HW1 3056   6.833   2.993   1.600
  719SOL    HW2 3057   6.696   2.917   1.555
  720SOL     OW 3058   2.505   1.855   4.843
  720SOL    HW1 3059   2.529   1.806   4.759
  720SOL    HW2 3060   2.585   1.907   4.875
  721SOL     OW 3061   1.018   0.608   5.227
  721SOL    HW1 3062   0.965   0.567   5.300
  721SOL    HW2 3063   1.006   0.555   5.143
  722SOL     OW 3064   4.357   6.622   4.982
  722SOL    HW1 3065   4.397   6.682   5.051
  722SOL    HW2 3066   4.291   6.674   4.927
  723SOL     OW 3067   2.320   2.661   2.281
  723SOL    HW1 3068   2.300   2.593   2.210
  723SOL    HW2 3069   2.369   2.738   2.241
  724SOL     OW 3070   0.661   1.893   5.594
  724SOL    HW1 3071   0.597   1.818   5.611
  724SOL    HW2 3072   0.613   1.969   5.549
  725SOL     OW 3073   2.839   5.049   2.029
  725SOL    HW1 3074   2.768   4.997   1.981
  725SOL    HW2 3075   2.874   4.995   2.106
  726SOL     OW 3076   3.273   4.727   6.459
  726SOL    HW1 3077   3.208   4.780   6.406
  726SOL    HW2 3078   3.328   4.670   6.398
  727SOL     OW 3079   3.790   6.025   4.454
  727SOL    HW1 3080   3.774   6.109   4.401
  727SOL    HW2 3081   3.709   5.967   4.449
  728SOL     OW 3082   6.849   3.905   5.154
  728SOL    HW1 3083   6.926   3.944   5.104
  728SOL    HW2 3084   6.860   3.806   5.160
  729SOL     OW 3085   1.975   0.674   0.444
  729SOL    HW1 3086   1.890   0.628   0.468
  729SOL    HW2 3087   1.985   0.677   0.345
  730SOL     OW 3088   5.766   0.790   3.382
  730SOL    HW1 3089   5.707   0.720   3.423
  730SOL    HW2 3090   5.819   0.835   3.454
  731SOL     OW 3091   5.557   3.055   5.132
  731SOL    HW1 3092   5.624   2.982   5.144
  731SOL    HW2 3093   5.468   3.016   5.107
  732SOL     OW 3094   0.231   3.186   1.741
  732SOL    HW1 3095   0.320   3.142   1.742
  732SOL    HW2 3096   0.193   3.186   1.834
  733SOL     OW 3097   4.984   3.802   4.052
  733SOL    HW1 3098   5.074   3.796   4.095
  733SOL    HW2 3099   4.983   3.746   3.969
  734SOL     OW 3100   0.371   4.965   1.776
  734SOL    HW1 3101   0.413   4.998   1.692
  734SOL    HW2 3102   0.374   5.037   1.845
  735SOL     OW 3103   2.019   3.457   0.704
  735SOL    HW1 3104   1.921   3.440   0.718
  735SOL    HW2 3105   2.067   3.445   0.790
  736SOL     OW 3106   5.999   6.633   2.494
  736SOL    HW1 3107   5.997   6.710   2.429
  736SOL    HW2 3108   5.906   6.596   2.505
  737SOL     OW 3109   4.420   3.568   1.343
  737SOL    HW1 3110   4.436   3.545   1.439
  737SOL    HW2 3111   4.382   3.660   1.337
  738SOL     OW 3112   0.869   4.833   3.798
  738SOL    HW1 3113   0.907   4.788   3.717
  738SOL    HW2 3114   0.942   4.885   3.844
  739SOL     OW 3115   4.557   6.808   5.826
  739SOL    HW1 3116   4.535   6.905   5.815
  739SOL    HW2 3117   4.652   6.792   5.802
  740SOL     OW 3118   5.579   0.209   1.071
  740SOL    HW1 3119   5.511   0.149   1.030
  740SOL    HW2 3120   5.543   0.249   1.155
  741SOL     OW 3121   1.654   6.534   3.267
  741SOL    HW1 3122   1.717   6.462   3.238
  741SOL    HW2 3123   1.660   6.611   3.204
  742SOL     OW 3124   2.238   6.682   3.188
  742SOL    HW1 3125   2.314   6.736   3.225
  742SOL    HW2 3126   2.268   6.635   3.104
  743SOL     OW 3127   1.557   3.971   4.268
  743SOL    HW1 3128   1.476   4.002   4.318
  743SOL    HW2 3129   1.539   3.973   4.169
  744SOL     OW 3130   0.266   6.154   6.418
  744SOL    HW1 3131   0.360   6.141   6.388
  744SOL    HW2 3132   0.206   6.158   6.338
  745SOL     OW 3133   0.774   5.319   4.300
  745SOL    HW1 3134   0.870   5.342   4.314
  745SOL    HW2 3135   0.732   5.294   4.387
  746SOL     OW 3136   0.308   6.490   5.187
  746SOL    HW1 3137   0.356   6.577   5.200
  746SOL    HW2 3138   0.238   6.502   5.117
  747SOL     OW 3139   4.201   5.152   4.142
  747SOL    HW1 3140   4.111   5.163   4.098
  747SOL    HW2 3141   4.269   5.204   4.090
  748SOL     OW 3142   4.411   4.975   1.781
  748SOL    HW1 3143   4.314   4.954   1.775
  748SOL    HW2 3144   4.442   5.016   1.695
  749SOL     OW 3145   0.194   2.804   5.032
  749SOL    HW1 3146   0.158   2.732   4.973
  749SOL    HW2 3147   0.118   2.850   5.078
  750SOL     OW 3148   2.863   3.343   0.627
  750SOL    HW1 3149   2.934   3.413   0.628
  750SOL    HW2 3150   2.856   3.304   0.535
  751SOL     OW 3151   4.291   2.316   6.944
  751SOL    HW1 3152   4.220   2.372   6.900
  751SOL    HW2 3153   4.289   2.224   6.906
  752SOL     OW 3154   4.429   2.651   1.706
  752SOL    HW1 3155   4.472   2.734   1.672
  752SOL    HW2 3156   4.338   2.641   1.666
  753SOL     OW 3157   1.925   2.986   4.833
  753SOL    HW1 3158   1.896   3.064   4.887
  753SOL    HW2 3159   1.873   2.983   4.747
  754SOL     OW 3160   5.453   3.756   6.538
  754SOL    HW1 3161   5.535   3.702   6.519
  754SOL    HW2 3162   5.373   3.708   6.502
  755SOL     OW 3163   1.124   5.481   0.232
  755SOL    HW1 3164   1.058   5.429   0.286
  755SOL    HW2 3165   1.185   5.530   0.293
  756SOL     OW 3166   5.139   0.637   1.925
  756SOL    HW1 3167   5.222   0.673   1.883
  756SOL    HW2 3168   5.080   0.599   1.854
  757SOL     OW 3169   0.794   6.435   3.272
  757SOL    HW1 3170   0.893   6.420   3.277
  757SOL    HW2 3171   0.755   6.433   3.364
  758SOL     OW 3172   3.248   1.506   1.545
  758SOL    HW1 3173   3.207   1.594   1.521
  758SOL    HW2 3174   3.224   1.483   1.639
  759SOL     OW 3175   0.118   0.879   0.312
  759SOL    HW1 3176   0.064   0.964   0.315
  759SOL    HW2 3177   0.062   0.806   0.274
  760SOL     OW 3178   5.073   1.472   6.244
  760SOL    HW1 3179   5.003   1.522   6.193
  760SOL    HW2 3180   5.029   1.415   6.313
  761SOL     OW 3181   5.878   3.860   6.938
  761SOL    HW1 3182   5.790   3.867   6.891
  761SOL    HW2 3183   5.951   3.847   6.870
  762SOL     OW 3184   1.941   5.912   3.414
  762SOL    HW1 3185   1.881   5.986   3.443
  762SOL    HW2 3186   2.005   5.891   3.488
  763SOL     OW 3187   3.763   5.487   6.659
  763SOL    HW1 3188   3.706   5.448   6.587
  763SOL    HW2 3189   3.853   5.443   6.658
  764SOL     OW 3190   3.312   0.887   3.741
  764SOL    HW1 3191   3.383   0.847   3.684
  764SOL    HW2 3192   3.352   0.958   3.799
  765SOL     OW 3193   0.857   6.363   1.205
  765SOL    HW1 3194   0.820   6.332   1.292
  765SOL    HW2 3195   0.799   6.435   1.168
  766SOL     OW 3196   6.916   0.845   6.787
  766SOL    HW1 3197   6.955   0.926   6.743
  766SOL    HW2 3198   6.921   0.855   6.887
  767SOL     OW 3199   0.960   6.575   1.870
  767SOL    HW1 3200   1.042   6.580   1.928
  767SOL    HW2 3201   0.908   6.493   1.893
  768SOL     OW 3202   1.958   0.884   2.824
  768SOL    HW1 3203   2.012   0.928   2.753
  768SOL    HW2 3204   1.914   0.802   2.787
  769SOL     OW 3205   3.355   6.852   4.487
  769SOL    HW1 3206   3.374   6.938   4.534
  769SOL    HW2 3207   3.316   6.871   4.397
  770SOL     OW 3208   2.690   5.243   2.988
  770SOL    HW1 3209   2.601   5.221   3.028
  770SOL    HW2 3210   2.763   5.212   3.049
  771SOL     OW 3211   2.028   5.589   2.668
  771SOL    HW1 3212   2.115   5.637   2.665
  771SOL    HW2 3213   1.968   5.622   2.594
  772SOL     OW 3214   6.866   4.763   0.678
  772SOL    HW1 3215   6.940   4.756   0.745
  772SOL    HW2 3216   6.780   4.781   0.725
  773SOL     OW 3217   0.210   3.124   3.562
  773SOL    HW1 3218   0.277   3.058   3.529
  773SOL    HW2 3219   0.119   3.099   3.529
  774SOL     OW 3220   1.802   1.803   1.876
  774SOL    HW1 3221   1.870   1.751   1.824
  774SOL    HW2 3222   1.790   1.761   1.967
  775SOL     OW 3223   1.340   2.212   3.833
  775SOL    HW1 3224   1.296   2.194   3.920
  775SOL    HW2 3225   1.348   2.127   3.781
  776SOL     OW 3226   0.438   0.267   6.167
  776SOL    HW1 3227   0.502   0.275   6.090
  776SOL    HW2 3228   0.439   0.174   6.202
  777SOL     OW 3229   3.570   0.429   0.899
  777SOL    HW1 3230   3.490   0.441   0.840
  777SOL    HW2 3231   3.553   0.473   0.987
  778SOL     OW 3232   4.002   0.632   3.978
  778SOL    HW1 3233   4.044   0.543   3.996
  778SOL    HW2 3234   3.903   0.622   3.979
  779SOL     OW 3235   0.337   2.026   2.007
  779SOL    HW1 3236   0.293   2.024   1.918
  779SOL    HW2 3237   0.290   2.093   2.066
  780SOL     OW 3238   5.681   2.749   4.637
  780SOL    HW1 3239   5.652   2.665   4.592
  780SOL    HW2 3240   5.740   2.802   4.576
  781SOL     OW 3241   6.040   1.204   5.963
  781SOL    HW1 3242   6.139   1.214   5.974
  781SOL    HW2 3243   6.009   1.253   5.882
  782SOL     OW 3244   1.159   3.585   0.590
  782SOL    HW1 3245   1.179   3.645   0.667
  782SOL    HW2 3246   1.244   3.561   0.544
  783SOL     OW 3247   3.588   4.692   0.355
  783SOL    HW1 3248   3.677   4.676   0.313
  783SOL    HW2 3249   3.525   4.619   0.330
  784SOL     OW 3250   4.429   0.952   5.138
  784SOL    HW1 3251   4.456   0.876   5.078
  784SOL    HW2 3252   4.343   0.990   5.106
  785SOL     OW 3253   6.092   2.119   2.680
  785SOL    HW1 3254   6.152   2.142   2.602
  785SOL    HW2 3255   6.122   2.033   2.720
  786SOL     OW 3256   0.670   0.116   0.406
  786SOL    HW1 3257   0.743   0.178   0.377
  786SOL    HW2 3258   0.615   0.161   0.477
  787SOL     OW 3259   2.863   1.208   6.005
  787SOL    HW1 3260   2.962   1.198   6.021
  787SOL    HW2 3261   2.831   1.292   6.050
  788SOL     OW 3262   1.843   2.588   4.734
  788SOL    HW1 3263   1.883   2.513   4.787
  788SOL    HW2 3264   1.758   2.617   4.776
  789SOL     OW 3265   6.169   4.233   2.234
  789SOL    HW1 3266   6.158   4.165   2.307
  789SOL    HW2 3267   6.264   4.236   2.204
  790SOL     OW 3268   2.225   1.466   3.859
  790SOL    HW1 3269   2.294   1.432   3.923
  790SOL    HW2 3270   2.252   1.443   3.766
  791SOL     OW 3271   4.116   0.185   3.777
  791SOL    HW1 3272   4.131   0.089   3.755
  791SOL    HW2 3273   4.204   0.233   3.780
  792SOL     OW 3274   6.296   0.044   1.724
  792SOL    HW1 3275   6.339   6.991   1.771
  792SOL    HW2 3276   6.201   0.052   1.752
  793SOL     OW 3277   4.513   6.344   1.915
  793SOL    HW1 3278   4.524   6.252   1.879
  793SOL    HW2 3279   4.540   6.346   2.011
  794SOL     OW 3280   2.133   4.915   5.336
  794SOL    HW1 3281   2.115   4.885   5.429
  794SOL    HW2 3282   2.069   4.988   5.312
  795SOL     OW 3283   2.768   5.212   5.389
  795SOL    HW1 3284   2.756   5.186   5.293
  795SOL    HW2 3285   2.731   5.139   5.447
  796SOL     OW 3286   0.354   2.409   6.430
  796SOL    HW1 3287   0.282   2.472   6.402
  796SOL    HW2 3288   0.316   2.337   6.487
  797SOL     OW 3289   4.883   2.023   2.343
  797SOL    HW1 3290   4.835   2.093   2.290
  797SOL    HW2 3291   4.831   1.937   2.338
  798SOL     OW 3292   4.897   0.651   0.962
  798SOL    HW1 3293   4.910   0.682   1.056
  798SOL    HW2 3294   4.910   0.552   0.957
  799SOL     OW 3295   6.895   1.941   3.419
  799SOL    HW1 3296   6.848   1.853   3.410
  799SOL    HW2 3297   6.938   1.965   3.332
  800SOL     OW 3298   5.477   0.495   2.497
  800SOL    HW1 3299   5.455   0.523   2.403
  800SOL    HW2 3300   5.393   0.465   2.543
  801SOL     OW 3301   1.369   2.834   3.133
  801SOL    HW1 3302   1.377   2.918   3.187
  801SOL    HW2 3303   1.390   2.855   3.037
  802SOL     OW 3304   5.254   1.464   0.530
  802SOL    HW1 3305   5.261   1.564   0.523
  802SOL    HW2 3306   5.160   1.436   0.513
  803SOL     OW 3307   5.955   6.056   4.621
  803SOL    HW1 3308   5.985   6.150   4.637
  803SOL    HW2 3309   5.901   6.051   4.537
  804SOL     OW 3310   6.457   6.575   0.051
  804SOL    HW1 3311   6.548   6.598   0.083
  804SOL    HW2 3312   6.452   6.588   6.976
  805SOL     OW 3313   4.748   3.011   5.635
  805SOL    HW1 3314   4.733   2.931   5.692
  805SOL    HW2 3315   4.679   3.080   5.656
  806SOL     OW 3316   3.802   1.933   5.163
  806SOL    HW1 3317   3.893   1.934   5.204
  806SOL    HW2 3318   3.754   1.850   5.191
  807SOL     OW 3319   1.076   1.121   3.628
  807SOL    HW1 3320   1.004   1.070   3.581
  807SOL    HW2 3321   1.106   1.070   3.709
  808SOL     OW 3322   4.899   3.189   6.456
  808SOL    HW1 3323   4.942   3.186   6.546
  808SOL    HW2 3324   4.805   3.223   6.465
  809SOL     OW 3325   1.502   4.887   1.104
  809SOL    HW1 3326   1.562   4.840   1.169
  809SOL    HW2 3327   1.558   4.942   1.042
  810SOL     OW 3328   4.617   2.980   0.798
  810SOL    HW1 3329   4.641   2.912   0.729
  810SOL    HW2 3330   4.659   3.068   0.775
  811SOL     OW 3331   4.613   5.461   3.715
  811SOL    HW1 3332   4.588   5.364   3.716
  811SOL    HW2 3333   4.545   5.512   3.661
  812SOL     OW 3334   6.657   0.831   1.344
  812SOL    HW1 3335   6.578   0.872   1.389
  812SOL    HW2 3336   6.727   0.810   1.413
  813SOL     OW 3337   4.380   6.195   3.232
  813SOL    HW1 3338   4.394   6.258   3.156
  813SOL    HW2 3339   4.293   6.147   3.219
  814SOL     OW 3340   5.173   6.887   2.745
  814SOL    HW1 3341   5.120   6.811   2.781
  814SOL    HW2 3342   5.211   6.940   2.821
  815SOL     OW 3343   5.974   2.553   2.073
  815SOL    HW1 3344   6.007   2.645   2.094
  815SOL    HW2 3345   6.049   2.498   2.037
  816SOL     OW 3346   6.925   6.579   7.017
  816SOL    HW1 3347   6.909   6.616   6.925
  816SOL    HW2 3348   7.023   6.564   0.006
  817SOL     OW 3349   2.096   4.602   2.507
  817SOL    HW1 3350   2.138   4.612   2.416
  817SOL    HW2 3351   2.029   4.528   2.505
  818SOL     OW 3352   6.352   3.172   0.299
  818SOL    HW1 3353   6.362   3.253   0.356
  818SOL    HW2 3354   6.355   3.090   0.357
  819SOL     OW 3355   6.229   3.329   4.603
  819SOL    HW1 3356   6.207   3.427   4.593
  819SOL    HW2 3357   6.280   3.298   4.523
  820SOL     OW 3358   1.338   2.835   5.495
  820SOL    HW1 3359   1.329   2.759   5.559
  820SOL    HW2 3360   1.434   2.846   5.470
  821SOL     OW 3361   2.627   4.782   0.670
  821SOL    HW1 3362   2.667   4.850   0.609
  821SOL    HW2 3363   2.637   4.812   0.765
  822SOL     OW 3364   0.950   4.984   4.266
  822SOL    HW1 3365   0.920   4.903   4.318
  822SOL    HW2 3366   0.999   5.046   4.327
  823SOL     OW 3367   4.712   4.138   6.694
  823SOL    HW1 3368   4.704   4.069   6.766
  823SOL    HW2 3369   4.639   4.206   6.706
  824SOL     OW 3370   4.763   1.278   5.109
  824SOL    HW1 3371   4.807   1.229   5.184
  824SOL    HW2 3372   4.720   1.212   5.046
  825SOL     OW 3373   2.165   2.987   2.183
  825SOL    HW1 3374   2.146   3.075   2.140
  825SOL    HW2 3375   2.135   2.989   2.278
  826SOL     OW 3376   6.050   4.198   0.812
  826SOL    HW1 3377   6.063   4.100   0.799
  826SOL    HW2 3378   6.102   4.228   0.892
  827SOL     OW 3379   3.509   5.527   5.930
  827SOL    HW1 3380   3.519   5.574   6.018
  827SOL    HW2 3381   3.412   5.519   5.907
  828SOL     OW 3382   6.045   0.627   4.958
  828SOL    HW1 3383   5.996   0.603   5.041
  828SOL    HW2 3384   6.021   0.720   4.929
  829SOL     OW 3385   2.922   3.372   4.186
  829SOL    HW1 3386   2.964   3.454   4.223
  829SOL    HW2 3387   2.900   3.386   4.089
  830SOL     OW 3388   5.027   4.695   5.787
  830SOL    HW1 3389   5.058   4.616   5.734
  830SOL    HW2 3390   5.041   4.779   5.734
  831SOL     OW 3391   6.914   6.536   4.278
  831SOL    HW1 3392   6.818   6.543   4.308
  831SOL    HW2 3393   6.973   6.576   4.348
  832SOL     OW 3394   2.158   1.327   0.288
  832SOL    HW1 3395   2.251   1.310   0.254
  832SOL    HW2 3396   2.162   1.387   0.368
  833SOL     OW 3397   6.679   5.763   6.121
  833SOL    HW1 3398   6.675   5.863   6.132
  833SOL    HW2 3399   6.774   5.733   6.129
  834SOL     OW 3400   3.536   3.607   2.851
  834SOL    HW1 3401   3.562   3.531   2.911
  834SOL    HW2 3402   3.547   3.579   2.756
  835SOL     OW 3403   4.122   6.928   3.756
  835SOL    HW1 3404   4.192   6.882   3.701
  835SOL    HW2 3405   4.116   6.885   3.846
  836SOL     OW 3406   3.363   6.148   6.927
  836SOL    HW1 3407   3.333   6.092   6.850
  836SOL    HW2 3408   3.378   6.089   7.007
  837SOL     OW 3409   5.050   0.698   0.083
  837SOL    HW1 3410   5.084   0.793   0.081
  837SOL    HW2 3411   5.110   0.642   0.140
  838SOL     OW 3412   0.759   0.133   4.935
  838SOL    HW1 3413   0.689   0.108   4.868
  838SOL    HW2 3414   0.843   0.159   4.886
  839SOL     OW 3415   2.650   1.564   3.002
  839SOL    HW1 3416   2.696   1.645   3.038
  839SOL    HW2 3417   2.588   1.527   3.071
  840SOL     OW 3418   0.291   1.233   5.855
  840SOL    HW1 3419   0.215   1.230   5.920
  840SOL    HW2 3420   0.255   1.222   5.762
  841SOL     OW 3421   6.096   4.166   0.277
  841SOL    HW1 3422   6.005   4.190   0.243
  841SOL    HW2 3423   6.164   4.187   0.206
  842SOL     OW 3424   4.415   5.531   3.517
  842SOL    HW1 3425   4.326   5.574   3.499
  842SOL    HW2 3426   4.429   5.456   3.452
  843SOL     OW 3427   5.970   2.555   0.273
  843SOL    HW1 3428   6.018   2.637   0.304
  843SOL    HW2 3429   6.018   2.517   0.193
  844SOL     OW 3430   4.682   6.270   0.814
  844SOL    HW1 3431   4.729   6.201   0.760
  844SOL    HW2 3432   4.587   6.242   0.828
  845SOL     OW 3433   6.099   2.756   4.997
  845SOL    HW1 3434   6.089   2.657   4.985
  845SOL    HW2 3435   6.013   2.802   4.970
  846SOL     OW 3436   6.084   1.619   6.803
  846SOL    HW1 3437   6.017   1.690   6.823
  846SOL    HW2 3438   6.162   1.659   6.756
  847SOL     OW 3439   6.088   3.274   1.126
  847SOL    HW1 3440   6.029   3.258   1.204
  847SOL    HW2 3441   6.154   3.199   1.118
  848SOL     OW 3442   5.987   0.684   6.395
  848SOL    HW1 3443   6.054   0.748   6.357
  848SOL    HW2 3444   5.908   0.735   6.428
  849SOL     OW 3445   0.182   5.575   4.987
  849SOL    HW1 3446   0.205   5.618   5.074
  849SOL    HW2 3447   0.211   5.634   4.911
  850SOL     OW 3448   4.477   0.271   3.482
  850SOL    HW1 3449   4.558   0.212   3.485
  850SOL    HW2 3450   4.502   0.359   3.442
  851SOL     OW 3451   0.735   1.274   0.063
  851SOL    HW1 3452   0.701   1.197   0.009
  851SOL    HW2 3453   0.658   1.325   0.101
  852SOL     OW 3454   2.248   2.373   6.643
  852SOL    HW1 3455   2.337   2.344   6.609
  852SOL    HW2 3456   2.186   2.295   6.646
  853SOL     OW 3457   0.652   3.464   2.804
  853SOL    HW1 3458   0.597   3.506   2.877
  853SOL    HW2 3459   0.687   3.536   2.744
  854SOL     OW 3460   5.277   6.692   2.564
  854SOL    HW1 3461   5.375   6.703   2.579
  854SOL    HW2 3462   5.226   6.738   2.637
  855SOL     OW 3463   5.940   0.252   1.714
  855SOL    HW1 3464   5.937   0.210   1.805
  855SOL    HW2 3465   5.849   0.247   1.672
  856SOL     OW 3466   1.762   0.689   5.237
  856SOL    HW1 3467   1.850   0.689   5.190
  856SOL    HW2 3468   1.775   0.713   5.333
  857SOL     OW 3469   5.547   4.859   1.207
  857SOL    HW1 3470   5.564   4.763   1.231
  857SOL    HW2 3471   5.500   4.862   1.119
  858SOL     OW 3472   2.683   4.837   1.935
  858SOL    HW1 3473   2.588   4.806   1.929
  858SOL    HW2 3474   2.739   4.765   1.977
  859SOL     OW 3475   5.654   5.069   6.558
  859SOL    HW1 3476   5.583   5.139   6.551
  859SOL    HW2 3477   5.683   5.060   6.654
  860SOL     OW 3478   3.898   3.728   6.981
  860SOL    HW1 3479   3.829   3.689   0.019
  860SOL    HW2 3480   3.885   3.688   6.890
  861SOL     OW 3481   2.939   6.848   4.882
  861SOL    HW1 3482   2.873   6.873   4.811
  861SOL    HW2 3483   3.031   6.846   4.843
  862SOL     OW 3484   6.028   4.613   5.212
  862SOL    HW1 3485   5.978   4.563   5.282
  862SOL    HW2 3486   6.028   4.711   5.235
  863SOL     OW 3487   1.219   7.000   0.778
  863SOL    HW1 3488   1.215   0.056   0.718
  863SOL    HW2 3489   1.192   6.919   0.726
  864SOL     OW 3490   5.032   4.459   3.442
  864SOL    HW1 3491   4.990   4.401   3.372
  864SOL    HW2 3492   5.124   4.425   3.463
  865SOL     OW 3493   1.089   0.092   4.066
  865SOL    HW1 3494   1.000   0.110   4.107
  865SOL    HW2 3495   1.141   0.177   4.062
  866SOL     OW 3496   2.719   1.511   2.194
  866SOL    HW1 3497   2.763   1.516   2.283
  866SOL    HW2 3498   2.788   1.512   2.122
  867SOL     OW 3499   3.350   2.638   0.350
  867SOL    HW1 3500   3.270   2.682   0.308
  867SOL    HW2 3501   3.335   2.539   0.354
  868SOL     OW 3502   6.033   0.297   2.207
  868SOL    HW1 3503   6.099   0.223   2.221
  868SOL    HW2 3504   5.966   0.269   2.138
  869SOL     OW 3505   6.517   5.669   2.601
  869SOL    HW1 3506   6.549   5.744   2.659
  869SOL    HW2 3507   6.555   5.583   2.635
  870SOL     OW 3508   6.761   3.161   1.903
  870SOL    HW1 3509   6.775   3.170   1.804
  870SOL    HW2 3510   6.674   3.202   1.928
  871SOL     OW 3511   6.820   2.914   2.240
  871SOL    HW1 3512   6.899   2.932   2.297
  871SOL    HW2 3513   6.754   2.858   2.290
  872SOL     OW 3514   6.683   2.730   4.480
  872SOL    HW1 3515   6.727   2.812   4.443
  872SOL    HW2 3516   6.640   2.679   4.405
  873SOL     OW 3517   3.873   6.937   3.188
  873SOL    HW1 3518   3.924   7.023   3.185
  873SOL    HW2 3519   3.797   6.940   3.123
  874SOL     OW 3520   1.982   4.609   5.310
  874SOL    HW1 3521   2.079   4.625   5.290
  874SOL    HW2 3522   1.934   4.586   5.226
  875SOL     OW 3523   5.201   4.982   0.716
  875SOL    HW1 3524   5.191   5.053   0.645
  875SOL    HW2 3525   5.297   4.972   0.739
  876SOL     OW 3526   6.511   3.650   2.688
  876SOL    HW1 3527   6.460   3.576   2.643
  876SOL    HW2 3528   6.475   3.664   2.780
  877SOL     OW 3529   4.960   4.897   0.331
  877SOL    HW1 3530   4.958   4.815   0.273
  877SOL    HW2 3531   4.972   4.870   0.426
  878SOL     OW 3532   3.620   4.904   6.597
  878SOL    HW1 3533   3.635   4.829   6.662
  878SOL    HW2 3534   3.590   4.985   6.647
  879SOL     OW 3535   4.605   1.839   2.728
  879SOL    HW1 3536   4.532   1.904   2.710
  879SOL    HW2 3537   4.594   1.800   2.820
  880SOL     OW 3538   3.859   4.306   6.930
  880SOL    HW1 3539   3.940   4.324   6.985
  880SOL    HW2 3540   3.871   4.221   6.880
  881SOL     OW 3541   4.456   4.519   4.592
  881SOL    HW1 3542   4.374   4.574   4.604
  881SOL    HW2 3543   4.496   4.499   4.681
  882SOL     OW 3544   1.486   0.607   4.577
  882SOL    HW1 3545   1.447   0.664   4.650
  882SOL    HW2 3546   1.568   0.561   4.611
  883SOL     OW 3547   3.764   4.939   5.735
  883SOL    HW1 3548   3.785   5.011   5.800
  883SOL    HW2 3549   3.693   4.879   5.773
  884SOL     OW 3550   6.390   3.590   1.641
  884SOL    HW1 3551   6.409   3.492   1.637
  884SOL    HW2 3552   6.363   3.615   1.734
  885SOL     OW 3553   5.449   6.278   0.530
  885SOL    HW1 3554   5.510   6.352   0.505
  885SOL    HW2 3555   5.431   6.281   0.629
  886SOL     OW 3556   3.983   0.965   6.859
  886SOL    HW1 3557   4.029   0.943   6.945
  886SOL    HW2 3558   3.920   0.892   6.835
  887SOL     OW 3559   4.054   0.203   6.506
  887SOL    HW1 3560   4.019   0.287   6.465
  887SOL    HW2 3561   4.016   0.124   6.457
  888SOL     OW 3562   0.357   6.411   3.519
  888SOL    HW1 3563   0.352   6.318   3.554
  888SOL    HW2 3564   0.273   6.460   3.540
  889SOL     OW 3565   0.323   6.010   5.209
  889SOL    HW1 3566   0.393   5.996   5.140
  889SOL    HW2 3567   0.312   5.927   5.264
  890SOL     OW 3568   2.616   4.581   2.171
  890SOL    HW1 3569   2.609   4.645   2.247
  890SOL    HW2 3570   2.701   4.598   2.120
  891SOL     OW 3571   5.581   3.353   1.372
  891SOL    HW1 3572   5.563   3.360   1.470
  891SOL    HW2 3573   5.648   3.421   1.345
  892SOL     OW 3574   2.833   4.223   0.597
  892SOL    HW1 3575   2.896   4.295   0.566
  892SOL    HW2 3576   2.828   4.152   0.527
  893SOL     OW 3577   1.736   0.234   0.080
  893SOL    HW1 3578   1.721   0.313   0.020
  893SOL    HW2 3579   1.820   0.187   0.053
  894SOL     OW 3580   1.020   5.289   3.938
  894SOL    HW1 3581   1.031   5.285   4.038
  894SOL    HW2 3582   1.110   5.286   3.895
  895SOL     OW 3583   2.178   6.778   4.785
  895SOL    HW1 3584   2.133   6.708   4.730
  895SOL    HW2 3585   2.162   6.760   4.882
  896SOL     OW 3586   6.062   6.103   3.952
  896SOL    HW1 3587   5.971   6.104   3.993
  896SOL    HW2 3588   6.062   6.161   3.871
  897SOL     OW 3589   5.234   2.453   0.090
  897SOL    HW1 3590   5.250   2.423   7.020
  897SOL    HW2 3591   5.287   2.535   0.109
  898SOL     OW 3592   4.843   6.352   3.625
  898SOL    HW1 3593   4.788   6.329   3.545
  898SOL    HW2 3594   4.855   6.270   3.682
  899SOL     OW 3595   0.556   4.850   6.582
  899SOL    HW1 3596   0.593   4.789   6.512
  899SOL    HW2 3597   0.590   4.824   6.672
  900SOL     OW 3598   0.170   6.054   3.005
  900SOL    HW1 3599   0.237   6.091   3.069
  900SOL    HW2 3600   0.094   6.118   2.996
  901SOL     OW 3601   6.917   0.992   4.483
  901SOL    HW1 3602   6.943   1.082   4.447
  901SOL    HW2 3603   6.884   1.002   4.577
  902SOL     OW 3604   6.927   0.277   6.206
  902SOL    HW1 3605   6.847   0.217   6.211
  902SOL    HW2 3606   7.009   0.221   6.190
  903SOL     OW 3607   6.960   4.204   0.639
  903SOL    HW1 3608   6.878   4.164   0.598
  903SOL    HW2 3609   0.005   4.133   0.652
  904SOL     OW 3610   1.506   1.150   3.488
  904SOL    HW1 3611   1.467   1.216   3.424
  904SOL    HW2 3612   1.554   1.079   3.437
  905SOL     OW 3613   5.106   2.308   6.119
  905SOL    HW1 3614   5.137   2.361   6.040
  905SOL    HW2 3615   5.117   2.362   6.202
  906SOL     OW 3616   0.296   4.297   6.393
  906SOL    HW1 3617   0.334   4.381   6.355
  906SOL    HW2 3618   0.201   4.312   6.419
  907SOL     OW 3619   6.323   2.489   2.723
  907SOL    HW1 3620   6.356   2.532   2.807
  907SOL    HW2 3621   6.238   2.440   2.742
  908SOL     OW 3622   1.641   0.029   4.199
  908SOL    HW1 3623   1.734   0.013   4.166
  908SOL    HW2 3624   1.616   6.982   4.265
  909SOL     OW 3625   2.443   0.717   0.877
  909SOL    HW1 3626   2.507   0.705   0.801
  909SOL    HW2 3627   2.415   0.813   0.882
  910SOL     OW 3628   1.422   0.821   0.000
  910SOL    HW1 3629   1.391   0.875   0.078
  910SOL    HW2 3630   1.425   0.879   6.943
  911SOL     OW 3631   0.675   4.938   1.839
  911SOL    HW1 3632   0.617   5.019   1.828
  911SOL    HW2 3633   0.620   4.862   1.873
  912SOL     OW 3634   0.234   1.966   5.978
  912SOL    HW1 3635   0.202   2.060   5.969
  912SOL    HW2 3636   0.320   1.955   5.928
  913SOL     OW 3637   2.540   0.837   3.094
  913SOL    HW1 3638   2.516   0.895   3.016
  913SOL    HW2 3639   2.536   0.891   3.178
  914SOL     OW 3640   2.618   6.037   3.873
  914SOL    HW1 3641   2.645   6.038   3.777
  914SOL    HW2 3642   2.694   6.066   3.930
  915SOL     OW 3643   0.665   3.401   0.329
  915SOL    HW1 3644   0.746   3.341   0.335
  915SOL    HW2 3645   0.658   3.437   0.236
  916SOL     OW 3646   2.333   2.311   2.650
  916SOL    HW1 3647   2.327   2.398   2.699
  916SOL    HW2 3648   2.429   2.287   2.638
  917SOL     OW 3649   3.789   1.079   1.146
  917SOL    HW1 3650   3.751   1.171   1.154
  917SOL    HW2 3651   3.730   1.024   1.087
  918SOL     OW 3652   2.642   6.111   6.317
  918SOL    HW1 3653   2.637   6.194   6.373
  918SOL    HW2 3654   2.738   6.088   6.302
  919SOL     OW 3655   1.720   5.317   1.769
  919SOL    HW1 3656   1.756   5.251   1.834
  919SOL    HW2 3657   1.753   5.409   1.792
  920SOL     OW 3658   2.520   0.472   2.782
  920SOL    HW1 3659   2.502   0.452   2.878
  920SOL    HW2 3660   2.601   0.421   2.752
  921SOL     OW 3661   5.682   4.834   4.550
  921SOL    HW1 3662   5.743   4.773   4.500
  921SOL    HW2 3663   5.732   4.877   4.625
  922SOL     OW 3664   2.727   3.527   6.775
  922SOL    HW1 3665   2.692   3.544   6.867
  922SOL    HW2 3666   2.772   3.438   6.772
  923SOL     OW 3667   2.533   6.023   7.012
  923SOL    HW1 3668   2.523   6.117   6.979
  923SOL    HW2 3669   2.511   5.959   6.938
  924SOL     OW 3670   5.861   3.485   3.050
  924SOL    HW1 3671   5.798   3.432   3.107
  924SOL    HW2 3672   5.846   3.461   2.953
  925SOL     OW 3673   0.101   2.171   5.530
  925SOL    HW1 3674   0.122   2.073   5.533
  925SOL    HW2 3675   0.002   2.184   5.539
  926SOL     OW 3676   5.054   6.368   0.715
  926SOL    HW1 3677   5.055   6.310   0.634
  926SOL    HW2 3678   5.110   6.449   0.699
  927SOL     OW 3679   4.655   4.337   4.446
  927SOL    HW1 3680   4.563   4.377   4.449
  927SOL    HW2 3681   4.694   4.350   4.354
  928SOL     OW 3682   1.821   0.091   0.659
  928SOL    HW1 3683   1.869   0.089   0.571
  928SOL    HW2 3684   1.863   0.025   0.721
  929SOL     OW 3685   0.609   2.809   2.388
  929SOL    HW1 3686   0.679   2.741   2.412
  929SOL    HW2 3687   0.578   2.855   2.471
  930SOL     OW 3688   5.196   4.873   4.527
  930SOL    HW1 3689   5.170   4.782   4.495
  930SOL    HW2 3690   5.290   4.893   4.500
  931SOL     OW 3691   0.937   2.542   3.104
  931SOL    HW1 3692   0.963   2.631   3.140
  931SOL    HW2 3693   1.016   2.499   3.060
  932SOL     OW 3694   4.389   5.717   1.124
  932SOL    HW1 3695   4.334   5.674   1.195
  932SOL    HW2 3696   4.400   5.814   1.145
  933SOL     OW 3697   1.259   4.942   2.408
  933SOL    HW1 3698   1.353   4.944   2.374
  933SOL    HW2 3699   1.235   5.032   2.444
  934SOL     OW 3700   3.454   0.924   5.337
  934SOL    HW1 3701   3.370   0.937   5.286
  934SOL    HW2 3702   3.482   1.010   5.380
  935SOL     OW 3703   4.152   3.415   6.048
  935SOL    HW1 3704   4.200   3.388   5.964
  935SOL    HW2 3705   4.170   3.511   6.067
  936SOL     OW 3706   0.541   0.390   1.446
  936SOL    HW1 3707   0.558   0.468   1.386
  936SOL    HW2 3708   0.443   0.387   1.469
  937SOL     OW 3709   4.390   1.870   4.213
  937SOL    HW1 3710   4.391   1.846   4.310
  937SOL    HW2 3711   4.320   1.939   4.197
  938SOL     OW 3712   0.055   3.379   5.921
  938SOL    HW1 3713   0.008   3.449   5.977
  938SOL    HW2 3714   0.021   3.383   5.828
  939SOL     OW 3715   5.252   1.215   6.171
  939SOL    HW1 3716   5.328   1.221   6.236
  939SOL    HW2 3717   5.186   1.288   6.189
  940SOL     OW 3718   6.931   0.844   3.173
  940SOL    HW1 3719   6.986   0.761   3.167
  940SOL    HW2 3720   6.839   0.822   3.206
  941SOL     OW 3721   5.603   0.966   4.006
  941SOL    HW1 3722   5.589   0.941   4.101
  941SOL    HW2 3723   5.565   1.057   3.989
  942SOL     OW 3724   5.381   6.693   5.493
  942SOL    HW1 3725   5.446   6.619   5.477
  942SOL    HW2 3726   5.405   6.772   5.437
  943SOL     OW 3727   6.349   3.182   2.404
  943SOL    HW1 3728   6.371   3.087   2.424
  943SOL    HW2 3729   6.260   3.187   2.359
  944SOL     OW 3730   5.818   3.156   4.830
  944SOL    HW1 3731   5.786   3.164   4.735
  944SOL    HW2 3732   5.898   3.096   4.832
  945SOL     OW 3733   4.787   4.581   4.117
  945SOL    HW1 3734   4.806   4.483   4.107
  945SOL    HW2 3735   4.831   4.631   4.043
  946SOL     OW 3736   5.870   2.946   5.919
  946SOL    HW1 3737   5.826   2.868   5.873
  946SOL    HW2 3738   5.800   3.013   5.944
  947SOL     OW 3739   3.131   2.751   6.676
  947SOL    HW1 3740   3.113   2.667   6.727
  947SOL    HW2 3741   3.056   2.815   6.690
  948SOL     OW 3742   3.314   1.362   0.777
  948SOL    HW1 3743   3.242   1.410   0.827
  948SOL    HW2 3744   3.324   1.270   0.815
  949SOL     OW 3745   6.169   5.686   6.887
  949SOL    HW1 3746   6.263   5.650   6.886
  949SOL    HW2 3747   6.105   5.611   6.869
  950SOL     OW 3748   3.980   5.046   1.339
  950SOL    HW1 3749   3.887   5.010   1.349
  950SOL    HW2 3750   4.045   4.970   1.340
  951SOL     OW 3751   0.756   0.659   1.668
  951SOL    HW1 3752   0.706   0.687   1.750
  951SOL    HW2 3753   0.753   0.560   1.660
  952SOL     OW 3754   5.316   0.769   2.875
  952SOL    HW1 3755   5.308   0.860   2.917
  952SOL    HW2 3756   5.322   0.778   2.776
  953SOL     OW 3757   4.643   6.004   5.631
  953SOL    HW1 3758   4.697   5.922   5.612
  953SOL    HW2 3759   4.690   6.084   5.596
  954SOL     OW 3760   6.418   0.011   1.357
  954SOL    HW1 3761   6.349   0.018   1.285
  954SOL    HW2 3762   6.493   6.976   1.327
  955SOL     OW 3763   0.645   5.330   3.140
  955SOL    HW1 3764   0.716   5.284   3.193
  955SOL    HW2 3765   0.576   5.367   3.202
  956SOL     OW 3766   1.158   0.861   1.175
  956SOL    HW1 3767   1.168   0.952   1.214
  956SOL    HW2 3768   1.157   0.868   1.075
  957SOL     OW 3769   1.159   4.707   5.667
  957SOL    HW1 3770   1.232   4.748   5.612
  957SOL    HW2 3771   1.140   4.615   5.635
  958SOL     OW 3772   5.468   1.811   1.087
  958SOL    HW1 3773   5.564   1.824   1.112
  958SOL    HW2 3774   5.445   1.871   1.010
  959SOL     OW 3775   3.076   4.976   2.878
  959SOL    HW1 3776   3.018   5.052   2.907
  959SOL    HW2 3777   3.033   4.930   2.800
  960SOL     OW 3778   2.097   6.212   4.449
  960SOL    HW1 3779   2.140   6.123   4.466
  960SOL    HW2 3780   2.048   6.241   4.530
  961SOL     OW 3781   4.000   6.735   2.256
  961SOL    HW1 3782   4.073   6.729   2.189
  961SOL    HW2 3783   3.940   6.813   2.234
  962SOL     OW 3784   1.605   0.788   3.122
  962SOL    HW1 3785   1.700   0.775   3.151
  962SOL    HW2 3786   1.550   0.710   3.151
  963SOL     OW 3787   5.836   0.658   1.494
  963SOL    HW1 3788   5.926   0.633   1.528
  963SOL    HW2 3789   5.829   0.634   1.398
  964SOL     OW 3790   5.490   3.539   1.033
  964SOL    HW1 3791   5.559   3.568   0.966
  964SOL    HW2 3792   5.536   3.507   1.116
  965SOL     OW 3793   6.708   1.814   0.530
  965SOL    HW1 3794   6.628   1.762   0.499
  965SOL    HW2 3795   6.711   1.813   0.630
  966SOL     OW 3796   6.252   1.551   2.782
  966SOL    HW1 3797   6.348   1.524   2.793
  966SOL    HW2 3798   6.213   1.573   2.872
  967SOL     OW 3799   1.471   5.639   0.315
  967SOL    HW1 3800   1.437   5.688   0.234
  967SOL    HW2 3801   1.516   5.555   0.286
  968SOL     OW 3802   4.612   2.617   2.555
  968SOL    HW1 3803   4.631   2.548   2.486
  968SOL    HW2 3804   4.699   2.653   2.591
  969SOL     OW 3805   4.180   6.632   6.110
  969SOL    HW1 3806   4.180   6.551   6.169
  969SOL    HW2 3807   4.086   6.659   6.090
  970SOL     OW 3808   4.252   1.633   5.382
  970SOL    HW1 3809   4.261   1.629   5.282
  970SOL    HW2 3810   4.180   1.571   5.411
  971SOL     OW 3811   6.818   1.513   2.370
  971SOL    HW1 3812   6.779   1.424   2.343
  971SOL    HW2 3813   6.901   1.497   2.424
  972SOL     OW 3814   6.497   4.835   0.575
  972SOL    HW1 3815   6.555   4.827   0.656
  972SOL    HW2 3816   6.401   4.846   0.604
  973SOL     OW 3817   6.831   4.417   6.303
  973SOL    HW1 3818   6.852   4.510   6.274
  973SOL    HW2 3819   6.755   4.419   6.367
  974SOL     OW 3820   3.125   0.602   2.748
  974SOL    HW1 3821   3.168   0.667   2.811
  974SOL    HW2 3822   3.195   0.542   2.709
  975SOL     OW 3823   3.000   6.227   5.774
  975SOL    HW1 3824   3.019   6.216   5.871
  975SOL    HW2 3825   3.020   6.321   5.746
  976SOL     OW 3826   6.578   2.955   2.635
  976SOL    HW1 3827   6.494   2.903   2.619
  976SOL    HW2 3828   6.623   2.973   2.548
  977SOL     OW 3829   1.431   1.283   3.724
  977SOL    HW1 3830   1.467   1.248   3.638
  977SOL    HW2 3831   1.495   1.262   3.798
  978SOL     OW 3832   5.971   4.180   4.451
  978SOL    HW1 3833   5.947   4.087   4.481
  978SOL    HW2 3834   5.980   4.181   4.352
  979SOL     OW 3835   5.894   1.535   3.216
  979SOL    HW1 3836   5.909   1.478   3.297
  979SOL    HW2 3837   5.902   1.632   3.241
  980SOL     OW 3838   5.532   2.440   3.787
  980SOL    HW1 3839   5.547   2.539   3.783
  980SOL    HW2 3840   5.465   2.414   3.717
  981SOL     OW 3841   1.075   1.770   4.625
  981SOL    HW1 3842   1.061   1.673   4.606
  981SOL    HW2 3843   1.112   1.780   4.717
  982SOL     OW 3844   0.914   2.570   1.793
  982SOL    HW1 3845   0.919   2.612   1.884
  982SOL    HW2 3846   0.962   2.482   1.794
  983SOL     OW 3847   6.269   1.997   3.222
  983SOL    HW1 3848   6.224   1.944   3.150
  983SOL    HW2 3849   6.295   1.935   3.297
  984SOL     OW 3850   4.609   1.115   5.532
  984SOL    HW1 3851   4.576   1.152   5.619
  984SOL    HW2 3852   4.535   1.067   5.486
  985SOL     OW 3853   3.824   5.526   0.709
  985SOL    HW1 3854   3.727   5.512   0.689
  985SOL    HW2 3855   3.856   5.456   0.773
  986SOL     OW 3856   5.451   5.252   6.536
  986SOL    HW1 3857   5.365   5.200   6.537
  986SOL    HW2 3858   5.430   5.349   6.517
  987SOL     OW 3859   2.779   6.814   1.438
  987SOL    HW1 3860   2.696   6.811   1.494
  987SOL    HW2 3861   2.845   6.877   1.481
  988SOL     OW 3862   4.075   2.793   0.718
  988SOL    HW1 3863   3.983   2.788   0.680
  988SOL    HW2 3864   4.085   2.724   0.791
  989SOL     OW 3865   0.614   0.319   5.956
  989SOL    HW1 3866   0.546   0.302   5.885
  989SOL    HW2 3867   0.649   0.412   5.947
  990SOL     OW 3868   4.971   0.207   4.337
  990SOL    HW1 3869   5.023   0.145   4.279
  990SOL    HW2 3870   4.976   0.176   4.432
  991SOL     OW 3871   1.375   2.036   4.674
  991SOL    HW1 3872   1.406   2.093   4.598
  991SOL    HW2 3873   1.448   1.973   4.702
  992SOL     OW 3874   0.589   2.990   6.536
  992SOL    HW1 3875   0.548   2.950   6.454
  992SOL    HW2 3876   0.548   3.080   6.554
  993SOL     OW 3877   2.898   5.384   2.582
  993SOL    HW1 3878   2.882   5.393   2.680
  993SOL    HW2 3879   2.843   5.308   2.546
  994SOL     OW 3880   3.706   4.050   2.452
  994SOL    HW1 3881   3.806   4.039   2.450
  994SOL    HW2 3882   3.667   4.008   2.370
  995SOL     OW 3883   1.979   3.085   6.409
  995SOL    HW1 3884   1.913   3.148   6.450
  995SOL    HW2 3885   2.052   3.067   6.475
  996SOL     OW 3886   1.863   3.420   3.421
  996SOL    HW1 3887   1.812   3.401   3.505
  996SOL    HW2 3888   1.801   3.417   3.343
  997SOL     OW 3889   0.626   0.928   1.226
  997SOL    HW1 3890   0.693   0.894   1.160
  997SOL    HW2 3891   0.537   0.888   1.206
  998SOL     OW 3892   3.877   6.883   2.498
  998SOL    HW1 3893   3.903   6.812   2.433
  998SOL    HW2 3894   3.920   6.865   2.586
  999SOL     OW 3895   5.447   5.689   1.285
  999SOL    HW1 3896   5.449   5.782   1.324
  999SOL    HW2 3897   5.365   5.642   1.317
 1000SOL     OW 3898   2.189   1.870   2.600
 1000SOL    HW1 3899   2.193   1.945   2.533
 1000SOL    HW2 3900   2.261   1.803   2.580
 1001SOL     OW 3901   4.305   6.530   6.988
 1001SOL    HW1 3902   4.315   6.466   6.912
 1001SOL    HW2 3903   4.348   6.617   6.965
 1002SOL     OW 3904   5.784   1.554   6.594
 1002SOL    HW1 3905   5.811   1.650   6.596
 1002SOL    HW2 3906   5.866   1.496   6.597
 1003SOL     OW 3907   2.319   6.563   2.939
 1003SOL    HW1 3908   2.232   6.514   2.927
 1003SOL    HW2 3909   2.395   6.500   2.924
 1004SOL     OW 3910   0.019   0.102   6.880
 1004SOL    HW1 3911   0.074   0.145   6.951
 1004SOL    HW2 3912   6.949   0.094   6.912
 1005SOL     OW 3913   0.035   0.300   2.505
 1005SOL    HW1 3914   0.008   0.380   2.452
 1005SOL    HW2 3915   0.083   0.235   2.446
 1006SOL     OW 3916   2.314   5.608   1.555
 1006SOL    HW1 3917   2.306   5.533   1.489
 1006SOL    HW2 3918   2.403   5.604   1.600
 1007SOL     OW 3919   6.394   0.793   3.649
 1007SOL    HW1 3920   6.396   0.884   3.608
 1007SOL    HW2 3921   6.353   0.728   3.585
 1008SOL     OW 3922   0.860   2.472   4.046
 1008SOL    HW1 3923   0.878   2.488   3.949
 1008SOL    HW2 3924   0.939   2.501   4.100
 1009SOL     OW 3925   6.787   5.978   3.949
 1009SOL    HW1 3926   6.700   5.938   3.979
 1009SOL    HW2 3927   6.860   5.946   4.009
 1010SOL     OW 3928   3.984   2.175   6.993
 1010SOL    HW1 3929   3.971   2.267   0.006
 1010SOL    HW2 3930   3.994   2.110   0.043
 1011SOL     OW 3931   3.178   5.774   4.175
 1011SOL    HW1 3932   3.244   5.711   4.216
 1011SOL    HW2 3933   3.101   5.787   4.238
 1012SOL     OW 3934   6.428   5.154   0.597
 1012SOL    HW1 3935   6.500   5.216   0.566
 1012SOL    HW2 3936   6.425   5.073   0.538
 1013SOL     OW 3937   0.586   1.143   6.647
 1013SOL    HW1 3938   0.544   1.065   6.601
 1013SOL    HW2 3939   0.670   1.169   6.600
 1014SOL     OW 3940   5.175   5.301   6.338
 1014SOL    HW1 3941   5.117   5.245   6.277
 1014SOL    HW2 3942   5.238   5.356   6.283
 1015SOL     OW 3943   4.095   6.675   4.802
 1015SOL    HW1 3944   4.036   6.601   4.834
 1015SOL    HW2 3945   4.050   6.724   4.727
 1016SOL     OW 3946   2.686   2.875   1.183
 1016SOL    HW1 3947   2.771   2.827   1.162
 1016SOL    HW2 3948   2.654   2.923   1.102
 1017SOL     OW 3949   5.183   2.321   0.823
 1017SOL    HW1 3950   5.248   2.249   0.847
 1017SOL    HW2 3951   5.227   2.388   0.763
 1018SOL     OW 3952   1.914   3.090   4.241
 1018SOL    HW1 3953   1.885   3.083   4.336
 1018SOL    HW2 3954   1.932   2.999   4.205
 1019SOL     OW 3955   0.278   1.120   0.141
 1019SOL    HW1 3956   0.242   1.146   0.231
 1019SOL    HW2 3957   0.350   1.051   0.152
 1020SOL     OW 3958   1.527   0.096   0.637
 1020SOL    HW1 3959   1.528   7.021   0.649
 1020SOL    HW2 3960   1.620   0.131   0.646
 1021SOL     OW 3961   6.090   1.560   2.188
 1021SOL    HW1 3962   6.005   1.589   2.145
 1021SOL    HW2 3963   6.150   1.519   2.120
 1022SOL     OW 3964   4.226   4.232   6.060
 1022SOL    HW1 3965   4.302   4.289   6.092
 1022SOL    HW2 3966   4.141   4.284   6.063
 1023SOL     OW 3967   5.820   6.900   2.079
 1023SOL    HW1 3968   5.900   6.845   2.100
 1023SOL    HW2 3969   5.737   6.844   2.089
 1024SOL     OW 3970   6.556   2.394   4.039
 1024SOL    HW1 3971   6.469   2.411   3.991
 1024SOL    HW2 3972   6.598   2.312   4.001
 1025SOL     OW 3973   3.814   4.562   0.068
 1025SOL    HW1 3974   3.894   4.585   0.123
 1025SOL    HW2 3975   3.843   4.520   7.007
 1026SOL     OW 3976   1.460   1.143   0.682
 1026SOL    HW1 3977   1.531   1.197   0.728
 1026SOL    HW2 3978   1.497   1.055   0.655
 1027SOL     OW 3979   3.056   5.780   1.294
 1027SOL    HW1 3980   3.007   5.815   1.214
 1027SOL    HW2 3981   3.060   5.850   1.365
 1028SOL     OW 3982   2.360   6.105   0.207
 1028SOL    HW1 3983   2.437   6.117   0.145
 1028SOL    HW2 3984   2.276   6.089   0.154
 1029SOL     OW 3985   1.990   0.440   0.125
 1029SOL    HW1 3986   1.894   0.416   0.111
 1029SOL    HW2 3987   2.002   0.539   0.118
 1030SOL     OW 3988   3.705   3.008   4.382
 1030SOL    HW1 3989   3.711   2.963   4.472
 1030SOL    HW2 3990   3.655   3.094   4.391
 1031SOL     OW 3991   3.479   5.558   1.832
 1031SOL    HW1 3992   3.427   5.554   1.747
 1031SOL    HW2 3993   3.567   5.511   1.820
 1032SOL     OW 3994   2.096   1.400   5.518
 1032SOL    HW1 3995   2.118   1.402   5.421
 1032SOL    HW2 3996   2.161   1.457   5.568
 1033SOL     OW 3997   1.846   5.809   1.583
 1033SOL    HW1 3998   1.879   5.872   1.654
 1033SOL    HW2 3999   1.831   5.860   1.498
 1034SOL     OW 4000   1.853   6.284   4.044
 1034SOL    HW1 4001   1.945   6.305   4.013
 1034SOL    HW2 4002   1.838   6.323   4.134
 1035SOL     OW 4003   2.789   1.685   3.942
 1035SOL    HW1 4004   2.793   1.655   3.847
 1035SOL    HW2 4005   2.817   1.780   3.948
 1036SOL     OW 4006   3.998   1.055   0.936
 1036SOL    HW1 4007   3.900   1.049   0.950
 1036SOL    HW2 4008   4.030   0.973   0.888
 1037SOL     OW 4009   0.676   0.943   0.634
 1037SOL    HW1 4010   0.584   0.948   0.674
 1037SOL    HW2 4011   0.672   0.968   0.538
 1038SOL     OW 4012   0.735   1.538   5.647
 1038SOL    HW1 4013   0.758   1.572   5.738
 1038SOL    HW2 4014   0.762   1.442   5.639
 1039SOL     OW 4015   4.343   1.665   4.729
 1039SOL    HW1 4016   4.276   1.598   4.760
 1039SOL    HW2 4017   4.435   1.629   4.744
 1040SOL     OW 4018   5.667   3.556   3.457
 1040SOL    HW1 4019   5.679   3.612   3.374
 1040SOL    HW2 4020   5.628   3.468   3.432
 1041SOL     OW 4021   6.318   0.461   4.021
 1041SOL    HW1 4022   6.348   0.471   4.116
 1041SOL    HW2 4023   6.357   0.535   3.966
 1042SOL     OW 4024   4.613   4.839   1.916
 1042SOL    HW1 4025   4.644   4.869   2.006
 1042SOL    HW2 4026   4.549   4.906   1.878
 1043SOL     OW 4027   3.782   1.113   6.419
 1043SOL    HW1 4028   3.685   1.132   6.431
 1043SOL    HW2 4029   3.807   1.125   6.323
 1044SOL     OW 4030   3.261   2.480   1.192
 1044SOL    HW1 4031   3.321   2.443   1.263
 1044SOL    HW2 4032   3.255   2.579   1.201
 1045SOL     OW 4033   2.907   0.844   1.623
 1045SOL    HW1 4034   2.844   0.890   1.686
 1045SOL    HW2 4035   2.886   0.870   1.529
 1046SOL     OW 4036   2.410   6.619   6.774
 1046SOL    HW1 4037   2.362   6.533   6.760
 1046SOL    HW2 4038   2.375   6.666   6.854
 1047SOL     OW 4039   1.470   5.379   2.752
 1047SOL    HW1 4040   1.525   5.335   2.822
 1047SOL    HW2 4041   1.398   5.317   2.721
 1048SOL     OW 4042   5.306   5.448   5.383
 1048SOL    HW1 4043   5.277   5.354   5.360
 1048SOL    HW2 4044   5.369   5.445   5.460
 1049SOL     OW 4045   0.061   4.001   5.027
 1049SOL    HW1 4046   0.080   3.959   4.938
 1049SOL    HW2 4047   0.135   4.063   5.051
 1050SOL     OW 4048   3.741   6.573   0.513
 1050SOL    HW1 4049   3.690   6.495   0.549
 1050SOL    HW2 4050   3.713   6.590   0.419
 1051SOL     OW 4051   4.080   4.891   0.068
 1051SOL    HW1 4052   4.101   4.890   6.995
 1051SOL    HW2 4053   4.053   4.800   0.098
 1052SOL     OW 4054   3.936   0.522   4.859
 1052SOL    HW1 4055   3.845   0.538   4.819
 1052SOL    HW2 4056   3.972   0.608   4.895
 1053SOL     OW 4057   5.309   5.998   3.524
 1053SOL    HW1 4058   5.230   5.939   3.537
 1053SOL    HW2 4059   5.393   5.944   3.535
 1054SOL     OW 4060   2.620   5.072   5.591
 1054SOL    HW1 4061   2.559   5.005   5.549
 1054SOL    HW2 4062   2.650   5.037   5.680
 1055SOL     OW 4063   5.613   5.257   4.487
 1055SOL    HW1 4064   5.641   5.201   4.408
 1055SOL    HW2 4065   5.513   5.265   4.488
 1056SOL     OW 4066   1.557   6.654   5.394
 1056SOL    HW1 4067   1.472   6.704   5.409
 1056SOL    HW2 4068   1.539   6.574   5.336
 1057SOL     OW 4069   3.128   3.680   3.167
 1057SOL    HW1 4070   3.145   3.591   3.209
 1057SOL    HW2 4071   3.174   3.685   3.078
 1058SOL     OW 4072   4.290   1.585   1.800
 1058SOL    HW1 4073   4.304   1.578   1.898
 1058SOL    HW2 4074   4.192   1.577   1.780
 1059SOL     OW 4075   3.692   0.555   1.930
 1059SOL    HW1 4076   3.745   0.594   2.005
 1059SOL    HW2 4077   3.753   0.531   1.855
 1060SOL     OW 4078   0.564   3.820   5.950
 1060SOL    HW1 4079   0.479   3.854   5.989
 1060SOL    HW2 4080   0.593   3.738   5.999
 1061SOL     OW 4081   3.571   4.531   1.223
 1061SOL    HW1 4082   3.564   4.434   1.247
 1061SOL    HW2 4083   3.497   4.582   1.267
 1062SOL     OW 4084   6.846   5.641   5.127
 1062SOL    HW1 4085   6.938   5.670   5.155
 1062SOL    HW2 4086   6.850   5.548   5.092
 1063SOL     OW 4087   1.055   3.556   1.421
 1063SOL    HW1 4088   1.140   3.507   1.400
 1063SOL    HW2 4089   1.029   3.613   1.344
 1064SOL     OW 4090   1.643   3.283   2.288
 1064SOL    HW1 4091   1.554   3.323   2.265
 1064SOL    HW2 4092   1.671   3.220   2.216
 1065SOL     OW 4093   5.364   6.964   3.940
 1065SOL    HW1 4094   5.364   0.032   3.977
 1065SOL    HW2 4095   5.454   6.923   3.953
 1066SOL     OW 4096   5.311   0.064   4.730
 1066SOL    HW1 4097   5.219   0.103   4.735
 1066SOL    HW2 4098   5.305   6.989   4.738
 1067SOL     OW 4099   1.552   2.483   0.940
 1067SOL    HW1 4100   1.455   2.487   0.916
 1067SOL    HW2 4101   1.571   2.549   1.013
 1068SOL     OW 4102   0.356   4.098   2.284
 1068SOL    HW1 4103   0.395   4.009   2.260
 1068SOL    HW2 4104   0.265   4.107   2.245
 1069SOL     OW 4105   4.464   4.092   0.799
 1069SOL    HW1 4106   4.531   4.136   0.857
 1069SOL    HW2 4107   4.497   4.092   0.704
 1070SOL     OW 4108   2.186   0.884   0.092
 1070SOL    HW1 4109   2.155   0.925   0.006
 1070SOL    HW2 4110   2.204   0.957   0.159
 1071SOL     OW 4111   4.058   6.976   2.860
 1071SOL    HW1 4112   4.049   7.007   2.955
 1071SOL    HW2 4113   4.026   6.882   2.852
 1072SOL     OW 4114   2.893   6.367   2.421
 1072SOL    HW1 4115   2.985   6.337   2.448
 1072SOL    HW2 4116   2.861   6.313   2.343
 1073SOL     OW 4117   3.474   4.894   2.305
 1073SOL    HW1 4118   3.450   4.989   2.322
 1073SOL    HW2 4119   3.570   4.888   2.278
 1074SOL     OW 4120   1.550   5.585   2.064
 1074SOL    HW1 4121   1.627   5.606   2.004
 1074SOL    HW2 4122   1.537   5.486   2.069
 1075SOL     OW 4123   5.038   4.934   3.334
 1075SOL    HW1 4124   4.970   4.867   3.305
 1075SOL    HW2 4125   5.074   4.909   3.424
 1076SOL     OW 4126   1.364   4.448   4.960
 1076SOL    HW1 4127   1.401   4.381   5.024
 1076SOL    HW2 4128   1.312   4.402   4.889
 1077SOL     OW 4129   5.538   6.759   0.401
 1077SOL    HW1 4130   5.564   6.795   0.491
 1077SOL    HW2 4131   5.460   6.811   0.366
 1078SOL     OW 4132   1.582   1.510   2.371
 1078SOL    HW1 4133   1.591   1.437   2.438
 1078SOL    HW2 4134   1.566   1.471   2.281
 1079SOL     OW 4135   2.685   5.729   3.600
 1079SOL    HW1 4136   2.611   5.741   3.534
 1079SOL    HW2 4137   2.720   5.635   3.594
 1080SOL     OW 4138   2.946   5.369   3.717
 1080SOL    HW1 4139   2.898   5.312   3.784
 1080SOL    HW2 4140   2.919   5.341   3.625
 1081SOL     OW 4141   1.314   1.358   5.679
 1081SOL    HW1 4142   1.222   1.337   5.712
 1081SOL    HW2 4143   1.329   1.456   5.681
 1082SOL     OW 4144   1.384   0.168   5.361
 1082SOL    HW1 4145   1.396   0.262   5.394
 1082SOL    HW2 4146   1.462   0.113   5.391
 1083SOL     OW 4147   3.365   3.413   2.290
 1083SOL    HW1 4148   3.372   3.445   2.196
 1083SOL    HW2 4149   3.404   3.481   2.352
 1084SOL     OW 4150   6.130   5.320   1.173
 1084SOL    HW1 4151   6.085   5.251   1.230
 1084SOL    HW2 4152   6.215   5.283   1.136
 1085SOL     OW 4153   2.316   4.734   4.229
 1085SOL    HW1 4154   2.249   4.661   4.244
 1085SOL    HW2 4155   2.371   4.712   4.148
 1086SOL     OW 4156   5.823   5.634   3.521
 1086SOL    HW1 4157   5.922   5.643   3.525
 1086SOL    HW2 4158   5.799   5.544   3.485
 1087SOL     OW 4159   5.247   2.991   5.055
 1087SOL    HW1 4160   5.268   3.001   4.958
 1087SOL    HW2 4161   5.200   3.073   5.088
 1088SOL     OW 4162   4.960   4.297   3.253
 1088SOL    HW1 4163   5.055   4.266   3.244
 1088SOL    HW2 4164   4.904   4.254   3.183
 1089SOL     OW 4165   0.071   0.470   4.658
 1089SOL    HW1 4166   0.154   0.506   4.616
 1089SOL    HW2 4167   0.001   0.541   4.661
 1090SOL     OW 4168   2.390   1.351   5.114
 1090SOL    HW1 4169   2.335   1.338   5.032
 1090SOL    HW2 4170   2.419   1.447   5.119
 1091SOL     OW 4171   1.607   1.840   4.000
 1091SOL    HW1 4172   1.694   1.834   4.048
 1091SOL    HW2 4173   1.619   1.889   3.914
 1092SOL     OW 4174   2.094   4.148   1.053
 1092SOL    HW1 4175   2.071   4.060   1.092
 1092SOL    HW2 4176   2.094   4.141   0.953
 1093SOL     OW 4177   1.674   2.385   2.229
 1093SOL    HW1 4178   1.574   2.390   2.238
 1093SOL    HW2 4179   1.707   2.470   2.188
 1094SOL     OW 4180   0.301   6.766   1.559
 1094SOL    HW1 4181   0.208   6.744   1.589
 1094SOL    HW2 4182   0.338   6.839   1.617
 1095SOL     OW 4183   5.917   2.769   6.486
 1095SOL    HW1 4184   5.861   2.812   6.556
 1095SOL    HW2 4185   5.879   2.679   6.463
 1096SOL     OW 4186   3.541   5.275   1.111
 1096SOL    HW1 4187   3.536   5.350   1.045
 1096SOL    HW2 4188   3.618   5.215   1.089
 1097SOL     OW 4189   1.683   5.304   5.142
 1097SOL    HW1 4190   1.736   5.354   5.210
 1097SOL    HW2 4191   1.697   5.206   5.153
 1098SOL     OW 4192   5.395   2.182   0.904
 1098SOL    HW1 4193   5.436   2.090   0.903
 1098SOL    HW2 4194   5.392   2.216   0.998
 1099SOL     OW 4195   4.017   2.206   4.381
 1099SOL    HW1 4196   4.044   2.217   4.286
 1099SOL    HW2 4197   4.084   2.251   4.440
 1100SOL     OW 4198   0.767   1.496   6.233
 1100SOL    HW1 4199   0.729   1.586   6.212
 1100SOL    HW2 4200   0.699   1.442   6.283
 1101SOL     OW 4201   5.278   3.052   1.164
 1101SOL    HW1 4202   5.323   3.122   1.109
 1101SOL    HW2 4203   5.182   3.075   1.175
 1102SOL     OW 4204   0.642   4.459   3.791
 1102SOL    HW1 4205   0.687   4.419   3.872
 1102SOL    HW2 4206   0.545   4.435   3.792
 1103SOL     OW 4207   1.602   1.531   2.064
 1103SOL    HW1 4208   1.670   1.603   2.076
 1103SOL    HW2 4209   1.647   1.448   2.029
 1104SOL     OW 4210   2.404   4.802   6.210
 1104SOL    HW1 4211   2.455   4.815   6.125
 1104SOL    HW2 4212   2.430   4.715   6.252
 1105SOL     OW 4213   4.953   3.981   0.064
 1105SOL    HW1 4214   4.933   4.078   0.056
 1105SOL    HW2 4215   5.027   3.967   0.129
 1106SOL     OW 4216   0.085   2.453   5.927
 1106SOL    HW1 4217   0.032   2.371   5.908
 1106SOL    HW2 4218   0.129   2.445   6.016
 1107SOL     OW 4219   0.818   0.172   6.741
 1107SOL    HW1 4220   0.783   0.101   6.679
 1107SOL    HW2 4221   0.902   0.140   6.783
 1108SOL     OW 4222   2.528   0.898   5.846
 1108SOL    HW1 4223   2.490   0.840   5.919
 1108SOL    HW2 4224   2.592   0.844   5.791
 1109SOL     OW 4225   4.125   6.096   4.366
 1109SOL    HW1 4226   4.104   5.999   4.358
 1109SOL    HW2 4227   4.077   6.135   4.445
 1110SOL     OW 4228   2.634   2.951   1.445
 1110SOL    HW1 4229   2.671   2.923   1.356
 1110SOL    HW2 4230   2.636   2.873   1.508
 1111SOL     OW 4231   5.610   6.986   6.957
 1111SOL    HW1 4232   5.626   6.929   0.013
 1111SOL    HW2 4233   5.599   6.928   6.877
 1112SOL     OW 4234   6.096   0.802   2.918
 1112SOL    HW1 4235   6.190   0.771   2.905
 1112SOL    HW2 4236   6.062   0.769   3.006
 1113SOL     OW 4237   6.663   3.337   2.548
 1113SOL    HW1 4238   6.711   3.260   2.506
 1113SOL    HW2 4239   6.580   3.356   2.496
 1114SOL     OW 4240   5.047   0.701   6.409
 1114SOL    HW1 4241   4.996   0.779   6.446
 1114SOL    HW2 4242   5.028   0.620   6.465
 1115SOL     OW 4243   4.238   2.688   0.345
 1115SOL    HW1 4244   4.143   2.657   0.342
 1115SOL    HW2 4245   4.244   2.773   0.397
 1116SOL     OW 4246   5.192   5.775   3.588
 1116SOL    HW1 4247   5.273   5.770   3.646
 1116SOL    HW2 4248   5.159   5.683   3.569
 1117SOL     OW 4249   2.420   2.679   1.526
 1117SOL    HW1 4250   2.391   2.746   1.593
 1117SOL    HW2 4251   2.520   2.684   1.515
 1118SOL     OW 4252   1.893   5.354   2.761
 1118SOL    HW1 4253   1.914   5.436   2.708
 1118SOL    HW2 4254   1.974   5.325   2.811
 1119SOL     OW 4255   4.238   4.242   1.698
 1119SOL    HW1 4256   4.310   4.267   1.763
 1119SOL    HW2 4257   4.232   4.143   1.692
 1120SOL     OW 4258   5.415   0.224   6.411
 1120SOL    HW1 4259   5.361   0.250   6.331
 1120SOL    HW2 4260   5.354   0.194   6.484
 1121SOL     OW 4261   5.125   2.471   1.849
 1121SOL    HW1 4262   5.190   2.545   1.869
 1121SOL    HW2 4263   5.068   2.497   1.772
 1122SOL     OW 4264   5.734   2.898   6.649
 1122SOL    HW1 4265   5.737   2.925   6.745
 1122SOL    HW2 4266   5.729   2.980   6.591
 1123SOL     OW 4267   4.561   1.167   1.873
 1123SOL    HW1 4268   4.655   1.174   1.907
 1123SOL    HW2 4269   4.547   1.234   1.800
 1124SOL     OW 4270   6.751   3.438   5.271
 1124SOL    HW1 4271   6.708   3.357   5.232
 1124SOL    HW2 4272   6.683   3.511   5.279
 1125SOL     OW 4273   2.995   2.917   5.363
 1125SOL    HW1 4274   3.024   2.830   5.401
 1125SOL    HW2 4275   2.895   2.922   5.363
 1126SOL     OW 4276   4.448   0.120   0.508
 1126SOL    HW1 4277   4.495   0.187   0.565
 1126SOL    HW2 4278   4.515   0.070   0.452
 1127SOL     OW 4279   2.718   4.675   0.076
 1127SOL    HW1 4280   2.660   4.684   7.020
 1127SOL    HW2 4281   2.813   4.697   0.051
 1128SOL     OW 4282   4.253   2.325   3.847
 1128SOL    HW1 4283   4.260   2.358   3.753
 1128SOL    HW2 4284   4.306   2.240   3.857
 1129SOL     OW 4285   4.437   0.600   0.572
 1129SOL    HW1 4286   4.446   0.685   0.520
 1129SOL    HW2 4287   4.398   0.620   0.663
 1130SOL     OW 4288   1.640   3.960   1.062
 1130SOL    HW1 4289   1.696   4.012   1.126
 1130SOL    HW2 4290   1.684   3.959   0.972
 1131SOL     OW 4291   0.121   5.911   5.439
 1131SOL    HW1 4292   0.032   5.932   5.480
 1131SOL    HW2 4293   0.171   5.996   5.422
 1132SOL     OW 4294   5.050   6.932   5.757
 1132SOL    HW1 4295   5.125   6.868   5.742
 1132SOL    HW2 4296   5.053   6.967   5.851
 1133SOL     OW 4297   0.596   2.562   1.303
 1133SOL    HW1 4298   0.649   2.508   1.368
 1133SOL    HW2 4299   0.648   2.643   1.278
 1134SOL     OW 4300   5.486   2.564   6.655
 1134SOL    HW1 4301   5.583   2.555   6.679
 1134SOL    HW2 4302   5.466   2.660   6.634
 1135SOL     OW 4303   2.974   2.083   3.375
 1135SOL    HW1 4304   2.929   2.171   3.383
 1135SOL    HW2 4305   2.923   2.024   3.312
 1136SOL     OW 4306   2.360   5.657   3.679
 1136SOL    HW1 4307   2.384   5.563   3.653
 1136SOL    HW2 4308   2.377   5.719   3.602
 1137SOL     OW 4309   1.106   1.901   6.520
 1137SOL    HW1 4310   1.044   1.834   6.563
 1137SOL    HW2 4311   1.197   1.892   6.559
 1138SOL     OW 4312   2.438   3.524   6.080
 1138SOL    HW1 4313   2.416   3.618   6.053
 1138SOL    HW2 4314   2.536   3.509   6.073
 1139SOL     OW 4315   0.956   6.396   2.896
 1139SOL    HW1 4316   0.873   6.438   2.860
 1139SOL    HW2 4317   1.023   6.467   2.919
 1140SOL     OW 4318   3.406   1.853   3.209
 1140SOL    HW1 4319   3.456   1.892   3.286
 1140SOL    HW2 4320   3.319   1.901   3.198
 1141SOL     OW 4321   5.640   5.559   5.947
 1141SOL    HW1 4322   5.718   5.589   5.891
 1141SOL    HW2 4323   5.625   5.461   5.933
 1142SOL     OW 4324   4.925   0.420   4.134
 1142SOL    HW1 4325   4.975   0.334   4.131
 1142SOL    HW2 4326   4.869   0.424   4.217
 1143SOL     OW 4327   4.292   2.289   2.591
 1143SOL    HW1 4328   4.281   2.291   2.491
 1143SOL    HW2 4329   4.213   2.245   2.632
 1144SOL     OW 4330   0.284   4.319   4.167
 1144SOL    HW1 4331   0.303   4.381   4.091
 1144SOL    HW2 4332   0.186   4.320   4.187
 1145SOL     OW 4333   6.833   5.458   4.004
 1145SOL    HW1 4334   6.760   5.393   4.023
 1145SOL    HW2 4335   6.796   5.551   4.006
 1146SOL     OW 4336   6.180   2.281   0.741
 1146SOL    HW1 4337   6.167   2.372   0.700
 1146SOL    HW2 4338   6.101   2.260   0.798
 1147SOL     OW 4339   0.939   3.573   2.153
 1147SOL    HW1 4340   0.951   3.586   2.251
 1147SOL    HW2 4341   1.017   3.521   2.117
 1148SOL     OW 4342   3.549   5.967   6.341
 1148SOL    HW1 4343   3.531   6.027   6.419
 1148SOL    HW2 4344   3.636   5.920   6.354
 1149SOL     OW 4345   6.275   3.444   2.997
 1149SOL    HW1 4346   6.310   3.538   2.998
 1149SOL    HW2 4347   6.350   3.380   3.012
 1150SOL     OW 4348   2.312   4.910   1.009
 1150SOL    HW1 4349   2.348   4.839   0.948
 1150SOL    HW2 4350   2.338   4.889   1.103
 1151SOL     OW 4351   5.657   5.648   6.442
 1151SOL    HW1 4352   5.582   5.675   6.380
 1151SOL    HW2 4353   5.634   5.677   6.535
 1152SOL     OW 4354   0.963   0.174   4.755
 1152SOL    HW1 4355   0.926   0.266   4.749
 1152SOL    HW2 4356   1.063   0.178   4.754
 1153SOL     OW 4357   2.409   6.142   3.026
 1153SOL    HW1 4358   2.466   6.205   2.973
 1153SOL    HW2 4359   2.342   6.193   3.078
 1154SOL     OW 4360   0.683   4.206   2.173
 1154SOL    HW1 4361   0.607   4.270   2.187
 1154SOL    HW2 4362   0.646   4.113   2.168
 1155SOL     OW 4363   3.193   6.096   0.765
 1155SOL    HW1 4364   3.189   6.105   0.666
 1155SOL    HW2 4365   3.214   6.001   0.789
 1156SOL     OW 4366   2.389   0.500   3.795
 1156SOL    HW1 4367   2.349   0.469   3.881
 1156SOL    HW2 4368   2.410   0.597   3.801
 1157SOL     OW 4369   6.919   2.376   4.865
 1157SOL    HW1 4370   7.010   2.341   4.885
 1157SOL    HW2 4371   6.909   2.387   4.766
 1158SOL     OW 4372   5.680   4.589   6.204
 1158SOL    HW1 4373   5.712   4.497   6.181
 1158SOL    HW2 4374   5.590   4.584   6.247
 1159SOL     OW 4375   3.386   6.416   2.647
 1159SOL    HW1 4376   3.296   6.460   2.641
 1159SOL    HW2 4377   3.444   6.449   2.573
 1160SOL     OW 4378   3.927   3.937   2.169
 1160SOL    HW1 4379   3.973   3.851   2.149
 1160SOL    HW2 4380   3.926   3.951   2.268
 1161SOL     OW 4381   5.526   0.282   4.405
 1161SOL    HW1 4382   5.454   0.304   4.339
 1161SOL    HW2 4383   5.606   0.246   4.357
 1162SOL     OW 4384   3.131   3.294   1.462
 1162SOL    HW1 4385   3.088   3.370   1.413
 1162SOL    HW2 4386   3.152   3.221   1.397
 1163SOL     OW 4387   4.964   2.073   1.641
 1163SOL    HW1 4388   4.912   2.005   1.589
 1163SOL    HW2 4389   5.054   2.036   1.664
 1164SOL     OW 4390   5.446   3.234   2.986
 1164SOL    HW1 4391   5.373   3.231   2.917
 1164SOL    HW2 4392   5.416   3.184   3.068
 1165SOL     OW 4393   0.977   3.223   3.532
 1165SOL    HW1 4394   1.038   3.203   3.609
 1165SOL    HW2 4395   0.964   3.140   3.477
 1166SOL     OW 4396   4.422   2.226   6.620
 1166SOL    HW1 4397   4.406   2.136   6.661
 1166SOL    HW2 4398   4.491   2.275   6.674
 1167SOL     OW 4399   3.736   1.025   5.540
 1167SOL    HW1 4400   3.747   1.062   5.632
 1167SOL    HW2 4401   3.708   0.929   5.546
 1168SOL     OW 4402   6.735   6.148   3.059
 1168SOL    HW1 4403   6.661   6.130   3.124
 1168SOL    HW2 4404   6.818   6.173   3.108
 1169SOL     OW 4405   0.244   3.129   1.262
 1169SOL    HW1 4406   0.301   3.204   1.229
 1169SOL    HW2 4407   0.155   3.133   1.217
 1170SOL     OW 4408   3.819   1.242   3.077
 1170SOL    HW1 4409   3.904   1.189   3.072
 1170SOL    HW2 4410   3.832   1.319   3.140
 1171SOL     OW 4411   3.129   6.412   1.289
 1171SOL    HW1 4412   3.183   6.496   1.283
 1171SOL    HW2 4413   3.033   6.436   1.306
 1172SOL     OW 4414   3.920   3.773   4.224
 1172SOL    HW1 4415   4.008   3.740   4.190
 1172SOL    HW2 4416   3.910   3.870   4.201
 1173SOL     OW 4417   3.207   0.489   5.783
 1173SOL    HW1 4418   3.267   0.534   5.717
 1173SOL    HW2 4419   3.155   0.417   5.738
 1174SOL     OW 4420   2.612   5.796   0.907
 1174SOL    HW1 4421   2.597   5.733   0.831
 1174SOL    HW2 4422   2.571   5.884   0.886
 1175SOL     OW 4423   5.708   4.450   6.706
 1175SOL    HW1 4424   5.763   4.443   6.789
 1175SOL    HW2 4425   5.745   4.389   6.636
 1176SOL     OW 4426   5.273   5.096   1.001
 1176SOL    HW1 4427   5.331   5.172   0.973
 1176SOL    HW2 4428   5.178   5.116   0.976
 1177SOL     OW 4429   6.770   3.091   5.509
 1177SOL    HW1 4430   6.859   3.121   5.544
 1177SOL    HW2 4431   6.703   3.092   5.584
 1178SOL     OW 4432   5.309   3.509   2.430
 1178SOL    HW1 4433   5.329   3.551   2.341
 1178SOL    HW2 4434   5.300   3.410   2.419
 1179SOL     OW 4435   1.830   3.719   0.824
 1179SOL    HW1 4436   1.876   3.695   0.910
 1179SOL    HW2 4437   1.739   3.678   0.823
 1180SOL     OW 4438   2.209   1.425   3.491
 1180SOL    HW1 4439   2.213   1.357   3.418
 1180SOL    HW2 4440   2.296   1.424   3.541
 1181SOL     OW 4441   1.223   4.869   4.270
 1181SOL    HW1 4442   1.319   4.841   4.264
 1181SOL    HW2 4443   1.173   4.803   4.327
 1182SOL     OW 4444   2.103   4.012   3.796
 1182SOL    HW1 4445   2.007   4.013   3.769
 1182SOL    HW2 4446   2.117   4.076   3.872
 1183SOL     OW 4447   4.477   5.778   1.573
 1183SOL    HW1 4448   4.541   5.839   1.526
 1183SOL    HW2 4449   4.526   5.697   1.606
 1184SOL     OW 4450   3.243   2.841   5.246
 1184SOL    HW1 4451   3.168   2.888   5.290
 1184SOL    HW2 4452   3.267   2.888   5.161
 1185SOL     OW 4453   2.273   0.100   0.293
 1185SOL    HW1 4454   2.215   0.133   0.367
 1185SOL    HW2 4455   2.244   0.141   0.207
 1186SOL     OW 4456   6.152   0.252   5.096
 1186SOL    HW1 4457   6.052   0.253   5.093
 1186SOL    HW2 4458   6.183   0.178   5.156
 1187SOL     OW 4459   5.635   6.157   4.662
 1187SOL    HW1 4460   5.708   6.194   4.719
 1187SOL    HW2 4461   5.562   6.225   4.652
 1188SOL     OW 4462   2.232   6.776   6.121
 1188SOL    HW1 4463   2.287   6.791   6.203
 1188SOL    HW2 4464   2.214   6.678   6.110
 1189SOL     OW 4465   5.582   1.289   1.456
 1189SOL    HW1 4466   5.568   1.262   1.361
 1189SOL    HW2 4467   5.517   1.361   1.480
 1190SOL     OW 4468   4.062   5.408   3.446
 1190SOL    HW1 4469   4.051   5.493   3.394
 1190SOL    HW2 4470   3.997   5.340   3.412
 1191SOL     OW 4471   2.960   5.384   6.073
 1191SOL    HW1 4472   2.884   5.436   6.035
 1191SOL    HW2 4473   2.934   5.288   6.082
 1192SOL     OW 4474   6.140   4.637   2.802
 1192SOL    HW1 4475   6.069   4.596   2.859
 1192SOL    HW2 4476   6.224   4.584   2.810
 1193SOL     OW 4477   5.078   6.975   4.459
 1193SOL    HW1 4478   5.136   6.902   4.494
 1193SOL    HW2 4479   5.130   0.009   4.397
 1194SOL     OW 4480   6.201   0.227   0.837
 1194SOL    HW1 4481   6.214   0.320   0.872
 1194SOL    HW2 4482   6.256   0.214   0.755
 1195SOL     OW 4483   6.336   1.028   6.404
 1195SOL    HW1 4484   6.365   1.104   6.345
 1195SOL    HW2 4485   6.397   1.021   6.482
 1196SOL     OW 4486   0.314   4.778   2.562
 1196SOL    HW1 4487   0.321   4.750   2.658
 1196SOL    HW2 4488   0.375   4.855   2.546
 1197SOL     OW 4489   4.071   6.285   5.507
 1197SOL    HW1 4490   4.023   6.247   5.586
 1197SOL    HW2 4491   4.162   6.315   5.534
 1198SOL     OW 4492   3.347   2.064   2.926
 1198SOL    HW1 4493   3.325   2.088   3.021
 1198SOL    HW2 4494   3.282   2.107   2.864
 1199SOL     OW 4495   2.880   3.612   2.136
 1199SOL    HW1 4496   2.917   3.687   2.082
 1199SOL    HW2 4497   2.864   3.643   2.230
 1200SOL     OW 4498   4.520   4.129   5.638
 1200SOL    HW1 4499   4.566   4.190   5.703
 1200SOL    HW2 4500   4.506   4.178   5.551
 1201SOL     OW 4501   1.477   1.480   4.786
 1201SOL    HW1 4502   1.509   1.385   4.786
 1201SOL    HW2 4503   1.386   1.486   4.745
 1202SOL     OW 4504   5.610   0.099   5.565
 1202SOL    HW1 4505   5.595   0.003   5.540
 1202SOL    HW2 4506   5.528   0.135   5.611
 1203SOL     OW 4507   5.498   0.703   1.098
 1203SOL    HW1 4508   5.415   0.742   1.137
 1203SOL    HW2 4509   5.574   0.767   1.108
 1204SOL     OW 4510   3.570   1.598   0.382
 1204SOL    HW1 4511   3.622   1.514   0.392
 1204SOL    HW2 4512   3.476   1.584   0.412
 1205SOL     OW 4513   5.854   2.619   5.952
 1205SOL    HW1 4514   5.949   2.648   5.936
 1205SOL    HW2 4515   5.853   2.551   6.025
 1206SOL     OW 4516   1.915   1.423   4.561
 1206SOL    HW1 4517   1.887   1.328   4.546
 1206SOL    HW2 4518   1.843   1.484   4.529
 1207SOL     OW 4519   6.010   6.955   0.468
 1207SOL    HW1 4520   5.993   7.008   0.385
 1207SOL    HW2 4521   5.925   6.944   0.518
 1208SOL     OW 4522   3.246   3.652   2.936
 1208SOL    HW1 4523   3.175   3.614   2.876
 1208SOL    HW2 4524   3.334   3.612   2.913
 1209SOL     OW 4525   6.265   6.128   5.138
 1209SOL    HW1 4526   6.167   6.111   5.147
 1209SOL    HW2 4527   6.315   6.046   5.166
 1210SOL     OW 4528   3.743   0.280   2.824
 1210SOL    HW1 4529   3.825   0.231   2.793
 1210SOL    HW2 4530   3.666   0.257   2.764
 1211SOL     OW 4531   1.326   3.542   4.274
 1211SOL    HW1 4532   1.293   3.481   4.345
 1211SOL    HW2 4533   1.284   3.518   4.186
 1212SOL     OW 4534   1.400   3.880   5.254
 1212SOL    HW1 4535   1.497   3.889   5.276
 1212SOL    HW2 4536   1.351   3.959   5.288
 1213SOL     OW 4537   6.922   2.838   5.191
 1213SOL    HW1 4538   6.841   2.789   5.222
 1213SOL    HW2 4539   6.951   2.804   5.102
 1214SOL     OW 4540   1.873   3.747   4.797
 1214SOL    HW1 4541   1.855   3.694   4.714
 1214SOL    HW2 4542   1.951   3.708   4.845
 1215SOL     OW 4543   2.793   4.718   2.785
 1215SOL    HW1 4544   2.857   4.791   2.759
 1215SOL    HW2 4545   2.843   4.632   2.790
 1216SOL     OW 4546   1.444   6.685   1.443
 1216SOL    HW1 4547   1.474   6.775   1.412
 1216SOL    HW2 4548   1.524   6.628   1.463
 1217SOL     OW 4549   1.250   6.713   0.090
 1217SOL    HW1 4550   1.272   6.785   0.155
 1217SOL    HW2 4551   1.332   6.662   0.067
 1218SOL     OW 4552   0.584   3.802   4.918
 1218SOL    HW1 4553   0.548   3.845   5.000
 1218SOL    HW2 4554   0.635   3.870   4.864
 1219SOL     OW 4555   4.302   5.577   0.682
 1219SOL    HW1 4556   4.226   5.512   0.686
 1219SOL    HW2 4557   4.303   5.632   0.765
 1220SOL     OW 4558   5.730   2.970   2.443
 1220SOL    HW1 4559   5.828   2.964   2.427
 1220SOL    HW2 4560   5.691   3.040   2.384
 1221SOL     OW 4561   5.949   3.845   0.521
 1221SOL    HW1 4562   5.906   3.755   0.518
 1221SOL    HW2 4563   6.022   3.849   0.452
 1222SOL     OW 4564   6.717   6.632   0.133
 1222SOL    HW1 4565   6.707   6.550   0.190
 1222SOL    HW2 4566   6.801   6.626   0.079
 1223SOL     OW 4567   6.015   6.784   6.279
 1223SOL    HW1 4568   6.098   6.823   6.319
 1223SOL    HW2 4569   5.959   6.745   6.352
 1224SOL     OW 4570   4.100   5.967   0.393
 1224SOL    HW1 4571   4.050   5.881   0.396
 1224SOL    HW2 4572   4.073   6.019   0.312
 1225SOL     OW 4573   4.104   1.934   0.606
 1225SOL    HW1 4574   4.044   1.895   0.677
 1225SOL    HW2 4575   4.159   1.861   0.565
 1226SOL     OW 4576   5.877   6.561   1.193
 1226SOL    HW1 4577   5.865   6.473   1.147
 1226SOL    HW2 4578   5.922   6.546   1.281
 1227SOL     OW 4579   5.627   4.339   5.886
 1227SOL    HW1 4580   5.660   4.284   5.809
 1227SOL    HW2 4581   5.532   4.315   5.905
 1228SOL     OW 4582   3.777   2.886   2.379
 1228SOL    HW1 4583   3.789   2.788   2.369
 1228SOL    HW2 4584   3.689   2.914   2.341
 1229SOL     OW 4585   2.111   6.219   2.462
 1229SOL    HW1 4586   2.101   6.218   2.362
 1229SOL    HW2 4587   2.092   6.127   2.497
 1230SOL     OW 4588   5.153   5.208   2.272
 1230SOL    HW1 4589   5.163   5.123   2.324
 1230SOL    HW2 4590   5.242   5.253   2.264
 1231SOL     OW 4591   1.388   2.231   5.974
 1231SOL    HW1 4592   1.318   2.233   5.902
 1231SOL    HW2 4593   1.397   2.321   6.015
 1232SOL     OW 4594   3.443   0.618   4.930
 1232SOL    HW1 4595   3.382   0.695   4.915
 1232SOL    HW2 4596   3.485   0.591   4.843
 1233SOL     OW 4597   1.069   4.508   3.467
 1233SOL    HW1 4598   1.120   4.437   3.420
 1233SOL    HW2 4599   1.020   4.468   3.544
 1234SOL     OW 4600   6.902   3.500   6.883
 1234SOL    HW1 4601   6.907   3.573   6.952
 1234SOL    HW2 4602   6.820   3.445   6.899
 1235SOL     OW 4603   6.043   4.638   0.235
 1235SOL    HW1 4604   6.068   4.561   0.176
 1235SOL    HW2 4605   6.126   4.683   0.268
 1236SOL     OW 4606   2.731   0.765   0.392
 1236SOL    HW1 4607   2.776   0.843   0.437
 1236SOL    HW2 4608   2.661   0.799   0.330
 1237SOL     OW 4609   1.442   0.281   4.653
 1237SOL    HW1 4610   1.404   0.373   4.649
 1237SOL    HW2 4611   1.540   0.285   4.632
 1238SOL     OW 4612   0.315   0.171   3.353
 1238SOL    HW1 4613   0.381   0.120   3.410
 1238SOL    HW2 4614   0.359   0.198   3.267
 1239SOL     OW 4615   6.198   5.507   4.336
 1239SOL    HW1 4616   6.152   5.536   4.252
 1239SOL    HW2 4617   6.131   5.498   4.410
 1240SOL     OW 4618   6.099   5.511   3.128
 1240SOL    HW1 4619   6.173   5.483   3.190
 1240SOL    HW2 4620   6.025   5.552   3.181
 1241SOL     OW 4621   5.925   5.300   4.429
 1241SOL    HW1 4622   5.950   5.258   4.342
 1241SOL    HW2 4623   5.871   5.235   4.483
 1242SOL     OW 4624   1.459   3.161   0.185
 1242SOL    HW1 4625   1.420   3.105   0.111
 1242SOL    HW2 4626   1.385   3.200   0.239
 1243SOL     OW 4627   1.200   4.033   5.687
 1243SOL    HW1 4628   1.206   3.934   5.675
 1243SOL    HW2 4629   1.120   4.055   5.743
 1244SOL     OW 4630   5.948   6.542   5.056
 1244SOL    HW1 4631   6.024   6.513   4.997
 1244SOL    HW2 4632   5.864   6.545   5.002
 1245SOL     OW 4633   4.952   6.111   0.896
 1245SOL    HW1 4634   4.953   6.041   0.967
 1245SOL    HW2 4635   4.917   6.197   0.934
 1246SOL     OW 4636   4.728   1.723   0.679
 1246SOL    HW1 4637   4.730   1.638   0.626
 1246SOL    HW2 4638   4.649   1.777   0.653
 1247SOL     OW 4639   0.008   6.810   3.811
 1247SOL    HW1 4640   0.102   6.829   3.840
 1247SOL    HW2 4641   7.018   6.849   3.720
 1248SOL     OW 4642   7.011   0.212   4.735
 1248SOL    HW1 4643   0.015   0.298   4.693
 1248SOL    HW2 4644   0.055   0.183   4.802
 1249SOL     OW 4645   0.103   4.962   1.399
 1249SOL    HW1 4646   0.112   5.045   1.453
 1249SOL    HW2 4647   0.108   4.984   1.301
 1250SOL     OW 4648   5.515   3.638   5.426
 1250SOL    HW1 4649   5.478   3.545   5.431
 1250SOL    HW2 4650   5.613   3.634   5.406
 1251SOL     OW 4651   2.353   0.523   2.373
 1251SOL    HW1 4652   2.288   0.482   2.310
 1251SOL    HW2 4653   2.405   0.594   2.327
 1252SOL     OW 4654   2.796   5.523   6.731
 1252SOL    HW1 4655   2.787   5.532   6.830
 1252SOL    HW2 4656   2.767   5.608   6.687
 1253SOL     OW 4657   3.050   0.542   0.738
 1253SOL    HW1 4658   3.091   0.478   0.803
 1253SOL    HW2 4659   2.983   0.599   0.785
 1254SOL     OW 4660   6.395   1.640   2.326
 1254SOL    HW1 4661   6.347   1.675   2.406
 1254SOL    HW2 4662   6.493   1.639   2.343
 1255SOL     OW 4663   5.242   2.180   4.820
 1255SOL    HW1 4664   5.275   2.201   4.912
 1255SOL    HW2 4665   5.197   2.261   4.781
 1256SOL     OW 4666   0.320   6.135   3.905
 1256SOL    HW1 4667   0.399   6.117   3.846
 1256SOL    HW2 4668   0.334   6.222   3.953
 1257SOL     OW 4669   0.395   4.608   3.238
 1257SOL    HW1 4670   0.467   4.542   3.262
 1257SOL    HW2 4671   0.414   4.696   3.281
 1258SOL     OW 4672   2.821   6.164   4.353
 1258SOL    HW1 4673   2.779   6.082   4.313
 1258SOL    HW2 4674   2.913   6.176   4.315
 1259SOL     OW 4675   4.607   0.521   5.054
 1259SOL    HW1 4676   4.693   0.514   5.104
 1259SOL    HW2 4677   4.534   0.478   5.106
 1260SOL     OW 4678   2.189   0.457   2.151
 1260SOL    HW1 4679   2.091   0.471   2.139
 1260SOL    HW2 4680   2.211   0.360   2.139
 1261SOL     OW 4681   0.213   3.893   6.368
 1261SOL    HW1 4682   0.128   3.855   6.333
 1261SOL    HW2 4683   0.215   3.885   6.468
 1262SOL     OW 4684   4.770   5.063   0.966
 1262SOL    HW1 4685   4.747   5.050   1.062
 1262SOL    HW2 4686   4.720   5.142   0.930
 1263SOL     OW 4687   6.952   2.170   0.676
 1263SOL    HW1 4688   6.872   2.219   0.642
 1263SOL    HW2 4689   6.969   2.090   0.619
 1264SOL     OW 4690   0.897   3.650   3.020
 1264SOL    HW1 4691   0.801   3.629   3.036
 1264SOL    HW2 4692   0.952   3.615   3.096
 1265SOL     OW 4693   0.049   3.816   4.272
 1265SOL    HW1 4694   7.010   3.866   4.332
 1265SOL    HW2 4695   0.023   3.720   4.269
 1266SOL     OW 4696   2.945   1.743   5.618
 1266SOL    HW1 4697   2.990   1.797   5.547
 1266SOL    HW2 4698   2.966   1.781   5.708
 1267SOL     OW 4699   6.962   5.411   3.091
 1267SOL    HW1 4700   6.980   5.472   3.169
 1267SOL    HW2 4701   0.006   5.338   3.090
 1268SOL     OW 4702   5.492   2.287   6.561
 1268SOL    HW1 4703   5.498   2.385   6.579
 1268SOL    HW2 4704   5.410   2.251   6.605
 1269SOL     OW 4705   6.720   6.357   4.547
 1269SOL    HW1 4706   6.671   6.425   4.492
 1269SOL    HW2 4707   6.663   6.276   4.556
 1270SOL     OW 4708   2.180   3.915   4.809
 1270SOL    HW1 4709   2.098   3.902   4.864
 1270SOL    HW2 4710   2.258   3.930   4.869
 1271SOL     OW 4711   3.233   1.803   2.855
 1271SOL    HW1 4712   3.148   1.821   2.905
 1271SOL    HW2 4713   3.307   1.857   2.893
 1272SOL     OW 4714   0.287   5.535   0.753
 1272SOL    HW1 4715   0.255   5.618   0.707
 1272SOL    HW2 4716   0.369   5.556   0.806
 1273SOL     OW 4717   3.015   4.555   0.170
 1273SOL    HW1 4718   3.071   4.553   0.088
 1273SOL    HW2 4719   3.026   4.645   0.215
 1274SOL     OW 4720   7.008   2.784   2.009
 1274SOL    HW1 4721   6.946   2.831   2.073
 1274SOL    HW2 4722   0.005   2.693   2.045
 1275SOL     OW 4723   4.404   0.745   4.353
 1275SOL    HW1 4724   4.381   0.651   4.328
 1275SOL    HW2 4725   4.461   0.745   4.435
 1276SOL     OW 4726   6.896   0.657   2.629
 1276SOL    HW1 4727   6.811   0.661   2.682
 1276SOL    HW2 4728   6.900   0.734   2.566
 1277SOL     OW 4729   0.290   1.178   4.602
 1277SOL    HW1 4730   0.235   1.259   4.619
 1277SOL    HW2 4731   0.316   1.175   4.505
 1278SOL     OW 4732   1.394   2.065   5.270
 1278SOL    HW1 4733   1.466   2.133   5.259
 1278SOL    HW2 4734   1.427   1.990   5.327
 1279SOL     OW 4735   2.887   6.588   0.707
 1279SOL    HW1 4736   2.934   6.613   0.622
 1279SOL    HW2 4737   2.919   6.499   0.738
 1280SOL     OW 4738   1.774   0.411   2.538
 1280SOL    HW1 4739   1.714   0.363   2.602
 1280SOL    HW2 4740   1.866   0.416   2.577
 1281SOL     OW 4741   1.394   5.805   3.167
 1281SOL    HW1 4742   1.401   5.768   3.075
 1281SOL    HW2 4743   1.374   5.903   3.162
 1282SOL     OW 4744   0.604   1.189   0.902
 1282SOL    HW1 4745   0.602   1.099   0.946
 1282SOL    HW2 4746   0.571   1.181   0.808
 1283SOL     OW 4747   5.522   3.932   5.924
 1283SOL    HW1 4748   5.545   3.924   5.827
 1283SOL    HW2 4749   5.422   3.934   5.934
 1284SOL     OW 4750   2.731   2.513   1.738
 1284SOL    HW1 4751   2.697   2.437   1.683
 1284SOL    HW2 4752   2.783   2.478   1.815
 1285SOL     OW 4753   5.186   3.004   6.541
 1285SOL    HW1 4754   5.174   3.028   6.445
 1285SOL    HW2 4755   5.139   3.071   6.599
 1286SOL     OW 4756   5.079   4.209   2.057
 1286SOL    HW1 4757   4.981   4.193   2.057
 1286SOL    HW2 4758   5.097   4.306   2.074
 1287SOL     OW 4759   6.017   4.850   6.454
 1287SOL    HW1 4760   6.028   4.925   6.519
 1287SOL    HW2 4761   5.951   4.784   6.491
 1288SOL     OW 4762   0.373   2.814   0.156
 1288SOL    HW1 4763   0.398   2.872   0.078
 1288SOL    HW2 4764   0.277   2.829   0.179
 1289SOL     OW 4765   0.411   6.476   2.021
 1289SOL    HW1 4766   0.325   6.449   1.978
 1289SOL    HW2 4767   0.421   6.428   2.108
 1290SOL     OW 4768   0.503   0.206   6.606
 1290SOL    HW1 4769   0.407   0.181   6.594
 1290SOL    HW2 4770   0.509   0.286   6.666
 1291SOL     OW 4771   2.217   5.158   6.154
 1291SOL    HW1 4772   2.312   5.186   6.139
 1291SOL    HW2 4773   2.215   5.081   6.218
 1292SOL     OW 4774   0.222   4.431   1.592
 1292SOL    HW1 4775   0.283   4.417   1.671
 1292SOL    HW2 4776   0.275   4.469   1.516
 1293SOL     OW 4777   2.274   1.158   6.175
 1293SOL    HW1 4778   2.222   1.152   6.089
 1293SOL    HW2 4779   2.211   1.160   6.252
 1294SOL     OW 4780   0.309   3.419   2.152
 1294SOL    HW1 4781   0.271   3.346   2.095
 1294SOL    HW2 4782   0.389   3.384   2.200
 1295SOL     OW 4783   6.097   3.413   2.637
 1295SOL    HW1 4784   6.126   3.356   2.714
 1295SOL    HW2 4785   6.000   3.432   2.645
 1296SOL     OW 4786   3.146   1.951   6.259
 1296SOL    HW1 4787   3.199   2.032   6.237
 1296SOL    HW2 4788   3.094   1.922   6.178
 1297SOL     OW 4789   5.830   1.709   5.673
 1297SOL    HW1 4790   5.838   1.781   5.742
 1297SOL    HW2 4791   5.770   1.636   5.708
 1298SOL     OW 4792   5.416   3.410   3.670
 1298SOL    HW1 4793   5.457   3.360   3.594
 1298SOL    HW2 4794   5.487   3.456   3.722
 1299SOL     OW 4795   1.841   4.304   3.514
 1299SOL    HW1 4796   1.925   4.355   3.494
 1299SOL    HW2 4797   1.856   4.207   3.495
 1300SOL     OW 4798   3.087   3.542   1.903
 1300SOL    HW1 4799   3.108   3.472   1.971
 1300SOL    HW2 4800   3.051   3.623   1.948
 1301SOL     OW 4801   1.278   6.529   3.427
 1301SOL    HW1 4802   1.224   6.606   3.461
 1301SOL    HW2 4803   1.375   6.547   3.445
 1302SOL     OW 4804   2.418   6.647   5.077
 1302SOL    HW1 4805   2.502   6.680   5.036
 1302SOL    HW2 4806   2.432   6.555   5.113
 1303SOL     OW 4807   3.720   1.510   1.093
 1303SOL    HW1 4808   3.664   1.568   1.152
 1303SOL    HW2 4809   3.668   1.487   1.010
 1304SOL     OW 4810   1.493   0.640   6.125
 1304SOL    HW1 4811   1.519   0.553   6.084
 1304SOL    HW2 4812   1.396   0.640   6.146
 1305SOL     OW 4813   5.284   6.068   5.054
 1305SOL    HW1 4814   5.201   6.020   5.082
 1305SOL    HW2 4815   5.261   6.139   4.988
 1306SOL     OW 4816   1.216   3.545   5.084
 1306SOL    HW1 4817   1.131   3.493   5.081
 1306SOL    HW2 4818   1.294   3.482   5.092
 1307SOL     OW 4819   1.443   3.120   4.927
 1307SOL    HW1 4820   1.406   3.075   4.845
 1307SOL    HW2 4821   1.499   3.055   4.978
 1308SOL     OW 4822   4.397   5.949   4.322
 1308SOL    HW1 4823   4.454   5.868   4.338
 1308SOL    HW2 4824   4.301   5.927   4.340
 1309SOL     OW 4825   5.830   3.030   5.360
 1309SOL    HW1 4826   5.745   3.059   5.403
 1309SOL    HW2 4827   5.809   2.971   5.282
 1310SOL     OW 4828   5.727   3.647   4.752
 1310SOL    HW1 4829   5.644   3.606   4.714
 1310SOL    HW2 4830   5.807   3.611   4.703
 1311SOL     OW 4831   5.915   6.960   4.227
 1311SOL    HW1 4832   5.883   6.869   4.200
 1311SOL    HW2 4833   5.963   7.003   4.151
 1312SOL     OW 4834   0.627   0.934   6.468
 1312SOL    HW1 4835   0.720   0.898   6.475
 1312SOL    HW2 4836   0.567   0.887   6.533
 1313SOL     OW 4837   3.140   5.638   5.226
 1313SOL    HW1 4838   3.138   5.737   5.233
 1313SOL    HW2 4839   3.136   5.611   5.130
 1314SOL     OW 4840   1.584   1.558   5.595
 1314SOL    HW1 4841   1.534   1.514   5.520
 1314SOL    HW2 4842   1.676   1.520   5.600
 1315SOL     OW 4843   1.232   1.102   0.850
 1315SOL    HW1 4844   1.189   1.012   0.850
 1315SOL    HW2 4845   1.309   1.102   0.787
 1316SOL     OW 4846   1.886   0.110   3.548
 1316SOL    HW1 4847   1.803   0.054   3.554
 1316SOL    HW2 4848   1.864   0.204   3.575
 1317SOL     OW 4849   0.804   4.392   4.475
 1317SOL    HW1 4850   0.770   4.337   4.551
 1317SOL    HW2 4851   0.862   4.336   4.416
 1318SOL     OW 4852   0.325   0.662   0.341
 1318SOL    HW1 4853   0.323   0.595   0.414
 1318SOL    HW2 4854   0.258   0.734   0.360
 1319SOL     OW 4855   6.512   0.846   0.593
 1319SOL    HW1 4856   6.488   0.818   0.500
 1319SOL    HW2 4857   6.472   0.935   0.613
 1320SOL     OW 4858   5.740   4.543   0.053
 1320SOL    HW1 4859   5.758   4.580   0.144
 1320SOL    HW2 4860   5.641   4.531   0.041
 1321SOL     OW 4861   4.685   3.188   0.113
 1321SOL    HW1 4862   4.629   3.182   0.031
 1321SOL    HW2 4863   4.764   3.127   0.105
 1322SOL     OW 4864   6.350   0.807   3.281
 1322SOL    HW1 4865   6.264   0.857   3.281
 1322SOL    HW2 4866   6.422   0.864   3.321
 1323SOL     OW 4867   5.453   1.725   5.497
 1323SOL    HW1 4868   5.452   1.629   5.524
 1323SOL    HW2 4869   5.419   1.733   5.403
 1324SOL     OW 4870   1.652   2.111   1.270
 1324SOL    HW1 4871   1.607   2.130   1.358
 1324SOL    HW2 4872   1.696   2.022   1.273
 1325SOL     OW 4873   1.713   6.739   3.041
 1325SOL    HW1 4874   1.651   6.698   2.974
 1325SOL    HW2 4875   1.666   6.815   3.087
 1326SOL     OW 4876   5.012   2.392   4.426
 1326SOL    HW1 4877   4.938   2.445   4.386
 1326SOL    HW2 4878   5.026   2.419   4.521
 1327SOL     OW 4879   2.460   5.264   2.590
 1327SOL    HW1 4880   2.421   5.261   2.682
 1327SOL    HW2 4881   2.462   5.359   2.558
 1328SOL     OW 4882   1.366   2.455   6.309
 1328SOL    HW1 4883   1.313   2.390   6.256
 1328SOL    HW2 4884   1.401   2.410   6.392
 1329SOL     OW 4885   6.948   1.500   0.475
 1329SOL    HW1 4886   7.020   1.559   0.510
 1329SOL    HW2 4887   6.928   1.429   0.543
 1330SOL     OW 4888   6.544   0.400   0.978
 1330SOL    HW1 4889   6.563   0.461   1.054
 1330SOL    HW2 4890   6.451   0.363   0.988
 1331SOL     OW 4891   5.517   1.064   2.790
 1331SOL    HW1 4892   5.490   0.983   2.738
 1331SOL    HW2 4893   5.484   1.146   2.743
 1332SOL     OW 4894   4.250   1.097   1.072
 1332SOL    HW1 4895   4.166   1.068   1.028
 1332SOL    HW2 4896   4.232   1.179   1.128
 1333SOL     OW 4897   3.664   4.185   5.266
 1333SOL    HW1 4898   3.691   4.131   5.345
 1333SOL    HW2 4899   3.612   4.127   5.203
 1334SOL     OW 4900   1.394   3.365   5.155
 1334SOL    HW1 4901   1.369   3.383   5.251
 1334SOL    HW2 4902   1.479   3.313   5.152
 1335SOL     OW 4903   2.455   6.624   2.628
 1335SOL    HW1 4904   2.542   6.574   2.632
 1335SOL    HW2 4905   2.419   6.636   2.720
 1336SOL     OW 4906   1.221   1.547   6.665
 1336SOL    HW1 4907   1.278   1.604   6.606
 1336SOL    HW2 4908   1.134   1.529   6.619
 1337SOL     OW 4909   1.934   2.791   6.417
 1337SOL    HW1 4910   2.031   2.796   6.392
 1337SOL    HW2 4911   1.904   2.879   6.452
 1338SOL     OW 4912   4.599   3.842   6.503
 1338SOL    HW1 4913   4.502   3.820   6.513
 1338SOL    HW2 4914   4.608   3.929   6.453
 1339SOL     OW 4915   6.988   4.788   6.689
 1339SOL    HW1 4916   6.920   4.760   6.756
 1339SOL    HW2 4917   0.025   4.712   6.669
 1340SOL     OW 4918   1.113   1.992   0.865
 1340SOL    HW1 4919   1.125   1.903   0.909
 1340SOL    HW2 4920   1.201   2.026   0.832
 1341SOL     OW 4921   3.723   1.088   5.161
 1341SOL    HW1 4922   3.705   1.004   5.109
 1341SOL    HW2 4923   3.715   1.069   5.259
 1342SOL     OW 4924   1.074   6.051   5.827
 1342SOL    HW1 4925   1.153   6.091   5.873
 1342SOL    HW2 4926   1.091   5.953   5.811
 1343SOL     OW 4927   3.441   6.772   2.554
 1343SOL    HW1 4928   3.507   6.843   2.579
 1343SOL    HW2 4929   3.490   6.691   2.521
 1344SOL     OW 4930   6.125   1.836   3.009
 1344SOL    HW1 4931   6.167   1.878   2.929
 1344SOL    HW2 4932   6.136   1.736   3.004
 1345SOL     OW 4933   0.519   0.978   3.373
 1345SOL    HW1 4934   0.519   0.879   3.361
 1345SOL    HW2 4935   0.454   1.003   3.445
 1346SOL     OW 4936   1.049   6.372   3.373
 1346SOL    HW1 4937   1.100   6.286   3.369
 1346SOL    HW2 4938   1.112   6.447   3.393
 1347SOL     OW 4939   6.640   6.825   3.321
 1347SOL    HW1 4940   6.670   6.835   3.226
 1347SOL    HW2 4941   6.582   6.744   3.330
 1348SOL     OW 4942   5.739   5.150   4.248
 1348SOL    HW1 4943   5.699   5.096   4.173
 1348SOL    HW2 4944   5.811   5.097   4.292
 1349SOL     OW 4945   4.507   2.700   0.234
 1349SOL    HW1 4946   4.542   2.793   0.248
 1349SOL    HW2 4947   4.431   2.683   0.297
 1350SOL     OW 4948   3.326   4.608   6.713
 1350SOL    HW1 4949   3.240   4.563   6.736
 1350SOL    HW2 4950   3.318   4.648   6.622
 1351SOL     OW 4951   0.469   0.349   3.051
 1351SOL    HW1 4952   0.448   0.407   3.129
 1351SOL    HW2 4953   0.563   0.367   3.020
 1352SOL     OW 4954   6.447   0.667   3.893
 1352SOL    HW1 4955   6.403   0.684   3.805
 1352SOL    HW2 4956   6.546   0.678   3.884
 1353SOL     OW 4957   6.769   4.141   4.996
 1353SOL    HW1 4958   6.686   4.196   4.994
 1353SOL    HW2 4959   6.750   4.053   5.038
 1354SOL     OW 4960   0.210   0.909   0.930
 1354SOL    HW1 4961   0.125   0.946   0.968
 1354SOL    HW2 4962   0.190   0.859   0.846
 1355SOL     OW 4963   5.415   4.248   0.634
 1355SOL    HW1 4964   5.357   4.166   0.633
 1355SOL    HW2 4965   5.369   4.322   0.586
 1356SOL     OW 4966   3.351   3.981   2.637
 1356SOL    HW1 4967   3.280   4.000   2.705
 1356SOL    HW2 4968   3.419   4.053   2.640
 1357SOL     OW 4969   2.690   3.208   6.143
 1357SOL    HW1 4970   2.613   3.197   6.081
 1357SOL    HW2 4971   2.708   3.122   6.190
 1358SOL     OW 4972   2.326   2.807   6.592
 1358SOL    HW1 4973   2.352   2.732   6.653
 1358SOL    HW2 4974   2.346   2.782   6.497
 1359SOL     OW 4975   6.083   3.941   1.794
 1359SOL    HW1 4976   6.016   3.937   1.868
 1359SOL    HW2 4977   6.037   3.926   1.706
 1360SOL     OW 4978   4.003   3.857   2.893
 1360SOL    HW1 4979   4.091   3.895   2.865
 1360SOL    HW2 4980   3.971   3.903   2.976
 1361SOL     OW 4981   0.975   0.020   5.877
 1361SOL    HW1 4982   0.918   0.038   5.797
 1361SOL    HW2 4983   0.915   7.023   5.955
 1362SOL     OW 4984   3.018   3.463   5.783
 1362SOL    HW1 4985   3.113   3.437   5.769
 1362SOL    HW2 4986   2.972   3.394   5.839
 1363SOL     OW 4987   6.554   6.088   3.267
 1363SOL    HW1 4988   6.470   6.039   3.291
 1363SOL    HW2 4989   6.632   6.041   3.308
 1364SOL     OW 4990   6.939   3.488   0.518
 1364SOL    HW1 4991   6.985   3.574   0.538
 1364SOL    HW2 4992   6.989   3.438   0.448
 1365SOL     OW 4993   1.376   3.442   5.421
 1365SOL    HW1 4994   1.417   3.451   5.512
 1365SOL    HW2 4995   1.317   3.521   5.404
 1366SOL     OW 4996   6.841   3.228   1.236
 1366SOL    HW1 4997   6.920   3.167   1.243
 1366SOL    HW2 4998   6.805   3.224   1.142
 1367SOL     OW 4999   1.500   4.336   3.628
 1367SOL    HW1 5000   1.580   4.364   3.681
 1367SOL    HW2 5001   1.444   4.417   3.607
 1368SOL     OW 5002   6.418   6.535   4.481
 1368SOL    HW1 5003   6.428   6.440   4.452
 1368SOL    HW2 5004   6.325   6.566   4.463
 1369SOL     OW 5005   2.036   6.202   2.189
 1369SOL    HW1 5006   1.962   6.138   2.211
 1369SOL    HW2 5007   1.996   6.289   2.159
 1370SOL     OW 5008   0.252   2.366   3.697
 1370SOL    HW1 5009   0.221   2.328   3.610
 1370SOL    HW2 5010   0.351   2.354   3.705
 1371SOL     OW 5011   6.106   0.954   4.493
 1371SOL    HW1 5012   6.063   0.865   4.486
 1371SOL    HW2 5013   6.036   1.025   4.496
 1372SOL     OW 5014   6.436   2.730   0.625
 1372SOL    HW1 5015   6.486   2.696   0.704
 1372SOL    HW2 5016   6.423   2.829   0.634
 1373SOL     OW 5017   4.487   2.302   1.524
 1373SOL    HW1 5018   4.531   2.297   1.614
 1373SOL    HW2 5019   4.542   2.358   1.463
 1374SOL     OW 5020   5.353   3.843   0.746
 1374SOL    HW1 5021   5.285   3.786   0.700
 1374SOL    HW2 5022   5.350   3.825   0.845
 1375SOL     OW 5023   6.737   5.492   6.077
 1375SOL    HW1 5024   6.669   5.553   6.117
 1375SOL    HW2 5025   6.690   5.418   6.028
 1376SOL     OW 5026   2.930   4.532   6.327
 1376SOL    HW1 5027   2.928   4.439   6.362
 1376SOL    HW2 5028   2.843   4.577   6.345
 1377SOL     OW 5029   1.237   2.707   3.564
 1377SOL    HW1 5030   1.254   2.806   3.567
 1377SOL    HW2 5031   1.245   2.670   3.656
 1378SOL     OW 5032   4.148   2.240   4.842
 1378SOL    HW1 5033   4.162   2.287   4.755
 1378SOL    HW2 5034   4.154   2.306   4.917
 1379SOL     OW 5035   4.848   5.495   2.167
 1379SOL    HW1 5036   4.941   5.531   2.178
 1379SOL    HW2 5037   4.793   5.520   2.246
 1380SOL     OW 5038   6.325   6.390   1.993
 1380SOL    HW1 5039   6.295   6.295   1.996
 1380SOL    HW2 5040   6.420   6.396   2.023
 1381SOL     OW 5041   5.615   2.292   6.167
 1381SOL    HW1 5042   5.596   2.377   6.216
 1381SOL    HW2 5043   5.714   2.284   6.151
 1382SOL     OW 5044   4.381   2.917   1.475
 1382SOL    HW1 5045   4.417   3.009   1.459
 1382SOL    HW2 5046   4.325   2.888   1.397
 1383SOL     OW 5047   1.769   6.314   1.611
 1383SOL    HW1 5048   1.805   6.405   1.626
 1383SOL    HW2 5049   1.687   6.301   1.668
 1384SOL     OW 5050   4.341   0.701   0.821
 1384SOL    HW1 5051   4.292   0.776   0.777
 1384SOL    HW2 5052   4.335   0.711   0.921
 1385SOL     OW 5053   2.318   4.938   3.723
 1385SOL    HW1 5054   2.415   4.953   3.708
 1385SOL    HW2 5055   2.296   4.958   3.819
 1386SOL     OW 5056   3.039   6.465   4.110
 1386SOL    HW1 5057   2.955   6.410   4.113
 1386SOL    HW2 5058   3.058   6.491   4.016
 1387SOL     OW 5059   3.594   5.770   1.461
 1387SOL    HW1 5060   3.528   5.700   1.432
 1387SOL    HW2 5061   3.575   5.855   1.413
 1388SOL     OW 5062   6.143   6.786   1.103
 1388SOL    HW1 5063   6.138   6.780   1.203
 1388SOL    HW2 5064   6.162   6.880   1.076
 1389SOL     OW 5065   5.678   1.260   2.964
 1389SOL    HW1 5066   5.674   1.322   3.042
 1389SOL    HW2 5067   5.585   1.235   2.937
 1390SOL     OW 5068   0.545   3.370   6.950
 1390SOL    HW1 5069   0.519   3.277   6.974
 1390SOL    HW2 5070   0.599   3.369   6.866
 1391SOL     OW 5071   6.669   0.811   3.796
 1391SOL    HW1 5072   6.726   0.892   3.815
 1391SOL    HW2 5073   6.600   0.835   3.728
 1392SOL     OW 5074   5.275   5.827   5.925
 1392SOL    HW1 5075   5.313   5.758   5.863
 1392SOL    HW2 5076   5.348   5.888   5.956
 1393SOL     OW 5077   6.310   5.226   5.451
 1393SOL    HW1 5078   6.237   5.204   5.385
 1393SOL    HW2 5079   6.304   5.164   5.529
 1394SOL     OW 5080   2.957   6.238   5.051
 1394SOL    HW1 5081   2.937   6.291   5.133
 1394SOL    HW2 5082   2.961   6.141   5.075
 1395SOL     OW 5083   2.404   4.480   6.044
 1395SOL    HW1 5084   2.304   4.483   6.035
 1395SOL    HW2 5085   2.446   4.529   5.967
 1396SOL     OW 5086   1.854   0.535   4.013
 1396SOL    HW1 5087   1.782   0.603   4.028
 1396SOL    HW2 5088   1.940   0.568   4.052
 1397SOL     OW 5089   0.275   0.594   3.914
 1397SOL    HW1 5090   0.252   0.557   4.005
 1397SOL    HW2 5091   0.211   0.668   3.892
 1398SOL     OW 5092   1.625   1.111   5.607
 1398SOL    HW1 5093   1.566   1.129   5.686
 1398SOL    HW2 5094   1.575   1.059   5.539
 1399SOL     OW 5095   4.138   6.443   1.026
 1399SOL    HW1 5096   4.146   6.395   0.939
 1399SOL    HW2 5097   4.119   6.377   1.099
 1400SOL     OW 5098   6.983   1.872   2.413
 1400SOL    HW1 5099   6.907   1.932   2.390
 1400SOL    HW2 5100   7.015   1.825   2.331
 1401SOL     OW 5101   7.020   1.972   4.922
 1401SOL    HW1 5102   0.003   2.071   4.929
 1401SOL    HW2 5103   0.047   1.929   4.996
 1402SOL     OW 5104   0.868   4.458   0.265
 1402SOL    HW1 5105   0.920   4.400   0.327
 1402SOL    HW2 5106   0.770   4.447   0.284
 1403SOL     OW 5107   2.950   1.319   1.830
 1403SOL    HW1 5108   2.908   1.273   1.908
 1403SOL    HW2 5109   3.041   1.282   1.814
 1404SOL     OW 5110   5.198   0.239   0.298
 1404SOL    HW1 5111   5.239   0.292   0.224
 1404SOL    HW2 5112   5.163   0.152   0.263
 1405SOL     OW 5113   1.934   3.785   1.068
 1405SOL    HW1 5114   1.935   3.693   1.107
 1405SOL    HW2 5115   1.983   3.847   1.129
 1406SOL     OW 5116   1.464   5.147   1.660
 1406SOL    HW1 5117   1.535   5.207   1.697
 1406SOL    HW2 5118   1.393   5.134   1.728
 1407SOL     OW 5119   0.523   2.113   1.706
 1407SOL    HW1 5120   0.619   2.140   1.692
 1407SOL    HW2 5121   0.515   2.060   1.790
 1408SOL     OW 5122   5.623   1.104   5.791
 1408SOL    HW1 5123   5.554   1.052   5.841
 1408SOL    HW2 5124   5.685   1.147   5.856
 1409SOL     OW 5125   0.658   0.219   5.160
 1409SOL    HW1 5126   0.676   0.197   5.064
 1409SOL    HW2 5127   0.652   0.134   5.213
 1410SOL     OW 5128   2.511   3.629   6.460
 1410SOL    HW1 5129   2.608   3.652   6.456
 1410SOL    HW2 5130   2.457   3.709   6.434
 1411SOL     OW 5131   3.118   6.518   2.633
 1411SOL    HW1 5132   3.020   6.501   2.634
 1411SOL    HW2 5133   3.135   6.616   2.642
 1412SOL     OW 5134   0.566   2.560   0.505
 1412SOL    HW1 5135   0.472   2.567   0.539
 1412SOL    HW2 5136   0.586   2.638   0.446
 1413SOL     OW 5137   2.099   1.195   4.663
 1413SOL    HW1 5138   2.110   1.116   4.602
 1413SOL    HW2 5139   2.109   1.280   4.610
 1414SOL     OW 5140   2.328   0.973   1.266
 1414SOL    HW1 5141   2.340   0.877   1.242
 1414SOL    HW2 5142   2.301   0.980   1.362
 1415SOL     OW 5143   2.583   0.782   5.048
 1415SOL    HW1 5144   2.494   0.813   5.015
 1415SOL    HW2 5145   2.613   0.703   4.995
 1416SOL     OW 5146   4.573   4.769   4.141
 1416SOL    HW1 5147   4.544   4.751   4.235
 1416SOL    HW2 5148   4.638   4.698   4.112
 1417SOL     OW 5149   2.265   1.641   0.280
 1417SOL    HW1 5150   2.235   1.592   0.198
 1417SOL    HW2 5151   2.267   1.578   0.358
 1418SOL     OW 5152   2.872   3.429   3.553
 1418SOL    HW1 5153   2.829   3.384   3.475
 1418SOL    HW2 5154   2.926   3.507   3.522
 1419SOL     OW 5155   3.206   6.523   4.526
 1419SOL    HW1 5156   3.272   6.518   4.450
 1419SOL    HW2 5157   3.203   6.435   4.573
 1420SOL     OW 5158   1.937   6.230   1.410
 1420SOL    HW1 5159   1.877   6.228   1.490
 1420SOL    HW2 5160   1.884   6.255   1.329
 1421SOL     OW 5161   2.078   3.292   3.296
 1421SOL    HW1 5162   1.991   3.323   3.335
 1421SOL    HW2 5163   2.140   3.267   3.370
 1422SOL     OW 5164   2.298   4.289   1.430
 1422SOL    HW1 5165   2.222   4.333   1.477
 1422SOL    HW2 5166   2.292   4.306   1.332
 1423SOL     OW 5167   4.901   6.671   2.625
 1423SOL    HW1 5168   4.875   6.616   2.546
 1423SOL    HW2 5169   4.846   6.644   2.704
 1424SOL     OW 5170   6.296   3.995   4.703
 1424SOL    HW1 5171   6.287   4.045   4.617
 1424SOL    HW2 5172   6.306   4.060   4.779
 1425SOL     OW 5173   1.386   6.053   4.456
 1425SOL    HW1 5174   1.438   6.076   4.374
 1425SOL    HW2 5175   1.443   5.998   4.517
 1426SOL     OW 5176   1.416   2.331   5.637
 1426SOL    HW1 5177   1.326   2.304   5.671
 1426SOL    HW2 5178   1.405   2.389   5.556
 1427SOL     OW 5179   6.917   0.184   3.183
 1427SOL    HW1 5180   6.959   0.096   3.209
 1427SOL    HW2 5181   6.989   0.246   3.152
 1428SOL     OW 5182   5.674   2.785   0.869
 1428SOL    HW1 5183   5.691   2.745   0.958
 1428SOL    HW2 5184   5.757   2.783   0.814
 1429SOL     OW 5185   5.815   2.002   0.244
 1429SOL    HW1 5186   5.852   2.050   0.164
 1429SOL    HW2 5187   5.732   1.953   0.218
 1430SOL     OW 5188   1.792   4.752   4.452
 1430SOL    HW1 5189   1.766   4.686   4.381
 1430SOL    HW2 5190   1.892   4.753   4.461
 1431SOL     OW 5191   1.814   1.740   0.942
 1431SOL    HW1 5192   1.776   1.797   0.869
 1431SOL    HW2 5193   1.744   1.721   1.010
 1432SOL     OW 5194   3.260   1.508   2.880
 1432SOL    HW1 5195   3.233   1.603   2.893
 1432SOL    HW2 5196   3.189   1.448   2.916
 1433SOL     OW 5197   4.476   1.646   3.822
 1433SOL    HW1 5198   4.431   1.655   3.911
 1433SOL    HW2 5199   4.474   1.551   3.793
 1434SOL     OW 5200   6.686   1.135   5.817
 1434SOL    HW1 5201   6.755   1.103   5.882
 1434SOL    HW2 5202   6.693   1.235   5.809
 1435SOL     OW 5203   5.507   1.004   2.169
 1435SOL    HW1 5204   5.465   1.091   2.143
 1435SOL    HW2 5205   5.603   1.004   2.141
 1436SOL     OW 5206   5.541   3.862   0.560
 1436SOL    HW1 5207   5.616   3.879   0.624
 1436SOL    HW2 5208   5.455   3.860   0.610
 1437SOL     OW 5209   2.410   2.531   3.537
 1437SOL    HW1 5210   2.456   2.537   3.625
 1437SOL    HW2 5211   2.444   2.603   3.477
 1438SOL     OW 5212   3.099   6.783   1.066
 1438SOL    HW1 5213   3.063   6.705   1.014
 1438SOL    HW2 5214   3.040   6.862   1.053
 1439SOL     OW 5215   6.959   5.477   1.113
 1439SOL    HW1 5216   0.033   5.482   1.130
 1439SOL    HW2 5217   6.935   5.536   1.036
 1440SOL     OW 5218   3.176   3.734   0.967
 1440SOL    HW1 5219   3.111   3.777   0.903
 1440SOL    HW2 5220   3.155   3.637   0.975
 1441SOL     OW 5221   5.915   0.267   2.453
 1441SOL    HW1 5222   5.939   0.336   2.521
 1441SOL    HW2 5223   5.980   0.272   2.376
 1442SOL     OW 5224   6.494   5.569   0.356
 1442SOL    HW1 5225   6.468   5.665   0.347
 1442SOL    HW2 5226   6.587   5.556   0.322
 1443SOL     OW 5227   0.709   2.418   2.518
 1443SOL    HW1 5228   0.702   2.513   2.549
 1443SOL    HW2 5229   0.785   2.410   2.453
 1444SOL     OW 5230   5.241   0.299   0.564
 1444SOL    HW1 5231   5.211   0.286   0.470
 1444SOL    HW2 5232   5.257   0.396   0.581
 1445SOL     OW 5233   1.128   3.112   2.530
 1445SOL    HW1 5234   1.045   3.084   2.484
 1445SOL    HW2 5235   1.105   3.159   2.616
 1446SOL     OW 5236   6.543   0.839   0.012
 1446SOL    HW1 5237   6.576   0.854   6.943
 1446SOL    HW2 5238   6.451   0.880   0.022
 1447SOL     OW 5239   6.191   5.365   3.996
 1447SOL    HW1 5240   6.173   5.267   3.987
 1447SOL    HW2 5241   6.239   5.398   3.915
 1448SOL     OW 5242   6.604   3.094   4.829
 1448SOL    HW1 5243   6.506   3.091   4.806
 1448SOL    HW2 5244   6.653   3.027   4.773
 1449SOL     OW 5245   1.237   4.058   5.373
 1449SOL    HW1 5246   1.303   4.069   5.447
 1449SOL    HW2 5247   1.145   4.044   5.411
 1450SOL     OW 5248   0.975   2.089   6.747
 1450SOL    HW1 5249   0.958   2.019   6.677
 1450SOL    HW2 5250   1.008   2.046   6.830
 1451SOL     OW 5251   1.375   6.276   2.823
 1451SOL    HW1 5252   1.427   6.273   2.738
 1451SOL    HW2 5253   1.428   6.325   2.893
 1452SOL     OW 5254   4.347   2.698   5.363
 1452SOL    HW1 5255   4.265   2.650   5.331
 1452SOL    HW2 5256   4.417   2.631   5.387
 1453SOL     OW 5257   0.495   4.515   5.788
 1453SOL    HW1 5258   0.483   4.589   5.854
 1453SOL    HW2 5259   0.592   4.494   5.779
 1454SOL     OW 5260   1.886   2.011   2.855
 1454SOL    HW1 5261   1.985   2.017   2.866
 1454SOL    HW2 5262   1.861   1.921   2.820
 1455SOL     OW 5263   1.987   6.779   2.413
 1455SOL    HW1 5264   1.893   6.751   2.393
 1455SOL    HW2 5265   2.051   6.709   2.382
 1456SOL     OW 5266   6.482   6.468   5.705
 1456SOL    HW1 5267   6.438   6.515   5.628
 1456SOL    HW2 5268   6.421   6.397   5.740
 1457SOL     OW 5269   1.546   4.786   7.006
 1457SOL    HW1 5270   1.565   4.845   0.060
 1457SOL    HW2 5271   1.479   4.716   0.007
 1458SOL     OW 5272   5.442   4.782   5.310
 1458SOL    HW1 5273   5.497   4.861   5.335
 1458SOL    HW2 5274   5.424   4.726   5.391
 1459SOL     OW 5275   4.248   6.882   6.157
 1459SOL    HW1 5276   4.224   6.903   6.251
 1459SOL    HW2 5277   4.226   6.786   6.137
 1460SOL     OW 5278   1.644   6.845   4.948
 1460SOL    HW1 5279   1.692   6.786   4.883
 1460SOL    HW2 5280   1.710   6.898   5.001
 1461SOL     OW 5281   0.295   4.027   3.333
 1461SOL    HW1 5282   0.197   4.043   3.337
 1461SOL    HW2 5283   0.319   3.987   3.245
 1462SOL     OW 5284   1.176   0.457   6.819
 1462SOL    HW1 5285   1.172   0.423   6.725
 1462SOL    HW2 5286   1.243   0.404   6.871
 1463SOL     OW 5287   0.867   4.808   5.664
 1463SOL    HW1 5288   0.963   4.784   5.679
 1463SOL    HW2 5289   0.821   4.734   5.615
 1464SOL     OW 5290   7.000   4.880   2.793
 1464SOL    HW1 5291   6.950   4.794   2.803
 1464SOL    HW2 5292   7.012   4.901   2.696
 1465SOL     OW 5293   2.372   1.811   3.872
 1465SOL    HW1 5294   2.371   1.818   3.772
 1465SOL    HW2 5295   2.294   1.861   3.910
 1466SOL     OW 5296   3.908   1.637   1.988
 1466SOL    HW1 5297   3.864   1.709   2.041
 1466SOL    HW2 5298   3.880   1.548   2.023
 1467SOL     OW 5299   2.012   1.323   3.979
 1467SOL    HW1 5300   2.056   1.296   4.065
 1467SOL    HW2 5301   2.081   1.359   3.916
 1468SOL     OW 5302   2.051   5.796   2.115
 1468SOL    HW1 5303   2.041   5.699   2.137
 1468SOL    HW2 5304   2.119   5.837   2.175
 1469SOL     OW 5305   6.427   6.558   2.842
 1469SOL    HW1 5306   6.520   6.593   2.830
 1469SOL    HW2 5307   6.375   6.621   2.899
 1470SOL     OW 5308   0.122   1.993   1.830
 1470SOL    HW1 5309   0.025   2.003   1.806
 1470SOL    HW2 5310   0.175   1.974   1.747
 1471SOL     OW 5311   1.245   0.357   0.267
 1471SOL    HW1 5312   1.342   0.374   0.255
 1471SOL    HW2 5313   1.201   0.348   0.178
 1472SOL     OW 5314   2.866   5.594   0.558
 1472SOL    HW1 5315   2.964   5.579   0.549
 1472SOL    HW2 5316   2.840   5.677   0.508
 1473SOL     OW 5317   2.862   6.037   5.242
 1473SOL    HW1 5318   2.878   5.992   5.330
 1473SOL    HW2 5319   2.777   6.002   5.202
 1474SOL     OW 5320   4.223   4.499   1.234
 1474SOL    HW1 5321   4.128   4.483   1.208
 1474SOL    HW2 5322   4.232   4.494   1.334
 1475SOL     OW 5323   5.362   1.301   6.899
 1475SOL    HW1 5324   5.423   1.228   6.929
 1475SOL    HW2 5325   5.398   1.342   6.815
 1476SOL     OW 5326   2.437   1.260   1.586
 1476SOL    HW1 5327   2.392   1.289   1.671
 1476SOL    HW2 5328   2.469   1.166   1.596
 1477SOL     OW 5329   3.545   6.777   0.078
 1477SOL    HW1 5330   3.576   6.802   0.169
 1477SOL    HW2 5331   3.544   6.677   0.069
 1478SOL     OW 5332   5.739   6.270   5.329
 1478SOL    HW1 5333   5.771   6.176   5.343
 1478SOL    HW2 5334   5.814   6.334   5.351
 1479SOL     OW 5335   3.064   3.335   1.733
 1479SOL    HW1 5336   3.058   3.425   1.775
 1479SOL    HW2 5337   3.041   3.341   1.636
 1480SOL     OW 5338   2.300   7.015   5.982
 1480SOL    HW1 5339   2.249   0.071   6.014
 1480SOL    HW2 5340   2.271   6.934   6.033
 1481SOL     OW 5341   5.738   3.462   5.621
 1481SOL    HW1 5342   5.677   3.507   5.687
 1481SOL    HW2 5343   5.688   3.445   5.536
 1482SOL     OW 5344   4.673   0.715   0.819
 1482SOL    HW1 5345   4.758   0.721   0.872
 1482SOL    HW2 5346   4.694   0.718   0.722
 1483SOL     OW 5347   5.682   2.691   5.506
 1483SOL    HW1 5348   5.677   2.636   5.423
 1483SOL    HW2 5349   5.667   2.787   5.484
 1484SOL     OW 5350   4.767   5.114   3.829
 1484SOL    HW1 5351   4.738   5.172   3.753
 1484SOL    HW2 5352   4.686   5.082   3.879
 1485SOL     OW 5353   5.093   0.597   4.021
 1485SOL    HW1 5354   5.027   0.533   4.059
 1485SOL    HW2 5355   5.183   0.555   4.019
 1486SOL     OW 5356   5.024   6.979   3.034
 1486SOL    HW1 5357   5.061   6.886   3.046
 1486SOL    HW2 5358   5.093   0.013   2.992
 1487SOL     OW 5359   0.296   1.650   6.853
 1487SOL    HW1 5360   0.239   1.602   6.920
 1487SOL    HW2 5361   0.392   1.625   6.866
 1488SOL     OW 5362   5.277   0.617   3.346
 1488SOL    HW1 5363   5.344   0.578   3.284
 1488SOL    HW2 5364   5.188   0.621   3.300
 1489SOL     OW 5365   4.237   4.467   5.629
 1489SOL    HW1 5366   4.151   4.420   5.609
 1489SOL    HW2 5367   4.217   4.563   5.652
 1490SOL     OW 5368   0.491   3.605   0.774
 1490SOL    HW1 5369   0.463   3.622   0.869
 1490SOL    HW2 5370   0.414   3.566   0.723
 1491SOL     OW 5371   6.719   3.892   2.527
 1491SOL    HW1 5372   6.706   3.983   2.487
 1491SOL    HW2 5373   6.639   3.835   2.506
 1492SOL     OW 5374   6.430   6.934   2.651
 1492SOL    HW1 5375   6.462   6.900   2.563
 1492SOL    HW2 5376   6.352   6.880   2.681
 1493SOL     OW 5377   3.669   0.860   6.352
 1493SOL    HW1 5378   3.601   0.840   6.422
 1493SOL    HW2 5379   3.725   0.938   6.381
 1494SOL     OW 5380   5.721   2.873   6.930
 1494SOL    HW1 5381   5.774   2.788   6.926
 1494SOL    HW2 5382   5.741   2.921   7.016
 1495SOL     OW 5383   6.871   4.094   4.740
 1495SOL    HW1 5384   6.886   4.188   4.710
 1495SOL    HW2 5385   6.824   4.095   4.828
 1496SOL     OW 5386   0.885   0.315   0.297
 1496SOL    HW1 5387   0.872   0.301   0.199
 1496SOL    HW2 5388   0.971   0.273   0.326
 1497SOL     OW 5389   5.025   2.735   2.407
 1497SOL    HW1 5390   5.026   2.645   2.364
 1497SOL    HW2 5391   4.955   2.792   2.364
 1498SOL     OW 5392   3.002   3.972   1.157
 1498SOL    HW1 5393   2.998   3.877   1.124
 1498SOL    HW2 5394   3.032   3.972   1.253
 1499SOL     OW 5395   0.322   3.334   6.663
 1499SOL    HW1 5396   0.414   3.320   6.626
 1499SOL    HW2 5397   0.255   3.320   6.590
 1500SOL     OW 5398   0.891   6.376   6.403
 1500SOL    HW1 5399   0.801   6.337   6.385
 1500SOL    HW2 5400   0.929   6.413   6.317
 1501SOL     OW 5401   6.075   1.900   6.537
 1501SOL    HW1 5402   6.149   1.839   6.566
 1501SOL    HW2 5403   6.113   1.974   6.481
 1502SOL     OW 5404   5.400   1.173   6.565
 1502SOL    HW1 5405   5.307   1.175   6.530
 1502SOL    HW2 5406   5.436   1.079   6.558
 1503SOL     OW 5407   0.639   3.188   2.779
 1503SOL    HW1 5408   0.667   3.283   2.766
 1503SOL    HW2 5409   0.543   3.185   2.806
 1504SOL     OW 5410   1.003   0.369   3.478
 1504SOL    HW1 5411   1.066   0.324   3.541
 1504SOL    HW2 5412   1.033   0.352   3.384
 1505SOL     OW 5413   5.214   0.311   5.725
 1505SOL    HW1 5414   5.200   0.274   5.817
 1505SOL    HW2 5415   5.310   0.301   5.699
 1506SOL     OW 5416   1.385   0.277   6.927
 1506SOL    HW1 5417   1.353   0.206   6.989
 1506SOL    HW2 5418   1.446   0.237   6.859
 1507SOL     OW 5419   6.758   1.959   5.034
 1507SOL    HW1 5420   6.761   2.057   5.016
 1507SOL    HW2 5421   6.840   1.916   4.996
 1508SOL     OW 5422   0.008   1.907   1.111
 1508SOL    HW1 5423   6.998   1.842   1.043
 1508SOL    HW2 5424   0.016   1.860   1.200
 1509SOL     OW 5425   4.832   2.107   4.689
 1509SOL    HW1 5426   4.923   2.110   4.647
 1509SOL    HW2 5427   4.772   2.173   4.644
 1510SOL     OW 5428   5.378   6.598   4.678
 1510SOL    HW1 5429   5.418   6.654   4.605
 1510SOL    HW2 5430   5.278   6.601   4.670
 1511SOL     OW 5431   3.532   3.635   4.367
 1511SOL    HW1 5432   3.577   3.722   4.387
 1511SOL    HW2 5433   3.436   3.651   4.347
 1512SOL     OW 5434   6.382   5.516   1.879
 1512SOL    HW1 5435   6.404   5.425   1.844
 1512SOL    HW2 5436   6.301   5.510   1.937
 1513SOL     OW 5437   3.356   6.959   4.816
 1513SOL    HW1 5438   3.299   6.881   4.788
 1513SOL    HW2 5439   3.314   7.006   4.893
 1514SOL     OW 5440   3.772   2.432   5.684
 1514SOL    HW1 5441   3.835   2.362   5.652
 1514SOL    HW2 5442   3.785   2.516   5.630
 1515SOL     OW 5443   6.335   1.180   2.222
 1515SOL    HW1 5444   6.320   1.090   2.182
 1515SOL    HW2 5445   6.343   1.248   2.148
 1516SOL     OW 5446   5.650   5.226   5.259
 1516SOL    HW1 5447   5.620   5.243   5.165
 1516SOL    HW2 5448   5.626   5.304   5.317
 1517SOL     OW 5449   4.342   6.522   3.232
 1517SOL    HW1 5450   4.286   6.463   3.291
 1517SOL    HW2 5451   4.382   6.466   3.159
 1518SOL     OW 5452   6.369   3.565   0.555
 1518SOL    HW1 5453   6.280   3.520   0.567
 1518SOL    HW2 5454   6.407   3.588   0.645
 1519SOL     OW 5455   6.868   4.462   1.210
 1519SOL    HW1 5456   6.847   4.364   1.207
 1519SOL    HW2 5457   6.847   4.503   1.122
 1520SOL     OW 5458   0.763   4.396   1.519
 1520SOL    HW1 5459   0.715   4.309   1.528
 1520SOL    HW2 5460   0.821   4.411   1.599
 1521SOL     OW 5461   1.850   4.637   6.981
 1521SOL    HW1 5462   1.818   4.543   6.988
 1521SOL    HW2 5463   1.774   4.699   7.000
 1522SOL     OW 5464   5.960   5.551   4.473
 1522SOL    HW1 5465   5.911   5.620   4.418
 1522SOL    HW2 5466   5.928   5.460   4.448
 1523SOL     OW 5467   3.759   6.569   6.670
 1523SOL    HW1 5468   3.758   6.625   6.587
 1523SOL    HW2 5469   3.784   6.626   6.748
 1524SOL     OW 5470   2.961   2.003   2.663
 1524SOL    HW1 5471   2.919   1.935   2.723
 1524SOL    HW2 5472   2.993   1.958   2.579
 1525SOL     OW 5473   5.447   2.867   1.059
 1525SOL    HW1 5474   5.391   2.929   1.114
 1525SOL    HW2 5475   5.388   2.807   1.005
 1526SOL     OW 5476   0.004   0.627   6.593
 1526SOL    HW1 5477   0.005   0.570   6.511
 1526SOL    HW2 5478   6.986   0.715   6.572
 1527SOL     OW 5479   3.547   0.640   4.481
 1527SOL    HW1 5480   3.583   0.731   4.500
 1527SOL    HW2 5481   3.501   0.640   4.392
 1528SOL     OW 5482   4.135   4.976   1.787
 1528SOL    HW1 5483   4.108   4.883   1.762
 1528SOL    HW2 5484   4.134   5.034   1.706
 1529SOL     OW 5485   4.717   1.165   6.825
 1529SOL    HW1 5486   4.622   1.148   6.851
 1529SOL    HW2 5487   4.778   1.115   6.886
 1530SOL     OW 5488   3.084   1.178   1.169
 1530SOL    HW1 5489   3.034   1.177   1.255
 1530SOL    HW2 5490   3.176   1.216   1.184
 1531SOL     OW 5491   4.694   0.930   4.837
 1531SOL    HW1 5492   4.783   0.958   4.803
 1531SOL    HW2 5493   4.657   1.001   4.897
 1532SOL     OW 5494   3.707   4.369   5.572
 1532SOL    HW1 5495   3.620   4.396   5.532
 1532SOL    HW2 5496   3.700   4.369   5.672
 1533SOL     OW 5497   5.514   5.494   0.547
 1533SOL    HW1 5498   5.603   5.468   0.584
 1533SOL    HW2 5499   5.503   5.454   0.456
 1534SOL     OW 5500   3.217   5.185   6.086
 1534SOL    HW1 5501   3.141   5.247   6.068
 1534SOL    HW2 5502   3.262   5.161   6.000
 1535SOL     OW 5503   5.545   5.933   4.935
 1535SOL    HW1 5504   5.557   5.894   5.027
 1535SOL    HW2 5505   5.467   5.995   4.936
 1536SOL     OW 5506   3.984   4.806   6.434
 1536SOL    HW1 5507   4.070   4.844   6.400
 1536SOL    HW2 5508   3.975   4.712   6.403
 1537SOL     OW 5509   4.357   5.928   3.679
 1537SOL    HW1 5510   4.301   5.887   3.752
 1537SOL    HW2 5511   4.423   5.991   3.720
 1538SOL     OW 5512   3.206   0.206   6.633
 1538SOL    HW1 5513   3.122   0.187   6.683
 1538SOL    HW2 5514   3.285   0.176   6.688
 1539SOL     OW 5515   4.826   2.910   2.326
 1539SOL    HW1 5516   4.836   2.961   2.412
 1539SOL    HW2 5517   4.843   2.971   2.249
 1540SOL     OW 5518   0.151   6.652   5.024
 1540SOL    HW1 5519   0.240   6.695   5.009
 1540SOL    HW2 5520   0.115   6.618   4.937
 1541SOL     OW 5521   3.192   3.982   4.058
 1541SOL    HW1 5522   3.249   3.911   4.100
 1541SOL    HW2 5523   3.114   4.002   4.118
 1542SOL     OW 5524   6.630   6.979   1.949
 1542SOL    HW1 5525   6.537   6.949   1.929
 1542SOL    HW2 5526   6.639   0.052   1.928
 1543SOL     OW 5527   3.651   5.613   5.446
 1543SOL    HW1 5528   3.620   5.633   5.539
 1543SOL    HW2 5529   3.750   5.596   5.446
 1544SOL     OW 5530   2.983   3.950   3.485
 1544SOL    HW1 5531   3.060   4.011   3.502
 1544SOL    HW2 5532   2.899   4.003   3.478
 1545SOL     OW 5533   4.759   0.794   2.969
 1545SOL    HW1 5534   4.695   0.850   3.023
 1545SOL    HW2 5535   4.722   0.782   2.877
 1546SOL     OW 5536   5.639   6.336   6.105
 1546SOL    HW1 5537   5.599   6.272   6.170
 1546SOL    HW2 5538   5.739   6.332   6.112
 1547SOL     OW 5539   1.364   3.592   1.540
 1547SOL    HW1 5540   1.359   3.594   1.440
 1547SOL    HW2 5541   1.449   3.635   1.569
 1548SOL     OW 5542   4.948   3.677   0.323
 1548SOL    HW1 5543   4.942   3.590   0.275
 1548SOL    HW2 5544   5.045   3.701   0.335
 1549SOL     OW 5545   4.161   1.351   2.523
 1549SOL    HW1 5546   4.120   1.343   2.614
 1549SOL    HW2 5547   4.088   1.356   2.454
 1550SOL     OW 5548   3.670   3.432   1.438
 1550SOL    HW1 5549   3.585   3.419   1.490
 1550SOL    HW2 5550   3.664   3.517   1.385
 1551SOL     OW 5551   1.726   4.896   6.846
 1551SOL    HW1 5552   1.657   4.844   6.895
 1551SOL    HW2 5553   1.684   4.976   6.804
 1552SOL     OW 5554   1.726   5.499   0.496
 1552SOL    HW1 5555   1.711   5.502   0.397
 1552SOL    HW2 5556   1.779   5.418   0.520
 1553SOL     OW 5557   6.877   1.637   6.393
 1553SOL    HW1 5558   6.794   1.671   6.435
 1553SOL    HW2 5559   6.930   1.713   6.356
 1554SOL     OW 5560   3.156   1.972   3.579
 1554SOL    HW1 5561   3.157   1.894   3.517
 1554SOL    HW2 5562   3.105   2.047   3.538
 1555SOL     OW 5563   5.878   3.368   6.704
 1555SOL    HW1 5564   5.863   3.310   6.783
 1555SOL    HW2 5565   5.938   3.322   6.639
 1556SOL     OW 5566   1.548   1.770   6.209
 1556SOL    HW1 5567   1.508   1.862   6.205
 1556SOL    HW2 5568   1.637   1.771   6.163
 1557SOL     OW 5569   2.159   3.884   5.925
 1557SOL    HW1 5570   2.114   3.796   5.910
 1557SOL    HW2 5571   2.156   3.937   5.840
 1558SOL     OW 5572   5.919   0.752   4.397
 1558SOL    HW1 5573   5.882   0.723   4.308
 1558SOL    HW2 5574   5.960   0.673   4.443
 1559SOL     OW 5575   1.811   3.273   6.523
 1559SOL    HW1 5576   1.796   3.309   6.615
 1559SOL    HW2 5577   1.775   3.338   6.456
 1560SOL     OW 5578   6.774   0.095   5.841
 1560SOL    HW1 5579   6.748   0.002   5.868
 1560SOL    HW2 5580   6.860   0.093   5.790
 1561SOL     OW 5581   5.170   6.440   3.685
 1561SOL    HW1 5582   5.131   6.435   3.776
 1561SOL    HW2 5583   5.171   6.535   3.654
 1562SOL     OW 5584   4.947   6.268   2.483
 1562SOL    HW1 5585   4.938   6.189   2.422
 1562SOL    HW2 5586   4.945   6.237   2.578
 1563SOL     OW 5587   2.987   0.620   5.501
 1563SOL    HW1 5588   2.889   0.634   5.514
 1563SOL    HW2 5589   3.037   0.698   5.536
 1564SOL     OW 5590   1.397   0.571   3.104
 1564SOL    HW1 5591   1.433   0.478   3.118
 1564SOL    HW2 5592   1.300   0.573   3.127
 1565SOL     OW 5593   4.742   4.249   3.088
 1565SOL    HW1 5594   4.679   4.319   3.054
 1565SOL    HW2 5595   4.757   4.181   3.016
 1566SOL     OW 5596   5.852   3.916   3.688
 1566SOL    HW1 5597   5.778   3.851   3.702
 1566SOL    HW2 5598   5.868   3.928   3.590
 1567SOL     OW 5599   6.181   6.231   0.591
 1567SOL    HW1 5600   6.146   6.260   0.502
 1567SOL    HW2 5601   6.104   6.215   0.653
 1568SOL     OW 5602   1.324   0.056   0.071
 1568SOL    HW1 5603   1.389   0.013   0.133
 1568SOL    HW2 5604   1.237   0.071   0.118
 1569SOL     OW 5605   4.453   6.343   3.030
 1569SOL    HW1 5606   4.437   6.342   2.931
 1569SOL    HW2 5607   4.544   6.381   3.048
 1570SOL     OW 5608   1.928   0.375   1.015
 1570SOL    HW1 5609   1.947   0.291   1.066
 1570SOL    HW2 5610   1.902   0.352   0.921
 1571SOL     OW 5611   5.770   3.274   0.927
 1571SOL    HW1 5612   5.716   3.316   0.854
 1571SOL    HW2 5613   5.712   3.213   0.981
 1572SOL     OW 5614   0.438   0.217   2.083
 1572SOL    HW1 5615   0.481   0.138   2.040
 1572SOL    HW2 5616   0.501   0.295   2.081
 1573SOL     OW 5617   4.799   1.403   1.845
 1573SOL    HW1 5618   4.719   1.346   1.826
 1573SOL    HW2 5619   4.792   1.442   1.937
 1574SOL     OW 5620   6.908   1.487   1.785
 1574SOL    HW1 5621   6.826   1.434   1.767
 1574SOL    HW2 5622   6.884   1.583   1.801
 1575SOL     OW 5623   2.236   1.209   0.542
 1575SOL    HW1 5624   2.276   1.300   0.549
 1575SOL    HW2 5625   2.194   1.184   0.630
 1576SOL     OW 5626   6.115   6.389   4.376
 1576SOL    HW1 5627   6.023   6.370   4.340
 1576SOL    HW2 5628   6.141   6.483   4.354
 1577SOL     OW 5629   3.001   1.506   4.543
 1577SOL    HW1 5630   2.909   1.546   4.537
 1577SOL    HW2 5631   2.998   1.412   4.509
 1578SOL     OW 5632   6.481   3.416   5.686
 1578SOL    HW1 5633   6.415   3.435   5.758
 1578SOL    HW2 5634   6.432   3.389   5.603
 1579SOL     OW 5635   0.221   1.777   3.316
 1579SOL    HW1 5636   0.271   1.695   3.289
 1579SOL    HW2 5637   0.165   1.758   3.397
 1580SOL     OW 5638   2.930   3.911   5.175
 1580SOL    HW1 5639   2.971   4.002   5.164
 1580SOL    HW2 5640   2.831   3.920   5.184
 1581SOL     OW 5641   0.292   4.673   4.527
 1581SOL    HW1 5642   0.374   4.686   4.472
 1581SOL    HW2 5643   0.294   4.735   4.606
 1582SOL     OW 5644   1.516   6.242   4.731
 1582SOL    HW1 5645   1.557   6.298   4.659
 1582SOL    HW2 5646   1.440   6.293   4.772
 1583SOL     OW 5647   1.323   2.407   4.120
 1583SOL    HW1 5648   1.341   2.403   4.218
 1583SOL    HW2 5649   1.301   2.315   4.087
 1584SOL     OW 5650   2.145   6.725   5.074
 1584SOL    HW1 5651   2.100   6.710   5.162
 1584SOL    HW2 5652   2.240   6.694   5.079
 1585SOL     OW 5653   5.643   1.693   3.492
 1585SOL    HW1 5654   5.632   1.745   3.408
 1585SOL    HW2 5655   5.622   1.597   3.474
 1586SOL     OW 5656   3.899   3.945   1.847
 1586SOL    HW1 5657   3.931   4.039   1.838
 1586SOL    HW2 5658   3.842   3.922   1.769
 1587SOL     OW 5659   2.925   5.042   6.331
 1587SOL    HW1 5660   2.928   5.081   6.423
 1587SOL    HW2 5661   2.879   4.954   6.333
 1588SOL     OW 5662   4.850   1.607   3.525
 1588SOL    HW1 5663   4.860   1.679   3.457
 1588SOL    HW2 5664   4.915   1.534   3.506
 1589SOL     OW 5665   5.451   4.201   3.534
 1589SOL    HW1 5666   5.372   4.250   3.497
 1589SOL    HW2 5667   5.485   4.249   3.615
 1590SOL     OW 5668   1.916   6.748   6.490
 1590SOL    HW1 5669   2.012   6.743   6.516
 1590SOL    HW2 5670   1.890   6.664   6.443
 1591SOL     OW 5671   1.393   5.298   3.234
 1591SOL    HW1 5672   1.400   5.358   3.155
 1591SOL    HW2 5673   1.448   5.216   3.219
 1592SOL     OW 5674   2.421   4.047   1.464
 1592SOL    HW1 5675   2.470   4.020   1.546
 1592SOL    HW2 5676   2.378   4.136   1.478
 1593SOL     OW 5677   1.050   6.704   3.960
 1593SOL    HW1 5678   1.044   6.630   4.026
 1593SOL    HW2 5679   0.962   6.751   3.955
 1594SOL     OW 5680   0.593   5.014   3.222
 1594SOL    HW1 5681   0.686   5.052   3.216
 1594SOL    HW2 5682   0.564   4.983   3.132
 1595SOL     OW 5683   0.297   4.814   6.441
 1595SOL    HW1 5684   0.233   4.769   6.503
 1595SOL    HW2 5685   0.391   4.803   6.475
 1596SOL     OW 5686   1.230   3.700   5.386
 1596SOL    HW1 5687   1.132   3.713   5.373
 1596SOL    HW2 5688   1.280   3.757   5.321
 1597SOL     OW 5689   2.815   5.445   0.816
 1597SOL    HW1 5690   2.812   5.515   0.745
 1597SOL    HW2 5691   2.829   5.488   0.905
 1598SOL     OW 5692   0.570   3.936   0.278
 1598SOL    HW1 5693   0.645   3.871   0.273
 1598SOL    HW2 5694   0.584   3.998   0.355
 1599SOL     OW 5695   4.769   3.484   5.582
 1599SOL    HW1 5696   4.820   3.565   5.551
 1599SOL    HW2 5697   4.797   3.461   5.675
 1600SOL     OW 5698   4.944   1.848   4.534
 1600SOL    HW1 5699   5.009   1.799   4.476
 1600SOL    HW2 5700   4.992   1.918   4.586
 1601SOL     OW 5701   0.937   4.993   4.685
 1601SOL    HW1 5702   0.861   4.931   4.666
 1601SOL    HW2 5703   0.965   5.039   4.600
 1602SOL     OW 5704   1.662   5.643   4.242
 1602SOL    HW1 5705   1.729   5.569   4.234
 1602SOL    HW2 5706   1.670   5.705   4.164
 1603SOL     OW 5707   1.505   6.307   1.742
 1603SOL    HW1 5708   1.511   6.210   1.764
 1603SOL    HW2 5709   1.423   6.324   1.687
 1604SOL     OW 5710   6.011   5.020   6.678
 1604SOL    HW1 5711   6.085   5.022   6.745
 1604SOL    HW2 5712   5.924   5.037   6.724
 1605SOL     OW 5713   6.368   0.294   1.688
 1605SOL    HW1 5714   6.361   0.196   1.709
 1605SOL    HW2 5715   6.344   0.347   1.770
 1606SOL     OW 5716   4.399   0.922   5.435
 1606SOL    HW1 5717   4.414   0.921   5.336
 1606SOL    HW2 5718   4.306   0.954   5.455
 1607SOL     OW 5719   5.134   2.562   1.155
 1607SOL    HW1 5720   5.187   2.538   1.236
 1607SOL    HW2 5721   5.090   2.651   1.169
 1608SOL     OW 5722   1.210   0.951   5.856
 1608SOL    HW1 5723   1.116   0.946   5.889
 1608SOL    HW2 5724   1.253   0.862   5.866
 1609SOL     OW 5725   5.569   1.644   6.459
 1609SOL    HW1 5726   5.638   1.626   6.528
 1609SOL    HW2 5727   5.481   1.605   6.489
 1610SOL     OW 5728   5.873   4.471   5.380
 1610SOL    HW1 5729   5.797   4.469   5.445
 1610SOL    HW2 5730   5.882   4.383   5.335
 1611SOL     OW 5731   4.043   3.488   2.025
 1611SOL    HW1 5732   4.090   3.563   2.073
 1611SOL    HW2 5733   4.107   3.442   1.964
 1612SOL     OW 5734   2.871   0.919   5.704
 1612SOL    HW1 5735   2.800   0.990   5.711
 1612SOL    HW2 5736   2.860   0.854   5.779
 1613SOL     OW 5737   2.644   5.444   1.131
 1613SOL    HW1 5738   2.740   5.471   1.134
 1613SOL    HW2 5739   2.593   5.493   1.202
 1614SOL     OW 5740   6.889   3.922   0.264
 1614SOL    HW1 5741   6.890   4.022   0.260
 1614SOL    HW2 5742   6.971   3.890   0.311
 1615SOL     OW 5743   6.822   4.818   1.439
 1615SOL    HW1 5744   6.869   4.753   1.498
 1615SOL    HW2 5745   6.742   4.855   1.487
 1616SOL     OW 5746   4.165   1.531   5.899
 1616SOL    HW1 5747   4.140   1.519   5.995
 1616SOL    HW2 5748   4.193   1.444   5.860
 1617SOL     OW 5749   5.895   0.119   1.940
 1617SOL    HW1 5750   5.832   0.181   1.987
 1617SOL    HW2 5751   5.874   0.025   1.967
 1618SOL     OW 5752   0.629   4.034   1.195
 1618SOL    HW1 5753   0.543   4.074   1.163
 1618SOL    HW2 5754   0.661   3.966   1.130
 1619SOL     OW 5755   1.609   2.812   4.157
 1619SOL    HW1 5756   1.707   2.798   4.139
 1619SOL    HW2 5757   1.575   2.888   4.102
 1620SOL     OW 5758   2.240   5.652   0.834
 1620SOL    HW1 5759   2.207   5.559   0.820
 1620SOL    HW2 5760   2.332   5.661   0.795
 1621SOL     OW 5761   0.416   0.869   6.659
 1621SOL    HW1 5762   0.346   0.933   6.691
 1621SOL    HW2 5763   0.445   0.810   6.735
 1622SOL     OW 5764   1.577   1.876   4.770
 1622SOL    HW1 5765   1.513   1.819   4.823
 1622SOL    HW2 5766   1.671   1.850   4.791
 1623SOL     OW 5767   2.486   2.838   6.190
 1623SOL    HW1 5768   2.473   2.925   6.237
 1623SOL    HW2 5769   2.493   2.765   6.258
 1624SOL     OW 5770   2.381   0.933   6.252
 1624SOL    HW1 5771   2.368   1.031   6.238
 1624SOL    HW2 5772   2.477   0.910   6.239
 1625SOL     OW 5773   1.269   5.215   2.613
 1625SOL    HW1 5774   1.291   5.241   2.519
 1625SOL    HW2 5775   1.176   5.246   2.635
 1626SOL     OW 5776   2.147   1.776   6.419
 1626SOL    HW1 5777   2.210   1.847   6.450
 1626SOL    HW2 5778   2.100   1.806   6.336
 1627SOL     OW 5779   6.647   1.790   4.578
 1627SOL    HW1 5780   6.635   1.876   4.629
 1627SOL    HW2 5781   6.725   1.740   4.615
 1628SOL     OW 5782   3.947   5.383   0.243
 1628SOL    HW1 5783   3.974   5.422   0.331
 1628SOL    HW2 5784   3.952   5.454   0.173
 1629SOL     OW 5785   2.757   2.334   4.181
 1629SOL    HW1 5786   2.705   2.336   4.266
 1629SOL    HW2 5787   2.837   2.276   4.191
 1630SOL     OW 5788   0.449   6.012   5.618
 1630SOL    HW1 5789   0.377   6.059   5.567
 1630SOL    HW2 5790   0.437   5.913   5.609
 1631SOL     OW 5791   6.936   0.662   5.608
 1631SOL    HW1 5792   6.970   0.652   5.515
 1631SOL    HW2 5793   6.857   0.602   5.621
 1632SOL     OW 5794   0.107   1.349   6.686
 1632SOL    HW1 5795   0.038   1.409   6.646
 1632SOL    HW2 5796   0.177   1.404   6.732
 1633SOL     OW 5797   5.802   2.916   2.747
 1633SOL    HW1 5798   5.723   2.863   2.778
 1633SOL    HW2 5799   5.796   2.931   2.649
 1634SOL     OW 5800   4.099   5.916   5.698
 1634SOL    HW1 5801   4.097   5.996   5.758
 1634SOL    HW2 5802   4.188   5.910   5.654
 1635SOL     OW 5803   6.129   5.323   4.737
 1635SOL    HW1 5804   6.042   5.275   4.728
 1635SOL    HW2 5805   6.118   5.418   4.708
 1636SOL     OW 5806   2.503   4.477   1.489
 1636SOL    HW1 5807   2.477   4.572   1.507
 1636SOL    HW2 5808   2.422   4.422   1.471
 1637SOL     OW 5809   6.709   2.000   2.819
 1637SOL    HW1 5810   6.739   1.920   2.768
 1637SOL    HW2 5811   6.696   2.077   2.756
 1638SOL     OW 5812   0.341   3.807   4.027
 1638SOL    HW1 5813   0.401   3.799   4.106
 1638SOL    HW2 5814   0.318   3.904   4.012
 1639SOL     OW 5815   5.297   6.131   2.593
 1639SOL    HW1 5816   5.265   6.173   2.677
 1639SOL    HW2 5817   5.368   6.063   2.614
 1640SOL     OW 5818   6.057   2.207   0.280
 1640SOL    HW1 5819   6.008   2.170   0.200
 1640SOL    HW2 5820   6.096   2.296   0.257
 1641SOL     OW 5821   5.702   3.077   3.937
 1641SOL    HW1 5822   5.758   3.007   3.893
 1641SOL    HW2 5823   5.630   3.106   3.874
 1642SOL     OW 5824   6.624   3.446   6.849
 1642SOL    HW1 5825   6.598   3.528   6.901
 1642SOL    HW2 5826   6.569   3.368   6.881
 1643SOL     OW 5827   3.268   6.246   4.646
 1643SOL    HW1 5828   3.366   6.232   4.658
 1643SOL    HW2 5829   3.223   6.249   4.735
 1644SOL     OW 5830   2.279   2.882   0.917
 1644SOL    HW1 5831   2.267   2.981   0.908
 1644SOL    HW2 5832   2.305   2.844   0.828
 1645SOL     OW 5833   3.376   6.415   5.428
 1645SOL    HW1 5834   3.336   6.505   5.410
 1645SOL    HW2 5835   3.352   6.352   5.354
 1646SOL     OW 5836   2.997   4.516   1.288
 1646SOL    HW1 5837   3.029   4.512   1.383
 1646SOL    HW2 5838   3.069   4.482   1.227
 1647SOL     OW 5839   5.861   2.460   3.735
 1647SOL    HW1 5840   5.867   2.537   3.671
 1647SOL    HW2 5841   5.812   2.488   3.817
 1648SOL     OW 5842   5.251   6.492   1.754
 1648SOL    HW1 5843   5.249   6.589   1.778
 1648SOL    HW2 5844   5.225   6.481   1.658
 1649SOL     OW 5845   3.294   0.381   2.957
 1649SOL    HW1 5846   3.328   0.473   2.937
 1649SOL    HW2 5847   3.248   0.381   3.046
 1650SOL     OW 5848   2.962   6.667   4.498
 1650SOL    HW1 5849   3.046   6.615   4.514
 1650SOL    HW2 5850   2.943   6.669   4.399
 1651SOL     OW 5851   0.412   0.350   0.934
 1651SOL    HW1 5852   0.500   0.316   0.900
 1651SOL    HW2 5853   0.407   0.449   0.920
 1652SOL     OW 5854   1.937   1.570   0.680
 1652SOL    HW1 5855   1.839   1.550   0.671
 1652SOL    HW2 5856   1.964   1.637   0.611
 1653SOL     OW 5857   0.375   5.397   1.704
 1653SOL    HW1 5858   0.353   5.331   1.776
 1653SOL    HW2 5859   0.370   5.352   1.615
 1654SOL     OW 5860   6.991   3.049   2.413
 1654SOL    HW1 5861   6.992   3.024   2.510
 1654SOL    HW2 5862   0.058   3.036   2.374
 1655SOL     OW 5863   5.519   3.767   6.145
 1655SOL    HW1 5864   5.514   3.814   6.057
 1655SOL    HW2 5865   5.592   3.808   6.200
 1656SOL     OW 5866   1.689   4.360   3.291
 1656SOL    HW1 5867   1.715   4.421   3.216
 1656SOL    HW2 5868   1.767   4.351   3.354
 1657SOL     OW 5869   0.513   1.018   5.257
 1657SOL    HW1 5870   0.465   1.011   5.169
 1657SOL    HW2 5871   0.508   1.112   5.290
 1658SOL     OW 5872   6.748   0.040   2.718
 1658SOL    HW1 5873   6.797   6.994   2.667
 1658SOL    HW2 5874   6.669   7.024   2.764
 1659SOL     OW 5875   3.223   2.194   6.144
 1659SOL    HW1 5876   3.277   2.241   6.213
 1659SOL    HW2 5877   3.273   2.192   6.057
 1660SOL     OW 5878   1.304   5.522   3.790
 1660SOL    HW1 5879   1.362   5.451   3.751
 1660SOL    HW2 5880   1.304   5.513   3.890
 1661SOL     OW 5881   3.372   1.817   2.091
 1661SOL    HW1 5882   3.436   1.758   2.041
 1661SOL    HW2 5883   3.407   1.911   2.089
 1662SOL     OW 5884   6.348   1.025   3.517
 1662SOL    HW1 5885   6.409   1.019   3.438
 1662SOL    HW2 5886   6.352   1.117   3.556
 1663SOL     OW 5887   2.528   0.249   3.014
 1663SOL    HW1 5888   2.515   0.295   3.102
 1663SOL    HW2 5889   2.620   0.212   3.009
 1664SOL     OW 5890   1.930   0.290   4.412
 1664SOL    HW1 5891   1.921   0.191   4.423
 1664SOL    HW2 5892   1.933   0.312   4.315
 1665SOL     OW 5893   0.136   1.239   3.107
 1665SOL    HW1 5894   0.050   1.207   3.147
 1665SOL    HW2 5895   0.197   1.271   3.180
 1666SOL     OW 5896   6.369   2.881   0.379
 1666SOL    HW1 5897   6.393   2.800   0.432
 1666SOL    HW2 5898   6.414   2.877   0.290
 1667SOL     OW 5899   5.320   0.606   0.180
 1667SOL    HW1 5900   5.382   0.528   0.193
 1667SOL    HW2 5901   5.364   0.674   0.121
 1668SOL     OW 5902   5.077   6.670   4.682
 1668SOL    HW1 5903   4.985   6.664   4.721
 1668SOL    HW2 5904   5.134   6.729   4.739
 1669SOL     OW 5905   5.884   6.573   0.523
 1669SOL    HW1 5906   5.949   6.577   0.447
 1669SOL    HW2 5907   5.880   6.662   0.568
 1670SOL     OW 5908   6.525   5.500   5.769
 1670SOL    HW1 5909   6.425   5.496   5.763
 1670SOL    HW2 5910   6.566   5.462   5.687
 1671SOL     OW 5911   4.342   2.730   1.142
 1671SOL    HW1 5912   4.359   2.632   1.133
 1671SOL    HW2 5913   4.254   2.745   1.186
 1672SOL     OW 5914   2.271   4.117   2.751
 1672SOL    HW1 5915   2.314   4.151   2.668
 1672SOL    HW2 5916   2.250   4.020   2.740
 1673SOL     OW 5917   0.458   2.678   4.655
 1673SOL    HW1 5918   0.374   2.625   4.643
 1673SOL    HW2 5919   0.515   2.670   4.573
 1674SOL     OW 5920   1.808   4.124   1.251
 1674SOL    HW1 5921   1.742   4.183   1.206
 1674SOL    HW2 5922   1.794   4.127   1.350
 1675SOL     OW 5923   4.902   0.297   6.346
 1675SOL    HW1 5924   4.847   0.380   6.339
 1675SOL    HW2 5925   4.843   0.218   6.364
 1676SOL     OW 5926   3.020   1.538   2.697
 1676SOL    HW1 5927   3.101   1.596   2.693
 1676SOL    HW2 5928   2.943   1.585   2.655
 1677SOL     OW 5929   5.044   1.975   5.281
 1677SOL    HW1 5930   5.017   2.038   5.207
 1677SOL    HW2 5931   4.963   1.923   5.311
 1678SOL     OW 5932   5.415   4.940   4.176
 1678SOL    HW1 5933   5.452   5.004   4.109
 1678SOL    HW2 5934   5.464   4.854   4.171
 1679SOL     OW 5935   1.672   3.856   5.344
 1679SOL    HW1 5936   1.737   3.874   5.270
 1679SOL    HW2 5937   1.706   3.782   5.401
 1680SOL     OW 5938   0.730   1.623   4.042
 1680SOL    HW1 5939   0.775   1.568   3.971
 1680SOL    HW2 5940   0.779   1.710   4.053
 1681SOL     OW 5941   6.613   5.700   1.326
 1681SOL    HW1 5942   6.540   5.668   1.387
 1681SOL    HW2 5943   6.616   5.642   1.244
 1682SOL     OW 5944   0.237   2.896   4.651
 1682SOL    HW1 5945   0.179   2.831   4.600
 1682SOL    HW2 5946   0.286   2.846   4.723
 1683SOL     OW 5947   3.905   4.850   0.599
 1683SOL    HW1 5948   3.919   4.913   0.523
 1683SOL    HW2 5949   3.808   4.830   0.609
 1684SOL     OW 5950   1.125   6.414   3.705
 1684SOL    HW1 5951   1.116   6.495   3.647
 1684SOL    HW2 5952   1.045   6.355   3.692
 1685SOL     OW 5953   1.549   1.299   6.336
 1685SOL    HW1 5954   1.487   1.239   6.285
 1685SOL    HW2 5955   1.642   1.262   6.331
 1686SOL     OW 5956   1.437   5.667   5.981
 1686SOL    HW1 5957   1.456   5.740   5.916
 1686SOL    HW2 5958   1.338   5.651   5.986
 1687SOL     OW 5959   2.067   2.897   1.651
 1687SOL    HW1 5960   2.046   2.861   1.560
 1687SOL    HW2 5961   1.985   2.937   1.691
 1688SOL     OW 5962   1.395   1.314   3.292
 1688SOL    HW1 5963   1.354   1.388   3.345
 1688SOL    HW2 5964   1.333   1.287   3.219
 1689SOL     OW 5965   3.565   1.586   2.251
 1689SOL    HW1 5966   3.516   1.622   2.331
 1689SOL    HW2 5967   3.641   1.647   2.228
 1690SOL     OW 5968   1.381   2.580   3.175
 1690SOL    HW1 5969   1.372   2.676   3.151
 1690SOL    HW2 5970   1.401   2.571   3.272
 1691SOL     OW 5971   5.214   4.189   3.209
 1691SOL    HW1 5972   5.212   4.156   3.304
 1691SOL    HW2 5973   5.177   4.118   3.149
 1692SOL     OW 5974   6.769   0.137   1.008
 1692SOL    HW1 5975   6.803   0.223   0.969
 1692SOL    HW2 5976   6.755   0.149   1.106
 1693SOL     OW 5977   1.465   2.473   2.929
 1693SOL    HW1 5978   1.555   2.445   2.895
 1693SOL    HW2 5979   1.476   2.513   3.020
 1694SOL     OW 5980   4.250   6.427   4.364
 1694SOL    HW1 5981   4.169   6.440   4.420
 1694SOL    HW2 5982   4.236   6.466   4.273
 1695SOL     OW 5983   2.776   1.735   4.766
 1695SOL    HW1 5984   2.842   1.810   4.771
 1695SOL    HW2 5985   2.767   1.703   4.672
 1696SOL     OW 5986   5.009   5.531   0.670
 1696SOL    HW1 5987   5.025   5.559   0.764
 1696SOL    HW2 5988   5.090   5.484   0.635
 1697SOL     OW 5989   0.655   6.791   1.392
 1697SOL    HW1 5990   0.704   6.704   1.396
 1697SOL    HW2 5991   0.701   6.857   1.451
 1698SOL     OW 5992   4.500   1.979   1.397
 1698SOL    HW1 5993   4.505   2.044   1.322
 1698SOL    HW2 5994   4.409   1.937   1.400
 1699SOL     OW 5995   2.578   2.282   1.648
 1699SOL    HW1 5996   2.490   2.255   1.685
 1699SOL    HW2 5997   2.603   2.222   1.572
 1700SOL     OW 5998   6.569   2.284   3.264
 1700SOL    HW1 5999   6.603   2.199   3.224
 1700SOL    HW2 6000   6.536   2.266   3.357
 1701SOL     OW 6001   5.759   2.646   4.972
 1701SOL    HW1 6002   5.751   2.547   4.980
 1701SOL    HW2 6003   5.767   2.671   4.875
 1702SOL     OW 6004   6.219   4.258   1.015
 1702SOL    HW1 6005   6.245   4.175   1.064
 1702SOL    HW2 6006   6.299   4.317   1.002
 1703SOL     OW 6007   3.190   3.967   1.999
 1703SOL    HW1 6008   3.276   3.989   2.043
 1703SOL    HW2 6009   3.143   4.051   1.972
 1704SOL     OW 6010   0.253   1.157   0.572
 1704SOL    HW1 6011   0.187   1.101   0.523
 1704SOL    HW2 6012   0.205   1.225   0.627
 1705SOL     OW 6013   3.087   2.348   1.459
 1705SOL    HW1 6014   3.161   2.308   1.514
 1705SOL    HW2 6015   3.097   2.320   1.364
 1706SOL     OW 6016   4.025   0.294   1.621
 1706SOL    HW1 6017   4.073   0.381   1.626
 1706SOL    HW2 6018   4.008   0.270   1.525
 1707SOL     OW 6019   4.019   1.566   1.758
 1707SOL    HW1 6020   3.971   1.613   1.832
 1707SOL    HW2 6021   3.964   1.571   1.674
 1708SOL     OW 6022   6.218   6.184   2.969
 1708SOL    HW1 6023   6.304   6.232   2.954
 1708SOL    HW2 6024   6.213   6.105   2.908
 1709SOL     OW 6025   2.682   6.657   1.779
 1709SOL    HW1 6026   2.627   6.615   1.850
 1709SOL    HW2 6027   2.760   6.598   1.757
 1710SOL     OW 6028   6.956   3.839   3.540
 1710SOL    HW1 6029   6.925   3.912   3.602
 1710SOL    HW2 6030   0.031   3.841   3.533
 1711SOL     OW 6031   1.379   4.265   5.154
 1711SOL    HW1 6032   1.334   4.177   5.141
 1711SOL    HW2 6033   1.462   4.252   5.209
 1712SOL     OW 6034   0.669   3.923   6.442
 1712SOL    HW1 6035   0.588   3.981   6.430
 1712SOL    HW2 6036   0.725   3.928   6.359
 1713SOL     OW 6037   1.971   2.052   1.449
 1713SOL    HW1 6038   2.024   2.103   1.382
 1713SOL    HW2 6039   1.902   1.996   1.403
 1714SOL     OW 6040   3.951   1.529   6.322
 1714SOL    HW1 6041   3.936   1.455   6.387
 1714SOL    HW2 6042   3.864   1.574   6.301
 1715SOL     OW 6043   6.894   2.867   2.774
 1715SOL    HW1 6044   6.938   2.852   2.685
 1715SOL    HW2 6045   6.922   2.956   2.810
 1716SOL     OW 6046   5.650   6.565   1.356
 1716SOL    HW1 6047   5.621   6.658   1.381
 1716SOL    HW2 6048   5.714   6.570   1.280
 1717SOL     OW 6049   2.651   6.195   6.657
 1717SOL    HW1 6050   2.614   6.220   6.746
 1717SOL    HW2 6051   2.600   6.241   6.585
 1718SOL     OW 6052   2.156   2.338   0.232
 1718SOL    HW1 6053   2.174   2.260   0.172
 1718SOL    HW2 6054   2.107   2.409   0.181
 1719SOL     OW 6055   2.335   3.881   1.266
 1719SOL    HW1 6056   2.368   3.931   1.346
 1719SOL    HW2 6057   2.236   3.874   1.270
 1720SOL     OW 6058   6.590   2.255   0.841
 1720SOL    HW1 6059   6.561   2.173   0.891
 1720SOL    HW2 6060   6.690   2.261   0.844
 1721SOL     OW 6061   1.351   6.517   2.351
 1721SOL    HW1 6062   1.443   6.480   2.338
 1721SOL    HW2 6063   1.284   6.456   2.310
 1722SOL     OW 6064   5.056   0.564   2.911
 1722SOL    HW1 6065   5.029   0.637   2.849
 1722SOL    HW2 6066   5.038   0.593   3.005
 1723SOL     OW 6067   6.547   1.883   3.734
 1723SOL    HW1 6068   6.480   1.947   3.696
 1723SOL    HW2 6069   6.509   1.790   3.734
 1724SOL     OW 6070   6.074   1.133   0.711
 1724SOL    HW1 6071   6.007   1.140   0.638
 1724SOL    HW2 6072   6.116   1.222   0.727
 1725SOL     OW 6073   3.515   4.171   6.782
 1725SOL    HW1 6074   3.545   4.194   6.689
 1725SOL    HW2 6075   3.527   4.251   6.841
 1726SOL     OW 6076   6.355   4.008   4.320
 1726SOL    HW1 6077   6.405   3.924   4.300
 1726SOL    HW2 6078   6.280   4.019   4.255
 1727SOL     OW 6079   3.640   3.496   4.571
 1727SOL    HW1 6080   3.609   3.552   4.494
 1727SOL    HW2 6081   3.647   3.553   4.653
 1728SOL     OW 6082   4.923   4.661   4.616
 1728SOL    HW1 6083   4.863   4.666   4.536
 1728SOL    HW2 6084   5.019   4.658   4.586
 1729SOL     OW 6085   1.868   3.994   3.514
 1729SOL    HW1 6086   1.962   4.015   3.485
 1729SOL    HW2 6087   1.865   3.901   3.551
 1730SOL     OW 6088   6.625   0.796   5.342
 1730SOL    HW1 6089   6.635   0.875   5.403
 1730SOL    HW2 6090   6.713   0.778   5.297
 1731SOL     OW 6091   1.484   4.927   1.965
 1731SOL    HW1 6092   1.409   4.863   1.953
 1731SOL    HW2 6093   1.454   5.004   2.021
 1732SOL     OW 6094   2.277   4.303   6.470
 1732SOL    HW1 6095   2.356   4.244   6.454
 1732SOL    HW2 6096   2.307   4.399   6.470
 1733SOL     OW 6097   1.996   3.279   2.376
 1733SOL    HW1 6098   2.057   3.202   2.358
 1733SOL    HW2 6099   2.041   3.363   2.345
 1734SOL     OW 6100   4.330   3.126   1.743
 1734SOL    HW1 6101   4.415   3.099   1.788
 1734SOL    HW2 6102   4.264   3.052   1.749
 1735SOL     OW 6103   5.955   5.735   1.848
 1735SOL    HW1 6104   5.958   5.669   1.773
 1735SOL    HW2 6105   5.907   5.817   1.817
 1736SOL     OW 6106   4.984   2.557   0.148
 1736SOL    HW1 6107   4.915   2.506   0.096
 1736SOL    HW2 6108   5.075   2.521   0.126
 1737SOL     OW 6109   2.779   0.612   4.180
 1737SOL    HW1 6110   2.786   0.711   4.188
 1737SOL    HW2 6111   2.835   0.569   4.251
 1738SOL     OW 6112   2.226   2.877   3.701
 1738SOL    HW1 6113   2.181   2.937   3.766
 1738SOL    HW2 6114   2.302   2.829   3.745
 1739SOL     OW 6115   4.851   2.500   4.690
 1739SOL    HW1 6116   4.905   2.556   4.627
 1739SOL    HW2 6117   4.769   2.468   4.643
 1740SOL     OW 6118   0.017   1.083   6.701
 1740SOL    HW1 6119   7.008   1.038   6.618
 1740SOL    HW2 6120   0.054   1.173   6.678
 1741SOL     OW 6121   2.082   1.043   2.642
 1741SOL    HW1 6122   1.989   1.051   2.605
 1741SOL    HW2 6123   2.114   1.133   2.672
 1742SOL     OW 6124   3.956   5.937   6.035
 1742SOL    HW1 6125   3.960   6.008   6.106
 1742SOL    HW2 6126   3.889   5.964   5.965
 1743SOL     OW 6127   1.680   1.088   2.162
 1743SOL    HW1 6128   1.661   1.103   2.259
 1743SOL    HW2 6129   1.596   1.102   2.109
 1744SOL     OW 6130   1.573   0.106   1.903
 1744SOL    HW1 6131   1.662   0.148   1.890
 1744SOL    HW2 6132   1.513   0.168   1.954
 1745SOL     OW 6133   6.305   1.524   4.514
 1745SOL    HW1 6134   6.365   1.449   4.540
 1745SOL    HW2 6135   6.324   1.604   4.572
 1746SOL     OW 6136   2.541   5.771   5.756
 1746SOL    HW1 6137   2.590   5.832   5.694
 1746SOL    HW2 6138   2.586   5.770   5.845
 1747SOL     OW 6139   5.192   0.029   2.225
 1747SOL    HW1 6140   5.273   6.996   2.235
 1747SOL    HW2 6141   5.191   0.098   2.297
 1748SOL     OW 6142   6.544   1.125   4.032
 1748SOL    HW1 6143   6.488   1.067   3.973
 1748SOL    HW2 6144   6.491   1.205   4.060
 1749SOL     OW 6145   3.905   6.521   5.541
 1749SOL    HW1 6146   3.908   6.432   5.494
 1749SOL    HW2 6147   3.894   6.594   5.474
 1750SOL     OW 6148   5.042   1.109   3.359
 1750SOL    HW1 6149   4.948   1.112   3.326
 1750SOL    HW2 6150   5.093   1.187   3.323
 1751SOL     OW 6151   3.305   4.911   4.903
 1751SOL    HW1 6152   3.243   4.899   4.826
 1751SOL    HW2 6153   3.307   4.827   4.957
 1752SOL     OW 6154   6.285   2.863   1.758
 1752SOL    HW1 6155   6.363   2.821   1.712
 1752SOL    HW2 6156   6.202   2.814   1.734
 1753SOL     OW 6157   0.558   1.107   0.389
 1753SOL    HW1 6158   0.565   1.044   0.312
 1753SOL    HW2 6159   0.473   1.090   0.438
 1754SOL     OW 6160   3.824   3.356   0.703
 1754SOL    HW1 6161   3.744   3.404   0.740
 1754SOL    HW2 6162   3.884   3.328   0.777
 1755SOL     OW 6163   5.505   5.154   1.536
 1755SOL    HW1 6164   5.488   5.186   1.443
 1755SOL    HW2 6165   5.602   5.165   1.558
 1756SOL     OW 6166   5.628   4.673   5.174
 1756SOL    HW1 6167   5.706   4.650   5.232
 1756SOL    HW2 6168   5.555   4.713   5.230
 1757SOL     OW 6169   2.237   6.477   4.721
 1757SOL    HW1 6170   2.318   6.535   4.723
 1757SOL    HW2 6171   2.206   6.459   4.815
 1758SOL     OW 6172   2.762   0.818   3.904
 1758SOL    HW1 6173   2.706   0.738   3.924
 1758SOL    HW2 6174   2.816   0.842   3.985
 1759SOL     OW 6175   0.032   5.252   6.128
 1759SOL    HW1 6176   0.024   5.250   6.227
 1759SOL    HW2 6177   0.015   5.160   6.091
 1760SOL     OW 6178   6.340   1.624   1.328
 1760SOL    HW1 6179   6.363   1.690   1.256
 1760SOL    HW2 6180   6.288   1.669   1.400
 1761SOL     OW 6181   6.820   6.851   0.202
 1761SOL    HW1 6182   6.802   6.758   0.171
 1761SOL    HW2 6183   6.898   6.888   0.151
 1762SOL     OW 6184   6.224   2.188   5.628
 1762SOL    HW1 6185   6.212   2.176   5.530
 1762SOL    HW2 6186   6.267   2.106   5.666
 1763SOL     OW 6187   1.354   3.956   4.091
 1763SOL    HW1 6188   1.263   3.984   4.060
 1763SOL    HW2 6189   1.391   3.889   4.026
 1764SOL     OW 6190   2.190   3.852   2.707
 1764SOL    HW1 6191   2.096   3.820   2.696
 1764SOL    HW2 6192   2.240   3.787   2.765
 1765SOL     OW 6193   2.899   2.048   6.652
 1765SOL    HW1 6194   2.891   1.952   6.624
 1765SOL    HW2 6195   2.937   2.101   6.576
 1766SOL     OW 6196   5.276   2.759   3.870
 1766SOL    HW1 6197   5.179   2.739   3.880
 1766SOL    HW2 6198   5.292   2.857   3.884
 1767SOL     OW 6199   5.115   3.866   2.839
 1767SOL    HW1 6200   5.069   3.794   2.786
 1767SOL    HW2 6201   5.111   3.952   2.789
 1768SOL     OW 6202   4.084   0.855   5.205
 1768SOL    HW1 6203   4.108   0.762   5.176
 1768SOL    HW2 6204   4.122   0.921   5.140
 1769SOL     OW 6205   4.164   2.281   4.150
 1769SOL    HW1 6206   4.208   2.251   4.065
 1769SOL    HW2 6207   4.193   2.374   4.171
 1770SOL     OW 6208   2.187   5.913   5.484
 1770SOL    HW1 6209   2.139   5.826   5.497
 1770SOL    HW2 6210   2.130   5.975   5.430
 1771SOL     OW 6211   2.659   5.816   6.454
 1771SOL    HW1 6212   2.605   5.867   6.387
 1771SOL    HW2 6213   2.706   5.880   6.514
 1772SOL     OW 6214   2.963   0.003   4.302
 1772SOL    HW1 6215   2.957   6.927   4.306
 1772SOL    HW2 6216   3.059   0.030   4.298
 1773SOL     OW 6217   2.340   5.214   5.736
 1773SOL    HW1 6218   2.326   5.131   5.791
 1773SOL    HW2 6219   2.431   5.252   5.756
 1774SOL     OW 6220   4.313   6.078   1.775
 1774SOL    HW1 6221   4.407   6.110   1.764
 1774SOL    HW2 6222   4.290   6.014   1.702
 1775SOL     OW 6223   1.550   4.035   3.583
 1775SOL    HW1 6224   1.624   4.006   3.522
 1775SOL    HW2 6225   1.552   4.134   3.593
 1776SOL     OW 6226   3.135   6.500   3.861
 1776SOL    HW1 6227   3.231   6.481   3.842
 1776SOL    HW2 6228   3.102   6.571   3.799
 1777SOL     OW 6229   3.830   5.114   5.985
 1777SOL    HW1 6230   3.791   5.159   6.065
 1777SOL    HW2 6231   3.921   5.152   5.966
 1778SOL     OW 6232   4.261   3.664   5.869
 1778SOL    HW1 6233   4.243   3.663   5.770
 1778SOL    HW2 6234   4.352   3.628   5.886
 1779SOL     OW 6235   4.714   0.836   4.463
 1779SOL    HW1 6236   4.810   0.831   4.489
 1779SOL    HW2 6237   4.675   0.922   4.493
 1780SOL     OW 6238   3.490   2.610   6.833
 1780SOL    HW1 6239   3.498   2.681   6.763
 1780SOL    HW2 6240   3.448   2.529   6.794
 1781SOL     OW 6241   4.172   5.989   3.481
 1781SOL    HW1 6242   4.084   5.983   3.529
 1781SOL    HW2 6243   4.246   5.983   3.548
 1782SOL     OW 6244   3.028   1.843   2.446
 1782SOL    HW1 6245   2.931   1.860   2.429
 1782SOL    HW2 6246   3.076   1.833   2.359
 1783SOL     OW 6247   1.845   5.464   5.869
 1783SOL    HW1 6248   1.814   5.449   5.963
 1783SOL    HW2 6249   1.926   5.409   5.852
 1784SOL     OW 6250   4.175   1.425   6.169
 1784SOL    HW1 6251   4.130   1.464   6.249
 1784SOL    HW2 6252   4.155   1.327   6.164
 1785SOL     OW 6253   6.164   4.198   3.494
 1785SOL    HW1 6254   6.211   4.286   3.489
 1785SOL    HW2 6255   6.065   4.214   3.497
 1786SOL     OW 6256   2.330   2.326   6.898
 1786SOL    HW1 6257   2.301   2.355   6.807
 1786SOL    HW2 6258   2.364   2.405   6.950
 1787SOL     OW 6259   3.151   0.926   5.236
 1787SOL    HW1 6260   3.056   0.919   5.206
 1787SOL    HW2 6261   3.195   1.001   5.188
 1788SOL     OW 6262   2.950   2.920   0.384
 1788SOL    HW1 6263   3.006   2.851   0.338
 1788SOL    HW2 6264   2.864   2.934   0.334
 1789SOL     OW 6265   5.860   1.855   3.135
 1789SOL    HW1 6266   5.807   1.914   3.074
 1789SOL    HW2 6267   5.951   1.840   3.097
 1790SOL     OW 6268   4.135   6.041   4.055
 1790SOL    HW1 6269   4.153   6.043   4.154
 1790SOL    HW2 6270   4.142   6.134   4.018
 1791SOL     OW 6271   5.854   0.588   2.927
 1791SOL    HW1 6272   5.805   0.672   2.950
 1791SOL    HW2 6273   5.932   0.576   2.989
 1792SOL     OW 6274   6.510   3.401   4.960
 1792SOL    HW1 6275   6.424   3.452   4.963
 1792SOL    HW2 6276   6.541   3.393   4.865
 1793SOL     OW 6277   6.243   6.934   3.326
 1793SOL    HW1 6278   6.293   6.861   3.279
 1793SOL    HW2 6279   6.296   7.019   3.323
 1794SOL     OW 6280   5.533   6.134   5.638
 1794SOL    HW1 6281   5.593   6.189   5.580
 1794SOL    HW2 6282   5.506   6.188   5.718
 1795SOL     OW 6283   1.238   1.954   0.581
 1795SOL    HW1 6284   1.272   1.911   0.497
 1795SOL    HW2 6285   1.150   1.913   0.605
 1796SOL     OW 6286   2.522   0.930   4.461
 1796SOL    HW1 6287   2.516   0.935   4.561
 1796SOL    HW2 6288   2.489   0.841   4.430
 1797SOL     OW 6289   1.778   6.397   0.527
 1797SOL    HW1 6290   1.684   6.371   0.507
 1797SOL    HW2 6291   1.784   6.497   0.537
 1798SOL     OW 6292   4.772   2.779   3.528
 1798SOL    HW1 6293   4.754   2.867   3.573
 1798SOL    HW2 6294   4.729   2.706   3.580
 1799SOL     OW 6295   6.920   2.662   5.913
 1799SOL    HW1 6296   6.995   2.596   5.906
 1799SOL    HW2 6297   6.861   2.654   5.833
 1800SOL     OW 6298   3.858   4.946   1.906
 1800SOL    HW1 6299   3.890   4.924   1.815
 1800SOL    HW2 6300   3.790   4.878   1.935
 1801SOL     OW 6301   6.878   0.408   1.747
 1801SOL    HW1 6302   6.964   0.457   1.757
 1801SOL    HW2 6303   6.892   0.327   1.689
 1802SOL     OW 6304   5.373   5.402   3.526
 1802SOL    HW1 6305   5.299   5.458   3.487
 1802SOL    HW2 6306   5.438   5.377   3.454
 1803SOL     OW 6307   0.639   5.646   6.836
 1803SOL    HW1 6308   0.657   5.581   6.762
 1803SOL    HW2 6309   0.572   5.714   6.806
 1804SOL     OW 6310   2.676   3.872   5.336
 1804SOL    HW1 6311   2.659   3.792   5.393
 1804SOL    HW2 6312   2.601   3.883   5.271
 1805SOL     OW 6313   5.725   3.890   6.289
 1805SOL    HW1 6314   5.717   3.892   6.389
 1805SOL    HW2 6315   5.713   3.983   6.253
 1806SOL     OW 6316   0.474   7.000   0.290
 1806SOL    HW1 6317   0.551   0.028   0.327
 1806SOL    HW2 6318   0.485   6.991   0.191
 1807SOL     OW 6319   5.577   2.420   4.875
 1807SOL    HW1 6320   5.528   2.457   4.796
 1807SOL    HW2 6321   5.515   2.363   4.929
 1808SOL     OW 6322   0.283   4.589   5.634
 1808SOL    HW1 6323   0.222   4.642   5.692
 1808SOL    HW2 6324   0.354   4.546   5.690
 1809SOL     OW 6325   1.964   2.420   4.909
 1809SOL    HW1 6326   1.961   2.465   4.999
 1809SOL    HW2 6327   1.941   2.323   4.920
 1810SOL     OW 6328   2.614   7.010   3.563
 1810SOL    HW1 6329   2.540   0.019   3.506
 1810SOL    HW2 6330   2.598   0.012   3.658
 1811SOL     OW 6331   6.304   5.481   3.774
 1811SOL    HW1 6332   6.252   5.493   3.689
 1811SOL    HW2 6333   6.401   5.497   3.756
 1812SOL     OW 6334   4.543   6.245   4.942
 1812SOL    HW1 6335   4.543   6.148   4.964
 1812SOL    HW2 6336   4.631   6.270   4.901
 1813SOL     OW 6337   6.309   4.709   1.232
 1813SOL    HW1 6338   6.384   4.775   1.234
 1813SOL    HW2 6339   6.337   4.628   1.181
 1814SOL     OW 6340   5.685   0.231   1.587
 1814SOL    HW1 6341   5.643   0.188   1.666
 1814SOL    HW2 6342   5.659   0.181   1.504
 1815SOL     OW 6343   0.490   1.747   2.462
 1815SOL    HW1 6344   0.418   1.769   2.396
 1815SOL    HW2 6345   0.487   1.812   2.538
 1816SOL     OW 6346   2.962   3.277   1.032
 1816SOL    HW1 6347   2.941   3.229   1.117
 1816SOL    HW2 6348   2.896   3.351   1.018
 1817SOL     OW 6349   2.652   6.962   2.634
 1817SOL    HW1 6350   2.747   6.950   2.662
 1817SOL    HW2 6351   2.603   7.016   2.703
 1818SOL     OW 6352   1.411   6.678   2.626
 1818SOL    HW1 6353   1.369   6.739   2.559
 1818SOL    HW2 6354   1.367   6.588   2.622
 1819SOL     OW 6355   1.472   4.363   1.603
 1819SOL    HW1 6356   1.393   4.308   1.575
 1819SOL    HW2 6357   1.524   4.313   1.672
 1820SOL     OW 6358   4.160   1.194   2.935
 1820SOL    HW1 6359   4.251   1.194   2.895
 1820SOL    HW2 6360   4.094   1.160   2.868
 1821SOL     OW 6361   0.941   0.945   1.568
 1821SOL    HW1 6362   0.948   0.851   1.535
 1821SOL    HW2 6363   0.920   1.006   1.492
 1822SOL     OW 6364   2.596   2.984   0.933
 1822SOL    HW1 6365   2.674   3.008   0.876
 1822SOL    HW2 6366   2.515   3.035   0.903
 1823SOL     OW 6367   3.228   5.828   3.071
 1823SOL    HW1 6368   3.225   5.920   3.111
 1823SOL    HW2 6369   3.261   5.834   2.977
 1824SOL     OW 6370   3.580   2.195   1.113
 1824SOL    HW1 6371   3.602   2.099   1.130
 1824SOL    HW2 6372   3.582   2.245   1.199
 1825SOL     OW 6373   1.202   0.854   2.264
 1825SOL    HW1 6374   1.127   0.915   2.289
 1825SOL    HW2 6375   1.235   0.806   2.345
 1826SOL     OW 6376   3.090   0.519   1.607
 1826SOL    HW1 6377   2.995   0.517   1.636
 1826SOL    HW2 6378   3.111   0.609   1.568
 1827SOL     OW 6379   0.224   5.203   2.449
 1827SOL    HW1 6380   0.313   5.248   2.436
 1827SOL    HW2 6381   0.205   5.145   2.370
 1828SOL     OW 6382   0.170   2.621   0.250
 1828SOL    HW1 6383   0.194   2.679   0.328
 1828SOL    HW2 6384   0.230   2.541   0.248
 1829SOL     OW 6385   4.264   0.122   2.778
 1829SOL    HW1 6386   4.184   0.070   2.807
 1829SOL    HW2 6387   4.242   0.172   2.695
 1830SOL     OW 6388   5.595   5.648   4.135
 1830SOL    HW1 6389   5.580   5.661   4.233
 1830SOL    HW2 6390   5.542   5.570   4.103
 1831SOL     OW 6391   5.821   0.498   3.257
 1831SOL    HW1 6392   5.819   0.594   3.285
 1831SOL    HW2 6393   5.734   0.474   3.216
 1832SOL     OW 6394   5.886   1.955   0.732
 1832SOL    HW1 6395   5.827   2.012   0.674
 1832SOL    HW2 6396   5.929   1.884   0.677
 1833SOL     OW 6397   5.573   0.793   5.245
 1833SOL    HW1 6398   5.517   0.809   5.163
 1833SOL    HW2 6399   5.667   0.822   5.227
 1834SOL     OW 6400   3.354   3.932   0.094
 1834SOL    HW1 6401   3.377   3.850   0.147
 1834SOL    HW2 6402   3.413   4.008   0.121
 1835SOL     OW 6403   1.808   4.426   2.012
 1835SOL    HW1 6404   1.732   4.486   1.986
 1835SOL    HW2 6405   1.796   4.336   1.970
 1836SOL     OW 6406   6.509   1.516   0.959
 1836SOL    HW1 6407   6.492   1.517   0.860
 1836SOL    HW2 6408   6.591   1.463   0.978
 1837SOL     OW 6409   0.596   2.476   3.980
 1837SOL    HW1 6410   0.683   2.456   4.024
 1837SOL    HW2 6411   0.596   2.439   3.887
 1838SOL     OW 6412   0.268   2.089   3.779
 1838SOL    HW1 6413   0.225   2.161   3.725
 1838SOL    HW2 6414   0.366   2.105   3.783
 1839SOL     OW 6415   4.426   2.438   4.785
 1839SOL    HW1 6416   4.367   2.461   4.862
 1839SOL    HW2 6417   4.372   2.392   4.714
 1840SOL     OW 6418   3.677   6.085   1.433
 1840SOL    HW1 6419   3.616   6.145   1.484
 1840SOL    HW2 6420   3.768   6.088   1.473
 1841SOL     OW 6421   2.238   3.000   4.531
 1841SOL    HW1 6422   2.291   3.045   4.459
 1841SOL    HW2 6423   2.281   3.016   4.620
 1842SOL     OW 6424   0.989   5.782   0.401
 1842SOL    HW1 6425   0.979   5.871   0.445
 1842SOL    HW2 6426   1.062   5.730   0.447
 1843SOL     OW 6427   1.105   2.322   4.525
 1843SOL    HW1 6428   1.174   2.367   4.582
 1843SOL    HW2 6429   1.093   2.228   4.556
 1844SOL     OW 6430   3.837   0.675   5.857
 1844SOL    HW1 6431   3.813   0.702   5.951
 1844SOL    HW2 6432   3.934   0.654   5.852
 1845SOL     OW 6433   2.566   0.089   5.991
 1845SOL    HW1 6434   2.601   7.020   5.995
 1845SOL    HW2 6435   2.466   0.088   5.998
 1846SOL     OW 6436   3.719   2.057   0.103
 1846SOL    HW1 6437   3.688   1.994   0.031
 1846SOL    HW2 6438   3.815   2.039   0.125
 1847SOL     OW 6439   1.526   1.042   6.895
 1847SOL    HW1 6440   1.574   1.118   6.939
 1847SOL    HW2 6441   1.463   1.078   6.826
 1848SOL     OW 6442   2.069   6.402   2.667
 1848SOL    HW1 6443   2.109   6.354   2.745
 1848SOL    HW2 6444   2.070   6.342   2.587
 1849SOL     OW 6445   4.045   1.486   0.492
 1849SOL    HW1 6446   3.950   1.483   0.522
 1849SOL    HW2 6447   4.106   1.473   0.570
 1850SOL     OW 6448   6.669   2.663   2.627
 1850SOL    HW1 6449   6.682   2.756   2.661
 1850SOL    HW2 6450   6.758   2.621   2.611
 1851SOL     OW 6451   0.359   1.560   0.782
 1851SOL    HW1 6452   0.394   1.498   0.712
 1851SOL    HW2 6453   0.433   1.586   0.844
 1852SOL     OW 6454   5.094   4.233   1.235
 1852SOL    HW1 6455   5.084   4.142   1.195
 1852SOL    HW2 6456   5.059   4.233   1.328
 1853SOL     OW 6457   0.894   3.088   2.397
 1853SOL    HW1 6458   0.915   3.039   2.312
 1853SOL    HW2 6459   0.867   3.182   2.376
 1854SOL     OW 6460   2.748   5.995   3.592
 1854SOL    HW1 6461   2.728   5.903   3.624
 1854SOL    HW2 6462   2.835   6.026   3.629
 1855SOL     OW 6463   4.348   4.121   6.887
 1855SOL    HW1 6464   4.266   4.072   6.915
 1855SOL    HW2 6465   4.328   4.175   6.805
 1856SOL     OW 6466   6.388   3.268   5.458
 1856SOL    HW1 6467   6.291   3.276   5.437
 1856SOL    HW2 6468   6.439   3.250   5.373
 1857SOL     OW 6469   3.466   1.009   5.692
 1857SOL    HW1 6470   3.517   0.929   5.724
 1857SOL    HW2 6471   3.466   1.011   5.592
 1858SOL     OW 6472   5.872   2.908   3.828
 1858SOL    HW1 6473   5.802   2.861   3.774
 1858SOL    HW2 6474   5.962   2.891   3.787
 1859SOL     OW 6475   4.071   1.738   3.824
 1859SOL    HW1 6476   4.151   1.785   3.788
 1859SOL    HW2 6477   4.082   1.639   3.810
 1860SOL     OW 6478   6.339   0.291   3.775
 1860SOL    HW1 6479   6.267   0.260   3.712
 1860SOL    HW2 6480   6.299   0.313   3.863
 1861SOL     OW 6481   4.833   6.519   2.420
 1861SOL    HW1 6482   4.870   6.428   2.441
 1861SOL    HW2 6483   4.754   6.510   2.360
 1862SOL     OW 6484   2.434   0.075   6.700
 1862SOL    HW1 6485   2.376   0.098   6.778
 1862SOL    HW2 6486   2.376   0.043   6.625
 1863SOL     OW 6487   2.050   2.047   0.490
 1863SOL    HW1 6488   2.027   2.143   0.475
 1863SOL    HW2 6489   2.103   2.038   0.574
 1864SOL     OW 6490   1.142   0.044   5.277
 1864SOL    HW1 6491   1.226   0.077   5.320
 1864SOL    HW2 6492   1.076   0.119   5.272
 1865SOL     OW 6493   3.537   0.426   5.657
 1865SOL    HW1 6494   3.586   0.442   5.571
 1865SOL    HW2 6495   3.480   0.506   5.678
 1866SOL     OW 6496   4.253   4.670   2.773
 1866SOL    HW1 6497   4.188   4.703   2.704
 1866SOL    HW2 6498   4.207   4.665   2.862
 1867SOL     OW 6499   1.201   4.391   0.657
 1867SOL    HW1 6500   1.267   4.423   0.590
 1867SOL    HW2 6501   1.216   4.438   0.744
 1868SOL     OW 6502   4.600   4.447   0.572
 1868SOL    HW1 6503   4.619   4.429   0.668
 1868SOL    HW2 6504   4.633   4.538   0.548
 1869SOL     OW 6505   6.713   2.255   4.980
 1869SOL    HW1 6506   6.798   2.281   4.934
 1869SOL    HW2 6507   6.637   2.305   4.939
 1870SOL     OW 6508   1.997   3.641   5.987
 1870SOL    HW1 6509   2.031   3.561   6.037
 1870SOL    HW2 6510   1.970   3.613   5.894
 1871SOL     OW 6511   1.204   7.009   6.547
 1871SOL    HW1 6512   1.216   0.056   6.616
 1871SOL    HW2 6513   1.140   6.940   6.581
 1872SOL     OW 6514   3.643   3.439   6.678
 1872SOL    HW1 6515   3.658   3.399   6.587
 1872SOL    HW2 6516   3.572   3.510   6.672
 1873SOL     OW 6517   4.347   1.285   5.102
 1873SOL    HW1 6518   4.261   1.296   5.151
 1873SOL    HW2 6519   4.423   1.304   5.165
 1874SOL     OW 6520   2.387   0.975   0.874
 1874SOL    HW1 6521   2.442   0.991   0.792
 1874SOL    HW2 6522   2.364   1.062   0.917
 1875SOL     OW 6523   0.872   1.490   6.823
 1875SOL    HW1 6524   0.919   1.428   6.885
 1875SOL    HW2 6525   0.866   1.448   6.732
 1876SOL     OW 6526   3.588   0.238   6.279
 1876SOL    HW1 6527   3.662   0.219   6.215
 1876SOL    HW2 6528   3.517   0.168   6.271
 1877SOL     OW 6529   0.735   0.178   2.667
 1877SOL    HW1 6530   0.724   0.240   2.744
 1877SOL    HW2 6531   0.831   0.171   2.643
 1878SOL     OW 6532   6.742   1.748   4.038
 1878SOL    HW1 6533   6.744   1.842   4.006
 1878SOL    HW2 6534   6.727   1.747   4.137
 1879SOL     OW 6535   1.097   4.083   4.048
 1879SOL    HW1 6536   1.071   4.026   3.969
 1879SOL    HW2 6537   1.095   4.179   4.021
 1880SOL     OW 6538   6.680   1.559   4.984
 1880SOL    HW1 6539   6.615   1.504   4.932
 1880SOL    HW2 6540   6.636   1.645   5.012
 1881SOL     OW 6541   5.439   2.433   2.938
 1881SOL    HW1 6542   5.399   2.521   2.913
 1881SOL    HW2 6543   5.459   2.380   2.856
 1882SOL     OW 6544   1.023   4.357   6.797
 1882SOL    HW1 6545   0.961   4.384   6.871
 1882SOL    HW2 6546   0.970   4.329   6.717
 1883SOL     OW 6547   6.065   2.331   2.853
 1883SOL    HW1 6548   6.079   2.271   2.774
 1883SOL    HW2 6549   6.003   2.287   2.917
 1884SOL     OW 6550   0.361   2.405   0.294
 1884SOL    HW1 6551   0.438   2.342   0.281
 1884SOL    HW2 6552   0.363   2.440   0.388
 1885SOL     OW 6553   1.777   1.872   6.672
 1885SOL    HW1 6554   1.755   1.938   6.600
 1885SOL    HW2 6555   1.869   1.890   6.707
 1886SOL     OW 6556   1.219   0.144   2.329
 1886SOL    HW1 6557   1.252   0.053   2.354
 1886SOL    HW2 6558   1.173   0.140   2.240
 1887SOL     OW 6559   0.810   5.264   5.493
 1887SOL    HW1 6560   0.830   5.314   5.409
 1887SOL    HW2 6561   0.719   5.290   5.527
 1888SOL     OW 6562   3.158   2.333   6.800
 1888SOL    HW1 6563   3.131   2.248   6.846
 1888SOL    HW2 6564   3.101   2.347   6.719
 1889SOL     OW 6565   0.446   3.939   5.105
 1889SOL    HW1 6566   0.393   3.917   5.187
 1889SOL    HW2 6567   0.404   4.016   5.057
 1890SOL     OW 6568   1.654   5.481   3.860
 1890SOL    HW1 6569   1.566   5.527   3.875
 1890SOL    HW2 6570   1.713   5.541   3.805
 1891SOL     OW 6571   4.793   2.742   1.546
 1891SOL    HW1 6572   4.723   2.792   1.597
 1891SOL    HW2 6573   4.753   2.701   1.464
 1892SOL     OW 6574   0.390   6.769   1.995
 1892SOL    HW1 6575   0.372   6.672   1.982
 1892SOL    HW2 6576   0.304   6.820   1.989
 1893SOL     OW 6577   3.547   2.777   2.005
 1893SOL    HW1 6578   3.628   2.774   2.064
 1893SOL    HW2 6579   3.509   2.870   2.006
 1894SOL     OW 6580   3.781   3.418   3.981
 1894SOL    HW1 6581   3.867   3.369   3.966
 1894SOL    HW2 6582   3.777   3.451   4.075
 1895SOL     OW 6583   4.193   0.431   0.583
 1895SOL    HW1 6584   4.276   0.486   0.575
 1895SOL    HW2 6585   4.153   0.418   0.492
 1896SOL     OW 6586   6.252   1.636   0.966
 1896SOL    HW1 6587   6.181   1.608   1.030
 1896SOL    HW2 6588   6.341   1.608   1.000
 1897SOL     OW 6589   2.225   5.070   1.818
 1897SOL    HW1 6590   2.276   5.086   1.734
 1897SOL    HW2 6591   2.259   4.987   1.863
 1898SOL     OW 6592   1.964   4.686   3.537
 1898SOL    HW1 6593   1.987   4.602   3.488
 1898SOL    HW2 6594   1.868   4.684   3.565
 1899SOL     OW 6595   0.456   1.896   0.328
 1899SOL    HW1 6596   0.507   1.969   0.372
 1899SOL    HW2 6597   0.516   1.846   0.265
 1900SOL     OW 6598   2.253   0.759   6.811
 1900SOL    HW1 6599   2.160   0.798   6.805
 1900SOL    HW2 6600   2.274   0.710   6.726
 1901SOL     OW 6601   2.164   2.022   1.004
 1901SOL    HW1 6602   2.079   2.074   0.990
 1901SOL    HW2 6603   2.193   2.032   1.099
 1902SOL     OW 6604   2.585   0.996   4.158
 1902SOL    HW1 6605   2.561   0.923   4.222
 1902SOL    HW2 6606   2.515   1.001   4.087
 1903SOL     OW 6607   0.796   3.347   2.397
 1903SOL    HW1 6608   0.869   3.416   2.397
 1903SOL    HW2 6609   0.737   3.361   2.476
 1904SOL     OW 6610   5.506   5.364   3.288
 1904SOL    HW1 6611   5.538   5.269   3.290
 1904SOL    HW2 6612   5.454   5.380   3.204
 1905SOL     OW 6613   0.576   0.408   3.670
 1905SOL    HW1 6614   0.634   0.389   3.590
 1905SOL    HW2 6615   0.569   0.325   3.726
 1906SOL     OW 6616   3.320   0.957   5.972
 1906SOL    HW1 6617   3.274   0.869   5.955
 1906SOL    HW2 6618   3.345   0.999   5.885
 1907SOL     OW 6619   4.605   2.466   1.360
 1907SOL    HW1 6620   4.701   2.484   1.343
 1907SOL    HW2 6621   4.555   2.553   1.365
 1908SOL     OW 6622   4.086   5.942   6.471
 1908SOL    HW1 6623   4.074   6.038   6.444
 1908SOL    HW2 6624   4.114   5.888   6.392
 1909SOL     OW 6625   1.009   2.948   3.448
 1909SOL    HW1 6626   1.080   2.938   3.377
 1909SOL    HW2 6627   0.963   2.860   3.461
 1910SOL     OW 6628   0.196   6.241   5.134
 1910SOL    HW1 6629   0.226   6.153   5.170
 1910SOL    HW2 6630   0.270   6.308   5.142
 1911SOL     OW 6631   6.922   3.963   4.453
 1911SOL    HW1 6632   6.859   4.036   4.426
 1911SOL    HW2 6633   6.871   3.894   4.505
 1912SOL     OW 6634   2.936   6.000   2.028
 1912SOL    HW1 6635   3.020   5.955   2.059
 1912SOL    HW2 6636   2.896   5.948   1.952
 1913SOL     OW 6637   2.831   0.569   4.937
 1913SOL    HW1 6638   2.747   0.594   4.888
 1913SOL    HW2 6639   2.808   0.512   5.016
 1914SOL     OW 6640   3.660   3.243   0.006
 1914SOL    HW1 6641   3.731   3.248   0.075
 1914SOL    HW2 6642   3.580   3.194   0.043
 1915SOL     OW 6643   4.954   3.047   5.988
 1915SOL    HW1 6644   4.910   3.091   6.067
 1915SOL    HW2 6645   4.987   2.957   6.015
 1916SOL     OW 6646   4.528   6.350   1.175
 1916SOL    HW1 6647   4.511   6.398   1.261
 1916SOL    HW2 6648   4.534   6.416   1.100
 1917SOL     OW 6649   2.707   3.317   0.125
 1917SOL    HW1 6650   2.611   3.318   0.098
 1917SOL    HW2 6651   2.737   3.410   0.144
 1918SOL     OW 6652   0.618   0.993   4.807
 1918SOL    HW1 6653   0.568   1.072   4.774
 1918SOL    HW2 6654   0.593   0.912   4.754
 1919SOL     OW 6655   1.826   1.293   1.339
 1919SOL    HW1 6656   1.826   1.378   1.286
 1919SOL    HW2 6657   1.879   1.305   1.422
 1920SOL     OW 6658   6.161   3.260   2.850
 1920SOL    HW1 6659   6.240   3.201   2.834
 1920SOL    HW2 6660   6.183   3.327   2.921
 1921SOL     OW 6661   1.631   3.133   6.838
 1921SOL    HW1 6662   1.552   3.154   6.781
 1921SOL    HW2 6663   1.600   3.096   6.926
 1922SOL     OW 6664   2.790   3.443   1.913
 1922SOL    HW1 6665   2.816   3.515   1.977
 1922SOL    HW2 6666   2.848   3.363   1.927
 1923SOL     OW 6667   4.145   1.395   6.902
 1923SOL    HW1 6668   4.161   1.393   6.803
 1923SOL    HW2 6669   4.189   1.476   6.941
 1924SOL     OW 6670   4.600   0.266   0.719
 1924SOL    HW1 6671   4.573   0.332   0.789
 1924SOL    HW2 6672   4.644   0.187   0.763
 1925SOL     OW 6673   1.053   4.787   1.679
 1925SOL    HW1 6674   1.134   4.819   1.630
 1925SOL    HW2 6675   0.973   4.839   1.647
 1926SOL     OW 6676   2.819   0.423   1.911
 1926SOL    HW1 6677   2.826   0.464   1.820
 1926SOL    HW2 6678   2.821   0.496   1.980
 1927SOL     OW 6679   2.374   3.962   0.407
 1927SOL    HW1 6680   2.387   3.951   0.506
 1927SOL    HW2 6681   2.286   3.923   0.380
 1928SOL     OW 6682   5.172   5.118   4.227
 1928SOL    HW1 6683   5.159   5.095   4.323
 1928SOL    HW2 6684   5.265   5.092   4.199
 1929SOL     OW 6685   2.458   0.428   1.849
 1929SOL    HW1 6686   2.364   0.396   1.835
 1929SOL    HW2 6687   2.485   0.413   1.944
 1930SOL     OW 6688   5.545   3.345   6.895
 1930SOL    HW1 6689   5.511   3.256   6.924
 1930SOL    HW2 6690   5.632   3.334   6.848
 1931SOL     OW 6691   1.052   2.063   6.317
 1931SOL    HW1 6692   0.954   2.079   6.327
 1931SOL    HW2 6693   1.084   2.001   6.389
 1932SOL     OW 6694   4.669   2.667   3.305
 1932SOL    HW1 6695   4.682   2.724   3.224
 1932SOL    HW2 6696   4.713   2.711   3.384
 1933SOL     OW 6697   0.837   2.156   0.500
 1933SOL    HW1 6698   0.874   2.083   0.443
 1933SOL    HW2 6699   0.895   2.237   0.492
 1934SOL     OW 6700   0.338   0.903   5.430
 1934SOL    HW1 6701   0.428   0.916   5.387
 1934SOL    HW2 6702   0.333   0.811   5.470
 1935SOL     OW 6703   4.474   4.800   3.534
 1935SOL    HW1 6704   4.518   4.868   3.475
 1935SOL    HW2 6705   4.376   4.797   3.514
 1936SOL     OW 6706   4.898   3.632   4.232
 1936SOL    HW1 6707   4.936   3.697   4.166
 1936SOL    HW2 6708   4.848   3.561   4.183
 1937SOL     OW 6709   4.678   6.048   0.120
 1937SOL    HW1 6710   4.719   6.022   0.208
 1937SOL    HW2 6711   4.750   6.055   0.051
 1938SOL     OW 6712   0.998   2.477   0.805
 1938SOL    HW1 6713   1.094   2.505   0.800
 1938SOL    HW2 6714   0.967   2.452   0.714
 1939SOL     OW 6715   0.301   6.201   4.324
 1939SOL    HW1 6716   0.271   6.148   4.404
 1939SOL    HW2 6717   0.400   6.193   4.313
 1940SOL     OW 6718   5.969   4.626   1.786
 1940SOL    HW1 6719   5.883   4.659   1.747
 1940SOL    HW2 6720   5.959   4.617   1.885
 1941SOL     OW 6721   0.697   2.738   3.550
 1941SOL    HW1 6722   0.599   2.726   3.535
 1941SOL    HW2 6723   0.711   2.805   3.623
 1942SOL     OW 6724   5.416   3.986   2.635
 1942SOL    HW1 6725   5.416   3.984   2.735
 1942SOL    HW2 6726   5.501   3.946   2.601
 1943SOL     OW 6727   1.489   1.713   2.539
 1943SOL    HW1 6728   1.528   1.656   2.467
 1943SOL    HW2 6729   1.490   1.664   2.626
 1944SOL     OW 6730   6.535   4.580   0.013
 1944SOL    HW1 6731   6.548   4.536   6.949
 1944SOL    HW2 6732   6.516   4.510   0.083
 1945SOL     OW 6733   3.873   6.832   1.254
 1945SOL    HW1 6734   3.912   6.755   1.204
 1945SOL    HW2 6735   3.921   6.843   1.341
 1946SOL     OW 6736   5.575   6.318   1.941
 1946SOL    HW1 6737   5.652   6.342   1.883
 1946SOL    HW2 6738   5.516   6.252   1.893
 1947SOL     OW 6739   6.540   5.871   4.272
 1947SOL    HW1 6740   6.518   5.953   4.220
 1947SOL    HW2 6741   6.457   5.833   4.312
 1948SOL     OW 6742   5.696   4.337   2.650
 1948SOL    HW1 6743   5.640   4.348   2.568
 1948SOL    HW2 6744   5.647   4.375   2.728
 1949SOL     OW 6745   4.158   3.932   0.369
 1949SOL    HW1 6746   4.229   3.863   0.358
 1949SOL    HW2 6747   4.166   3.975   0.459
 1950SOL     OW 6748   4.133   3.297   3.869
 1950SOL    HW1 6749   4.074   3.236   3.816
 1950SOL    HW2 6750   4.191   3.350   3.808
 1951SOL     OW 6751   6.395   4.435   5.490
 1951SOL    HW1 6752   6.350   4.505   5.545
 1951SOL    HW2 6753   6.455   4.479   5.422
 1952SOL     OW 6754   4.903   4.506   1.421
 1952SOL    HW1 6755   4.975   4.552   1.368
 1952SOL    HW2 6756   4.918   4.407   1.419
 1953SOL     OW 6757   0.235   1.541   5.959
 1953SOL    HW1 6758   0.323   1.494   5.949
 1953SOL    HW2 6759   0.165   1.491   5.909
 1954SOL     OW 6760   5.359   0.792   1.878
 1954SOL    HW1 6761   5.322   0.883   1.861
 1954SOL    HW2 6762   5.452   0.800   1.915
 1955SOL     OW 6763   0.274   1.481   1.220
 1955SOL    HW1 6764   0.363   1.448   1.190
 1955SOL    HW2 6765   0.269   1.580   1.207
 1956SOL     OW 6766   4.687   0.184   2.592
 1956SOL    HW1 6767   4.735   0.096   2.591
 1956SOL    HW2 6768   4.641   0.197   2.504
 1957SOL     OW 6769   5.294   3.293   4.285
 1957SOL    HW1 6770   5.309   3.195   4.282
 1957SOL    HW2 6771   5.200   3.313   4.257
 1958SOL     OW 6772   4.602   1.724   1.413
 1958SOL    HW1 6773   4.580   1.660   1.339
 1958SOL    HW2 6774   4.546   1.806   1.403
 1959SOL     OW 6775   6.359   6.415   3.997
 1959SOL    HW1 6776   6.261   6.429   3.988
 1959SOL    HW2 6777   6.408   6.499   3.976
 1960SOL     OW 6778   6.875   2.710   3.010
 1960SOL    HW1 6779   6.890   2.756   2.923
 1960SOL    HW2 6780   6.962   2.679   3.048
 1961SOL     OW 6781   6.323   4.533   4.550
 1961SOL    HW1 6782   6.300   4.597   4.477
 1961SOL    HW2 6783   6.403   4.479   4.523
 1962SOL     OW 6784   1.164   5.760   2.690
 1962SOL    HW1 6785   1.251   5.713   2.700
 1962SOL    HW2 6786   1.095   5.697   2.655
 1963SOL     OW 6787   0.847   1.623   1.041
 1963SOL    HW1 6788   0.819   1.558   0.970
 1963SOL    HW2 6789   0.777   1.694   1.051
 1964SOL     OW 6790   5.223   4.585   1.838
 1964SOL    HW1 6791   5.270   4.672   1.831
 1964SOL    HW2 6792   5.151   4.581   1.768
 1965SOL     OW 6793   1.154   3.335   4.116
 1965SOL    HW1 6794   1.167   3.388   4.033
 1965SOL    HW2 6795   1.069   3.282   4.109
 1966SOL     OW 6796   1.796   4.720   0.915
 1966SOL    HW1 6797   1.797   4.693   1.011
 1966SOL    HW2 6798   1.849   4.655   0.861
 1967SOL     OW 6799   6.974   2.259   3.838
 1967SOL    HW1 6800   0.008   2.326   3.884
 1967SOL    HW2 6801   6.886   2.253   3.885
 1968SOL     OW 6802   2.570   1.307   5.327
 1968SOL    HW1 6803   2.606   1.398   5.347
 1968SOL    HW2 6804   2.484   1.316   5.278
 1969SOL     OW 6805   3.196   0.879   2.145
 1969SOL    HW1 6806   3.278   0.905   2.095
 1969SOL    HW2 6807   3.135   0.828   2.084
 1970SOL     OW 6808   6.374   6.462   4.754
 1970SOL    HW1 6809   6.454   6.402   4.744
 1970SOL    HW2 6810   6.358   6.509   4.667
 1971SOL     OW 6811   0.586   7.024   5.340
 1971SOL    HW1 6812   0.509   6.962   5.353
 1971SOL    HW2 6813   0.671   6.972   5.343
 1972SOL     OW 6814   5.474   2.157   1.190
 1972SOL    HW1 6815   5.375   2.148   1.182
 1972SOL    HW2 6816   5.495   2.233   1.252
 1973SOL     OW 6817   2.352   3.889   1.855
 1973SOL    HW1 6818   2.377   3.982   1.827
 1973SOL    HW2 6819   2.379   3.824   1.785
 1974SOL     OW 6820   4.737   6.974   4.746
 1974SOL    HW1 6821   4.747   6.940   4.840
 1974SOL    HW2 6822   4.644   6.958   4.715
 1975SOL     OW 6823   2.237   2.951   4.142
 1975SOL    HW1 6824   2.229   3.049   4.164
 1975SOL    HW2 6825   2.245   2.899   4.227
 1976SOL     OW 6826   5.850   6.994   6.667
 1976SOL    HW1 6827   5.840   0.068   6.682
 1976SOL    HW2 6828   5.908   6.955   6.739
 1977SOL     OW 6829   2.780   2.944   6.219
 1977SOL    HW1 6830   2.724   2.862   6.228
 1977SOL    HW2 6831   2.846   2.932   6.145
 1978SOL     OW 6832   2.149   5.932   3.264
 1978SOL    HW1 6833   2.064   5.948   3.314
 1978SOL    HW2 6834   2.130   5.925   3.166
 1979SOL     OW 6835   6.164   5.000   6.919
 1979SOL    HW1 6836   6.112   4.993   7.004
 1979SOL    HW2 6837   6.257   4.965   6.933
 1980SOL     OW 6838   3.348   0.744   2.513
 1980SOL    HW1 6839   3.354   0.655   2.558
 1980SOL    HW2 6840   3.340   0.816   2.581
 1981SOL     OW 6841   5.351   2.635   2.729
 1981SOL    HW1 6842   5.392   2.685   2.652
 1981SOL    HW2 6843   5.254   2.621   2.712
 1982SOL     OW 6844   6.851   4.206   4.002
 1982SOL    HW1 6845   6.840   4.296   3.961
 1982SOL    HW2 6846   6.772   4.186   4.060
 1983SOL     OW 6847   0.932   0.298   1.011
 1983SOL    HW1 6848   0.922   0.342   1.101
 1983SOL    HW2 6849   0.903   0.202   1.018
 1984SOL     OW 6850   5.132   2.429   4.730
 1984SOL    HW1 6851   5.033   2.435   4.734
 1984SOL    HW2 6852   5.172   2.517   4.756
 1985SOL     OW 6853   6.501   5.261   1.847
 1985SOL    HW1 6854   6.588   5.292   1.886
 1985SOL    HW2 6855   6.490   5.163   1.863
 1986SOL     OW 6856   2.613   1.217   6.597
 1986SOL    HW1 6857   2.678   1.224   6.521
 1986SOL    HW2 6858   2.520   1.225   6.562
 1987SOL     OW 6859   2.057   1.019   3.867
 1987SOL    HW1 6860   1.962   1.013   3.896
 1987SOL    HW2 6861   2.062   1.011   3.767
 1988SOL     OW 6862   0.038   1.442   1.035
 1988SOL    HW1 6863   0.128   1.416   1.070
 1988SOL    HW2 6864   6.992   1.402   1.093
 1989SOL     OW 6865   2.907   6.058   4.656
 1989SOL    HW1 6866   2.971   6.030   4.584
 1989SOL    HW2 6867   2.813   6.046   4.624
 1990SOL     OW 6868   3.873   0.140   0.430
 1990SOL    HW1 6869   3.912   0.102   0.514
 1990SOL    HW2 6870   3.884   0.075   0.356
 1991SOL     OW 6871   2.835   5.023   0.172
 1991SOL    HW1 6872   2.761   5.056   0.113
 1991SOL    HW2 6873   2.826   5.064   0.263
 1992SOL     OW 6874   0.117   6.767   0.313
 1992SOL    HW1 6875   0.118   6.668   0.305
 1992SOL    HW2 6876   0.076   6.793   0.401
 1993SOL     OW 6877   2.674   2.262   4.478
 1993SOL    HW1 6878   2.621   2.183   4.508
 1993SOL    HW2 6879   2.614   2.341   4.468
 1994SOL     OW 6880   4.533   2.211   0.907
 1994SOL    HW1 6881   4.629   2.229   0.924
 1994SOL    HW2 6882   4.513   2.223   0.809
 1995SOL     OW 6883   5.856   2.714   4.387
 1995SOL    HW1 6884   5.800   2.743   4.309
 1995SOL    HW2 6885   5.914   2.790   4.416
 1996SOL     OW 6886   2.460   1.945   1.353
 1996SOL    HW1 6887   2.367   1.970   1.329
 1996SOL    HW2 6888   2.509   2.026   1.387
 1997SOL     OW 6889   3.669   1.433   4.188
 1997SOL    HW1 6890   3.570   1.429   4.205
 1997SOL    HW2 6891   3.687   1.494   4.110
 1998SOL     OW 6892   1.348   3.548   1.232
 1998SOL    HW1 6893   1.426   3.598   1.195
 1998SOL    HW2 6894   1.265   3.574   1.183
 1999SOL     OW 6895   0.121   1.081   4.814
 1999SOL    HW1 6896   0.187   1.051   4.745
 1999SOL    HW2 6897   0.082   1.170   4.787
 2000SOL     OW 6898   4.183   3.834   6.106
 2000SOL    HW1 6899   4.253   3.905   6.109
 2000SOL    HW2 6900   4.207   3.767   6.037
 2001SOL     OW 6901   1.333   1.735   6.944
 2001SOL    HW1 6902   1.304   1.640   6.960
 2001SOL    HW2 6903   1.389   1.766   7.022
 2002SOL     OW 6904   0.936   5.396   0.851
 2002SOL    HW1 6905   0.957   5.302   0.880
 2002SOL    HW2 6906   0.882   5.393   0.767
 2003SOL     OW 6907   6.221   5.146   2.111
 2003SOL    HW1 6908   6.259   5.226   2.158
 2003SOL    HW2 6909   6.232   5.157   2.012
 2004SOL     OW 6910   4.305   1.026   4.051
 2004SOL    HW1 6911   4.314   1.117   4.091
 2004SOL    HW2 6912   4.367   0.963   4.099
 2005SOL     OW 6913   6.742   6.030   0.114
 2005SOL    HW1 6914   6.643   6.047   0.117
 2005SOL    HW2 6915   6.765   5.979   0.032
 2006SOL     OW 6916   5.252   0.052   4.274
 2006SOL    HW1 6917   5.334   7.023   4.253
 2006SOL    HW2 6918   5.205   0.076   4.188
 2007SOL     OW 6919   4.944   4.221   1.516
 2007SOL    HW1 6920   4.881   4.144   1.510
 2007SOL    HW2 6921   4.998   4.213   1.600
 2008SOL     OW 6922   2.113   3.493   4.282
 2008SOL    HW1 6923   2.146   3.499   4.188
 2008SOL    HW2 6924   2.014   3.505   4.284
 2009SOL     OW 6925   5.401   6.101   1.870
 2009SOL    HW1 6926   5.361   6.116   1.779
 2009SOL    HW2 6927   5.330   6.105   1.939
 2010SOL     OW 6928   1.402   2.114   1.122
 2010SOL    HW1 6929   1.402   2.071   1.032
 2010SOL    HW2 6930   1.495   2.137   1.149
 2011SOL     OW 6931   0.006   7.013   5.748
 2011SOL    HW1 6932   0.005   6.999   5.847
 2011SOL    HW2 6933   0.099   7.002   5.714
 2012SOL     OW 6934   1.801   3.814   2.252
 2012SOL    HW1 6935   1.838   3.774   2.337
 2012SOL    HW2 6936   1.703   3.831   2.263
 2013SOL     OW 6937   0.076   2.998   3.187
 2013SOL    HW1 6938   0.004   3.065   3.169
 2013SOL    HW2 6939   0.165   3.037   3.164
 2014SOL     OW 6940   3.291   0.282   3.485
 2014SOL    HW1 6941   3.233   0.351   3.528
 2014SOL    HW2 6942   3.276   0.281   3.387
 2015SOL     OW 6943   3.803   0.484   1.086
 2015SOL    HW1 6944   3.815   0.582   1.100
 2015SOL    HW2 6945   3.738   0.468   1.012
 2016SOL     OW 6946   1.499   6.045   5.588
 2016SOL    HW1 6947   1.483   6.027   5.491
 2016SOL    HW2 6948   1.596   6.030   5.609
 2017SOL     OW 6949   4.195   0.289   3.519
 2017SOL    HW1 6950   4.164   0.264   3.611
 2017SOL    HW2 6951   4.295   0.291   3.518
 2018SOL     OW 6952   0.149   2.295   3.452
 2018SOL    HW1 6953   0.202   2.222   3.409
 2018SOL    HW2 6954   0.062   2.258   3.484
 2019SOL     OW 6955   6.463   4.715   6.730
 2019SOL    HW1 6956   6.495   4.622   6.714
 2019SOL    HW2 6957   6.393   4.738   6.663
 2020SOL     OW 6958   0.838   5.719   6.076
 2020SOL    HW1 6959   0.931   5.738   6.107
 2020SOL    HW2 6960   0.792   5.663   6.145
 2021SOL     OW 6961   6.571   6.384   3.429
 2021SOL    HW1 6962   6.542   6.411   3.337
 2021SOL    HW2 6963   6.496   6.337   3.475
 2022SOL     OW 6964   1.855   4.357   5.001
 2022SOL    HW1 6965   1.813   4.331   5.089
 2022SOL    HW2 6966   1.944   4.400   5.018
 2023SOL     OW 6967   6.879   6.728   6.773
 2023SOL    HW1 6968   6.861   6.819   6.735
 2023SOL    HW2 6969   6.814   6.662   6.733
 2024SOL     OW 6970   0.325   5.638   4.293
 2024SOL    HW1 6971   0.347   5.682   4.206
 2024SOL    HW2 6972   0.341   5.702   4.368
 2025SOL     OW 6973   3.048   0.817   3.729
 2025SOL    HW1 6974   3.011   0.838   3.820
 2025SOL    HW2 6975   3.141   0.852   3.722
 2026SOL     OW 6976   5.821   0.894   6.463
 2026SOL    HW1 6977   5.780   0.945   6.539
 2026SOL    HW2 6978   5.842   0.957   6.388
 2027SOL     OW 6979   0.939   6.001   1.933
 2027SOL    HW1 6980   0.874   5.962   1.998
 2027SOL    HW2 6981   1.029   5.958   1.945
 2028SOL     OW 6982   4.019   6.008   2.870
 2028SOL    HW1 6983   4.061   5.944   2.935
 2028SOL    HW2 6984   4.024   5.969   2.778
 2029SOL     OW 6985   7.005   1.835   0.078
 2029SOL    HW1 6986   6.997   1.930   0.046
 2029SOL    HW2 6987   6.915   1.792   0.077
 2030SOL     OW 6988   2.943   6.098   2.676
 2030SOL    HW1 6989   3.007   6.136   2.610
 2030SOL    HW2 6990   2.926   6.165   2.748
 2031SOL     OW 6991   0.284   5.703   2.473
 2031SOL    HW1 6992   0.347   5.743   2.540
 2031SOL    HW2 6993   0.214   5.649   2.521
 2032SOL     OW 6994   3.735   1.763   0.191
 2032SOL    HW1 6995   3.688   1.829   0.132
 2032SOL    HW2 6996   3.668   1.720   0.252
 2033SOL     OW 6997   1.305   0.972   0.211
 2033SOL    HW1 6998   1.235   0.926   0.265
 2033SOL    HW2 6999   1.264   1.047   0.160
 2034SOL     OW 7000   1.422   5.209   5.499
 2034SOL    HW1 7001   1.336   5.261   5.497
 2034SOL    HW2 7002   1.432   5.165   5.588
 2035SOL     OW 7003   7.006   6.974   1.630
 2035SOL    HW1 7004   0.028   6.886   1.614
 2035SOL    HW2 7005   6.929   6.960   1.692
 2036SOL     OW 7006   0.946   3.403   2.876
 2036SOL    HW1 7007   0.873   3.467   2.854
 2036SOL    HW2 7008   0.946   3.385   2.975
 2037SOL     OW 7009   6.991   3.120   6.051
 2037SOL    HW1 7010   6.981   3.088   6.146
 2037SOL    HW2 7011   6.991   3.220   6.050
 2038SOL     OW 7012   2.909   1.258   0.150
 2038SOL    HW1 7013   2.849   1.240   0.228
 2038SOL    HW2 7014   2.876   1.338   0.100
 2039SOL     OW 7015   0.268   5.870   2.249
 2039SOL    HW1 7016   0.271   5.816   2.333
 2039SOL    HW2 7017   0.263   5.809   2.170
 2040SOL     OW 7018   2.056   2.506   0.041
 2040SOL    HW1 7019   2.020   2.422   0.001
 2040SOL    HW2 7020   2.103   2.559   6.995
 2041SOL     OW 7021   2.104   6.638   5.557
 2041SOL    HW1 7022   2.089   6.672   5.650
 2041SOL    HW2 7023   2.053   6.552   5.545
 2042SOL     OW 7024   5.155   0.481   6.094
 2042SOL    HW1 7025   5.212   0.511   6.018
 2042SOL    HW2 7026   5.095   0.556   6.123
 2043SOL     OW 7027   6.604   2.662   1.412
 2043SOL    HW1 7028   6.582   2.582   1.357
 2043SOL    HW2 7029   6.702   2.661   1.433
 2044SOL     OW 7030   5.855   1.384   1.264
 2044SOL    HW1 7031   5.842   1.357   1.168
 2044SOL    HW2 7032   5.776   1.356   1.318
 2045SOL     OW 7033   1.568   5.400   5.743
 2045SOL    HW1 7034   1.643   5.455   5.780
 2045SOL    HW2 7035   1.597   5.305   5.732
 2046SOL     OW 7036   0.166   1.649   5.355
 2046SOL    HW1 7037   0.210   1.608   5.434
 2046SOL    HW2 7038   0.150   1.579   5.285
 2047SOL     OW 7039   6.322   2.521   0.533
 2047SOL    HW1 7040   6.229   2.515   0.569
 2047SOL    HW2 7041   6.359   2.613   0.550
 2048SOL     OW 7042   0.639   1.478   4.324
 2048SOL    HW1 7043   0.615   1.520   4.236
 2048SOL    HW2 7044   0.733   1.446   4.321
 2049SOL     OW 7045   4.479   1.260   4.623
 2049SOL    HW1 7046   4.541   1.314   4.680
 2049SOL    HW2 7047   4.397   1.313   4.604
 2050SOL     OW 7048   0.283   2.157   4.037
 2050SOL    HW1 7049   0.243   2.114   3.955
 2050SOL    HW2 7050   0.215   2.215   4.081
 2051SOL     OW 7051   2.657   6.428   0.444
 2051SOL    HW1 7052   2.735   6.404   0.387
 2051SOL    HW2 7053   2.630   6.350   0.500
 2052SOL     OW 7054   1.924   3.673   0.582
 2052SOL    HW1 7055   1.979   3.594   0.610
 2052SOL    HW2 7056   1.858   3.695   0.653
 2053SOL     OW 7057   1.083   5.091   4.458
 2053SOL    HW1 7058   1.162   5.035   4.432
 2053SOL    HW2 7059   1.111   5.160   4.524
 2054SOL     OW 7060   3.349   2.964   2.662
 2054SOL    HW1 7061   3.415   2.890   2.647
 2054SOL    HW2 7062   3.349   3.026   2.584
 2055SOL     OW 7063   0.446   2.373   4.779
 2055SOL    HW1 7064   0.545   2.385   4.785
 2055SOL    HW2 7065   0.425   2.275   4.777
 2056SOL     OW 7066   4.091   5.066   0.858
 2056SOL    HW1 7067   4.023   5.109   0.798
 2056SOL    HW2 7068   4.067   4.971   0.874
 2057SOL     OW 7069   5.867   2.442   4.380
 2057SOL    HW1 7070   5.842   2.419   4.474
 2057SOL    HW2 7071   5.859   2.541   4.367
 2058SOL     OW 7072   0.689   6.192   3.154
 2058SOL    HW1 7073   0.739   6.165   3.071
 2058SOL    HW2 7074   0.720   6.283   3.183
 2059SOL     OW 7075   2.482   0.470   5.411
 2059SOL    HW1 7076   2.484   0.427   5.502
 2059SOL    HW2 7077   2.463   0.401   5.342
 2060SOL     OW 7078   0.955   3.313   0.104
 2060SOL    HW1 7079   1.013   3.232   0.102
 2060SOL    HW2 7080   0.991   3.378   0.172
 2061SOL     OW 7081   1.927   2.757   2.391
 2061SOL    HW1 7082   1.931   2.720   2.484
 2061SOL    HW2 7083   1.942   2.855   2.393
 2062SOL     OW 7084   6.824   5.073   5.018
 2062SOL    HW1 7085   6.826   5.092   4.919
 2062SOL    HW2 7086   6.894   5.006   5.040
 2063SOL     OW 7087   1.300   6.772   5.399
 2063SOL    HW1 7088   1.249   6.845   5.445
 2063SOL    HW2 7089   1.253   6.684   5.414
 2064SOL     OW 7090   1.047   3.703   4.293
 2064SOL    HW1 7091   1.127   3.761   4.309
 2064SOL    HW2 7092   1.058   3.617   4.344
 2065SOL     OW 7093   5.410   2.803   5.225
 2065SOL    HW1 7094   5.379   2.711   5.250
 2065SOL    HW2 7095   5.369   2.830   5.138
 2066SOL     OW 7096   5.932   3.681   5.594
 2066SOL    HW1 7097   5.838   3.651   5.578
 2066SOL    HW2 7098   5.946   3.698   5.692
 2067SOL     OW 7099   6.582   4.864   1.568
 2067SOL    HW1 7100   6.519   4.787   1.571
 2067SOL    HW2 7101   6.536   4.946   1.602
 2068SOL     OW 7102   3.944   1.099   4.165
 2068SOL    HW1 7103   3.998   1.183   4.164
 2068SOL    HW2 7104   3.988   1.030   4.109
 2069SOL     OW 7105   6.951   1.596   4.321
 2069SOL    HW1 7106   7.017   1.654   4.272
 2069SOL    HW2 7107   6.936   1.512   4.270
 2070SOL     OW 7108   1.383   2.995   1.523
 2070SOL    HW1 7109   1.472   2.949   1.517
 2070SOL    HW2 7110   1.379   3.047   1.608
 2071SOL     OW 7111   6.324   1.298   6.001
 2071SOL    HW1 7112   6.291   1.372   6.060
 2071SOL    HW2 7113   6.338   1.333   5.908
 2072SOL     OW 7114   4.069   4.838   5.286
 2072SOL    HW1 7115   4.102   4.751   5.322
 2072SOL    HW2 7116   3.998   4.874   5.346
 2073SOL     OW 7117   3.755   6.113   6.843
 2073SOL    HW1 7118   3.677   6.073   6.891
 2073SOL    HW2 7119   3.779   6.055   6.765
 2074SOL     OW 7120   1.902   3.575   5.744
 2074SOL    HW1 7121   1.818   3.559   5.795
 2074SOL    HW2 7122   1.898   3.529   5.656
 2075SOL     OW 7123   6.816   2.499   2.176
 2075SOL    HW1 7124   6.788   2.418   2.228
 2075SOL    HW2 7125   6.899   2.538   2.217
 2076SOL     OW 7126   5.704   0.248   4.965
 2076SOL    HW1 7127   5.755   0.251   5.051
 2076SOL    HW2 7128   5.657   0.336   4.953
 2077SOL     OW 7129   0.688   2.818   1.492
 2077SOL    HW1 7130   0.732   2.809   1.402
 2077SOL    HW2 7131   0.598   2.774   1.490
 2078SOL     OW 7132   1.864   5.036   5.902
 2078SOL    HW1 7133   1.793   5.063   5.968
 2078SOL    HW2 7134   1.907   4.952   5.933
 2079SOL     OW 7135   5.137   1.226   2.028
 2079SOL    HW1 7136   5.109   1.233   2.124
 2079SOL    HW2 7137   5.128   1.316   1.984
 2080SOL     OW 7138   2.900   2.311   4.641
 2080SOL    HW1 7139   2.831   2.268   4.584
 2080SOL    HW2 7140   2.867   2.400   4.672
 2081SOL     OW 7141   0.292   6.673   3.116
 2081SOL    HW1 7142   0.353   6.728   3.173
 2081SOL    HW2 7143   0.280   6.583   3.157
 2082SOL     OW 7144   0.778   6.445   2.104
 2082SOL    HW1 7145   0.747   6.359   2.065
 2082SOL    HW2 7146   0.699   6.502   2.128
 2083SOL     OW 7147   0.279   6.186   3.616
 2083SOL    HW1 7148   0.188   6.201   3.652
 2083SOL    HW2 7149   0.279   6.104   3.558
 2084SOL     OW 7150   1.260   1.409   1.258
 2084SOL    HW1 7151   1.326   1.357   1.312
 2084SOL    HW2 7152   1.182   1.434   1.316
 2085SOL     OW 7153   5.111   5.953   0.270
 2085SOL    HW1 7154   5.066   5.925   0.355
 2085SOL    HW2 7155   5.084   6.046   0.246
 2086SOL     OW 7156   3.900   6.954   0.262
 2086SOL    HW1 7157   3.870   6.905   0.344
 2086SOL    HW2 7158   3.830   6.946   0.191
 2087SOL     OW 7159   4.226   2.085   6.836
 2087SOL    HW1 7160   4.152   2.076   6.903
 2087SOL    HW2 7161   4.248   1.995   6.798
 2088SOL     OW 7162   0.222   5.892   5.726
 2088SOL    HW1 7163   0.203   5.890   5.627
 2088SOL    HW2 7164   0.257   5.982   5.751
 2089SOL     OW 7165   4.040   2.948   5.300
 2089SOL    HW1 7166   4.133   2.952   5.263
 2089SOL    HW2 7167   4.043   2.953   5.399
 2090SOL     OW 7168   4.613   3.376   5.358
 2090SOL    HW1 7169   4.614   3.451   5.292
 2090SOL    HW2 7170   4.657   3.407   5.443
 2091SOL     OW 7171   6.440   5.860   1.668
 2091SOL    HW1 7172   6.451   5.910   1.582
 2091SOL    HW2 7173   6.344   5.859   1.695
 2092SOL     OW 7174   4.561   4.064   1.246
 2092SOL    HW1 7175   4.567   3.996   1.320
 2092SOL    HW2 7176   4.496   4.032   1.177
 2093SOL     OW 7177   3.990   1.969   2.247
 2093SOL    HW1 7178   3.946   1.979   2.336
 2093SOL    HW2 7179   3.960   2.043   2.187
 2094SOL     OW 7180   5.861   3.040   0.106
 2094SOL    HW1 7181   5.800   3.024   0.184
 2094SOL    HW2 7182   5.956   3.026   0.134
 2095SOL     OW 7183   5.846   6.373   4.026
 2095SOL    HW1 7184   5.823   6.296   4.085
 2095SOL    HW2 7185   5.762   6.416   3.994
 2096SOL     OW 7186   4.611   6.378   2.170
 2096SOL    HW1 7187   4.572   6.387   2.262
 2096SOL    HW2 7188   4.666   6.294   2.166
 2097SOL     OW 7189   1.850   4.752   6.636
 2097SOL    HW1 7190   1.788   4.706   6.572
 2097SOL    HW2 7191   1.797   4.798   6.706
 2098SOL     OW 7192   4.154   6.027   3.212
 2098SOL    HW1 7193   4.142   5.945   3.156
 2098SOL    HW2 7194   4.134   6.006   3.307
 2099SOL     OW 7195   4.588   1.649   6.997
 2099SOL    HW1 7196   4.650   1.571   6.997
 2099SOL    HW2 7197   4.534   1.650   6.913
 2100SOL     OW 7198   5.476   0.955   0.459
 2100SOL    HW1 7199   5.487   1.005   0.373
 2100SOL    HW2 7200   5.494   0.858   0.443
 2101SOL     OW 7201   6.996   6.286   1.169
 2101SOL    HW1 7202   6.911   6.334   1.192
 2101SOL    HW2 7203   0.021   6.264   1.253
 2102SOL     OW 7204   3.897   3.087   1.424
 2102SOL    HW1 7205   3.986   3.114   1.459
 2102SOL    HW2 7206   3.888   2.987   1.426
 2103SOL     OW 7207   3.253   5.152   0.074
 2103SOL    HW1 7208   3.295   5.079   0.128
 2103SOL    HW2 7209   3.324   5.203   0.027
 2104SOL     OW 7210   1.623   5.021   2.902
 2104SOL    HW1 7211   1.543   5.023   2.841
 2104SOL    HW2 7212   1.665   5.112   2.904
 2105SOL     OW 7213   5.309   4.597   0.218
 2105SOL    HW1 7214   5.344   4.504   0.230
 2105SOL    HW2 7215   5.346   4.656   0.290
 2106SOL     OW 7216   4.942   3.524   1.565
 2106SOL    HW1 7217   4.972   3.619   1.566
 2106SOL    HW2 7218   4.977   3.477   1.646
 2107SOL     OW 7219   5.091   3.744   6.100
 2107SOL    HW1 7220   4.998   3.780   6.113
 2107SOL    HW2 7221   5.088   3.670   6.032
 2108SOL     OW 7222   5.528   6.894   6.027
 2108SOL    HW1 7223   5.503   6.855   5.938
 2108SOL    HW2 7224   5.567   6.985   6.014
 2109SOL     OW 7225   3.049   5.617   2.658
 2109SOL    HW1 7226   2.959   5.597   2.620
 2109SOL    HW2 7227   3.041   5.633   2.756
 2110SOL     OW 7228   3.617   0.596   6.728
 2110SOL    HW1 7229   3.690   0.637   6.781
 2110SOL    HW2 7230   3.648   0.509   6.689
 2111SOL     OW 7231   1.063   2.881   5.856
 2111SOL    HW1 7232   1.070   2.970   5.901
 2111SOL    HW2 7233   1.106   2.885   5.766
 2112SOL     OW 7234   6.594   0.964   0.304
 2112SOL    HW1 7235   6.574   0.867   0.291
 2112SOL    HW2 7236   6.686   0.974   0.341
 2113SOL     OW 7237   1.783   6.787   4.507
 2113SOL    HW1 7238   1.735   6.774   4.420
 2113SOL    HW2 7239   1.752   6.718   4.573
 2114SOL     OW 7240   1.934   2.405   6.709
 2114SOL    HW1 7241   1.879   2.333   6.751
 2114SOL    HW2 7242   1.973   2.463   6.781
 2115SOL     OW 7243   0.630   4.915   2.710
 2115SOL    HW1 7244   0.627   4.978   2.787
 2115SOL    HW2 7245   0.709   4.854   2.720
 2116SOL     OW 7246   1.128   2.146   0.064
 2116SOL    HW1 7247   1.145   2.062   0.014
 2116SOL    HW2 7248   1.200   2.162   0.130
 2117SOL     OW 7249   5.608   2.373   2.596
 2117SOL    HW1 7250   5.541   2.314   2.551
 2117SOL    HW2 7251   5.642   2.442   2.532
 2118SOL     OW 7252   6.613   3.631   2.431
 2118SOL    HW1 7253   6.699   3.580   2.430
 2118SOL    HW2 7254   6.576   3.631   2.524
 2119SOL     OW 7255   2.369   0.775   6.491
 2119SOL    HW1 7256   2.398   0.825   6.410
 2119SOL    HW2 7257   2.430   0.697   6.505
 2120SOL     OW 7258   6.580   2.121   1.847
 2120SOL    HW1 7259   6.548   2.214   1.829
 2120SOL    HW2 7260   6.639   2.121   1.928
 2121SOL     OW 7261   1.746   1.384   5.931
 2121SOL    HW1 7262   1.788   1.363   5.843
 2121SOL    HW2 7263   1.647   1.394   5.919
 2122SOL     OW 7264   5.974   0.442   5.435
 2122SOL    HW1 7265   5.906   0.378   5.472
 2122SOL    HW2 7266   6.058   0.392   5.413
 2123SOL     OW 7267   0.246   5.806   3.060
 2123SOL    HW1 7268   0.333   5.819   3.108
 2123SOL    HW2 7269   0.207   5.895   3.037
 2124SOL     OW 7270   3.621   2.867   5.570
 2124SOL    HW1 7271   3.586   2.952   5.531
 2124SOL    HW2 7272   3.575   2.848   5.656
 2125SOL     OW 7273   1.772   5.635   3.692
 2125SOL    HW1 7274   1.769   5.648   3.593
 2125SOL    HW2 7275   1.803   5.720   3.735
 2126SOL     OW 7276   3.584   3.469   0.309
 2126SOL    HW1 7277   3.501   3.436   0.354
 2126SOL    HW2 7278   3.664   3.442   0.363
 2127SOL     OW 7279   0.076   3.038   5.822
 2127SOL    HW1 7280   0.022   3.052   5.905
 2127SOL    HW2 7281   0.170   3.067   5.838
 2128SOL     OW 7282   5.121   3.970   1.015
 2128SOL    HW1 7283   5.082   3.906   1.081
 2128SOL    HW2 7284   5.155   3.919   0.936
 2129SOL     OW 7285   5.078   3.907   3.729
 2129SOL    HW1 7286   5.078   3.807   3.734
 2129SOL    HW2 7287   5.171   3.940   3.714
 2130SOL     OW 7288   1.977   1.386   2.104
 2130SOL    HW1 7289   1.891   1.338   2.090
 2130SOL    HW2 7290   2.038   1.368   2.027
 2131SOL     OW 7291   5.546   1.738   6.110
 2131SOL    HW1 7292   5.490   1.658   6.132
 2131SOL    HW2 7293   5.592   1.770   6.192
 2132SOL     OW 7294   2.487   1.484   6.757
 2132SOL    HW1 7295   2.407   1.429   6.736
 2132SOL    HW2 7296   2.544   1.493   6.675
 2133SOL     OW 7297   2.157   1.787   1.772
 2133SOL    HW1 7298   2.114   1.767   1.684
 2133SOL    HW2 7299   2.244   1.833   1.756
 2134SOL     OW 7300   0.357   6.580   4.322
 2134SOL    HW1 7301   0.391   6.618   4.236
 2134SOL    HW2 7302   0.274   6.527   4.304
 2135SOL     OW 7303   0.765   1.037   3.485
 2135SOL    HW1 7304   0.681   1.015   3.437
 2135SOL    HW2 7305   0.754   1.123   3.534
 2136SOL     OW 7306   0.786   3.756   4.600
 2136SOL    HW1 7307   0.798   3.661   4.628
 2136SOL    HW2 7308   0.862   3.811   4.635
 2137SOL     OW 7309   1.200   6.485   5.414
 2137SOL    HW1 7310   1.263   6.429   5.469
 2137SOL    HW2 7311   1.108   6.446   5.419
 2138SOL     OW 7312   6.703   2.947   0.704
 2138SOL    HW1 7313   6.792   2.984   0.728
 2138SOL    HW2 7314   6.674   2.881   0.774
 2139SOL     OW 7315   2.793   0.855   4.481
 2139SOL    HW1 7316   2.700   0.889   4.498
 2139SOL    HW2 7317   2.853   0.883   4.556
 2140SOL     OW 7318   2.553   6.278   3.370
 2140SOL    HW1 7319   2.578   6.304   3.464
 2140SOL    HW2 7320   2.467   6.228   3.371
 2141SOL     OW 7321   6.196   2.702   1.387
 2141SOL    HW1 7322   6.230   2.796   1.387
 2141SOL    HW2 7323   6.200   2.664   1.479
 2142SOL     OW 7324   1.281   1.998   3.648
 2142SOL    HW1 7325   1.272   1.905   3.683
 2142SOL    HW2 7326   1.248   2.002   3.554
 2143SOL     OW 7327   3.718   6.631   1.578
 2143SOL    HW1 7328   3.804   6.651   1.625
 2143SOL    HW2 7329   3.648   6.697   1.605
 2144SOL     OW 7330   1.321   0.216   3.080
 2144SOL    HW1 7331   1.274   0.273   3.013
 2144SOL    HW2 7332   1.420   0.225   3.068
 2145SOL     OW 7333   3.276   5.619   3.954
 2145SOL    HW1 7334   3.229   5.671   4.026
 2145SOL    HW2 7335   3.346   5.562   3.996
 2146SOL     OW 7336   2.946   3.164   2.437
 2146SOL    HW1 7337   2.941   3.225   2.357
 2146SOL    HW2 7338   2.949   3.069   2.406
 2147SOL     OW 7339   0.628   1.862   6.419
 2147SOL    HW1 7340   0.662   1.834   6.329
 2147SOL    HW2 7341   0.585   1.952   6.412
 2148SOL     OW 7342   5.031   3.638   3.846
 2148SOL    HW1 7343   4.984   3.559   3.806
 2148SOL    HW2 7344   5.115   3.607   3.892
 2149SOL     OW 7345   3.978   1.055   2.422
 2149SOL    HW1 7346   3.920   0.986   2.378
 2149SOL    HW2 7347   4.074   1.026   2.415
 2150SOL     OW 7348   3.855   1.767   3.182
 2150SOL    HW1 7349   3.762   1.786   3.152
 2150SOL    HW2 7350   3.865   1.669   3.199
 2151SOL     OW 7351   3.856   2.184   6.119
 2151SOL    HW1 7352   3.844   2.276   6.080
 2151SOL    HW2 7353   3.766   2.146   6.142
 2152SOL     OW 7354   5.873   6.552   1.917
 2152SOL    HW1 7355   5.944   6.601   1.866
 2152SOL    HW2 7356   5.853   6.600   2.002
 2153SOL     OW 7357   4.715   1.717   3.981
 2153SOL    HW1 7358   4.635   1.677   3.937
 2153SOL    HW2 7359   4.788   1.729   3.913
 2154SOL     OW 7360   3.252   5.496   4.816
 2154SOL    HW1 7361   3.190   5.450   4.880
 2154SOL    HW2 7362   3.337   5.444   4.809
 2155SOL     OW 7363   1.869   4.549   0.349
 2155SOL    HW1 7364   1.864   4.454   0.318
 2155SOL    HW2 7365   1.965   4.579   0.350
 2156SOL     OW 7366   1.393   0.303   2.058
 2156SOL    HW1 7367   1.441   0.274   2.141
 2156SOL    HW2 7368   1.375   0.401   2.062
 2157SOL     OW 7369   6.752   1.399   5.238
 2157SOL    HW1 7370   6.785   1.449   5.317
 2157SOL    HW2 7371   6.763   1.455   5.156
 2158SOL     OW 7372   3.982   0.175   1.358
 2158SOL    HW1 7373   3.890   0.168   1.319
 2158SOL    HW2 7374   4.042   0.224   1.295
 2159SOL     OW 7375   1.634   6.971   4.681
 2159SOL    HW1 7376   1.619   6.914   4.762
 2159SOL    HW2 7377   1.707   6.932   4.626
 2160SOL     OW 7378   3.503   4.126   1.039
 2160SOL    HW1 7379   3.464   4.055   0.981
 2160SOL    HW2 7380   3.546   4.196   0.982
 2161SOL     OW 7381   4.896   3.486   3.456
 2161SOL    HW1 7382   4.978   3.433   3.479
 2161SOL    HW2 7383   4.921   3.581   3.441
 2162SOL     OW 7384   2.139   0.671   6.554
 2162SOL    HW1 7385   2.102   0.760   6.583
 2162SOL    HW2 7386   2.231   0.684   6.518
 2163SOL     OW 7387   1.638   7.022   7.002
 2163SOL    HW1 7388   1.588   6.951   0.026
 2163SOL    HW2 7389   1.647   0.078   0.036
 2164SOL     OW 7390   2.003   0.595   6.138
 2164SOL    HW1 7391   1.926   0.657   6.153
 2164SOL    HW2 7392   2.083   0.628   6.188
 2165SOL     OW 7393   1.040   0.507   2.554
 2165SOL    HW1 7394   0.963   0.465   2.506
 2165SOL    HW2 7395   1.126   0.472   2.518
 2166SOL     OW 7396   1.545   2.338   4.930
 2166SOL    HW1 7397   1.581   2.314   4.840
 2166SOL    HW2 7398   1.466   2.280   4.951
 2167SOL     OW 7399   2.514   0.714   2.277
 2167SOL    HW1 7400   2.455   0.735   2.200
 2167SOL    HW2 7401   2.599   0.767   2.269
 2168SOL     OW 7402   5.839   3.479   4.420
 2168SOL    HW1 7403   5.922   3.516   4.461
 2168SOL    HW2 7404   5.862   3.433   4.334
 2169SOL     OW 7405   5.481   2.874   5.716
 2169SOL    HW1 7406   5.566   2.833   5.751
 2169SOL    HW2 7407   5.426   2.804   5.673
 2170SOL     OW 7408   4.691   4.976   5.335
 2170SOL    HW1 7409   4.670   4.972   5.432
 2170SOL    HW2 7410   4.669   4.888   5.293
 2171SOL     OW 7411   6.526   3.652   0.002
 2171SOL    HW1 7412   6.554   3.745   0.027
 2171SOL    HW2 7413   6.447   3.626   0.057
 2172SOL     OW 7414   3.359   1.141   0.539
 2172SOL    HW1 7415   3.343   1.223   0.594
 2172SOL    HW2 7416   3.273   1.114   0.494
 2173SOL     OW 7417   4.113   0.630   5.857
 2173SOL    HW1 7418   4.169   0.640   5.939
 2173SOL    HW2 7419   4.122   0.536   5.822
 2174SOL     OW 7420   6.455   4.369   4.285
 2174SOL    HW1 7421   6.368   4.336   4.249
 2174SOL    HW2 7422   6.493   4.302   4.349
 2175SOL     OW 7423   2.609   0.352   3.785
 2175SOL    HW1 7424   2.668   0.379   3.709
 2175SOL    HW2 7425   2.524   0.405   3.780
 2176SOL     OW 7426   2.101   2.356   2.850
 2176SOL    HW1 7427   2.088   2.343   2.751
 2176SOL    HW2 7428   2.179   2.302   2.880
 2177SOL     OW 7429   6.831   2.085   1.145
 2177SOL    HW1 7430   6.826   2.128   1.055
 2177SOL    HW2 7431   6.907   2.020   1.146
 2178SOL     OW 7432   0.851   5.015   0.411
 2178SOL    HW1 7433   0.773   5.043   0.355
 2178SOL    HW2 7434   0.850   4.916   0.423
 2179SOL     OW 7435   1.263   5.451   4.422
 2179SOL    HW1 7436   1.302   5.543   4.426
 2179SOL    HW2 7437   1.318   5.393   4.361
 2180SOL     OW 7438   2.940   3.662   2.656
 2180SOL    HW1 7439   3.012   3.600   2.687
 2180SOL    HW2 7440   2.928   3.735   2.723
 2181SOL     OW 7441   4.852   5.756   5.858
 2181SOL    HW1 7442   4.935   5.730   5.809
 2181SOL    HW2 7443   4.867   5.747   5.956
 2182SOL     OW 7444   6.902   4.126   6.293
 2182SOL    HW1 7445   6.991   4.102   6.252
 2182SOL    HW2 7446   6.843   4.166   6.223
 2183SOL     OW 7447   3.223   2.911   0.598
 2183SOL    HW1 7448   3.239   2.896   0.695
 2183SOL    HW2 7449   3.163   2.838   0.563
 2184SOL     OW 7450   3.722   1.696   6.239
 2184SOL    HW1 7451   3.682   1.612   6.203
 2184SOL    HW2 7452   3.677   1.776   6.199
 2185SOL     OW 7453   1.496   0.397   0.504
 2185SOL    HW1 7454   1.499   0.430   0.409
 2185SOL    HW2 7455   1.434   0.456   0.557
 2186SOL     OW 7456   0.142   5.021   2.948
 2186SOL    HW1 7457   0.147   5.097   2.882
 2186SOL    HW2 7458   0.078   4.953   2.915
 2187SOL     OW 7459   6.302   1.867   0.647
 2187SOL    HW1 7460   6.215   1.820   0.659
 2187SOL    HW2 7461   6.294   1.932   0.571
 2188SOL     OW 7462   5.476   6.369   3.223
 2188SOL    HW1 7463   5.430   6.290   3.265
 2188SOL    HW2 7464   5.408   6.430   3.183
 2189SOL     OW 7465   2.279   0.311   5.852
 2189SOL    HW1 7466   2.371   0.273   5.844
 2189SOL    HW2 7467   2.255   0.358   5.767
 2190SOL     OW 7468   6.665   2.308   1.266
 2190SOL    HW1 7469   6.746   2.255   1.239
 2190SOL    HW2 7470   6.669   2.327   1.364
 2191SOL     OW 7471   3.655   2.904   6.322
 2191SOL    HW1 7472   3.582   2.836   6.315
 2191SOL    HW2 7473   3.615   2.996   6.323
 2192SOL     OW 7474   4.200   5.876   5.002
 2192SOL    HW1 7475   4.281   5.818   5.012
 2192SOL    HW2 7476   4.124   5.835   5.053
 2193SOL     OW 7477   0.984   5.141   5.666
 2193SOL    HW1 7478   0.932   5.164   5.584
 2193SOL    HW2 7479   0.929   5.082   5.725
 2194SOL     OW 7480   2.433   6.299   0.969
 2194SOL    HW1 7481   2.334   6.297   0.969
 2194SOL    HW2 7482   2.465   6.385   0.929
 2195SOL     OW 7483   1.400   5.622   2.691
 2195SOL    HW1 7484   1.427   5.533   2.727
 2195SOL    HW2 7485   1.439   5.634   2.599
 2196SOL     OW 7486   3.404   1.611   6.046
 2196SOL    HW1 7487   3.465   1.540   6.082
 2196SOL    HW2 7488   3.423   1.698   6.092
 2197SOL     OW 7489   5.128   4.836   1.640
 2197SOL    HW1 7490   5.074   4.886   1.707
 2197SOL    HW2 7491   5.079   4.753   1.613
 2198SOL     OW 7492   6.934   4.382   0.411
 2198SOL    HW1 7493   6.986   4.466   0.392
 2198SOL    HW2 7494   6.969   4.341   0.495
 2199SOL     OW 7495   4.716   7.013   0.788
 2199SOL    HW1 7496   4.727   6.917   0.764
 2199SOL    HW2 7497   4.806   0.029   0.805
 2200SOL     OW 7498   3.999   0.785   4.877
 2200SOL    HW1 7499   3.996   0.869   4.931
 2200SOL    HW2 7500   4.046   0.801   4.791
 2201SOL     OW 7501   6.349   3.417   2.541
 2201SOL    HW1 7502   6.366   3.334   2.488
 2201SOL    HW2 7503   6.278   3.399   2.609
 2202SOL     OW 7504   4.051   5.498   4.005
 2202SOL    HW1 7505   4.149   5.511   4.016
 2202SOL    HW2 7506   4.022   5.417   4.055
 2203SOL     OW 7507   3.604   2.101   2.979
 2203SOL    HW1 7508   3.507   2.099   2.955
 2203SOL    HW2 7509   3.632   2.013   3.016
 2204SOL     OW 7510   2.987   2.305   0.657
 2204SOL    HW1 7511   3.079   2.269   0.667
 2204SOL    HW2 7512   2.988   2.381   0.592
 2205SOL     OW 7513   2.618   6.645   0.614
 2205SOL    HW1 7514   2.646   6.572   0.551
 2205SOL    HW2 7515   2.520   6.641   0.629
 2206SOL     OW 7516   3.055   3.067   0.014
 2206SOL    HW1 7517   3.053   3.113   0.103
 2206SOL    HW2 7518   2.973   3.012   0.003
 2207SOL     OW 7519   1.684   4.713   6.420
 2207SOL    HW1 7520   1.617   4.640   6.404
 2207SOL    HW2 7521   1.647   4.800   6.387
 2208SOL     OW 7522   0.561   3.927   2.101
 2208SOL    HW1 7523   0.558   3.834   2.136
 2208SOL    HW2 7524   0.646   3.940   2.049
 2209SOL     OW 7525   0.769   5.585   6.322
 2209SOL    HW1 7526   0.798   5.630   6.406
 2209SOL    HW2 7527   0.694   5.523   6.342
 2210SOL     OW 7528   1.457   5.440   3.449
 2210SOL    HW1 7529   1.388   5.506   3.420
 2210SOL    HW2 7530   1.467   5.369   3.379
 2211SOL     OW 7531   5.990   1.291   5.453
 2211SOL    HW1 7532   5.896   1.258   5.441
 2211SOL    HW2 7533   5.998   1.383   5.415
 2212SOL     OW 7534   1.077   0.308   5.885
 2212SOL    HW1 7535   1.001   0.361   5.848
 2212SOL    HW2 7536   1.059   0.211   5.871
 2213SOL     OW 7537   4.124   2.271   3.492
 2213SOL    HW1 7538   4.108   2.230   3.402
 2213SOL    HW2 7539   4.109   2.201   3.562
 2214SOL     OW 7540   5.524   0.033   4.927
 2214SOL    HW1 7541   5.436   0.048   4.882
 2214SOL    HW2 7542   5.585   0.110   4.907
 2215SOL     OW 7543   6.703   2.038   5.346
 2215SOL    HW1 7544   6.730   1.996   5.259
 2215SOL    HW2 7545   6.626   2.100   5.330
 2216SOL     OW 7546   1.134   6.704   0.967
 2216SOL    HW1 7547   1.102   6.776   1.028
 2216SOL    HW2 7548   1.085   6.710   0.880
 2217SOL     OW 7549   4.412   0.019   1.445
 2217SOL    HW1 7550   4.360   0.104   1.440
 2217SOL    HW2 7551   4.493   0.033   1.501
 2218SOL     OW 7552   0.649   5.901   6.612
 2218SOL    HW1 7553   0.661   5.920   6.515
 2218SOL    HW2 7554   0.712   5.958   6.665
 2219SOL     OW 7555   2.022   3.860   3.053
 2219SOL    HW1 7556   1.964   3.794   3.005
 2219SOL    HW2 7557   2.080   3.811   3.118
 2220SOL     OW 7558   0.231   1.451   5.536
 2220SOL    HW1 7559   0.190   1.403   5.458
 2220SOL    HW2 7560   0.309   1.399   5.569
 2221SOL     OW 7561   6.525   2.340   1.561
 2221SOL    HW1 7562   6.510   2.389   1.647
 2221SOL    HW2 7563   6.440   2.338   1.509
 2222SOL     OW 7564   4.662   6.669   2.163
 2222SOL    HW1 7565   4.710   6.681   2.076
 2222SOL    HW2 7566   4.606   6.586   2.159
 2223SOL     OW 7567   5.881   5.181   3.720
 2223SOL    HW1 7568   5.914   5.181   3.814
 2223SOL    HW2 7569   5.929   5.252   3.667
 2224SOL     OW 7570   2.213   4.691   1.695
 2224SOL    HW1 7571   2.117   4.705   1.720
 2224SOL    HW2 7572   2.223   4.697   1.596
 2225SOL     OW 7573   6.376   4.990   2.292
 2225SOL    HW1 7574   6.335   5.020   2.205
 2225SOL    HW2 7575   6.366   4.890   2.301
 2226SOL     OW 7576   3.833   3.244   1.213
 2226SOL    HW1 7577   3.850   3.201   1.301
 2226SOL    HW2 7578   3.921   3.271   1.171
 2227SOL     OW 7579   6.733   3.802   5.608
 2227SOL    HW1 7580   6.787   3.856   5.543
 2227SOL    HW2 7581   6.729   3.707   5.578
 2228SOL     OW 7582   3.215   4.973   6.317
 2228SOL    HW1 7583   3.180   4.888   6.278
 2228SOL    HW2 7584   3.145   5.044   6.312
 2229SOL     OW 7585   4.234   1.051   3.470
 2229SOL    HW1 7586   4.138   1.060   3.498
 2229SOL    HW2 7587   4.240   1.057   3.371
 2230SOL     OW 7588   0.646   5.907   5.366
 2230SOL    HW1 7589   0.626   5.838   5.436
 2230SOL    HW2 7590   0.745   5.910   5.351
 2231SOL     OW 7591   1.991   6.926   1.817
 2231SOL    HW1 7592   1.991   6.894   1.722
 2231SOL    HW2 7593   2.066   6.884   1.867
 2232SOL     OW 7594   6.396   2.788   2.448
 2232SOL    HW1 7595   6.364   2.727   2.521
 2232SOL    HW2 7596   6.479   2.750   2.407
 2233SOL     OW 7597   3.487   6.482   0.366
 2233SOL    HW1 7598   3.508   6.414   0.436
 2233SOL    HW2 7599   3.389   6.478   0.343
 2234SOL     OW 7600   3.541   1.491   0.847
 2234SOL    HW1 7601   3.455   1.446   0.824
 2234SOL    HW2 7602   3.526   1.589   0.858
 2235SOL     OW 7603   0.734   6.793   0.677
 2235SOL    HW1 7604   0.698   6.785   0.584
 2235SOL    HW2 7605   0.659   6.787   0.743
 2236SOL     OW 7606   1.020   4.428   1.355
 2236SOL    HW1 7607   0.966   4.376   1.422
 2236SOL    HW2 7608   1.064   4.364   1.292
 2237SOL     OW 7609   6.319   3.153   4.837
 2237SOL    HW1 7610   6.281   3.222   4.775
 2237SOL    HW2 7611   6.274   3.160   4.926
 2238SOL     OW 7612   0.787   5.865   2.126
 2238SOL    HW1 7613   0.777   5.927   2.204
 2238SOL    HW2 7614   0.703   5.813   2.113
 2239SOL     OW 7615   4.364   5.303   3.167
 2239SOL    HW1 7616   4.371   5.394   3.207
 2239SOL    HW2 7617   4.276   5.262   3.192
 2240SOL     OW 7618   6.162   4.890   2.900
 2240SOL    HW1 7619   6.087   4.943   2.858
 2240SOL    HW2 7620   6.161   4.797   2.864
 2241SOL     OW 7621   0.035   6.710   1.650
 2241SOL    HW1 7622   0.041   6.739   1.745
 2241SOL    HW2 7623   7.004   6.626   1.644
 2242SOL     OW 7624   4.790   1.665   3.195
 2242SOL    HW1 7625   4.730   1.632   3.268
 2242SOL    HW2 7626   4.876   1.697   3.234
 2243SOL     OW 7627   2.604   5.978   5.158
 2243SOL    HW1 7628   2.563   6.039   5.090
 2243SOL    HW2 7629   2.532   5.937   5.214
 2244SOL     OW 7630   2.471   0.350   4.552
 2244SOL    HW1 7631   2.447   0.441   4.520
 2244SOL    HW2 7632   2.453   0.283   4.480
 2245SOL     OW 7633   0.963   1.469   2.621
 2245SOL    HW1 7634   0.918   1.421   2.546
 2245SOL    HW2 7635   0.948   1.418   2.706
 2246SOL     OW 7636   0.829   3.972   6.236
 2246SOL    HW1 7637   0.913   4.022   6.257
 2246SOL    HW2 7638   0.849   3.902   6.167
 2247SOL     OW 7639   2.337   3.021   6.346
 2247SOL    HW1 7640   2.381   3.102   6.307
 2247SOL    HW2 7641   2.281   3.047   6.424
 2248SOL     OW 7642   4.715   3.628   5.873
 2248SOL    HW1 7643   4.665   3.704   5.914
 2248SOL    HW2 7644   4.783   3.663   5.810
 2249SOL     OW 7645   5.401   5.704   3.241
 2249SOL    HW1 7646   5.358   5.690   3.330
 2249SOL    HW2 7647   5.383   5.625   3.182
 2250SOL     OW 7648   6.520   4.156   1.147
 2250SOL    HW1 7649   6.439   4.099   1.160
 2250SOL    HW2 7650   6.580   4.114   1.079
 2251SOL     OW 7651   5.741   1.010   0.323
 2251SOL    HW1 7652   5.692   1.001   0.236
 2251SOL    HW2 7653   5.833   0.972   0.313
 2252SOL     OW 7654   5.377   2.513   5.307
 2252SOL    HW1 7655   5.387   2.506   5.406
 2252SOL    HW2 7656   5.285   2.485   5.280
 2253SOL     OW 7657   2.720   2.976   0.252
 2253SOL    HW1 7658   2.653   3.048   0.236
 2253SOL    HW2 7659   2.759   2.946   0.164
 2254SOL     OW 7660   2.380   3.883   6.331
 2254SOL    HW1 7661   2.285   3.874   6.302
 2254SOL    HW2 7662   2.435   3.918   6.255
 2255SOL     OW 7663   5.820   2.649   1.554
 2255SOL    HW1 7664   5.826   2.549   1.545
 2255SOL    HW2 7665   5.728   2.674   1.581
 2256SOL     OW 7666   4.249   4.627   2.165
 2256SOL    HW1 7667   4.187   4.597   2.092
 2256SOL    HW2 7668   4.343   4.609   2.138
 2257SOL     OW 7669   1.605   3.907   3.924
 2257SOL    HW1 7670   1.552   3.843   3.868
 2257SOL    HW2 7671   1.592   4.000   3.890
 2258SOL     OW 7672   1.995   5.774   5.063
 2258SOL    HW1 7673   2.011   5.682   5.028
 2258SOL    HW2 7674   2.075   5.831   5.044
 2259SOL     OW 7675   5.507   3.888   0.006
 2259SOL    HW1 7676   5.434   3.956   0.001
 2259SOL    HW2 7677   5.555   3.885   6.943
 2260SOL     OW 7678   5.450   4.663   1.532
 2260SOL    HW1 7679   5.406   4.719   1.463
 2260SOL    HW2 7680   5.443   4.707   1.621
 2261SOL     OW 7681   5.488   0.396   0.286
 2261SOL    HW1 7682   5.578   0.429   0.258
 2261SOL    HW2 7683   5.489   0.374   0.383
 2262SOL     OW 7684   4.866   2.053   3.927
 2262SOL    HW1 7685   4.810   2.107   3.990
 2262SOL    HW2 7686   4.951   2.027   3.972
 2263SOL     OW 7687   1.134   5.470   5.657
 2263SOL    HW1 7688   1.218   5.466   5.604
 2263SOL    HW2 7689   1.074   5.540   5.619
 2264SOL     OW 7690   3.317   3.028   3.982
 2264SOL    HW1 7691   3.378   2.967   3.931
 2264SOL    HW2 7692   3.354   3.121   3.980
 2265SOL     OW 7693   0.130   0.145   1.726
 2265SOL    HW1 7694   0.097   0.088   1.651
 2265SOL    HW2 7695   0.067   0.139   1.803
 2266SOL     OW 7696   5.676   0.694   0.429
 2266SOL    HW1 7697   5.760   0.711   0.479
 2266SOL    HW2 7698   5.626   0.618   0.472
 2267SOL     OW 7699   6.382   2.717   5.427
 2267SOL    HW1 7700   6.376   2.782   5.351
 2267SOL    HW2 7701   6.307   2.734   5.491
 2268SOL     OW 7702   0.008   6.081   6.889
 2268SOL    HW1 7703   0.096   6.121   6.866
 2268SOL    HW2 7704   6.959   6.134   6.845
 2269SOL     OW 7705   6.413   5.352   6.135
 2269SOL    HW1 7706   6.396   5.450   6.128
 2269SOL    HW2 7707   6.480   5.325   6.065
 2270SOL     OW 7708   3.328   3.414   2.012
 2270SOL    HW1 7709   3.300   3.329   2.057
 2270SOL    HW2 7710   3.338   3.398   1.914
 2271SOL     OW 7711   6.409   4.475   2.284
 2271SOL    HW1 7712   6.418   4.406   2.212
 2271SOL    HW2 7713   6.313   4.482   2.311
 2272SOL     OW 7714   5.660   2.018   5.694
 2272SOL    HW1 7715   5.687   2.002   5.599
 2272SOL    HW2 7716   5.567   1.983   5.709
 2273SOL     OW 7717   0.414   1.505   3.548
 2273SOL    HW1 7718   0.456   1.587   3.509
 2273SOL    HW2 7719   0.334   1.532   3.602
 2274SOL     OW 7720   1.300   3.481   4.634
 2274SOL    HW1 7721   1.231   3.412   4.613
 2274SOL    HW2 7722   1.350   3.455   4.717
 2275SOL     OW 7723   5.423   6.319   3.950
 2275SOL    HW1 7724   5.458   6.261   3.876
 2275SOL    HW2 7725   5.339   6.279   3.986
 2276SOL     OW 7726   4.009   4.379   1.632
 2276SOL    HW1 7727   3.930   4.365   1.692
 2276SOL    HW2 7728   4.090   4.340   1.676
 2277SOL     OW 7729   3.445   2.984   0.092
 2277SOL    HW1 7730   3.523   2.926   0.118
 2277SOL    HW2 7731   3.374   2.927   0.050
 2278SOL     OW 7732   5.185   6.025   1.342
 2278SOL    HW1 7733   5.274   6.037   1.299
 2278SOL    HW2 7734   5.124   6.099   1.313
 2279SOL     OW 7735   5.666   3.284   5.000
 2279SOL    HW1 7736   5.724   3.236   4.933
 2279SOL    HW2 7737   5.616   3.217   5.055
 2280SOL     OW 7738   6.117   6.031   5.918
 2280SOL    HW1 7739   6.215   6.040   5.936
 2280SOL    HW2 7740   6.099   6.055   5.822
 2281SOL     OW 7741   3.474   2.379   1.378
 2281SOL    HW1 7742   3.504   2.475   1.377
 2281SOL    HW2 7743   3.544   2.322   1.421
 2282SOL     OW 7744   4.681   5.825   3.305
 2282SOL    HW1 7745   4.669   5.918   3.273
 2282SOL    HW2 7746   4.624   5.810   3.386
 2283SOL     OW 7747   0.237   3.397   3.543
 2283SOL    HW1 7748   0.171   3.448   3.599
 2283SOL    HW2 7749   0.224   3.299   3.558
 2284SOL     OW 7750   2.273   2.248   1.509
 2284SOL    HW1 7751   2.246   2.340   1.481
 2284SOL    HW2 7752   2.226   2.224   1.594
 2285SOL     OW 7753   1.421   3.844   1.172
 2285SOL    HW1 7754   1.491   3.902   1.131
 2285SOL    HW2 7755   1.388   3.778   1.104
 2286SOL     OW 7756   6.530   6.223   4.835
 2286SOL    HW1 7757   6.529   6.213   4.736
 2286SOL    HW2 7758   6.591   6.155   4.875
 2287SOL     OW 7759   2.252   2.561   1.995
 2287SOL    HW1 7760   2.319   2.538   1.925
 2287SOL    HW2 7761   2.231   2.659   1.990
 2288SOL     OW 7762   0.325   6.338   2.725
 2288SOL    HW1 7763   0.362   6.300   2.809
 2288SOL    HW2 7764   0.231   6.370   2.742
 2289SOL     OW 7765   5.390   2.190   2.491
 2289SOL    HW1 7766   5.334   2.150   2.418
 2289SOL    HW2 7767   5.369   2.145   2.577
 2290SOL     OW 7768   2.895   3.446   2.915
 2290SOL    HW1 7769   2.887   3.379   2.989
 2290SOL    HW2 7770   2.921   3.400   2.831
 2291SOL     OW 7771   2.121   2.543   1.071
 2291SOL    HW1 7772   2.026   2.554   1.101
 2291SOL    HW2 7773   2.122   2.516   0.975
 2292SOL     OW 7774   4.149   1.979   3.005
 2292SOL    HW1 7775   4.226   1.927   2.970
 2292SOL    HW2 7776   4.076   1.981   2.936
 2293SOL     OW 7777   5.775   1.336   0.180
 2293SOL    HW1 7778   5.797   1.348   0.277
 2293SOL    HW2 7779   5.777   1.239   0.158
 2294SOL     OW 7780   0.723   2.544   5.960
 2294SOL    HW1 7781   0.752   2.508   6.049
 2294SOL    HW2 7782   0.803   2.573   5.908
 2295SOL     OW 7783   6.420   6.832   1.876
 2295SOL    HW1 7784   6.416   6.839   1.776
 2295SOL    HW2 7785   6.455   6.742   1.902
 2296SOL     OW 7786   2.606   5.448   3.542
 2296SOL    HW1 7787   2.661   5.365   3.552
 2296SOL    HW2 7788   2.514   5.431   3.576
 2297SOL     OW 7789   4.474   4.718   5.699
 2297SOL    HW1 7790   4.376   4.736   5.690
 2297SOL    HW2 7791   4.488   4.633   5.749
 2298SOL     OW 7792   3.635   3.346   4.900
 2298SOL    HW1 7793   3.568   3.291   4.951
 2298SOL    HW2 7794   3.727   3.313   4.919
 2299SOL     OW 7795   5.330   3.057   4.804
 2299SOL    HW1 7796   5.419   3.013   4.799
 2299SOL    HW2 7797   5.270   3.018   4.734
 2300SOL     OW 7798   4.433   6.428   2.779
 2300SOL    HW1 7799   4.449   6.527   2.777
 2300SOL    HW2 7800   4.492   6.384   2.711
 2301SOL     OW 7801   3.319   3.640   4.650
 2301SOL    HW1 7802   3.228   3.652   4.610
 2301SOL    HW2 7803   3.368   3.728   4.648
 2302SOL     OW 7804   5.046   2.143   0.074
 2302SOL    HW1 7805   5.014   2.215   0.013
 2302SOL    HW2 7806   4.969   2.085   0.101
 2303SOL     OW 7807   2.503   2.020   0.833
 2303SOL    HW1 7808   2.534   1.975   0.917
 2303SOL    HW2 7809   2.581   2.063   0.788
 2304SOL     OW 7810   6.229   5.788   2.255
 2304SOL    HW1 7811   6.317   5.821   2.218
 2304SOL    HW2 7812   6.160   5.859   2.244
 2305SOL     OW 7813   1.605   1.064   5.048
 2305SOL    HW1 7814   1.570   0.979   5.086
 2305SOL    HW2 7815   1.669   1.105   5.113
 2306SOL     OW 7816   2.581   4.882   3.679
 2306SOL    HW1 7817   2.672   4.864   3.715
 2306SOL    HW2 7818   2.572   4.842   3.588
 2307SOL     OW 7819   0.905   2.482   5.173
 2307SOL    HW1 7820   0.934   2.571   5.207
 2307SOL    HW2 7821   0.914   2.414   5.246
 2308SOL     OW 7822   2.679   4.363   1.709
 2308SOL    HW1 7823   2.613   4.438   1.711
 2308SOL    HW2 7824   2.762   4.390   1.758
 2309SOL     OW 7825   1.246   6.634   4.356
 2309SOL    HW1 7826   1.332   6.673   4.322
 2309SOL    HW2 7827   1.257   6.535   4.366
 2310SOL     OW 7828   4.492   6.581   1.369
 2310SOL    HW1 7829   4.521   6.677   1.361
 2310SOL    HW2 7830   4.405   6.569   1.322
 2311SOL     OW 7831   2.523   6.076   1.368
 2311SOL    HW1 7832   2.584   6.017   1.315
 2311SOL    HW2 7833   2.495   6.154   1.313
 2312SOL     OW 7834   3.456   5.254   3.001
 2312SOL    HW1 7835   3.491   5.166   3.034
 2312SOL    HW2 7836   3.410   5.240   2.913
 2313SOL     OW 7837   5.592   4.880   2.077
 2313SOL    HW1 7838   5.523   4.939   2.119
 2313SOL    HW2 7839   5.585   4.885   1.978
 2314SOL     OW 7840   2.965   6.079   3.716
 2314SOL    HW1 7841   3.047   6.101   3.664
 2314SOL    HW2 7842   2.957   6.141   3.794
 2315SOL     OW 7843   4.369   3.220   6.468
 2315SOL    HW1 7844   4.397   3.235   6.373
 2315SOL    HW2 7845   4.431   3.269   6.529
 2316SOL     OW 7846   5.462   2.827   3.075
 2316SOL    HW1 7847   5.527   2.794   3.007
 2316SOL    HW2 7848   5.377   2.776   3.068
 2317SOL     OW 7849   1.777   4.605   3.142
 2317SOL    HW1 7850   1.817   4.690   3.107
 2317SOL    HW2 7851   1.740   4.552   3.065
 2318SOL     OW 7852   6.981   0.784   3.511
 2318SOL    HW1 7853   0.021   0.745   3.445
 2318SOL    HW2 7854   7.009   0.761   3.604
 2319SOL     OW 7855   1.564   4.570   4.401
 2319SOL    HW1 7856   1.559   4.549   4.499
 2319SOL    HW2 7857   1.506   4.507   4.350
 2320SOL     OW 7858   6.829   2.900   3.944
 2320SOL    HW1 7859   6.831   2.905   3.844
 2320SOL    HW2 7860   6.919   2.921   3.981
 2321SOL     OW 7861   2.802   6.987   5.456
 2321SOL    HW1 7862   2.865   0.022   5.406
 2321SOL    HW2 7863   2.769   6.915   5.395
 2322SOL     OW 7864   1.561   0.515   4.925
 2322SOL    HW1 7865   1.516   0.525   5.014
 2322SOL    HW2 7866   1.652   0.477   4.938
 2323SOL     OW 7867   4.493   5.824   2.125
 2323SOL    HW1 7868   4.434   5.897   2.091
 2323SOL    HW2 7869   4.535   5.776   2.048
 2324SOL     OW 7870   0.164   5.258   3.128
 2324SOL    HW1 7871   0.254   5.255   3.171
 2324SOL    HW2 7872   0.150   5.174   3.076
 2325SOL     OW 7873   0.836   3.450   1.126
 2325SOL    HW1 7874   0.826   3.495   1.214
 2325SOL    HW2 7875   0.846   3.351   1.140
 2326SOL     OW 7876   0.823   5.395   0.077
 2326SOL    HW1 7877   0.888   5.320   0.090
 2326SOL    HW2 7878   0.815   5.416   7.004
 2327SOL     OW 7879   5.015   2.713   3.928
 2327SOL    HW1 7880   5.027   2.712   4.027
 2327SOL    HW2 7881   4.969   2.797   3.901
 2328SOL     OW 7882   4.150   1.069   3.168
 2328SOL    HW1 7883   4.093   0.987   3.159
 2328SOL    HW2 7884   4.161   1.112   3.078
 2329SOL     OW 7885   1.277   5.735   3.599
 2329SOL    HW1 7886   1.271   5.694   3.508
 2329SOL    HW2 7887   1.263   5.664   3.669
 2330SOL     OW 7888   0.817   4.398   2.698
 2330SOL    HW1 7889   0.821   4.300   2.720
 2330SOL    HW2 7890   0.783   4.409   2.604
 2331SOL     OW 7891   0.572   4.759   5.490
 2331SOL    HW1 7892   0.617   4.772   5.401
 2331SOL    HW2 7893   0.575   4.845   5.541
 2332SOL     OW 7894   5.250   2.569   6.055
 2332SOL    HW1 7895   5.300   2.655   6.064
 2332SOL    HW2 7896   5.249   2.541   5.959
 2333SOL     OW 7897   1.278   5.628   3.343
 2333SOL    HW1 7898   1.180   5.624   3.325
 2333SOL    HW2 7899   1.319   5.704   3.292
 2334SOL     OW 7900   3.399   6.908   6.928
 2334SOL    HW1 7901   3.447   6.866   7.005
 2334SOL    HW2 7902   3.338   6.979   6.962
 2335SOL     OW 7903   5.170   0.088   3.465
 2335SOL    HW1 7904   5.170   7.020   3.426
 2335SOL    HW2 7905   5.223   0.088   3.550
 2336SOL     OW 7906   4.859   1.455   5.875
 2336SOL    HW1 7907   4.901   1.365   5.874
 2336SOL    HW2 7908   4.867   1.495   5.966
 2337SOL     OW 7909   5.239   0.103   2.960
 2337SOL    HW1 7910   5.272   0.137   3.048
 2337SOL    HW2 7911   5.316   0.092   2.897
 2338SOL     OW 7912   0.782   6.730   6.470
 2338SOL    HW1 7913   0.845   6.725   6.392
 2338SOL    HW2 7914   0.761   6.826   6.490
 2339SOL     OW 7915   3.770   4.452   6.704
 2339SOL    HW1 7916   3.823   4.395   6.766
 2339SOL    HW2 7917   3.701   4.396   6.658
 2340SOL     OW 7918   3.861   5.638   4.902
 2340SOL    HW1 7919   3.867   5.711   4.969
 2340SOL    HW2 7920   3.950   5.593   4.893
 2341SOL     OW 7921   5.420   5.294   0.906
 2341SOL    HW1 7922   5.356   5.371   0.912
 2341SOL    HW2 7923   5.511   5.324   0.936
 2342SOL     OW 7924   6.212   0.384   5.324
 2342SOL    HW1 7925   6.281   0.320   5.356
 2342SOL    HW2 7926   6.182   0.358   5.232
 2343SOL     OW 7927   1.370   5.877   0.960
 2343SOL    HW1 7928   1.303   5.884   0.886
 2343SOL    HW2 7929   1.336   5.925   1.041
 2344SOL     OW 7930   1.396   2.118   2.391
 2344SOL    HW1 7931   1.324   2.055   2.361
 2344SOL    HW2 7932   1.395   2.200   2.334
 2345SOL     OW 7933   2.150   0.923   4.445
 2345SOL    HW1 7934   2.094   0.864   4.502
 2345SOL    HW2 7935   2.128   0.908   4.349
 2346SOL     OW 7936   5.250   3.950   6.020
 2346SOL    HW1 7937   5.170   3.898   6.049
 2346SOL    HW2 7938   5.300   3.981   6.101
 2347SOL     OW 7939   1.199   2.671   1.543
 2347SOL    HW1 7940   1.213   2.706   1.451
 2347SOL    HW2 7941   1.116   2.615   1.546
 2348SOL     OW 7942   2.667   6.753   2.200
 2348SOL    HW1 7943   2.626   6.763   2.291
 2348SOL    HW2 7944   2.596   6.734   2.133
 2349SOL     OW 7945   6.088   6.545   5.700
 2349SOL    HW1 7946   6.148   6.624   5.715
 2349SOL    HW2 7947   6.132   6.480   5.638
 2350SOL     OW 7948   2.756   0.262   5.541
 2350SOL    HW1 7949   2.716   0.199   5.475
 2350SOL    HW2 7950   2.723   0.239   5.633
 2351SOL     OW 7951   2.524   5.527   4.149
 2351SOL    HW1 7952   2.462   5.483   4.083
 2351SOL    HW2 7953   2.613   5.540   4.107
 2352SOL     OW 7954   0.869   3.876   2.852
 2352SOL    HW1 7955   0.947   3.937   2.845
 2352SOL    HW2 7956   0.898   3.790   2.896
 2353SOL     OW 7957   3.327   4.723   5.611
 2353SOL    HW1 7958   3.285   4.671   5.685
 2353SOL    HW2 7959   3.282   4.700   5.524
 2354SOL     OW 7960   3.399   2.252   0.916
 2354SOL    HW1 7961   3.308   2.256   0.958
 2354SOL    HW2 7962   3.469   2.260   0.986
 2355SOL     OW 7963   0.414   6.338   0.796
 2355SOL    HW1 7964   0.451   6.276   0.727
 2355SOL    HW2 7965   0.394   6.285   0.879
 2356SOL     OW 7966   2.861   5.111   3.159
 2356SOL    HW1 7967   2.869   5.161   3.245
 2356SOL    HW2 7968   2.891   5.016   3.173
 2357SOL     OW 7969   6.423   4.275   2.090
 2357SOL    HW1 7970   6.406   4.251   1.994
 2357SOL    HW2 7971   6.515   4.247   2.116
 2358SOL     OW 7972   3.606   1.354   5.631
 2358SOL    HW1 7973   3.646   1.276   5.679
 2358SOL    HW2 7974   3.547   1.405   5.693
 2359SOL     OW 7975   1.286   1.505   5.077
 2359SOL    HW1 7976   1.328   1.435   5.135
 2359SOL    HW2 7977   1.263   1.466   4.988
 2360SOL     OW 7978   4.015   4.797   0.827
 2360SOL    HW1 7979   3.968   4.810   0.740
 2360SOL    HW2 7980   4.100   4.747   0.813
 2361SOL     OW 7981   3.111   6.720   1.806
 2361SOL    HW1 7982   3.020   6.761   1.812
 2361SOL    HW2 7983   3.168   6.775   1.744
 2362SOL     OW 7984   4.098   5.828   4.367
 2362SOL    HW1 7985   4.159   5.753   4.344
 2362SOL    HW2 7986   4.041   5.802   4.445
 2363SOL     OW 7987   3.382   3.408   0.667
 2363SOL    HW1 7988   3.375   3.337   0.598
 2363SOL    HW2 7989   3.392   3.366   0.757
 2364SOL     OW 7990   4.196   1.790   2.156
 2364SOL    HW1 7991   4.173   1.721   2.225
 2364SOL    HW2 7992   4.141   1.873   2.172
 2365SOL     OW 7993   5.860   3.683   4.241
 2365SOL    HW1 7994   5.844   3.607   4.304
 2365SOL    HW2 7995   5.867   3.648   4.148
 2366SOL     OW 7996   2.427   4.187   5.503
 2366SOL    HW1 7997   2.514   4.170   5.457
 2366SOL    HW2 7998   2.367   4.109   5.489
 2367SOL     OW 7999   0.750   4.472   6.011
 2367SOL    HW1 8000   0.850   4.470   6.004
 2367SOL    HW2 8001   0.715   4.379   6.000
 2368SOL     OW 8002   5.772   6.878   4.619
 2368SOL    HW1 8003   5.759   6.975   4.639
 2368SOL    HW2 8004   5.782   6.827   4.704
 2369SOL     OW 8005   3.067   1.340   3.305
 2369SOL    HW1 8006   3.034   1.253   3.340
 2369SOL    HW2 8007   3.015   1.415   3.347
 2370SOL     OW 8008   5.647   2.451   1.170
 2370SOL    HW1 8009   5.580   2.420   1.102
 2370SOL    HW2 8010   5.646   2.551   1.173
 2371SOL     OW 8011   0.746   6.865   2.656
 2371SOL    HW1 8012   0.678   6.799   2.624
 2371SOL    HW2 8013   0.782   6.915   2.577
 2372SOL     OW 8014   6.720   1.714   5.826
 2372SOL    HW1 8015   6.642   1.693   5.766
 2372SOL    HW2 8016   6.805   1.706   5.774
 2373SOL     OW 8017   6.283   6.626   6.216
 2373SOL    HW1 8018   6.221   6.548   6.214
 2373SOL    HW2 8019   6.270   6.676   6.302
 2374SOL     OW 8020   6.496   5.991   2.425
 2374SOL    HW1 8021   6.502   5.954   2.333
 2374SOL    HW2 8022   6.580   5.970   2.475
 2375SOL     OW 8023   1.392   0.875   3.893
 2375SOL    HW1 8024   1.405   0.847   3.798
 2375SOL    HW2 8025   1.405   0.796   3.953
 2376SOL     OW 8026   5.833   2.004   2.726
 2376SOL    HW1 8027   5.914   2.055   2.699
 2376SOL    HW2 8028   5.795   1.958   2.645
 2377SOL     OW 8029   4.428   4.962   6.110
 2377SOL    HW1 8030   4.510   4.988   6.161
 2377SOL    HW2 8031   4.403   5.036   6.048
 2378SOL     OW 8032   0.061   1.378   0.225
 2378SOL    HW1 8033   7.003   1.432   0.245
 2378SOL    HW2 8034   0.141   1.422   0.266
 2379SOL     OW 8035   6.697   5.431   0.913
 2379SOL    HW1 8036   6.709   5.527   0.891
 2379SOL    HW2 8037   6.715   5.376   0.831
 2380SOL     OW 8038   4.894   4.370   5.005
 2380SOL    HW1 8039   4.897   4.273   5.028
 2380SOL    HW2 8040   4.914   4.382   4.908
 2381SOL     OW 8041   3.084   5.227   5.251
 2381SOL    HW1 8042   3.030   5.171   5.188
 2381SOL    HW2 8043   3.169   5.254   5.206
 2382SOL     OW 8044   1.292   6.128   1.918
 2382SOL    HW1 8045   1.265   6.223   1.937
 2382SOL    HW2 8046   1.289   6.112   1.819
 2383SOL     OW 8047   5.124   5.737   5.012
 2383SOL    HW1 8048   5.045   5.675   5.009
 2383SOL    HW2 8049   5.101   5.819   5.064
 2384SOL     OW 8050   1.073   1.472   1.451
 2384SOL    HW1 8051   1.050   1.397   1.512
 2384SOL    HW2 8052   1.104   1.551   1.505
 2385SOL     OW 8053   0.624   1.987   0.573
 2385SOL    HW1 8054   0.707   2.041   0.559
 2385SOL    HW2 8055   0.591   2.000   0.666
 2386SOL     OW 8056   4.472   5.812   4.017
 2386SOL    HW1 8057   4.553   5.849   4.062
 2386SOL    HW2 8058   4.481   5.820   3.918
 2387SOL     OW 8059   1.094   1.658   3.138
 2387SOL    HW1 8060   1.069   1.732   3.076
 2387SOL    HW2 8061   1.177   1.683   3.188
 2388SOL     OW 8062   6.738   2.077   6.103
 2388SOL    HW1 8063   6.810   2.100   6.169
 2388SOL    HW2 8064   6.725   1.978   6.100
 2389SOL     OW 8065   5.318   4.598   3.760
 2389SOL    HW1 8066   5.310   4.692   3.794
 2389SOL    HW2 8067   5.367   4.542   3.827
 2390SOL     OW 8068   4.910   3.995   6.045
 2390SOL    HW1 8069   4.873   3.947   6.125
 2390SOL    HW2 8070   4.836   4.017   5.982
 2391SOL     OW 8071   3.522   3.143   6.321
 2391SOL    HW1 8072   3.488   3.108   6.408
 2391SOL    HW2 8073   3.541   3.241   6.330
 2392SOL     OW 8074   3.491   5.923   4.913
 2392SOL    HW1 8075   3.441   5.959   4.835
 2392SOL    HW2 8076   3.447   5.839   4.945
 2393SOL     OW 8077   3.324   5.082   1.141
 2393SOL    HW1 8078   3.290   5.062   1.049
 2393SOL    HW2 8079   3.400   5.147   1.134
 2394SOL     OW 8080   0.713   3.131   3.249
 2394SOL    HW1 8081   0.788   3.178   3.201
 2394SOL    HW2 8082   0.751   3.064   3.312
 2395SOL     OW 8083   0.431   2.885   5.838
 2395SOL    HW1 8084   0.378   2.953   5.889
 2395SOL    HW2 8085   0.375   2.804   5.821
 2396SOL     OW 8086   6.296   1.050   5.604
 2396SOL    HW1 8087   6.315   1.000   5.519
 2396SOL    HW2 8088   6.250   1.136   5.583
 2397SOL     OW 8089   0.769   4.793   5.206
 2397SOL    HW1 8090   0.826   4.795   5.124
 2397SOL    HW2 8091   0.812   4.846   5.278
 2398SOL     OW 8092   3.070   5.150   4.211
 2398SOL    HW1 8093   3.147   5.206   4.180
 2398SOL    HW2 8094   3.026   5.194   4.289
 2399SOL     OW 8095   2.782   2.279   3.417
 2399SOL    HW1 8096   2.741   2.340   3.349
 2399SOL    HW2 8097   2.777   2.323   3.507
 2400SOL     OW 8098   1.316   3.745   0.212
 2400SOL    HW1 8099   1.403   3.763   0.167
 2400SOL    HW2 8100   1.245   3.732   0.142
 2401SOL     OW 8101   3.953   6.945   5.423
 2401SOL    HW1 8102   3.907   6.988   5.501
 2401SOL    HW2 8103   4.023   7.007   5.387
 2402SOL     OW 8104   1.133   1.916   1.996
 2402SOL    HW1 8105   1.108   1.826   1.961
 2402SOL    HW2 8106   1.225   1.940   1.964
 2403SOL     OW 8107   3.610   3.759   2.558
 2403SOL    HW1 8108   3.542   3.801   2.498
 2403SOL    HW2 8109   3.610   3.806   2.646
 2404SOL     OW 8110   6.884   1.326   0.693
 2404SOL    HW1 8111   6.980   1.330   0.720
 2404SOL    HW2 8112   6.826   1.359   0.768
 2405SOL     OW 8113   2.851   4.025   0.388
 2405SOL    HW1 8114   2.908   4.085   0.332
 2405SOL    HW2 8115   2.908   3.979   0.457
 2406SOL     OW 8116   2.204   0.204   4.996
 2406SOL    HW1 8117   2.263   0.211   4.915
 2406SOL    HW2 8118   2.175   0.109   5.008
 2407SOL     OW 8119   3.968   1.398   3.554
 2407SOL    HW1 8120   3.893   1.436   3.608
 2407SOL    HW2 8121   4.052   1.396   3.609
 2408SOL     OW 8122   2.387   6.413   4.007
 2408SOL    HW1 8123   2.363   6.509   4.023
 2408SOL    HW2 8124   2.379   6.392   3.910
 2409SOL     OW 8125   2.544   2.686   0.550
 2409SOL    HW1 8126   2.600   2.610   0.579
 2409SOL    HW2 8127   2.448   2.669   0.575
 2410SOL     OW 8128   6.688   3.540   5.542
 2410SOL    HW1 8129   6.719   3.482   5.466
 2410SOL    HW2 8130   6.613   3.494   5.590
 2411SOL     OW 8131   2.329   3.327   0.382
 2411SOL    HW1 8132   2.356   3.423   0.393
 2411SOL    HW2 8133   2.252   3.321   0.319
 2412SOL     OW 8134   2.549   2.030   6.633
 2412SOL    HW1 8135   2.597   1.966   6.574
 2412SOL    HW2 8136   2.515   1.982   6.714
 2413SOL     OW 8137   0.195   2.658   6.411
 2413SOL    HW1 8138   0.195   2.595   6.489
 2413SOL    HW2 8139   0.144   2.741   6.434
 2414SOL     OW 8140   6.205   2.361   4.491
 2414SOL    HW1 8141   6.140   2.350   4.566
 2414SOL    HW2 8142   6.213   2.458   4.469
 2415SOL     OW 8143   2.901   6.163   1.331
 2415SOL    HW1 8144   2.903   6.258   1.299
 2415SOL    HW2 8145   2.836   6.154   1.406
 2416SOL     OW 8146   6.874   3.167   3.129
 2416SOL    HW1 8147   6.788   3.133   3.167
 2416SOL    HW2 8148   6.857   3.253   3.080
 2417SOL     OW 8149   3.818   2.780   0.605
 2417SOL    HW1 8150   3.752   2.803   0.534
 2417SOL    HW2 8151   3.842   2.683   0.599
 2418SOL     OW 8152   4.862   3.970   5.649
 2418SOL    HW1 8153   4.772   3.988   5.609
 2418SOL    HW2 8154   4.899   4.056   5.685
 2419SOL     OW 8155   1.942   6.418   4.288
 2419SOL    HW1 8156   1.852   6.385   4.314
 2419SOL    HW2 8157   2.012   6.357   4.324
 2420SOL     OW 8158   2.841   5.109   2.514
 2420SOL    HW1 8159   2.882   5.041   2.575
 2420SOL    HW2 8160   2.741   5.104   2.522
 2421SOL     OW 8161   3.177   6.788   4.691
 2421SOL    HW1 8162   3.138   6.699   4.714
 2421SOL    HW2 8163   3.254   6.776   4.629
 2422SOL     OW 8164   4.166   6.459   2.222
 2422SOL    HW1 8165   4.097   6.529   2.237
 2422SOL    HW2 8166   4.194   6.458   2.126
 2423SOL     OW 8167   1.628   5.308   2.391
 2423SOL    HW1 8168   1.694   5.298   2.317
 2423SOL    HW2 8169   1.660   5.257   2.471
 2424SOL     OW 8170   5.259   0.908   6.453
 2424SOL    HW1 8171   5.264   0.877   6.547
 2424SOL    HW2 8172   5.200   0.847   6.400
 2425SOL     OW 8173   4.458   5.467   5.940
 2425SOL    HW1 8174   4.405   5.493   5.859
 2425SOL    HW2 8175   4.520   5.542   5.964
 2426SOL     OW 8176   1.176   5.288   5.431
 2426SOL    HW1 8177   1.125   5.222   5.375
 2426SOL    HW2 8178   1.113   5.331   5.496
 2427SOL     OW 8179   5.300   0.582   6.386
 2427SOL    HW1 8180   5.205   0.614   6.384
 2427SOL    HW2 8181   5.308   0.504   6.447
 2428SOL     OW 8182   0.135   1.015   3.478
 2428SOL    HW1 8183   0.230   1.008   3.507
 2428SOL    HW2 8184   0.077   0.959   3.538
 2429SOL     OW 8185   5.666   5.958   2.035
 2429SOL    HW1 8186   5.594   6.024   2.013
 2429SOL    HW2 8187   5.665   5.884   1.967
 2430SOL     OW 8188   6.041   3.021   0.627
 2430SOL    HW1 8189   5.970   3.042   0.561
 2430SOL    HW2 8190   6.020   3.066   0.714
 2431SOL     OW 8191   6.412   1.817   1.138
 2431SOL    HW1 8192   6.424   1.846   1.043
 2431SOL    HW2 8193   6.472   1.870   1.198
 2432SOL     OW 8194   3.717   5.560   2.400
 2432SOL    HW1 8195   3.654   5.617   2.348
 2432SOL    HW2 8196   3.800   5.612   2.419
 2433SOL     OW 8197   6.952   5.347   0.067
 2433SOL    HW1 8198   6.877   5.413   0.071
 2433SOL    HW2 8199   0.002   5.377   0.128
 2434SOL     OW 8200   3.949   2.015   2.853
 2434SOL    HW1 8201   4.002   2.046   2.774
 2434SOL    HW2 8202   3.857   1.990   2.823
 2435SOL     OW 8203   5.751   0.237   6.713
 2435SOL    HW1 8204   5.726   0.233   6.809
 2435SOL    HW2 8205   5.683   0.188   6.659
 2436SOL     OW 8206   0.975   1.162   0.952
 2436SOL    HW1 8207   1.071   1.159   0.926
 2436SOL    HW2 8208   0.937   1.252   0.929
 2437SOL     OW 8209   6.918   5.908   2.276
 2437SOL    HW1 8210   6.855   5.924   2.200
 2437SOL    HW2 8211   6.992   5.975   2.273
 2438SOL     OW 8212   3.267   1.617   4.565
 2438SOL    HW1 8213   3.191   1.586   4.509
 2438SOL    HW2 8214   3.281   1.553   4.641
 2439SOL     OW 8215   0.333   5.055   6.669
 2439SOL    HW1 8216   0.307   4.981   6.732
 2439SOL    HW2 8217   0.399   5.021   6.603
 2440SOL     OW 8218   4.229   1.375   4.528
 2440SOL    HW1 8219   4.141   1.414   4.555
 2440SOL    HW2 8220   4.214   1.290   4.477
 2441SOL     OW 8221   6.101   7.001   6.559
 2441SOL    HW1 8222   6.115   0.059   6.504
 2441SOL    HW2 8223   6.008   7.000   6.594
 2442SOL     OW 8224   4.985   3.405   1.821
 2442SOL    HW1 8225   4.942   3.322   1.785
 2442SOL    HW2 8226   4.920   3.455   1.877
 2443SOL     OW 8227   2.174   1.202   6.931
 2443SOL    HW1 8228   2.256   1.180   6.985
 2443SOL    HW2 8229   2.201   1.217   6.836
 2444SOL     OW 8230   3.501   5.605   0.803
 2444SOL    HW1 8231   3.435   5.545   0.847
 2444SOL    HW2 8232   3.526   5.567   0.714
 2445SOL     OW 8233   0.245   2.209   1.286
 2445SOL    HW1 8234   0.228   2.171   1.377
 2445SOL    HW2 8235   0.255   2.308   1.293
 2446SOL     OW 8236   1.547   3.881   2.237
 2446SOL    HW1 8237   1.482   3.885   2.313
 2446SOL    HW2 8238   1.544   3.968   2.187
 2447SOL     OW 8239   2.112   0.685   0.683
 2447SOL    HW1 8240   2.151   0.602   0.724
 2447SOL    HW2 8241   2.078   0.664   0.592
 2448SOL     OW 8242   6.120   2.145   4.342
 2448SOL    HW1 8243   6.147   2.239   4.363
 2448SOL    HW2 8244   6.201   2.092   4.316
 2449SOL     OW 8245   2.090   4.311   2.161
 2449SOL    HW1 8246   2.073   4.362   2.245
 2449SOL    HW2 8247   2.003   4.284   2.120
 2450SOL     OW 8248   2.060   5.377   6.494
 2450SOL    HW1 8249   2.022   5.360   6.585
 2450SOL    HW2 8250   2.159   5.370   6.497
 2451SOL     OW 8251   0.520   0.617   3.991
 2451SOL    HW1 8252   0.599   0.640   3.933
 2451SOL    HW2 8253   0.442   0.594   3.933
 2452SOL     OW 8254   2.607   2.428   3.188
 2452SOL    HW1 8255   2.595   2.486   3.107
 2452SOL    HW2 8256   2.522   2.379   3.208
 2453SOL     OW 8257   0.017   2.039   0.426
 2453SOL    HW1 8258   0.041   2.126   0.383
 2453SOL    HW2 8259   6.950   2.011   0.397
 2454SOL     OW 8260   3.281   5.452   0.911
 2454SOL    HW1 8261   3.226   5.368   0.909
 2454SOL    HW2 8262   3.240   5.516   0.976
 2455SOL     OW 8263   3.380   1.234   0.114
 2455SOL    HW1 8264   3.327   1.207   0.195
 2455SOL    HW2 8265   3.369   1.332   0.098
 2456SOL     OW 8266   1.166   3.910   6.842
 2456SOL    HW1 8267   1.124   3.974   6.906
 2456SOL    HW2 8268   1.259   3.888   6.873
 2457SOL     OW 8269   5.218   1.328   5.683
 2457SOL    HW1 8270   5.207   1.351   5.780
 2457SOL    HW2 8271   5.155   1.254   5.659
 2458SOL     OW 8272   0.776   0.572   3.079
 2458SOL    HW1 8273   0.775   0.639   3.153
 2458SOL    HW2 8274   0.785   0.619   2.991
 2459SOL     OW 8275   2.807   5.403   0.000
 2459SOL    HW1 8276   2.835   5.492   0.037
 2459SOL    HW2 8277   2.886   5.341   7.023
 2460SOL     OW 8278   0.899   1.293   6.603
 2460SOL    HW1 8279   0.930   1.368   6.543
 2460SOL    HW2 8280   0.970   1.222   6.607
 2461SOL     OW 8281   4.244   0.295   4.686
 2461SOL    HW1 8282   4.193   0.233   4.626
 2461SOL    HW2 8283   4.235   0.389   4.653
 2462SOL     OW 8284   0.720   4.856   0.840
 2462SOL    HW1 8285   0.802   4.870   0.785
 2462SOL    HW2 8286   0.728   4.907   0.926
 2463SOL     OW 8287   6.732   1.071   6.956
 2463SOL    HW1 8288   6.713   1.161   6.997
 2463SOL    HW2 8289   6.676   1.060   6.874
 2464SOL     OW 8290   0.451   2.864   2.718
 2464SOL    HW1 8291   0.518   2.848   2.791
 2464SOL    HW2 8292   0.490   2.926   2.650
 2465SOL     OW 8293   6.790   5.408   6.338
 2465SOL    HW1 8294   6.799   5.389   6.240
 2465SOL    HW2 8295   6.855   5.352   6.389
 2466SOL     OW 8296   1.497   1.642   1.801
 2466SOL    HW1 8297   1.486   1.556   1.751
 2466SOL    HW2 8298   1.520   1.623   1.896
 2467SOL     OW 8299   4.306   1.767   6.164
 2467SOL    HW1 8300   4.348   1.765   6.074
 2467SOL    HW2 8301   4.207   1.751   6.155
 2468SOL     OW 8302   3.688   0.327   6.706
 2468SOL    HW1 8303   3.766   0.287   6.753
 2468SOL    HW2 8304   3.609   0.267   6.714
 2469SOL     OW 8305   4.349   2.843   5.801
 2469SOL    HW1 8306   4.373   2.748   5.780
 2469SOL    HW2 8307   4.273   2.844   5.866
 2470SOL     OW 8308   3.964   4.360   6.023
 2470SOL    HW1 8309   3.948   4.377   5.926
 2470SOL    HW2 8310   3.907   4.420   6.078
 2471SOL     OW 8311   3.954   6.894   0.826
 2471SOL    HW1 8312   4.022   6.906   0.898
 2471SOL    HW2 8313   3.962   6.802   0.787
 2472SOL     OW 8314   4.644   2.596   4.096
 2472SOL    HW1 8315   4.691   2.618   4.011
 2472SOL    HW2 8316   4.550   2.568   4.076
 2473SOL     OW 8317   1.650   4.417   4.821
 2473SOL    HW1 8318   1.692   4.422   4.912
 2473SOL    HW2 8319   1.656   4.323   4.787
 2474SOL     OW 8320   1.246   5.579   0.460
 2474SOL    HW1 8321   1.251   5.521   0.541
 2474SOL    HW2 8322   1.337   5.609   0.434
 2475SOL     OW 8323   4.605   0.999   0.705
 2475SOL    HW1 8324   4.575   1.035   0.793
 2475SOL    HW2 8325   4.526   0.963   0.655
 2476SOL     OW 8326   5.241   0.508   2.656
 2476SOL    HW1 8327   5.167   0.478   2.717
 2476SOL    HW2 8328   5.205   0.573   2.590
 2477SOL     OW 8329   3.945   0.385   3.472
 2477SOL    HW1 8330   3.894   0.355   3.553
 2477SOL    HW2 8331   4.024   0.325   3.457
 2478SOL     OW 8332   4.587   1.078   2.545
 2478SOL    HW1 8333   4.532   0.995   2.538
 2478SOL    HW2 8334   4.526   1.158   2.548
 2479SOL     OW 8335   1.093   2.846   1.057
 2479SOL    HW1 8336   1.027   2.776   1.028
 2479SOL    HW2 8337   1.044   2.932   1.072
 2480SOL     OW 8338   3.906   2.792   1.329
 2480SOL    HW1 8339   3.882   2.718   1.392
 2480SOL    HW2 8340   3.899   2.758   1.235
 2481SOL     OW 8341   2.471   0.493   1.356
 2481SOL    HW1 8342   2.564   0.483   1.321
 2481SOL    HW2 8343   2.431   0.402   1.370
 2482SOL     OW 8344   5.492   3.364   0.170
 2482SOL    HW1 8345   5.471   3.458   0.143
 2482SOL    HW2 8346   5.510   3.310   0.088
 2483SOL     OW 8347   1.222   1.886   0.247
 2483SOL    HW1 8348   1.271   1.832   0.315
 2483SOL    HW2 8349   1.284   1.908   0.172
 2484SOL     OW 8350   3.442   0.734   0.967
 2484SOL    HW1 8351   3.508   0.721   0.893
 2484SOL    HW2 8352   3.458   0.666   1.039
 2485SOL     OW 8353   5.194   3.132   0.442
 2485SOL    HW1 8354   5.253   3.085   0.507
 2485SOL    HW2 8355   5.228   3.225   0.426
 2486SOL     OW 8356   0.549   5.372   5.571
 2486SOL    HW1 8357   0.493   5.303   5.526
 2486SOL    HW2 8358   0.562   5.348   5.667
 2487SOL     OW 8359   3.822   6.179   0.417
 2487SOL    HW1 8360   3.891   6.242   0.380
 2487SOL    HW2 8361   3.834   6.089   0.375
 2488SOL     OW 8362   0.540   3.354   1.671
 2488SOL    HW1 8363   0.521   3.265   1.711
 2488SOL    HW2 8364   0.540   3.424   1.742
 2489SOL     OW 8365   0.942   5.829   3.801
 2489SOL    HW1 8366   0.913   5.755   3.740
 2489SOL    HW2 8367   0.915   5.917   3.761
 2490SOL     OW 8368   0.691   5.735   0.971
 2490SOL    HW1 8369   0.720   5.751   1.065
 2490SOL    HW2 8370   0.648   5.818   0.935
 2491SOL     OW 8371   3.964   4.418   1.166
 2491SOL    HW1 8372   3.919   4.492   1.217
 2491SOL    HW2 8373   3.905   4.389   1.091
 2492SOL     OW 8374   4.557   3.493   1.110
 2492SOL    HW1 8375   4.488   3.511   1.180
 2492SOL    HW2 8376   4.542   3.554   1.032
 2493SOL     OW 8377   6.731   0.263   1.305
 2493SOL    HW1 8378   6.762   0.357   1.301
 2493SOL    HW2 8379   6.632   0.261   1.319
 2494SOL     OW 8380   6.062   3.774   2.161
 2494SOL    HW1 8381   6.031   3.702   2.223
 2494SOL    HW2 8382   6.162   3.777   2.161
 2495SOL     OW 8383   5.544   5.862   3.518
 2495SOL    HW1 8384   5.588   5.859   3.607
 2495SOL    HW2 8385   5.602   5.816   3.451
 2496SOL     OW 8386   0.360   3.680   6.736
 2496SOL    HW1 8387   0.393   3.588   6.716
 2496SOL    HW2 8388   0.290   3.676   6.808
 2497SOL     OW 8389   0.422   0.119   1.209
 2497SOL    HW1 8390   0.438   0.202   1.262
 2497SOL    HW2 8391   0.423   0.040   1.271
 2498SOL     OW 8392   3.296   2.234   5.841
 2498SOL    HW1 8393   3.381   2.278   5.812
 2498SOL    HW2 8394   3.242   2.210   5.761
 2499SOL     OW 8395   5.629   3.164   2.277
 2499SOL    HW1 8396   5.694   3.231   2.312
 2499SOL    HW2 8397   5.539   3.206   2.266
 2500SOL     OW 8398   4.358   3.751   6.569
 2500SOL    HW1 8399   4.337   3.708   6.481
 2500SOL    HW2 8400   4.273   3.786   6.610
 2501SOL     OW 8401   5.244   5.578   0.268
 2501SOL    HW1 8402   5.195   5.623   0.193
 2501SOL    HW2 8403   5.324   5.531   0.231
 2502SOL     OW 8404   2.030   0.609   5.176
 2502SOL    HW1 8405   2.092   0.683   5.202
 2502SOL    HW2 8406   2.068   0.522   5.204
 2503SOL     OW 8407   3.175   6.761   5.117
 2503SOL    HW1 8408   3.131   6.850   5.106
 2503SOL    HW2 8409   3.109   6.689   5.098
 2504SOL     OW 8410   3.864   5.816   3.151
 2504SOL    HW1 8411   3.828   5.892   3.205
 2504SOL    HW2 8412   3.792   5.781   3.091
 2505SOL     OW 8413   0.342   5.816   2.752
 2505SOL    HW1 8414   0.350   5.735   2.810
 2505SOL    HW2 8415   0.273   5.877   2.791
 2506SOL     OW 8416   6.459   2.949   6.389
 2506SOL    HW1 8417   6.457   2.921   6.485
 2506SOL    HW2 8418   6.431   3.045   6.381
 2507SOL     OW 8419   0.322   3.410   0.303
 2507SOL    HW1 8420   0.344   3.315   0.279
 2507SOL    HW2 8421   0.386   3.443   0.372
 2508SOL     OW 8422   2.521   1.727   4.061
 2508SOL    HW1 8423   2.596   1.676   4.020
 2508SOL    HW2 8424   2.468   1.772   3.989
 2509SOL     OW 8425   0.011   4.746   1.070
 2509SOL    HW1 8426   0.042   4.688   1.145
 2509SOL    HW2 8427   6.947   4.715   1.038
 2510SOL     OW 8428   3.171   4.674   1.070
 2510SOL    HW1 8429   3.195   4.578   1.078
 2510SOL    HW2 8430   3.206   4.724   1.150
 2511SOL     OW 8431   2.715   1.387   4.236
 2511SOL    HW1 8432   2.811   1.363   4.249
 2511SOL    HW2 8433   2.704   1.486   4.238
 2512SOL     OW 8434   4.268   4.025   5.428
 2512SOL    HW1 8435   4.231   4.117   5.418
 2512SOL    HW2 8436   4.249   3.992   5.521
 2513SOL     OW 8437   1.937   5.506   4.629
 2513SOL    HW1 8438   2.017   5.505   4.689
 2513SOL    HW2 8439   1.949   5.578   4.560
 2514SOL     OW 8440   0.480   4.122   4.273
 2514SOL    HW1 8441   0.435   4.033   4.279
 2514SOL    HW2 8442   0.415   4.189   4.236
 2515SOL     OW 8443   1.580   6.212   0.491
 2515SOL    HW1 8444   1.507   6.268   0.529
 2515SOL    HW2 8445   1.609   6.144   0.559
 2516SOL     OW 8446   5.194   1.450   2.362
 2516SOL    HW1 8447   5.130   1.504   2.417
 2516SOL    HW2 8448   5.282   1.445   2.409
 2517SOL     OW 8449   1.517   0.878   6.250
 2517SOL    HW1 8450   1.561   0.843   6.333
 2517SOL    HW2 8451   1.506   0.803   6.184
 2518SOL     OW 8452   1.079   5.456   1.095
 2518SOL    HW1 8453   1.072   5.526   1.166
 2518SOL    HW2 8454   1.015   5.477   1.021
 2519SOL     OW 8455   3.294   0.438   1.751
 2519SOL    HW1 8456   3.242   0.426   1.836
 2519SOL    HW2 8457   3.242   0.494   1.687
 2520SOL     OW 8458   3.283   1.920   0.793
 2520SOL    HW1 8459   3.373   1.941   0.829
 2520SOL    HW2 8460   3.254   1.993   0.731
 2521SOL     OW 8461   3.074   1.205   5.382
 2521SOL    HW1 8462   3.033   1.198   5.291
 2521SOL    HW2 8463   3.095   1.114   5.416
 2522SOL     OW 8464   1.370   1.276   5.225
 2522SOL    HW1 8465   1.355   1.240   5.133
 2522SOL    HW2 8466   1.308   1.231   5.289
 2523SOL     OW 8467   0.918   3.126   0.977
 2523SOL    HW1 8468   0.853   3.103   0.905
 2523SOL    HW2 8469   1.000   3.167   0.937
 2524SOL     OW 8470   6.674   6.588   4.423
 2524SOL    HW1 8471   6.725   6.640   4.491
 2524SOL    HW2 8472   6.576   6.596   4.440
 2525SOL     OW 8473   0.674   2.599   4.810
 2525SOL    HW1 8474   0.726   2.681   4.832
 2525SOL    HW2 8475   0.604   2.621   4.741
 2526SOL     OW 8476   1.695   4.425   7.009
 2526SOL    HW1 8477   1.707   4.338   0.031
 2526SOL    HW2 8478   1.614   4.420   6.950
 2527SOL     OW 8479   5.818   6.575   5.647
 2527SOL    HW1 8480   5.908   6.545   5.681
 2527SOL    HW2 8481   5.807   6.673   5.664
 2528SOL     OW 8482   5.598   5.069   6.274
 2528SOL    HW1 8483   5.622   5.072   6.371
 2528SOL    HW2 8484   5.500   5.054   6.264
 2529SOL     OW 8485   6.729   6.551   6.622
 2529SOL    HW1 8486   6.645   6.559   6.568
 2529SOL    HW2 8487   6.727   6.465   6.674
 2530SOL     OW 8488   2.457   6.138   4.942
 2530SOL    HW1 8489   2.365   6.152   4.906
 2530SOL    HW2 8490   2.518   6.208   4.906
 2531SOL     OW 8491   6.457   6.343   5.085
 2531SOL    HW1 8492   6.487   6.334   4.990
 2531SOL    HW2 8493   6.421   6.255   5.116
 2532SOL     OW 8494   0.033   6.383   0.713
 2532SOL    HW1 8495   0.124   6.409   0.679
 2532SOL    HW2 8496   6.988   6.423   0.653
 2533SOL     OW 8497   4.769   6.782   3.458
 2533SOL    HW1 8498   4.824   6.736   3.528
 2533SOL    HW2 8499   4.681   6.736   3.449
 2534SOL     OW 8500   3.487   1.540   1.967
 2534SOL    HW1 8501   3.562   1.477   1.944
 2534SOL    HW2 8502   3.444   1.512   2.052
 2535SOL     OW 8503   3.589   3.444   6.340
 2535SOL    HW1 8504   3.626   3.395   6.261
 2535SOL    HW2 8505   3.515   3.504   6.311
 2536SOL     OW 8506   1.211   1.254   6.427
 2536SOL    HW1 8507   1.176   1.283   6.339
 2536SOL    HW2 8508   1.275   1.322   6.462
 2537SOL     OW 8509   3.014   6.915   6.521
 2537SOL    HW1 8510   2.965   6.845   6.469
 2537SOL    HW2 8511   3.028   6.882   6.614
 2538SOL     OW 8512   0.496   4.128   3.495
 2538SOL    HW1 8513   0.424   4.080   3.445
 2538SOL    HW2 8514   0.585   4.106   3.454
 2539SOL     OW 8515   5.600   0.883   4.271
 2539SOL    HW1 8516   5.539   0.806   4.257
 2539SOL    HW2 8517   5.604   0.905   4.368
 2540SOL     OW 8518   4.064   2.086   2.624
 2540SOL    HW1 8519   4.013   2.085   2.538
 2540SOL    HW2 8520   4.150   2.037   2.612
 2541SOL     OW 8521   3.252   0.429   5.025
 2541SOL    HW1 8522   3.322   0.494   4.994
 2541SOL    HW2 8523   3.189   0.475   5.087
 2542SOL     OW 8524   3.837   3.258   6.451
 2542SOL    HW1 8525   3.929   3.258   6.491
 2542SOL    HW2 8526   3.825   3.176   6.395
 2543SOL     OW 8527   0.348   0.951   3.623
 2543SOL    HW1 8528   0.341   0.857   3.590
 2543SOL    HW2 8529   0.354   0.952   3.723
 2544SOL     OW 8530   0.265   5.675   0.366
 2544SOL    HW1 8531   0.219   5.678   0.454
 2544SOL    HW2 8532   0.250   5.762   0.318
 2545SOL     OW 8533   1.882   6.810   2.045
 2545SOL    HW1 8534   1.961   6.797   2.104
 2545SOL    HW2 8535   1.907   6.869   1.968
 2546SOL     OW 8536   0.106   1.355   1.702
 2546SOL    HW1 8537   0.094   1.256   1.703
 2546SOL    HW2 8538   0.019   1.400   1.722
 2547SOL     OW 8539   0.653   4.179   6.864
 2547SOL    HW1 8540   0.588   4.117   6.908
 2547SOL    HW2 8541   0.614   4.211   6.778
 2548SOL     OW 8542   1.007   6.693   4.552
 2548SOL    HW1 8543   1.082   6.692   4.487
 2548SOL    HW2 8544   1.040   6.722   4.642
 2549SOL     OW 8545   0.814   0.054   1.377
 2549SOL    HW1 8546   0.737   0.071   1.439
 2549SOL    HW2 8547   0.877   0.131   1.379
 2550SOL     OW 8548   6.544   6.874   0.058
 2550SOL    HW1 8549   6.601   6.796   0.031
 2550SOL    HW2 8550   6.582   6.917   0.140
 2551SOL     OW 8551   3.529   4.382   6.954
 2551SOL    HW1 8552   3.620   4.423   6.965
 2551SOL    HW2 8553   3.459   4.452   6.971
 2552SOL     OW 8554   1.754   5.984   4.358
 2552SOL    HW1 8555   1.839   5.972   4.307
 2552SOL    HW2 8556   1.683   6.019   4.297
 2553SOL     OW 8557   3.882   3.627   5.785
 2553SOL    HW1 8558   3.961   3.635   5.724
 2553SOL    HW2 8559   3.911   3.644   5.880
 2554SOL     OW 8560   2.596   0.680   0.631
 2554SOL    HW1 8561   2.523   0.617   0.605
 2554SOL    HW2 8562   2.640   0.716   0.549
 2555SOL     OW 8563   6.284   1.156   4.854
 2555SOL    HW1 8564   6.369   1.111   4.827
 2555SOL    HW2 8565   6.283   1.170   4.952
 2556SOL     OW 8566   4.590   6.667   0.422
 2556SOL    HW1 8567   4.673   6.633   0.377
 2556SOL    HW2 8568   4.513   6.665   0.358
 2557SOL     OW 8569   1.414   3.771   0.602
 2557SOL    HW1 8570   1.336   3.803   0.657
 2557SOL    HW2 8571   1.381   3.707   0.533
 2558SOL     OW 8572   4.888   1.125   4.742
 2558SOL    HW1 8573   4.981   1.091   4.734
 2558SOL    HW2 8574   4.889   1.223   4.763
 2559SOL     OW 8575   1.176   4.624   5.068
 2559SOL    HW1 8576   1.252   4.577   5.023
 2559SOL    HW2 8577   1.188   4.620   5.167
 2560SOL     OW 8578   5.285   2.406   5.838
 2560SOL    HW1 8579   5.225   2.339   5.795
 2560SOL    HW2 8580   5.366   2.360   5.874
 2561SOL     OW 8581   2.334   5.087   5.214
 2561SOL    HW1 8582   2.351   5.147   5.292
 2561SOL    HW2 8583   2.262   5.021   5.237
 2562SOL     OW 8584   2.792   4.957   1.619
 2562SOL    HW1 8585   2.809   4.910   1.705
 2562SOL    HW2 8586   2.857   5.033   1.609
 2563SOL     OW 8587   3.309   1.561   0.432
 2563SOL    HW1 8588   3.270   1.471   0.449
 2563SOL    HW2 8589   3.281   1.624   0.505
 2564SOL     OW 8590   1.787   5.854   6.902
 2564SOL    HW1 8591   1.867   5.888   6.851
 2564SOL    HW2 8592   1.808   5.856   7.000
 2565SOL     OW 8593   1.457   6.941   6.447
 2565SOL    HW1 8594   1.517   7.019   6.465
 2565SOL    HW2 8595   1.369   6.957   6.491
 2566SOL     OW 8596   2.231   0.039   1.046
 2566SOL    HW1 8597   2.279   0.120   1.081
 2566SOL    HW2 8598   2.168   0.006   1.117
 2567SOL     OW 8599   0.889   0.322   0.605
 2567SOL    HW1 8600   0.956   0.293   0.536
 2567SOL    HW2 8601   0.924   0.402   0.654
 2568SOL     OW 8602   4.543   1.885   6.351
 2568SOL    HW1 8603   4.503   1.902   6.441
 2568SOL    HW2 8604   4.472   1.853   6.288
 2569SOL     OW 8605   2.744   0.314   2.761
 2569SOL    HW1 8606   2.828   0.362   2.785
 2569SOL    HW2 8607   2.728   0.240   2.827
 2570SOL     OW 8608   5.764   0.351   5.794
 2570SOL    HW1 8609   5.841   0.394   5.748
 2570SOL    HW2 8610   5.684   0.411   5.788
 2571SOL     OW 8611   2.308   5.299   4.803
 2571SOL    HW1 8612   2.212   5.294   4.832
 2571SOL    HW2 8613   2.366   5.302   4.884
 2572SOL     OW 8614   2.962   5.693   1.619
 2572SOL    HW1 8615   3.037   5.662   1.679
 2572SOL    HW2 8616   2.993   5.771   1.565
 2573SOL     OW 8617   0.229   1.996   1.014
 2573SOL    HW1 8618   0.146   1.968   1.062
 2573SOL    HW2 8619   0.269   2.076   1.059
 2574SOL     OW 8620   5.783   4.236   0.848
 2574SOL    HW1 8621   5.734   4.323   0.836
 2574SOL    HW2 8622   5.836   4.216   0.766
 2575SOL     OW 8623   5.336   6.282   0.288
 2575SOL    HW1 8624   5.378   6.278   0.379
 2575SOL    HW2 8625   5.390   6.228   0.224
 2576SOL     OW 8626   4.713   6.537   4.216
 2576SOL    HW1 8627   4.738   6.481   4.295
 2576SOL    HW2 8628   4.797   6.563   4.167
 2577SOL     OW 8629   3.553   6.113   2.415
 2577SOL    HW1 8630   3.521   6.091   2.323
 2577SOL    HW2 8631   3.638   6.164   2.409
 2578SOL     OW 8632   4.003   1.789   4.062
 2578SOL    HW1 8633   3.907   1.758   4.060
 2578SOL    HW2 8634   4.045   1.768   3.974
 2579SOL     OW 8635   1.404   6.332   3.676
 2579SOL    HW1 8636   1.306   6.348   3.681
 2579SOL    HW2 8637   1.446   6.399   3.614
 2580SOL     OW 8638   2.436   4.425   6.769
 2580SOL    HW1 8639   2.354   4.454   6.720
 2580SOL    HW2 8640   2.427   4.330   6.798
 2581SOL     OW 8641   2.591   5.265   1.669
 2581SOL    HW1 8642   2.643   5.226   1.593
 2581SOL    HW2 8643   2.649   5.272   1.750
 2582SOL     OW 8644   0.410   4.377   1.770
 2582SOL    HW1 8645   0.420   4.447   1.841
 2582SOL    HW2 8646   0.476   4.304   1.785
 2583SOL     OW 8647   0.594   1.368   6.423
 2583SOL    HW1 8648   0.524   1.438   6.437
 2583SOL    HW2 8649   0.552   1.278   6.430
 2584SOL     OW 8650   4.069   5.500   6.102
 2584SOL    HW1 8651   4.090   5.568   6.032
 2584SOL    HW2 8652   4.060   5.410   6.060
 2585SOL     OW 8653   3.332   3.602   0.478
 2585SOL    HW1 8654   3.375   3.689   0.505
 2585SOL    HW2 8655   3.347   3.534   0.550
 2586SOL     OW 8656   3.205   0.794   5.505
 2586SOL    HW1 8657   3.171   0.882   5.538
 2586SOL    HW2 8658   3.180   0.782   5.409
 2587SOL     OW 8659   6.134   0.965   3.338
 2587SOL    HW1 8660   6.174   1.012   3.417
 2587SOL    HW2 8661   6.061   1.021   3.299
 2588SOL     OW 8662   3.905   1.918   5.954
 2588SOL    HW1 8663   3.899   2.015   5.931
 2588SOL    HW2 8664   3.888   1.905   6.052
 2589SOL     OW 8665   1.590   0.043   5.566
 2589SOL    HW1 8666   1.689   0.030   5.554
 2589SOL    HW2 8667   1.547   6.979   5.581
 2590SOL     OW 8668   3.303   4.919   0.214
 2590SOL    HW1 8669   3.334   4.853   0.145
 2590SOL    HW2 8670   3.348   4.900   0.301
 2591SOL     OW 8671   6.641   4.976   3.121
 2591SOL    HW1 8672   6.705   4.974   3.198
 2591SOL    HW2 8673   6.691   4.990   3.036
 2592SOL     OW 8674   3.096   4.488   6.792
 2592SOL    HW1 8675   3.021   4.551   6.809
 2592SOL    HW2 8676   3.060   4.396   6.779
 2593SOL     OW 8677   3.298   5.803   0.731
 2593SOL    HW1 8678   3.361   5.726   0.733
 2593SOL    HW2 8679   3.279   5.828   0.636
 2594SOL     OW 8680   2.398   3.791   5.992
 2594SOL    HW1 8681   2.307   3.833   5.994
 2594SOL    HW2 8682   2.464   3.852   6.037
 2595SOL     OW 8683   0.064   0.985   3.898
 2595SOL    HW1 8684   0.040   0.983   3.995
 2595SOL    HW2 8685   7.010   1.018   3.845
 2596SOL     OW 8686   2.403   2.590   1.197
 2596SOL    HW1 8687   2.333   2.609   1.128
 2596SOL    HW2 8688   2.360   2.554   1.279
 2597SOL     OW 8689   0.537   5.070   6.281
 2597SOL    HW1 8690   0.578   5.066   6.189
 2597SOL    HW2 8691   0.438   5.068   6.273
 2598SOL     OW 8692   6.751   1.227   2.087
 2598SOL    HW1 8693   6.660   1.235   2.047
 2598SOL    HW2 8694   6.745   1.238   2.187
 2599SOL     OW 8695   1.655   6.005   0.630
 2599SOL    HW1 8696   1.578   5.948   0.599
 2599SOL    HW2 8697   1.741   5.957   0.613
 2600SOL     OW 8698   6.023   2.451   4.691
 2600SOL    HW1 8699   6.048   2.538   4.650
 2600SOL    HW2 8700   5.924   2.436   4.680
 2601SOL     OW 8701   1.532   1.397   1.022
 2601SOL    HW1 8702   1.552   1.328   1.092
 2601SOL    HW2 8703   1.435   1.394   0.999
 2602SOL     OW 8704   1.850   4.954   4.663
 2602SOL    HW1 8705   1.846   4.885   4.736
 2602SOL    HW2 8706   1.813   4.915   4.578
 2603SOL     OW 8707   3.096   1.283   2.735
 2603SOL    HW1 8708   3.027   1.229   2.687
 2603SOL    HW2 8709   3.067   1.379   2.739
 2604SOL     OW 8710   4.859   1.597   2.889
 2604SOL    HW1 8711   4.869   1.501   2.861
 2604SOL    HW2 8712   4.840   1.653   2.809
 2605SOL     OW 8713   1.547   3.006   2.446
 2605SOL    HW1 8714   1.557   2.952   2.363
 2605SOL    HW2 8715   1.585   3.097   2.431
 2606SOL     OW 8716   5.755   5.198   1.605
 2606SOL    HW1 8717   5.777   5.293   1.582
 2606SOL    HW2 8718   5.840   5.149   1.627
 2607SOL     OW 8719   0.546   1.619   0.979
 2607SOL    HW1 8720   0.507   1.537   1.022
 2607SOL    HW2 8721   0.496   1.700   1.010
 2608SOL     OW 8722   3.241   5.626   6.882
 2608SOL    HW1 8723   3.295   5.559   6.933
 2608SOL    HW2 8724   3.180   5.673   6.944
 2609SOL     OW 8725   6.684   1.372   1.724
 2609SOL    HW1 8726   6.658   1.396   1.630
 2609SOL    HW2 8727   6.639   1.287   1.750
 2610SOL     OW 8728   1.259   4.534   3.878
 2610SOL    HW1 8729   1.224   4.626   3.862
 2610SOL    HW2 8730   1.350   4.526   3.837
 2611SOL     OW 8731   4.583   6.323   0.194
 2611SOL    HW1 8732   4.546   6.241   0.150
 2611SOL    HW2 8733   4.552   6.326   0.289
 2612SOL     OW 8734   5.584   6.539   3.987
 2612SOL    HW1 8735   5.521   6.462   3.993
 2612SOL    HW2 8736   5.613   6.551   3.892
 2613SOL     OW 8737   2.359   5.138   6.502
 2613SOL    HW1 8738   2.328   5.085   6.424
 2613SOL    HW2 8739   2.306   5.113   6.583
 2614SOL     OW 8740   5.852   1.167   6.344
 2614SOL    HW1 8741   5.757   1.183   6.373
 2614SOL    HW2 8742   5.852   1.123   6.254
 2615SOL     OW 8743   0.109   2.860   1.791
 2615SOL    HW1 8744   0.042   2.845   1.864
 2615SOL    HW2 8745   0.088   2.944   1.742
 2616SOL     OW 8746   0.913   1.807   5.692
 2616SOL    HW1 8747   0.825   1.834   5.652
 2616SOL    HW2 8748   0.973   1.774   5.619
 2617SOL     OW 8749   5.072   0.922   0.634
 2617SOL    HW1 8750   5.078   0.981   0.554
 2617SOL    HW2 8751   5.051   0.978   0.715
 2618SOL     OW 8752   1.202   6.111   4.724
 2618SOL    HW1 8753   1.264   6.068   4.790
 2618SOL    HW2 8754   1.255   6.143   4.645
 2619SOL     OW 8755   4.102   1.861   1.914
 2619SOL    HW1 8756   4.042   1.937   1.940
 2619SOL    HW2 8757   4.118   1.803   1.994
 2620SOL     OW 8758   6.536   6.628   1.961
 2620SOL    HW1 8759   6.514   6.633   2.058
 2620SOL    HW2 8760   6.630   6.597   1.949
 2621SOL     OW 8761   0.588   4.701   2.371
 2621SOL    HW1 8762   0.565   4.604   2.377
 2621SOL    HW2 8763   0.688   4.712   2.376
 2622SOL     OW 8764   3.398   3.114   5.763
 2622SOL    HW1 8765   3.384   3.086   5.858
 2622SOL    HW2 8766   3.348   3.052   5.702
 2623SOL     OW 8767   0.550   0.224   4.138
 2623SOL    HW1 8768   0.519   0.140   4.183
 2623SOL    HW2 8769   0.487   0.299   4.160
 2624SOL     OW 8770   6.712   2.315   4.334
 2624SOL    HW1 8771   6.718   2.219   4.364
 2624SOL    HW2 8772   6.766   2.327   4.250
 2625SOL     OW 8773   1.848   5.300   5.582
 2625SOL    HW1 8774   1.859   5.202   5.564
 2625SOL    HW2 8775   1.916   5.328   5.650
 2626SOL     OW 8776   6.491   6.893   5.534
 2626SOL    HW1 8777   6.501   6.964   5.603
 2626SOL    HW2 8778   6.500   6.934   5.443
 2627SOL     OW 8779   1.038   0.347   6.534
 2627SOL    HW1 8780   0.965   0.369   6.598
 2627SOL    HW2 8781   1.104   0.285   6.577
 2628SOL     OW 8782   1.814   3.513   4.619
 2628SOL    HW1 8783   1.880   3.444   4.590
 2628SOL    HW2 8784   1.748   3.529   4.546
 2629SOL     OW 8785   3.647   3.571   3.529
 2629SOL    HW1 8786   3.591   3.646   3.494
 2629SOL    HW2 8787   3.633   3.489   3.472
 2630SOL     OW 8788   3.502   1.000   3.887
 2630SOL    HW1 8789   3.584   0.974   3.837
 2630SOL    HW2 8790   3.507   0.964   3.980
 2631SOL     OW 8791   5.945   0.767   6.710
 2631SOL    HW1 8792   5.921   0.671   6.695
 2631SOL    HW2 8793   5.901   0.824   6.641
 2632SOL     OW 8794   5.676   3.986   1.518
 2632SOL    HW1 8795   5.647   3.993   1.423
 2632SOL    HW2 8796   5.640   4.064   1.569
 2633SOL     OW 8797   6.579   2.279   5.237
 2633SOL    HW1 8798   6.584   2.340   5.315
 2633SOL    HW2 8799   6.644   2.309   5.167
 2634SOL     OW 8800   0.622   6.264   4.138
 2634SOL    HW1 8801   0.638   6.295   4.232
 2634SOL    HW2 8802   0.535   6.300   4.105
 2635SOL     OW 8803   6.129   5.099   3.930
 2635SOL    HW1 8804   6.156   5.039   3.855
 2635SOL    HW2 8805   6.029   5.095   3.943
 2636SOL     OW 8806   3.214   1.449   6.415
 2636SOL    HW1 8807   3.182   1.406   6.499
 2636SOL    HW2 8808   3.313   1.433   6.405
 2637SOL     OW 8809   6.844   1.572   3.854
 2637SOL    HW1 8810   6.800   1.644   3.907
 2637SOL    HW2 8811   6.795   1.560   3.767
 2638SOL     OW 8812   0.388   0.372   4.421
 2638SOL    HW1 8813   0.373   0.467   4.450
 2638SOL    HW2 8814   0.305   0.337   4.378
 2639SOL     OW 8815   4.818   5.214   5.438
 2639SOL    HW1 8816   4.794   5.152   5.363
 2639SOL    HW2 8817   4.784   5.176   5.524
 2640SOL     OW 8818   0.221   0.231   5.123
 2640SOL    HW1 8819   0.193   0.172   5.048
 2640SOL    HW2 8820   0.200   0.187   5.210
 2641SOL     OW 8821   4.943   2.486   0.932
 2641SOL    HW1 8822   5.035   2.458   0.961
 2641SOL    HW2 8823   4.947   2.525   0.840
 2642SOL     OW 8824   6.892   1.001   3.685
 2642SOL    HW1 8825   6.853   1.091   3.668
 2642SOL    HW2 8826   6.858   0.937   3.616
 2643SOL     OW 8827   0.780   3.449   3.884
 2643SOL    HW1 8828   0.751   3.425   3.791
 2643SOL    HW2 8829   0.709   3.503   3.927
 2644SOL     OW 8830   4.648   5.513   5.104
 2644SOL    HW1 8831   4.717   5.442   5.097
 2644SOL    HW2 8832   4.583   5.489   5.176
 2645SOL     OW 8833   5.112   4.896   3.917
 2645SOL    HW1 8834   5.139   4.878   4.012
 2645SOL    HW2 8835   5.030   4.844   3.895
 2646SOL     OW 8836   0.809   3.975   6.675
 2646SOL    HW1 8837   0.757   3.973   6.590
 2646SOL    HW2 8838   0.760   4.030   6.743
 2647SOL     OW 8839   5.029   0.106   1.658
 2647SOL    HW1 8840   4.977   0.134   1.739
 2647SOL    HW2 8841   5.053   0.187   1.604
 2648SOL     OW 8842   0.872   6.821   3.421
 2648SOL    HW1 8843   0.827   6.909   3.407
 2648SOL    HW2 8844   0.890   6.779   3.332
 2649SOL     OW 8845   5.114   3.069   1.889
 2649SOL    HW1 8846   5.119   3.092   1.791
 2649SOL    HW2 8847   5.070   2.980   1.900
 2650SOL     OW 8848   2.885   5.651   4.632
 2650SOL    HW1 8849   2.911   5.558   4.606
 2650SOL    HW2 8850   2.789   5.666   4.609
 2651SOL     OW 8851   3.496   1.414   6.404
 2651SOL    HW1 8852   3.533   1.454   6.320
 2651SOL    HW2 8853   3.533   1.322   6.416
 2652SOL     OW 8854   4.443   3.673   5.630
 2652SOL    HW1 8855   4.447   3.718   5.541
 2652SOL    HW2 8856   4.518   3.607   5.637
 2653SOL     OW 8857   3.685   6.174   5.777
 2653SOL    HW1 8858   3.690   6.079   5.808
 2653SOL    HW2 8859   3.591   6.206   5.785
 2654SOL     OW 8860   5.046   6.674   0.814
 2654SOL    HW1 8861   4.956   6.657   0.774
 2654SOL    HW2 8862   5.116   6.635   0.754
 2655SOL     OW 8863   4.709   6.268   3.393
 2655SOL    HW1 8864   4.732   6.171   3.393
 2655SOL    HW2 8865   4.765   6.315   3.325
 2656SOL     OW 8866   3.692   5.653   3.814
 2656SOL    HW1 8867   3.790   5.653   3.797
 2656SOL    HW2 8868   3.646   5.599   3.743
 2657SOL     OW 8869   1.788   3.046   0.406
 2657SOL    HW1 8870   1.760   3.138   0.376
 2657SOL    HW2 8871   1.752   3.029   0.497
 2658SOL     OW 8872   4.896   4.020   6.493
 2658SOL    HW1 8873   4.890   3.930   6.537
 2658SOL    HW2 8874   4.846   4.087   6.547
 2659SOL     OW 8875   5.486   2.697   4.879
 2659SOL    HW1 8876   5.544   2.772   4.846
 2659SOL    HW2 8877   5.542   2.631   4.929
 2660SOL     OW 8878   0.403   0.986   0.720
 2660SOL    HW1 8879   0.365   0.952   0.807
 2660SOL    HW2 8880   0.338   1.049   0.678
 2661SOL     OW 8881   1.079   0.623   2.029
 2661SOL    HW1 8882   1.174   0.591   2.036
 2661SOL    HW2 8883   1.025   0.581   2.102
 2662SOL     OW 8884   3.060   0.565   3.849
 2662SOL    HW1 8885   3.064   0.655   3.806
 2662SOL    HW2 8886   2.965   0.541   3.867
 2663SOL     OW 8887   3.686   6.527   5.952
 2663SOL    HW1 8888   3.599   6.481   5.973
 2663SOL    HW2 8889   3.686   6.555   5.856
 2664SOL     OW 8890   4.179   2.437   5.657
 2664SOL    HW1 8891   4.161   2.500   5.582
 2664SOL    HW2 8892   4.251   2.475   5.715
 2665SOL     OW 8893   2.440   3.562   5.481
 2665SOL    HW1 8894   2.456   3.476   5.433
 2665SOL    HW2 8895   2.528   3.607   5.498
 2666SOL     OW 8896   1.846   3.022   1.844
 2666SOL    HW1 8897   1.920   3.088   1.838
 2666SOL    HW2 8898   1.762   3.062   1.806
 2667SOL     OW 8899   6.814   4.990   3.755
 2667SOL    HW1 8900   6.862   4.912   3.714
 2667SOL    HW2 8901   6.873   5.033   3.823
 2668SOL     OW 8902   5.555   2.619   4.253
 2668SOL    HW1 8903   5.597   2.641   4.341
 2668SOL    HW2 8904   5.590   2.532   4.220
 2669SOL     OW 8905   2.784   5.787   6.850
 2669SOL    HW1 8906   2.763   5.746   6.939
 2669SOL    HW2 8907   2.859   5.851   6.860
 2670SOL     OW 8908   6.206   1.600   5.613
 2670SOL    HW1 8909   6.182   1.561   5.702
 2670SOL    HW2 8910   6.151   1.682   5.596
 2671SOL     OW 8911   4.300   6.253   6.541
 2671SOL    HW1 8912   4.330   6.202   6.460
 2671SOL    HW2 8913   4.230   6.319   6.515
 2672SOL     OW 8914   3.369   0.984   1.825
 2672SOL    HW1 8915   3.357   0.889   1.854
 2672SOL    HW2 8916   3.446   0.989   1.761
 2673SOL     OW 8917   4.958   0.152   2.792
 2673SOL    HW1 8918   5.008   0.189   2.870
 2673SOL    HW2 8919   4.870   0.117   2.823
 2674SOL     OW 8920   1.540   5.177   3.853
 2674SOL    HW1 8921   1.563   5.107   3.921
 2674SOL    HW2 8922   1.618   5.239   3.842
 2675SOL     OW 8923   0.458   0.017   3.529
 2675SOL    HW1 8924   0.553   0.047   3.517
 2675SOL    HW2 8925   0.453   6.978   3.607
 2676SOL     OW 8926   2.926   3.719   2.389
 2676SOL    HW1 8927   2.913   3.816   2.413
 2676SOL    HW2 8928   2.922   3.664   2.472
 2677SOL     OW 8929   2.857   4.509   0.878
 2677SOL    HW1 8930   2.853   4.409   0.884
 2677SOL    HW2 8931   2.787   4.549   0.938
 2678SOL     OW 8932   0.037   2.536   2.299
 2678SOL    HW1 8933   0.120   2.592   2.307
 2678SOL    HW2 8934   0.060   2.441   2.320
 2679SOL     OW 8935   2.285   5.674   2.668
 2679SOL    HW1 8936   2.363   5.734   2.649
 2679SOL    HW2 8937   2.282   5.652   2.765
 2680SOL     OW 8938   0.934   2.466   0.455
 2680SOL    HW1 8939   1.027   2.473   0.419
 2680SOL    HW2 8940   0.873   2.524   0.402
 2681SOL     OW 8941   1.477   2.527   5.131
 2681SOL    HW1 8942   1.519   2.477   5.055
 2681SOL    HW2 8943   1.533   2.608   5.151
 2682SOL     OW 8944   4.770   4.139   2.398
 2682SOL    HW1 8945   4.818   4.092   2.323
 2682SOL    HW2 8946   4.714   4.213   2.360
 2683SOL     OW 8947   2.176   4.511   2.766
 2683SOL    HW1 8948   2.117   4.467   2.834
 2683SOL    HW2 8949   2.136   4.503   2.675
 2684SOL     OW 8950   5.472   6.533   2.075
 2684SOL    HW1 8951   5.390   6.508   2.127
 2684SOL    HW2 8952   5.484   6.468   2.000
 2685SOL     OW 8953   6.745   4.772   4.698
 2685SOL    HW1 8954   6.708   4.859   4.732
 2685SOL    HW2 8955   6.768   4.781   4.601
 2686SOL     OW 8956   1.089   1.407   4.802
 2686SOL    HW1 8957   1.027   1.328   4.795
 2686SOL    HW2 8958   1.078   1.450   4.891
 2687SOL     OW 8959   3.870   0.501   1.741
 2687SOL    HW1 8960   3.844   0.429   1.676
 2687SOL    HW2 8961   3.968   0.495   1.760
 2688SOL     OW 8962   3.149   1.872   1.035
 2688SOL    HW1 8963   3.191   1.907   1.118
 2688SOL    HW2 8964   3.181   1.926   0.957
 2689SOL     OW 8965   0.420   4.235   2.739
 2689SOL    HW1 8966   0.466   4.178   2.671
 2689SOL    HW2 8967   0.429   4.332   2.713
 2690SOL     OW 8968   2.899   2.767   6.477
 2690SOL    HW1 8969   2.928   2.679   6.514
 2690SOL    HW2 8970   2.882   2.831   6.552
 2691SOL     OW 8971   0.328   4.702   3.819
 2691SOL    HW1 8972   0.400   4.740   3.760
 2691SOL    HW2 8973   0.253   4.768   3.826
 2692SOL     OW 8974   2.727   6.402   3.047
 2692SOL    HW1 8975   2.721   6.501   3.046
 2692SOL    HW2 8976   2.749   6.370   3.140
 2693SOL     OW 8977   2.006   4.818   4.054
 2693SOL    HW1 8978   2.027   4.820   3.956
 2693SOL    HW2 8979   2.068   4.879   4.102
 2694SOL     OW 8980   3.917   6.136   3.721
 2694SOL    HW1 8981   3.834   6.155   3.774
 2694SOL    HW2 8982   3.996   6.176   3.768
 2695SOL     OW 8983   6.337   0.152   2.985
 2695SOL    HW1 8984   6.299   0.228   2.933
 2695SOL    HW2 8985   6.395   0.186   3.059
 2696SOL     OW 8986   4.682   3.808   6.775
 2696SOL    HW1 8987   4.662   3.819   6.678
 2696SOL    HW2 8988   4.618   3.864   6.828
 2697SOL     OW 8989   4.267   1.317   1.215
 2697SOL    HW1 8990   4.247   1.303   1.312
 2697SOL    HW2 8991   4.293   1.412   1.200
 2698SOL     OW 8992   1.580   5.112   6.447
 2698SOL    HW1 8993   1.500   5.169   6.467
 2698SOL    HW2 8994   1.551   5.020   6.425
 2699SOL     OW 8995   2.814   5.864   1.832
 2699SOL    HW1 8996   2.714   5.866   1.830
 2699SOL    HW2 8997   2.848   5.846   1.740
 2700SOL     OW 8998   2.359   1.808   0.696
 2700SOL    HW1 8999   2.266   1.802   0.732
 2700SOL    HW2 9000   2.393   1.901   0.705
 2701SOL     OW 9001   4.978   2.509   4.983
 2701SOL    HW1 9002   4.890   2.538   5.022
 2701SOL    HW2 9003   5.036   2.589   4.970
 2702SOL     OW 9004   1.415   1.536   3.797
 2702SOL    HW1 9005   1.389   1.539   3.894
 2702SOL    HW2 9006   1.436   1.442   3.771
 2703SOL     OW 9007   1.528   5.618   1.400
 2703SOL    HW1 9008   1.433   5.588   1.402
 2703SOL    HW2 9009   1.588   5.538   1.403
 2704SOL     OW 9010   6.863   5.528   2.507
 2704SOL    HW1 9011   6.854   5.625   2.529
 2704SOL    HW2 9012   6.911   5.482   2.581
 2705SOL     OW 9013   7.022   1.428   5.836
 2705SOL    HW1 9014   7.004   1.384   5.923
 2705SOL    HW2 9015   6.986   1.372   5.762
 2706SOL     OW 9016   5.699   4.553   4.407
 2706SOL    HW1 9017   5.794   4.533   4.431
 2706SOL    HW2 9018   5.657   4.471   4.368
 2707SOL     OW 9019   3.990   6.623   3.571
 2707SOL    HW1 9020   3.971   6.648   3.666
 2707SOL    HW2 9021   4.075   6.668   3.542
 2708SOL     OW 9022   6.123   2.944   0.148
 2708SOL    HW1 9023   6.119   2.850   0.112
 2708SOL    HW2 9024   6.147   2.942   0.245
 2709SOL     OW 9025   5.003   6.819   6.337
 2709SOL    HW1 9026   5.072   6.769   6.285
 2709SOL    HW2 9027   4.925   6.840   6.277
 2710SOL     OW 9028   2.015   2.719   3.945
 2710SOL    HW1 9029   1.994   2.673   3.859
 2710SOL    HW2 9030   2.111   2.747   3.946
 2711SOL     OW 9031   3.426   1.960   3.645
 2711SOL    HW1 9032   3.414   1.862   3.660
 2711SOL    HW2 9033   3.337   2.004   3.631
 2712SOL     OW 9034   3.382   5.651   2.053
 2712SOL    HW1 9035   3.432   5.629   1.969
 2712SOL    HW2 9036   3.376   5.568   2.110
 2713SOL     OW 9037   4.493   4.420   6.512
 2713SOL    HW1 9038   4.481   4.508   6.466
 2713SOL    HW2 9039   4.584   4.383   6.492
 2714SOL     OW 9040   3.877   3.633   6.727
 2714SOL    HW1 9041   3.951   3.576   6.691
 2714SOL    HW2 9042   3.793   3.580   6.733
 2715SOL     OW 9043   5.533   1.977   0.835
 2715SOL    HW1 9044   5.546   1.880   0.815
 2715SOL    HW2 9045   5.562   2.031   0.756
 2716SOL     OW 9046   4.414   2.473   2.741
 2716SOL    HW1 9047   4.355   2.406   2.697
 2716SOL    HW2 9048   4.456   2.532   2.671
 2717SOL     OW 9049   0.237   0.419   2.036
 2717SOL    HW1 9050   0.190   0.460   2.115
 2717SOL    HW2 9051   0.298   0.347   2.068
 2718SOL     OW 9052   0.209   1.444   5.182
 2718SOL    HW1 9053   0.192   1.359   5.133
 2718SOL    HW2 9054   0.307   1.463   5.184
 2719SOL     OW 9055   1.710   4.228   2.551
 2719SOL    HW1 9056   1.612   4.232   2.569
 2719SOL    HW2 9057   1.726   4.198   2.457
 2720SOL     OW 9058   0.787   6.859   4.835
 2720SOL    HW1 9059   0.879   6.899   4.838
 2720SOL    HW2 9060   0.729   6.913   4.776
 2721SOL     OW 9061   3.169   6.360   1.679
 2721SOL    HW1 9062   3.265   6.366   1.705
 2721SOL    HW2 9063   3.114   6.418   1.740
 2722SOL     OW 9064   4.760   6.088   6.497
 2722SOL    HW1 9065   4.826   6.090   6.422
 2722SOL    HW2 9066   4.717   6.178   6.505
 2723SOL     OW 9067   3.120   6.671   0.082
 2723SOL    HW1 9068   3.173   6.735   0.026
 2723SOL    HW2 9069   3.182   6.619   0.141
 2724SOL     OW 9070   1.087   5.737   6.180
 2724SOL    HW1 9071   1.114   5.660   6.238
 2724SOL    HW2 9072   1.057   5.813   6.238
 2725SOL     OW 9073   5.272   4.036   4.167
 2725SOL    HW1 9074   5.214   4.104   4.211
 2725SOL    HW2 9075   5.216   3.962   4.131
 2726SOL     OW 9076   0.715   2.062   1.350
 2726SOL    HW1 9077   0.665   1.985   1.388
 2726SOL    HW2 9078   0.657   2.111   1.284
 2727SOL     OW 9079   2.107   4.127   4.375
 2727SOL    HW1 9080   2.014   4.121   4.412
 2727SOL    HW2 9081   2.170   4.078   4.435
 2728SOL     OW 9082   5.307   5.870   6.532
 2728SOL    HW1 9083   5.398   5.892   6.567
 2728SOL    HW2 9084   5.263   5.802   6.591
 2729SOL     OW 9085   6.194   6.508   0.063
 2729SOL    HW1 9086   6.160   6.422   0.025
 2729SOL    HW2 9087   6.293   6.513   0.052
 2730SOL     OW 9088   0.788   5.801   1.542
 2730SOL    HW1 9089   0.693   5.790   1.572
 2730SOL    HW2 9090   0.845   5.730   1.584
 2731SOL     OW 9091   3.127   3.427   3.262
 2731SOL    HW1 9092   3.189   3.381   3.325
 2731SOL    HW2 9093   3.045   3.372   3.249
 2732SOL     OW 9094   5.115   1.653   1.483
 2732SOL    HW1 9095   5.184   1.651   1.555
 2732SOL    HW2 9096   5.139   1.722   1.415
 2733SOL     OW 9097   6.617   1.260   5.413
 2733SOL    HW1 9098   6.629   1.301   5.323
 2733SOL    HW2 9099   6.583   1.329   5.477
 2734SOL     OW 9100   3.758   6.163   1.742
 2734SOL    HW1 9101   3.811   6.204   1.667
 2734SOL    HW2 9102   3.662   6.157   1.716
 2735SOL     OW 9103   1.284   2.353   0.248
 2735SOL    HW1 9104   1.254   2.321   0.338
 2735SOL    HW2 9105   1.383   2.361   0.248
 2736SOL     OW 9106   5.533   6.028   4.221
 2736SOL    HW1 9107   5.552   5.954   4.285
 2736SOL    HW2 9108   5.531   5.992   4.128
 2737SOL     OW 9109   2.789   2.294   5.911
 2737SOL    HW1 9110   2.707   2.350   5.925
 2737SOL    HW2 9111   2.767   2.217   5.852
 2738SOL     OW 9112   6.157   0.142   1.961
 2738SOL    HW1 9113   6.057   0.136   1.966
 2738SOL    HW2 9114   6.198   0.061   2.004
 2739SOL     OW 9115   0.788   5.279   1.417
 2739SOL    HW1 9116   0.814   5.182   1.416
 2739SOL    HW2 9117   0.691   5.287   1.392
 2740SOL     OW 9118   0.635   5.481   2.502
 2740SOL    HW1 9119   0.626   5.576   2.531
 2740SOL    HW2 9120   0.656   5.424   2.581
 2741SOL     OW 9121   0.861   1.935   4.452
 2741SOL    HW1 9122   0.938   1.872   4.451
 2741SOL    HW2 9123   0.858   1.986   4.365
 2742SOL     OW 9124   3.218   4.886   2.158
 2742SOL    HW1 9125   3.284   4.878   2.232
 2742SOL    HW2 9126   3.265   4.906   2.072
 2743SOL     OW 9127   0.196   4.681   2.297
 2743SOL    HW1 9128   0.172   4.604   2.356
 2743SOL    HW2 9129   0.117   4.707   2.242
 2744SOL     OW 9130   3.628   3.560   2.334
 2744SOL    HW1 9131   3.701   3.512   2.284
 2744SOL    HW2 9132   3.666   3.602   2.416
 2745SOL     OW 9133   6.370   1.399   5.765
 2745SOL    HW1 9134   6.346   1.333   5.694
 2745SOL    HW2 9135   6.403   1.483   5.722
 2746SOL     OW 9136   0.839   1.320   4.215
 2746SOL    HW1 9137   0.897   1.265   4.276
 2746SOL    HW2 9138   0.898   1.378   4.158
 2747SOL     OW 9139   4.347   5.846   6.626
 2747SOL    HW1 9140   4.402   5.856   6.543
 2747SOL    HW2 9141   4.268   5.788   6.607
 2748SOL     OW 9142   4.548   0.634   1.353
 2748SOL    HW1 9143   4.555   0.717   1.408
 2748SOL    HW2 9144   4.640   0.598   1.336
 2749SOL     OW 9145   1.356   3.570   0.418
 2749SOL    HW1 9146   1.448   3.534   0.407
 2749SOL    HW2 9147   1.335   3.632   0.342
 2750SOL     OW 9148   2.540   4.889   1.466
 2750SOL    HW1 9149   2.625   4.904   1.516
 2750SOL    HW2 9150   2.560   4.860   1.373
 2751SOL     OW 9151   1.835   1.602   1.604
 2751SOL    HW1 9152   1.749   1.650   1.595
 2751SOL    HW2 9153   1.852   1.547   1.521
 2752SOL     OW 9154   4.460   4.325   6.150
 2752SOL    HW1 9155   4.531   4.256   6.160
 2752SOL    HW2 9156   4.496   4.415   6.176
 2753SOL     OW 9157   6.318   5.995   4.858
 2753SOL    HW1 9158   6.289   5.970   4.950
 2753SOL    HW2 9159   6.357   6.088   4.860
 2754SOL     OW 9160   0.906   6.889   6.896
 2754SOL    HW1 9161   0.983   6.826   6.903
 2754SOL    HW2 9162   0.839   6.868   6.968
 2755SOL     OW 9163   3.011   7.007   2.905
 2755SOL    HW1 9164   2.987   6.914   2.932
 2755SOL    HW2 9165   3.003   7.015   2.805
 2756SOL     OW 9166   4.173   6.331   0.731
 2756SOL    HW1 9167   4.108   6.272   0.683
 2756SOL    HW2 9168   4.161   6.426   0.700
 2757SOL     OW 9169   1.854   5.690   0.306
 2757SOL    HW1 9170   1.822   5.671   0.399
 2757SOL    HW2 9171   1.941   5.644   0.290
 2758SOL     OW 9172   4.881   0.461   4.780
 2758SOL    HW1 9173   4.909   0.388   4.842
 2758SOL    HW2 9174   4.956   0.526   4.768
 2759SOL     OW 9175   5.209   5.977   4.099
 2759SOL    HW1 9176   5.176   5.916   4.026
 2759SOL    HW2 9177   5.171   5.948   4.187
 2760SOL     OW 9178   1.386   5.719   2.231
 2760SOL    HW1 9179   1.365   5.813   2.202
 2760SOL    HW2 9180   1.459   5.682   2.174
 2761SOL     OW 9181   1.813   4.648   4.123
 2761SOL    HW1 9182   1.890   4.711   4.129
 2761SOL    HW2 9183   1.751   4.678   4.049
 2762SOL     OW 9184   1.066   0.878   5.268
 2762SOL    HW1 9185   1.064   0.780   5.249
 2762SOL    HW2 9186   0.974   0.908   5.296
 2763SOL     OW 9187   5.622   2.223   3.944
 2763SOL    HW1 9188   5.618   2.143   3.884
 2763SOL    HW2 9189   5.575   2.300   3.901
 2764SOL     OW 9190   5.811   0.104   1.043
 2764SOL    HW1 9191   5.719   0.142   1.054
 2764SOL    HW2 9192   5.823   0.027   1.106
 2765SOL     OW 9193   5.424   0.341   1.281
 2765SOL    HW1 9194   5.332   0.329   1.244
 2765SOL    HW2 9195   5.429   0.428   1.329
 2766SOL     OW 9196   5.671   1.612   0.410
 2766SOL    HW1 9197   5.613   1.626   0.330
 2766SOL    HW2 9198   5.698   1.701   0.448
 2767SOL     OW 9199   0.019   5.243   6.873
 2767SOL    HW1 9200   6.995   5.280   6.953
 2767SOL    HW2 9201   0.117   5.239   6.892
 2768SOL     OW 9202   5.421   1.481   0.184
 2768SOL    HW1 9203   5.438   1.417   0.259
 2768SOL    HW2 9204   5.471   1.451   0.103
 2769SOL     OW 9205   6.424   4.559   4.105
 2769SOL    HW1 9206   6.477   4.496   4.161
 2769SOL    HW2 9207   6.357   4.607   4.162
 2770SOL     OW 9208   1.605   5.884   6.452
 2770SOL    HW1 9209   1.701   5.855   6.446
 2770SOL    HW2 9210   1.546   5.809   6.423
 2771SOL     OW 9211   5.422   1.255   1.215
 2771SOL    HW1 9212   5.471   1.208   1.142
 2771SOL    HW2 9213   5.389   1.343   1.182
 2772SOL     OW 9214   4.773   2.126   0.577
 2772SOL    HW1 9215   4.824   2.087   0.500
 2772SOL    HW2 9216   4.837   2.157   0.647
 2773SOL     OW 9217   4.480   3.022   6.019
 2773SOL    HW1 9218   4.492   3.097   6.084
 2773SOL    HW2 9219   4.513   3.051   5.929
 2774SOL     OW 9220   6.462   3.033   3.111
 2774SOL    HW1 9221   6.363   3.047   3.115
 2774SOL    HW2 9222   6.486   2.995   3.022
 2775SOL     OW 9223   0.170   5.479   0.229
 2775SOL    HW1 9224   0.219   5.548   0.281
 2775SOL    HW2 9225   0.139   5.406   0.290
 2776SOL     OW 9226   4.176   5.770   5.400
 2776SOL    HW1 9227   4.093   5.816   5.430
 2776SOL    HW2 9228   4.241   5.837   5.365
 2777SOL     OW 9229   3.030   1.136   2.062
 2777SOL    HW1 9230   3.057   1.057   2.116
 2777SOL    HW2 9231   2.961   1.189   2.112
 2778SOL     OW 9232   1.787   1.268   5.240
 2778SOL    HW1 9233   1.864   1.222   5.285
 2778SOL    HW2 9234   1.820   1.317   5.160
 2779SOL     OW 9235   4.610   0.406   0.486
 2779SOL    HW1 9236   4.642   0.359   0.568
 2779SOL    HW2 9237   4.536   0.469   0.509
 2780SOL     OW 9238   6.123   5.739   5.684
 2780SOL    HW1 9239   6.209   5.779   5.653
 2780SOL    HW2 9240   6.051   5.761   5.619
 2781SOL     OW 9241   6.220   5.555   2.106
 2781SOL    HW1 9242   6.122   5.541   2.092
 2781SOL    HW2 9243   6.234   5.640   2.157
 2782SOL     OW 9244   3.104   2.694   6.266
 2782SOL    HW1 9245   3.136   2.787   6.249
 2782SOL    HW2 9246   3.041   2.694   6.344
 2783SOL     OW 9247   5.882   3.355   5.274
 2783SOL    HW1 9248   5.822   3.275   5.274
 2783SOL    HW2 9249   5.924   3.365   5.184
 2784SOL     OW 9250   2.381   1.940   1.629
 2784SOL    HW1 9251   2.363   1.943   1.531
 2784SOL    HW2 9252   2.322   2.006   1.676
 2785SOL     OW 9253   6.457   1.136   0.111
 2785SOL    HW1 9254   6.505   1.094   0.189
 2785SOL    HW2 9255   6.438   1.065   0.043
 2786SOL     OW 9256   3.716   0.059   1.505
 2786SOL    HW1 9257   3.645   0.092   1.442
 2786SOL    HW2 9258   3.804   0.099   1.481
 2787SOL     OW 9259   2.546   3.019   6.633
 2787SOL    HW1 9260   2.497   2.971   6.560
 2787SOL    HW2 9261   2.594   3.098   6.595
 2788SOL     OW 9262   2.130   4.004   0.296
 2788SOL    HW1 9263   2.139   4.082   0.358
 2788SOL    HW2 9264   2.109   4.037   0.204
 2789SOL     OW 9265   1.553   1.960   3.612
 2789SOL    HW1 9266   1.456   1.979   3.618
 2789SOL    HW2 9267   1.568   1.861   3.615
 2790SOL     OW 9268   3.306   5.520   2.909
 2790SOL    HW1 9269   3.224   5.577   2.919
 2790SOL    HW2 9270   3.320   5.467   2.992
 2791SOL     OW 9271   1.889   4.501   4.678
 2791SOL    HW1 9272   1.819   4.439   4.713
 2791SOL    HW2 9273   1.882   4.507   4.578
 2792SOL     OW 9274   1.257   0.144   4.803
 2792SOL    HW1 9275   1.339   0.181   4.761
 2792SOL    HW2 9276   1.257   0.165   4.901
 2793SOL     OW 9277   4.611   2.226   2.505
 2793SOL    HW1 9278   4.553   2.147   2.484
 2793SOL    HW2 9279   4.620   2.284   2.425
 2794SOL     OW 9280   6.693   3.087   0.428
 2794SOL    HW1 9281   6.640   3.042   0.355
 2794SOL    HW2 9282   6.650   3.069   0.516
 2795SOL     OW 9283   2.933   3.706   1.496
 2795SOL    HW1 9284   2.854   3.677   1.550
 2795SOL    HW2 9285   2.909   3.788   1.444
 2796SOL     OW 9286   6.847   4.233   2.727
 2796SOL    HW1 9287   6.943   4.217   2.749
 2796SOL    HW2 9288   6.791   4.163   2.772
 2797SOL     OW 9289   5.106   5.415   4.909
 2797SOL    HW1 9290   5.123   5.471   4.828
 2797SOL    HW2 9291   5.182   5.427   4.974
 2798SOL     OW 9292   1.286   4.097   2.366
 2798SOL    HW1 9293   1.351   4.138   2.302
 2798SOL    HW2 9294   1.325   4.013   2.404
 2799SOL     OW 9295   0.218   5.923   0.242
 2799SOL    HW1 9296   0.125   5.914   0.207
 2799SOL    HW2 9297   0.284   5.911   0.167
 2800SOL     OW 9298   4.546   4.433   6.861
 2800SOL    HW1 9299   4.464   4.401   6.814
 2800SOL    HW2 9300   4.578   4.363   6.924
 2801SOL     OW 9301   4.322   5.585   4.077
 2801SOL    HW1 9302   4.268   5.597   4.160
 2801SOL    HW2 9303   4.397   5.650   4.075
 2802SOL     OW 9304   4.524   3.359   6.697
 2802SOL    HW1 9305   4.563   3.426   6.760
 2802SOL    HW2 9306   4.486   3.282   6.749
 2803SOL     OW 9307   2.443   5.943   6.274
 2803SOL    HW1 9308   2.466   5.912   6.182
 2803SOL    HW2 9309   2.501   6.021   6.298
 2804SOL     OW 9310   6.981   4.521   3.834
 2804SOL    HW1 9311   0.035   4.518   3.897
 2804SOL    HW2 9312   6.903   4.476   3.876
 2805SOL     OW 9313   4.640   3.332   1.349
 2805SOL    HW1 9314   4.604   3.389   1.423
 2805SOL    HW2 9315   4.605   3.365   1.262
 2806SOL     OW 9316   5.885   5.181   3.418
 2806SOL    HW1 9317   5.912   5.110   3.353
 2806SOL    HW2 9318   5.927   5.163   3.507
 2807SOL     OW 9319   5.346   4.962   3.809
 2807SOL    HW1 9320   5.325   5.021   3.731
 2807SOL    HW2 9321   5.263   4.947   3.862
 2808SOL     OW 9322   4.167   1.562   2.859
 2808SOL    HW1 9323   4.224   1.594   2.935
 2808SOL    HW2 9324   4.092   1.627   2.844
 2809SOL     OW 9325   6.563   3.271   1.452
 2809SOL    HW1 9326   6.541   3.187   1.402
 2809SOL    HW2 9327   6.607   3.337   1.391
 2810SOL     OW 9328   3.647   6.528   4.738
 2810SOL    HW1 9329   3.617   6.585   4.662
 2810SOL    HW2 9330   3.575   6.524   4.807
 2811SOL     OW 9331   0.661   0.739   3.631
 2811SOL    HW1 9332   0.710   0.657   3.603
 2811SOL    HW2 9333   0.562   0.723   3.624
 2812SOL     OW 9334   5.334   3.530   1.335
 2812SOL    HW1 9335   5.394   3.451   1.326
 2812SOL    HW2 9336   5.243   3.507   1.300
 2813SOL     OW 9337   6.343   6.645   5.556
 2813SOL    HW1 9338   6.411   6.717   5.569
 2813SOL    HW2 9339   6.314   6.644   5.460
 2814SOL     OW 9340   4.469   3.080   6.996
 2814SOL    HW1 9341   4.441   3.047   6.906
 2814SOL    HW2 9342   4.389   3.117   0.019
 2815SOL     OW 9343   6.939   1.452   4.898
 2815SOL    HW1 9344   6.871   1.520   4.927
 2815SOL    HW2 9345   6.965   1.395   4.977
 2816SOL     OW 9346   6.862   6.593   3.739
 2816SOL    HW1 9347   6.813   6.527   3.797
 2816SOL    HW2 9348   6.932   6.639   3.793
 2817SOL     OW 9349   1.955   0.138   1.131
 2817SOL    HW1 9350   1.989   0.045   1.143
 2817SOL    HW2 9351   1.924   0.174   1.219
 2818SOL     OW 9352   0.151   5.578   6.967
 2818SOL    HW1 9353   0.236   5.566   7.018
 2818SOL    HW2 9354   0.091   5.642   7.016
 2819SOL     OW 9355   0.349   2.319   0.881
 2819SOL    HW1 9356   0.410   2.253   0.838
 2819SOL    HW2 9357   0.254   2.298   0.858
 2820SOL     OW 9358   0.967   2.109   2.066
 2820SOL    HW1 9359   0.999   2.171   2.137
 2820SOL    HW2 9360   1.038   2.041   2.045
 2821SOL     OW 9361   3.547   3.608   6.952
 2821SOL    HW1 9362   3.551   3.689   6.893
 2821SOL    HW2 9363   3.551   3.525   6.895
 2822SOL     OW 9364   3.999   2.288   0.284
 2822SOL    HW1 9365   3.955   2.208   0.326
 2822SOL    HW2 9366   3.954   2.371   0.316
 2823SOL     OW 9367   2.234   6.419   1.399
 2823SOL    HW1 9368   2.170   6.351   1.362
 2823SOL    HW2 9369   2.273   6.384   1.485
 2824SOL     OW 9370   2.561   1.189   4.437
 2824SOL    HW1 9371   2.589   1.229   4.350
 2824SOL    HW2 9372   2.547   1.090   4.426
 2825SOL     OW 9373   6.384   6.748   0.293
 2825SOL    HW1 9374   6.473   6.762   0.336
 2825SOL    HW2 9375   6.396   6.740   0.194
 2826SOL     OW 9376   5.478   2.116   6.344
 2826SOL    HW1 9377   5.469   2.167   6.430
 2826SOL    HW2 9378   5.524   2.172   6.276
 2827SOL     OW 9379   6.660   1.029   5.560
 2827SOL    HW1 9380   6.685   1.066   5.650
 2827SOL    HW2 9381   6.617   1.101   5.506
 2828SOL     OW 9382   3.197   1.317   6.669
 2828SOL    HW1 9383   3.152   1.305   6.757
 2828SOL    HW2 9384   3.292   1.286   6.676
 2829SOL     OW 9385   3.906   3.936   6.347
 2829SOL    HW1 9386   3.906   3.839   6.369
 2829SOL    HW2 9387   3.900   3.948   6.248
 2830SOL     OW 9388   0.215   3.866   6.633
 2830SOL    HW1 9389   0.284   3.801   6.664
 2830SOL    HW2 9390   0.125   3.837   6.664
 2831SOL     OW 9391   0.019   6.238   3.685
 2831SOL    HW1 9392   7.020   6.319   3.738
 2831SOL    HW2 9393   6.991   6.238   3.599
 2832SOL     OW 9394   0.616   0.920   1.493
 2832SOL    HW1 9395   0.635   0.953   1.400
 2832SOL    HW2 9396   0.683   0.850   1.517
 2833SOL     OW 9397   5.172   2.263   2.050
 2833SOL    HW1 9398   5.270   2.262   2.028
 2833SOL    HW2 9399   5.120   2.269   1.965
 2834SOL     OW 9400   2.855   0.436   5.859
 2834SOL    HW1 9401   2.914   0.466   5.784
 2834SOL    HW2 9402   2.880   0.484   5.943
 2835SOL     OW 9403   0.267   0.327   1.504
 2835SOL    HW1 9404   0.300   0.291   1.591
 2835SOL    HW2 9405   0.178   0.285   1.483
 2836SOL     OW 9406   6.618   0.539   1.207
 2836SOL    HW1 9407   6.549   0.522   1.278
 2836SOL    HW2 9408   6.697   0.584   1.248
 2837SOL     OW 9409   5.764   3.087   3.267
 2837SOL    HW1 9410   5.758   3.044   3.357
 2837SOL    HW2 9411   5.794   3.019   3.200
 2838SOL     OW 9412   1.840   4.167   1.913
 2838SOL    HW1 9413   1.859   4.085   1.966
 2838SOL    HW2 9414   1.926   4.207   1.880
 2839SOL     OW 9415   6.023   1.476   1.846
 2839SOL    HW1 9416   6.012   1.571   1.876
 2839SOL    HW2 9417   6.025   1.473   1.746
 2840SOL     OW 9418   0.416   0.834   4.128
 2840SOL    HW1 9419   0.457   0.752   4.088
 2840SOL    HW2 9420   0.484   0.881   4.184
 2841SOL     OW 9421   0.094   0.807   5.736
 2841SOL    HW1 9422   0.020   0.749   5.700
 2841SOL    HW2 9423   0.065   0.848   5.822
 2842SOL     OW 9424   0.183   1.563   4.152
 2842SOL    HW1 9425   0.138   1.490   4.100
 2842SOL    HW2 9426   0.281   1.563   4.132
 2843SOL     OW 9427   3.539   1.693   3.807
 2843SOL    HW1 9428   3.505   1.654   3.721
 2843SOL    HW2 9429   3.594   1.774   3.787
 2844SOL     OW 9430   1.387   4.547   0.501
 2844SOL    HW1 9431   1.403   4.644   0.482
 2844SOL    HW2 9432   1.474   4.503   0.523
 2845SOL     OW 9433   1.243   3.269   0.352
 2845SOL    HW1 9434   1.245   3.288   0.450
 2845SOL    HW2 9435   1.173   3.325   0.308
 2846SOL     OW 9436   4.903   1.628   6.801
 2846SOL    HW1 9437   5.001   1.627   6.781
 2846SOL    HW2 9438   4.874   1.721   6.822
 2847SOL     OW 9439   5.357   3.734   3.347
 2847SOL    HW1 9440   5.372   3.727   3.446
 2847SOL    HW2 9441   5.279   3.794   3.330
 2848SOL     OW 9442   0.397   4.537   6.337
 2848SOL    HW1 9443   0.489   4.536   6.299
 2848SOL    HW2 9444   0.379   4.624   6.382
 2849SOL     OW 9445   3.546   0.336   1.872
 2849SOL    HW1 9446   3.615   0.406   1.891
 2849SOL    HW2 9447   3.469   0.378   1.824
 2850SOL     OW 9448   3.192   0.298   2.481
 2850SOL    HW1 9449   3.107   0.250   2.504
 2850SOL    HW2 9450   3.208   0.292   2.383
 2851SOL     OW 9451   0.649   3.806   5.350
 2851SOL    HW1 9452   0.553   3.826   5.333
 2851SOL    HW2 9453   0.697   3.794   5.263
 2852SOL     OW 9454   5.784   4.613   0.349
 2852SOL    HW1 9455   5.881   4.605   0.327
 2852SOL    HW2 9456   5.773   4.624   0.448
 2853SOL     OW 9457   2.423   1.876   6.829
 2853SOL    HW1 9458   2.496   1.837   6.886
 2853SOL    HW2 9459   2.335   1.837   6.857
 2854SOL     OW 9460   3.348   1.761   4.170
 2854SOL    HW1 9461   3.300   1.764   4.083
 2854SOL    HW2 9462   3.349   1.852   4.211
 2855SOL     OW 9463   1.898   0.878   5.962
 2855SOL    HW1 9464   1.860   0.885   5.870
 2855SOL    HW2 9465   1.848   0.808   6.013
 2856SOL     OW 9466   2.229   2.830   5.969
 2856SOL    HW1 9467   2.298   2.898   5.992
 2856SOL    HW2 9468   2.223   2.820   5.869
 2857SOL     OW 9469   3.079   1.918   1.707
 2857SOL    HW1 9470   3.118   1.849   1.768
 2857SOL    HW2 9471   3.149   1.988   1.688
 2858SOL     OW 9472   6.050   3.551   1.885
 2858SOL    HW1 9473   5.990   3.628   1.866
 2858SOL    HW2 9474   6.142   3.572   1.853
 2859SOL     OW 9475   5.358   2.130   0.553
 2859SOL    HW1 9476   5.326   2.222   0.528
 2859SOL    HW2 9477   5.293   2.088   0.616
 2860SOL     OW 9478   3.583   1.891   1.115
 2860SOL    HW1 9479   3.538   1.886   1.026
 2860SOL    HW2 9480   3.681   1.877   1.104
 2861SOL     OW 9481   4.837   5.323   5.762
 2861SOL    HW1 9482   4.795   5.236   5.789
 2861SOL    HW2 9483   4.778   5.370   5.697
 2862SOL     OW 9484   5.249   1.402   2.820
 2862SOL    HW1 9485   5.338   1.370   2.787
 2862SOL    HW2 9486   5.176   1.353   2.773
 2863SOL     OW 9487   6.032   1.389   0.064
 2863SOL    HW1 9488   6.035   1.464   7.022
 2863SOL    HW2 9489   5.940   1.384   0.104
 2864SOL     OW 9490   3.801   0.462   1.372
 2864SOL    HW1 9491   3.808   0.462   1.272
 2864SOL    HW2 9492   3.884   0.501   1.411
 2865SOL     OW 9493   5.058   4.301   5.630
 2865SOL    HW1 9494   4.988   4.266   5.568
 2865SOL    HW2 9495   5.082   4.395   5.603
 2866SOL     OW 9496   6.111   6.362   0.346
 2866SOL    HW1 9497   6.207   6.352   0.320
 2866SOL    HW2 9498   6.089   6.460   0.350
 2867SOL     OW 9499   5.512   4.060   2.103
 2867SOL    HW1 9500   5.604   4.100   2.102
 2867SOL    HW2 9501   5.474   4.066   2.195
 2868SOL     OW 9502   0.378   3.143   5.288
 2868SOL    HW1 9503   0.380   3.044   5.303
 2868SOL    HW2 9504   0.359   3.163   5.192
 2869SOL     OW 9505   5.671   1.392   3.509
 2869SOL    HW1 9506   5.674   1.296   3.482
 2869SOL    HW2 9507   5.587   1.410   3.560
 2870SOL     OW 9508   6.773   1.445   4.666
 2870SOL    HW1 9509   6.822   1.430   4.752
 2870SOL    HW2 9510   6.812   1.523   4.618
 2871SOL     OW 9511   1.870   1.229   6.942
 2871SOL    HW1 9512   1.901   1.324   6.932
 2871SOL    HW2 9513   1.934   1.179   6.999
 2872SOL     OW 9514   2.635   1.495   3.424
 2872SOL    HW1 9515   2.654   1.417   3.364
 2872SOL    HW2 9516   2.561   1.470   3.487
 2873SOL     OW 9517   1.503   5.032   3.536
 2873SOL    HW1 9518   1.457   5.086   3.607
 2873SOL    HW2 9519   1.530   5.092   3.461
 2874SOL     OW 9520   4.783   5.305   2.688
 2874SOL    HW1 9521   4.878   5.275   2.691
 2874SOL    HW2 9522   4.751   5.304   2.593
 2875SOL     OW 9523   4.317   6.415   6.743
 2875SOL    HW1 9524   4.368   6.493   6.705
 2875SOL    HW2 9525   4.310   6.343   6.674
 2876SOL     OW 9526   0.945   6.963   1.643
 2876SOL    HW1 9527   0.931   6.973   1.545
 2876SOL    HW2 9528   0.886   6.890   1.678
 2877SOL     OW 9529   3.540   2.980   5.220
 2877SOL    HW1 9530   3.472   2.930   5.273
 2877SOL    HW2 9531   3.632   2.961   5.255
 2878SOL     OW 9532   3.814   5.135   4.772
 2878SOL    HW1 9533   3.813   5.234   4.784
 2878SOL    HW2 9534   3.811   5.091   4.862
 2879SOL     OW 9535   4.752   5.297   0.125
 2879SOL    HW1 9536   4.726   5.349   0.207
 2879SOL    HW2 9537   4.765   5.201   0.150
 2880SOL     OW 9538   6.089   6.629   0.860
 2880SOL    HW1 9539   6.007   6.642   0.804
 2880SOL    HW2 9540   6.080   6.680   0.945
 2881SOL     OW 9541   5.607   6.249   1.171
 2881SOL    HW1 9542   5.675   6.263   1.243
 2881SOL    HW2 9543   5.647   6.271   1.082
 2882SOL     OW 9544   0.684   3.657   2.572
 2882SOL    HW1 9545   0.623   3.589   2.534
 2882SOL    HW2 9546   0.632   3.720   2.631
 2883SOL     OW 9547   5.153   6.182   3.932
 2883SOL    HW1 9548   5.061   6.168   3.896
 2883SOL    HW2 9549   5.177   6.106   3.993
 2884SOL     OW 9550   0.762   5.423   2.919
 2884SOL    HW1 9551   0.709   5.408   3.002
 2884SOL    HW2 9552   0.836   5.488   2.938
 2885SOL     OW 9553   0.046   2.810   2.533
 2885SOL    HW1 9554   0.106   2.802   2.613
 2885SOL    HW2 9555   0.093   2.776   2.452
 2886SOL     OW 9556   2.137   3.491   6.852
 2886SOL    HW1 9557   2.209   3.462   6.790
 2886SOL    HW2 9558   2.103   3.581   6.825
 2887SOL     OW 9559   2.043   7.001   5.021
 2887SOL    HW1 9560   1.964   7.016   5.081
 2887SOL    HW2 9561   2.093   6.920   5.052
 2888SOL     OW 9562   0.207   4.856   6.805
 2888SOL    HW1 9563   0.251   4.766   6.805
 2888SOL    HW2 9564   0.117   4.850   6.763
 2889SOL     OW 9565   1.511   1.078   2.394
 2889SOL    HW1 9566   1.528   1.159   2.450
 2889SOL    HW2 9567   1.431   1.029   2.430
 2890SOL     OW 9568   2.676   0.429   1.187
 2890SOL    HW1 9569   2.701   0.516   1.145
 2890SOL    HW2 9570   2.615   0.379   1.126
 2891SOL     OW 9571   2.494   4.469   3.281
 2891SOL    HW1 9572   2.422   4.531   3.252
 2891SOL    HW2 9573   2.575   4.482   3.223
 2892SOL     OW 9574   5.160   4.129   0.511
 2892SOL    HW1 9575   5.117   4.217   0.488
 2892SOL    HW2 9576   5.198   4.087   0.429
 2893SOL     OW 9577   1.097   6.908   4.822
 2893SOL    HW1 9578   1.138   6.996   4.799
 2893SOL    HW2 9579   1.107   6.891   4.920
 2894SOL     OW 9580   3.169   2.558   6.963
 2894SOL    HW1 9581   3.262   2.571   6.996
 2894SOL    HW2 9582   3.168   2.488   6.891
 2895SOL     OW 9583   4.413   2.832   6.206
 2895SOL    HW1 9584   4.465   2.843   6.291
 2895SOL    HW2 9585   4.434   2.909   6.145
 2896SOL     OW 9586   2.719   4.877   6.438
 2896SOL    HW1 9587   2.678   4.965   6.459
 2896SOL    HW2 9588   2.796   4.861   6.500
 2897SOL     OW 9589   2.627   6.372   3.641
 2897SOL    HW1 9590   2.532   6.367   3.671
 2897SOL    HW2 9591   2.687   6.344   3.716
 2898SOL     OW 9592   4.727   4.988   2.863
 2898SOL    HW1 9593   4.725   5.084   2.892
 2898SOL    HW2 9594   4.638   4.962   2.828
 2899SOL     OW 9595   0.097   1.695   6.669
 2899SOL    HW1 9596   0.014   1.653   6.707
 2899SOL    HW2 9597   0.163   1.709   6.742
 2900SOL     OW 9598   1.358   5.113   5.204
 2900SOL    HW1 9599   1.328   5.138   5.296
 2900SOL    HW2 9600   1.374   5.196   5.150
 2901SOL     OW 9601   1.223   6.980   3.087
 2901SOL    HW1 9602   1.236   0.054   3.100
 2901SOL    HW2 9603   1.217   6.960   2.989
 2902SOL     OW 9604   5.621   6.112   0.835
 2902SOL    HW1 9605   5.690   6.184   0.836
 2902SOL    HW2 9606   5.544   6.139   0.892
 2903SOL     OW 9607   3.086   0.106   1.818
 2903SOL    HW1 9608   3.120   0.200   1.828
 2903SOL    HW2 9609   3.063   0.069   1.907
 2904SOL     OW 9610   2.475   3.314   5.340
 2904SOL    HW1 9611   2.382   3.342   5.316
 2904SOL    HW2 9612   2.491   3.220   5.310
 2905SOL     OW 9613   0.903   2.167   2.742
 2905SOL    HW1 9614   0.881   2.071   2.726
 2905SOL    HW2 9615   0.854   2.199   2.824
 2906SOL     OW 9616   5.546   4.871   2.597
 2906SOL    HW1 9617   5.571   4.795   2.537
 2906SOL    HW2 9618   5.600   4.867   2.681
 2907SOL     OW 9619   6.240   0.824   4.695
 2907SOL    HW1 9620   6.191   0.902   4.655
 2907SOL    HW2 9621   6.240   0.748   4.630
 2908SOL     OW 9622   4.013   6.640   4.136
 2908SOL    HW1 9623   3.944   6.711   4.120
 2908SOL    HW2 9624   4.096   6.682   4.172
 2909SOL     OW 9625   0.448   5.728   4.041
 2909SOL    HW1 9626   0.539   5.693   4.062
 2909SOL    HW2 9627   0.445   5.826   4.056
 2910SOL     OW 9628   4.216   6.719   4.395
 2910SOL    HW1 9629   4.268   6.804   4.394
 2910SOL    HW2 9630   4.275   6.644   4.426
 2911SOL     OW 9631   2.384   5.373   3.699
 2911SOL    HW1 9632   2.308   5.325   3.655
 2911SOL    HW2 9633   2.407   5.327   3.784
 2912SOL     OW 9634   3.483   6.023   0.148
 2912SOL    HW1 9635   3.454   6.110   0.188
 2912SOL    HW2 9636   3.527   5.967   0.218
 2913SOL     OW 9637   2.140   4.943   2.428
 2913SOL    HW1 9638   2.042   4.932   2.415
 2913SOL    HW2 9639   2.160   4.953   2.526
 2914SOL     OW 9640   5.865   5.331   6.702
 2914SOL    HW1 9641   5.786   5.273   6.722
 2914SOL    HW2 9642   5.919   5.290   6.629
 2915SOL     OW 9643   4.709   1.857   4.390
 2915SOL    HW1 9644   4.783   1.884   4.451
 2915SOL    HW2 9645   4.699   1.758   4.391
 2916SOL     OW 9646   6.297   5.152   5.822
 2916SOL    HW1 9647   6.256   5.101   5.746
 2916SOL    HW2 9648   6.287   5.250   5.805
 2917SOL     OW 9649   4.432   0.611   1.879
 2917SOL    HW1 9650   4.381   0.689   1.841
 2917SOL    HW2 9651   4.518   0.600   1.830
 2918SOL     OW 9652   0.286   3.190   3.132
 2918SOL    HW1 9653   0.225   3.249   3.184
 2918SOL    HW2 9654   0.381   3.214   3.152
 2919SOL     OW 9655   6.531   0.691   0.347
 2919SOL    HW1 9656   6.590   0.657   0.273
 2919SOL    HW2 9657   6.539   0.632   0.427
 2920SOL     OW 9658   3.578   2.012   2.389
 2920SOL    HW1 9659   3.493   1.960   2.387
 2920SOL    HW2 9660   3.653   1.954   2.421
 2921SOL     OW 9661   0.145   0.561   2.654
 2921SOL    HW1 9662   0.060   0.614   2.658
 2921SOL    HW2 9663   0.124   0.464   2.645
 2922SOL     OW 9664   5.743   6.561   6.832
 2922SOL    HW1 9665   5.712   6.655   6.817
 2922SOL    HW2 9666   5.732   6.538   6.929
 2923SOL     OW 9667   7.006   5.480   1.759
 2923SOL    HW1 9668   6.978   5.506   1.852
 2923SOL    HW2 9669   0.015   5.561   1.711
 2924SOL     OW 9670   7.007   1.879   6.313
 2924SOL    HW1 9671   6.979   1.971   6.285
 2924SOL    HW2 9672   0.029   1.833   6.237
 2925SOL     OW 9673   5.502   0.549   3.131
 2925SOL    HW1 9674   5.475   0.515   3.041
 2925SOL    HW2 9675   5.499   0.648   3.132
 2926SOL     OW 9676   6.856   1.543   5.453
 2926SOL    HW1 9677   6.780   1.607   5.450
 2926SOL    HW2 9678   6.928   1.580   5.512
 2927SOL     OW 9679   1.957   1.879   2.279
 2927SOL    HW1 9680   2.046   1.910   2.248
 2927SOL    HW2 9681   1.892   1.954   2.275
 2928SOL     OW 9682   6.269   2.291   6.182
 2928SOL    HW1 9683   6.275   2.290   6.082
 2928SOL    HW2 9684   6.270   2.386   6.214
 2929SOL     OW 9685   0.813   1.297   5.570
 2929SOL    HW1 9686   0.829   1.262   5.478
 2929SOL    HW2 9687   0.788   1.222   5.631
 2930SOL     OW 9688   5.007   6.277   4.880
 2930SOL    HW1 9689   5.005   6.243   4.974
 2930SOL    HW2 9690   4.913   6.281   4.844
 2931SOL     OW 9691   5.261   6.252   6.552
 2931SOL    HW1 9692   5.288   6.300   6.635
 2931SOL    HW2 9693   5.163   6.268   6.535
 2932SOL     OW 9694   1.731   4.938   1.846
 2932SOL    HW1 9695   1.644   4.947   1.894
 2932SOL    HW2 9696   1.731   4.855   1.791
 2933SOL     OW 9697   5.563   2.697   3.818
 2933SOL    HW1 9698   5.617   2.733   3.742
 2933SOL    HW2 9699   5.470   2.733   3.813
 2934SOL     OW 9700   3.644   1.323   0.412
 2934SOL    HW1 9701   3.717   1.328   0.479
 2934SOL    HW2 9702   3.618   1.228   0.397
 2935SOL     OW 9703   6.258   3.178   1.749
 2935SOL    HW1 9704   6.266   3.082   1.725
 2935SOL    HW2 9705   6.247   3.188   1.848
 2936SOL     OW 9706   5.023   5.573   1.595
 2936SOL    HW1 9707   4.984   5.491   1.552
 2936SOL    HW2 9708   5.122   5.561   1.604
 2937SOL     OW 9709   3.341   4.712   0.871
 2937SOL    HW1 9710   3.274   4.701   0.944
 2937SOL    HW2 9711   3.297   4.694   0.783
 2938SOL     OW 9712   4.696   4.823   5.580
 2938SOL    HW1 9713   4.612   4.799   5.628
 2938SOL    HW2 9714   4.744   4.740   5.552
 2939SOL     OW 9715   0.500   6.632   4.022
 2939SOL    HW1 9716   0.587   6.632   3.973
 2939SOL    HW2 9717   0.465   6.725   4.029
 2940SOL     OW 9718   6.024   0.000   5.451
 2940SOL    HW1 9719   6.090   7.013   5.525
 2940SOL    HW2 9720   6.068   7.001   5.364
 2941SOL     OW 9721   2.100   2.521   5.317
 2941SOL    HW1 9722   2.172   2.540   5.250
 2941SOL    HW2 9723   2.054   2.435   5.295
 2942SOL     OW 9724   2.319   0.698   2.105
 2942SOL    HW1 9725   2.278   0.607   2.113
 2942SOL    HW2 9726   2.255   0.766   2.142
 2943SOL     OW 9727   5.449   3.287   3.405
 2943SOL    HW1 9728   5.430   3.358   3.336
 2943SOL    HW2 9729   5.363   3.242   3.431
 2944SOL     OW 9730   2.766   5.467   5.432
 2944SOL    HW1 9731   2.770   5.370   5.410
 2944SOL    HW2 9732   2.858   5.501   5.450
 2945SOL     OW 9733   4.104   3.388   3.459
 2945SOL    HW1 9734   4.077   3.476   3.498
 2945SOL    HW2 9735   4.040   3.317   3.491
 2946SOL     OW 9736   6.910   5.398   5.714
 2946SOL    HW1 9737   6.819   5.383   5.674
 2946SOL    HW2 9738   6.918   5.494   5.741
 2947SOL     OW 9739   0.941   4.397   0.581
 2947SOL    HW1 9740   0.888   4.331   0.634
 2947SOL    HW2 9741   1.038   4.378   0.591
 2948SOL     OW 9742   6.495   3.862   5.498
 2948SOL    HW1 9743   6.446   3.923   5.561
 2948SOL    HW2 9744   6.578   3.829   5.543
 2949SOL     OW 9745   1.936   6.120   0.959
 2949SOL    HW1 9746   1.930   6.023   0.982
 2949SOL    HW2 9747   1.927   6.131   0.860
 2950SOL     OW 9748   5.472   3.279   4.643
 2950SOL    HW1 9749   5.564   3.241   4.649
 2950SOL    HW2 9750   5.412   3.231   4.708
 2951SOL     OW 9751   6.737   2.718   6.806
 2951SOL    HW1 9752   6.650   2.670   6.800
 2951SOL    HW2 9753   6.810   2.654   6.832
 2952SOL     OW 9754   1.409   5.406   4.701
 2952SOL    HW1 9755   1.480   5.336   4.697
 2952SOL    HW2 9756   1.411   5.461   4.618
 2953SOL     OW 9757   4.665   2.492   2.233
 2953SOL    HW1 9758   4.683   2.584   2.198
 2953SOL    HW2 9759   4.735   2.429   2.199
 2954SOL     OW 9760   1.279   5.561   1.448
 2954SOL    HW1 9761   1.242   5.468   1.451
 2954SOL    HW2 9762   1.235   5.612   1.374
 2955SOL     OW 9763   0.792   3.258   0.629
 2955SOL    HW1 9764   0.813   3.350   0.595
 2955SOL    HW2 9765   0.762   3.263   0.724
 2956SOL     OW 9766   6.603   5.881   2.764
 2956SOL    HW1 9767   6.559   5.870   2.853
 2956SOL    HW2 9768   6.696   5.846   2.768
 2957SOL     OW 9769   6.288   3.158   0.988
 2957SOL    HW1 9770   6.256   3.128   0.898
 2957SOL    HW2 9771   6.296   3.079   1.048
 2958SOL     OW 9772   2.630   4.659   4.826
 2958SOL    HW1 9773   2.631   4.758   4.809
 2958SOL    HW2 9774   2.690   4.638   4.903
 2959SOL     OW 9775   4.990   4.527   0.472
 2959SOL    HW1 9776   4.924   4.454   0.493
 2959SOL    HW2 9777   5.082   4.498   0.500
 2960SOL     OW 9778   2.661   0.947   6.549
 2960SOL    HW1 9779   2.676   0.854   6.584
 2960SOL    HW2 9780   2.608   0.999   6.615
 2961SOL     OW 9781   5.352   2.794   4.563
 2961SOL    HW1 9782   5.310   2.751   4.644
 2961SOL    HW2 9783   5.305   2.880   4.543
 2962SOL     OW 9784   4.475   0.828   4.100
 2962SOL    HW1 9785   4.572   0.823   4.074
 2962SOL    HW2 9786   4.465   0.803   4.196
 2963SOL     OW 9787   1.489   1.849   5.450
 2963SOL    HW1 9788   1.468   1.762   5.407
 2963SOL    HW2 9789   1.570   1.889   5.407
 2964SOL     OW 9790   1.473   0.040   1.621
 2964SOL    HW1 9791   1.499   0.046   1.718
 2964SOL    HW2 9792   1.400   6.998   1.609
 2965SOL     OW 9793   6.982   1.262   5.070
 2965SOL    HW1 9794   6.896   1.251   5.119
 2965SOL    HW2 9795   7.004   1.178   5.020
 2966SOL     OW 9796   6.116   4.672   3.959
 2966SOL    HW1 9797   6.145   4.643   3.868
 2966SOL    HW2 9798   6.172   4.749   3.990
 2967SOL     OW 9799   6.159   2.620   3.690
 2967SOL    HW1 9800   6.073   2.593   3.645
 2967SOL    HW2 9801   6.159   2.584   3.784
 2968SOL     OW 9802   0.775   4.133   5.752
 2968SOL    HW1 9803   0.687   4.115   5.709
 2968SOL    HW2 9804   0.763   4.143   5.850
 2969SOL     OW 9805   5.641   1.056   4.969
 2969SOL    HW1 9806   5.720   1.101   5.011
 2969SOL    HW2 9807   5.619   1.102   4.883
 2970SOL     OW 9808   1.314   4.246   0.097
 2970SOL    HW1 9809   1.374   4.294   0.033
 2970SOL    HW2 9810   1.258   4.313   0.146
 2971SOL     OW 9811   5.240   2.668   4.793
 2971SOL    HW1 9812   5.183   2.750   4.792
 2971SOL    HW2 9813   5.320   2.684   4.850
 2972SOL     OW 9814   6.616   4.984   6.144
 2972SOL    HW1 9815   6.569   5.019   6.225
 2972SOL    HW2 9816   6.553   4.982   6.067
 2973SOL     OW 9817   5.297   0.864   4.434
 2973SOL    HW1 9818   5.325   0.956   4.406
 2973SOL    HW2 9819   5.200   0.864   4.458
 2974SOL     OW 9820   6.880   3.600   3.391
 2974SOL    HW1 9821   6.961   3.642   3.432
 2974SOL    HW2 9822   6.872   3.632   3.296
 2975SOL     OW 9823   0.288   1.997   5.286
 2975SOL    HW1 9824   0.219   1.951   5.230
 2975SOL    HW2 9825   0.290   2.094   5.264
 2976SOL     OW 9826   3.758   1.468   2.478
 2976SOL    HW1 9827   3.727   1.404   2.549
 2976SOL    HW2 9828   3.818   1.420   2.414
 2977SOL     OW 9829   2.072   0.463   4.564
 2977SOL    HW1 9830   2.046   0.395   4.495
 2977SOL    HW2 9831   2.042   0.432   4.654
 2978SOL     OW 9832   4.253   4.748   6.710
 2978SOL    HW1 9833   4.353   4.752   6.718
 2978SOL    HW2 9834   4.213   4.825   6.758
 2979SOL     OW 9835   4.527   6.672   4.044
 2979SOL    HW1 9836   4.577   6.585   4.041
 2979SOL    HW2 9837   4.570   6.732   4.112
 2980SOL     OW 9838   1.596   5.868   4.029
 2980SOL    HW1 9839   1.682   5.919   4.024
 2980SOL    HW2 9840   1.558   5.857   3.938
 2981SOL     OW 9841   0.806   0.034   6.095
 2981SOL    HW1 9842   0.808   0.133   6.108
 2981SOL    HW2 9843   0.711   0.003   6.087
 2982SOL     OW 9844   4.860   6.210   3.071
 2982SOL    HW1 9845   4.771   6.211   3.116
 2982SOL    HW2 9846   4.901   6.119   3.080
 2983SOL     OW 9847   1.229   0.985   4.194
 2983SOL    HW1 9848   1.212   0.906   4.135
 2983SOL    HW2 9849   1.204   1.068   4.145
 2984SOL     OW 9850   4.848   5.700   1.309
 2984SOL    HW1 9851   4.843   5.712   1.408
 2984SOL    HW2 9852   4.940   5.721   1.278
 2985SOL     OW 9853   0.711   2.347   4.455
 2985SOL    HW1 9854   0.735   2.279   4.524
 2985SOL    HW2 9855   0.765   2.430   4.468
 2986SOL     OW 9856   2.054   4.149   6.408
 2986SOL    HW1 9857   2.144   4.194   6.411
 2986SOL    HW2 9858   1.985   4.214   6.379
 2987SOL     OW 9859   4.912   0.871   3.639
 2987SOL    HW1 9860   4.992   0.915   3.598
 2987SOL    HW2 9861   4.937   0.777   3.667
 2988SOL     OW 9862   0.259   6.816   2.511
 2988SOL    HW1 9863   0.325   6.869   2.460
 2988SOL    HW2 9864   0.279   6.823   2.609
 2989SOL     OW 9865   6.288   6.351   0.979
 2989SOL    HW1 9866   6.338   6.327   0.896
 2989SOL    HW2 9867   6.243   6.439   0.966
 2990SOL     OW 9868   4.255   1.196   3.820
 2990SOL    HW1 9869   4.265   1.139   3.901
 2990SOL    HW2 9870   4.281   1.144   3.739
 2991SOL     OW 9871   6.714   3.736   0.373
 2991SOL    HW1 9872   6.781   3.801   0.337
 2991SOL    HW2 9873   6.724   3.648   0.327
 2992SOL     OW 9874   2.064   5.286   5.820
 2992SOL    HW1 9875   2.028   5.193   5.823
 2992SOL    HW2 9876   2.157   5.285   5.783
 2993SOL     OW 9877   1.149   4.735   1.942
 2993SOL    HW1 9878   1.115   4.698   1.856
 2993SOL    HW2 9879   1.118   4.830   1.952
 2994SOL     OW 9880   4.039   1.172   0.463
 2994SOL    HW1 9881   4.027   1.206   0.369
 2994SOL    HW2 9882   3.960   1.199   0.518
 2995SOL     OW 9883   1.029   3.031   6.850
 2995SOL    HW1 9884   1.053   2.934   6.842
 2995SOL    HW2 9885   0.996   3.064   6.761
 2996SOL     OW 9886   3.396   6.195   4.377
 2996SOL    HW1 9887   3.413   6.110   4.327
 2996SOL    HW2 9888   3.357   6.173   4.467
 2997SOL     OW 9889   4.869   6.640   1.949
 2997SOL    HW1 9890   4.903   6.547   1.966
 2997SOL    HW2 9891   4.929   6.706   1.996
 2998SOL     OW 9892   5.032   6.227   5.151
 2998SOL    HW1 9893   4.953   6.232   5.213
 2998SOL    HW2 9894   5.085   6.311   5.158
 2999SOL     OW 9895   3.670   5.924   3.857
 2999SOL    HW1 9896   3.750   5.946   3.913
 2999SOL    HW2 9897   3.662   5.825   3.848
 3000SOL     OW 9898   1.497   3.817   6.455
 3000SOL    HW1 9899   1.527   3.912   6.445
 3000SOL    HW2 9900   1.547   3.775   6.530
 3001SOL     OW 9901   5.701   0.473   0.098
 3001SOL    HW1 9902   5.750   0.546   0.051
 3001SOL    HW2 9903   5.698   0.392   0.039
 3002SOL     OW 9904   4.258   0.586   5.392
 3002SOL    HW1 9905   4.187   0.621   5.454
 3002SOL    HW2 9906   4.346   0.590   5.438
 3003SOL     OW 9907   2.543   6.274   6.927
 3003SOL    HW1 9908   2.456   6.324   6.927
 3003SOL    HW2 9909   2.613   6.330   6.972
 3004SOL     OW 9910   6.704   4.808   3.916
 3004SOL    HW1 9911   6.736   4.871   3.845
 3004SOL    HW2 9912   6.783   4.764   3.960
 3005SOL     OW 9913   3.504   2.840   1.052
 3005SOL    HW1 9914   3.548   2.907   1.113
 3005SOL    HW2 9915   3.574   2.797   0.995
 3006SOL     OW 9916   6.413   2.307   0.090
 3006SOL    HW1 9917   6.457   2.247   0.023
 3006SOL    HW2 9918   6.409   2.261   0.178
 3007SOL     OW 9919   6.216   5.012   2.590
 3007SOL    HW1 9920   6.176   5.052   2.673
 3007SOL    HW2 9921   6.153   4.944   2.553
 3008SOL     OW 9922   3.689   0.425   6.449
 3008SOL    HW1 9923   3.629   0.372   6.389
 3008SOL    HW2 9924   3.673   0.399   6.544
 3009SOL     OW 9925   0.688   6.383   2.398
 3009SOL    HW1 9926   0.668   6.478   2.422
 3009SOL    HW2 9927   0.777   6.378   2.353
 3010SOL     OW 9928   3.965   5.664   3.394
 3010SOL    HW1 9929   3.906   5.681   3.473
 3010SOL    HW2 9930   3.953   5.737   3.326
 3011SOL     OW 9931   5.524   1.104   6.983
 3011SOL    HW1 9932   5.617   1.074   7.006
 3011SOL    HW2 9933   5.462   1.027   6.988
 3012SOL     OW 9934   1.073   3.806   5.001
 3012SOL    HW1 9935   1.087   3.796   5.099
 3012SOL    HW2 9936   1.084   3.717   4.956
 3013SOL     OW 9937   5.390   5.720   3.770
 3013SOL    HW1 9938   5.444   5.735   3.853
 3013SOL    HW2 9939   5.442   5.662   3.707
 3014SOL     OW 9940   4.965   2.523   3.728
 3014SOL    HW1 9941   5.012   2.437   3.709
 3014SOL    HW2 9942   5.012   2.571   3.802
 3015SOL     OW 9943   3.894   2.520   0.860
 3015SOL    HW1 9944   3.803   2.560   0.868
 3015SOL    HW2 9945   3.902   2.473   0.772
 3016SOL     OW 9946   3.400   5.996   4.628
 3016SOL    HW1 9947   3.305   5.987   4.598
 3016SOL    HW2 9948   3.461   5.970   4.553
 3017SOL     OW 9949   1.183   5.293   1.359
 3017SOL    HW1 9950   1.113   5.225   1.381
 3017SOL    HW2 9951   1.153   5.348   1.281
 3018SOL     OW 9952   3.170   6.898   6.212
 3018SOL    HW1 9953   3.124   6.892   6.123
 3018SOL    HW2 9954   3.107   6.934   6.280
 3019SOL     OW 9955   2.383   6.618   0.987
 3019SOL    HW1 9956   2.394   6.712   1.019
 3019SOL    HW2 9957   2.315   6.571   1.043
 3020SOL     OW 9958   3.609   3.806   1.552
 3020SOL    HW1 9959   3.628   3.727   1.610
 3020SOL    HW2 9960   3.626   3.783   1.457
 3021SOL     OW 9961   2.256   1.480   0.500
 3021SOL    HW1 9962   2.353   1.505   0.509
 3021SOL    HW2 9963   2.216   1.472   0.591
 3022SOL     OW 9964   4.370   6.134   2.808
 3022SOL    HW1 9965   4.401   6.146   2.714
 3022SOL    HW2 9966   4.294   6.197   2.826
 3023SOL     OW 9967   3.734   6.530   2.864
 3023SOL    HW1 9968   3.692   6.620   2.869
 3023SOL    HW2 9969   3.668   6.460   2.891
 3024SOL     OW 9970   3.232   0.440   6.529
 3024SOL    HW1 9971   3.213   0.355   6.579
 3024SOL    HW2 9972   3.258   0.419   6.435
 3025SOL     OW 9973   3.605   2.709   0.382
 3025SOL    HW1 9974   3.592   2.806   0.404
 3025SOL    HW2 9975   3.522   2.672   0.340
 3026SOL     OW 9976   1.381   2.857   0.652
 3026SOL    HW1 9977   1.423   2.776   0.610
 3026SOL    HW2 9978   1.326   2.905   0.585
 3027SOL     OW 9979   3.981   1.150   1.701
 3027SOL    HW1 9980   4.019   1.094   1.627
 3027SOL    HW2 9981   3.920   1.219   1.663
 3028SOL     OW 9982   1.244   4.282   6.573
 3028SOL    HW1 9983   1.158   4.230   6.570
 3028SOL    HW2 9984   1.252   4.339   6.492
 3029SOL     OW 9985   0.041   5.127   4.729
 3029SOL    HW1 9986   0.050   5.199   4.798
 3029SOL    HW2 9987   6.973   5.088   4.734
 3030SOL     OW 9988   0.462   2.222   5.701
 3030SOL    HW1 9989   0.454   2.320   5.686
 3030SOL    HW2 9990   0.465   2.174   5.613
 3031SOL     OW 9991   0.414   3.658   1.028
 3031SOL    HW1 9992   0.465   3.744   1.034
 3031SOL    HW2 9993   0.399   3.622   1.120
 3032SOL     OW 9994   5.268   0.603   0.564
 3032SOL    HW1 9995   5.275   0.672   0.636
 3032SOL    HW2 9996   5.215   0.641   0.487
 3033SOL     OW 9997   0.907   2.727   0.670
 3033SOL    HW1 9998   0.884   2.803   0.730
 3033SOL    HW2 9999   0.984   2.753   0.612
 3034SOL     OW10000   2.261   6.174   4.073
 3034SOL    HW110001   2.327   6.100   4.063
 3034SOL    HW210002   2.309   6.259   4.096
 3035SOL     OW10003   6.955   3.183   0.532
 3035SOL    HW110004   6.971   3.239   0.450
 3035SOL    HW210005   6.877   3.122   0.516
 3036SOL     OW10006   1.465   3.370   6.641
 3036SOL    HW110007   1.434   3.276   6.632
 3036SOL    HW210008   1.563   3.371   6.662
 3037SOL     OW10009   6.233   5.601   4.962
 3037SOL    HW110010   6.288   5.680   4.992
 3037SOL    HW210011   6.139   5.630   4.945
 3038SOL     OW10012   5.737   6.609   6.278
 3038SOL    HW110013   5.695   6.697   6.298
 3038SOL    HW210014   5.793   6.616   6.195
 3039SOL     OW10015   6.513   3.720   2.194
 3039SOL    HW110016   6.586   3.749   2.132
 3039SOL    HW210017   6.549   3.711   2.287
 3040SOL     OW10018   4.959   4.254   6.216
 3040SOL    HW110019   5.039   4.249   6.276
 3040SOL    HW210020   4.958   4.175   6.155
 3041SOL     OW10021   2.042   2.526   5.592
 3041SOL    HW110022   2.100   2.524   5.510
 3041SOL    HW210023   1.966   2.589   5.578
 3042SOL     OW10024   4.838   6.462   1.744
 3042SOL    HW110025   4.847   6.538   1.809
 3042SOL    HW210026   4.846   6.497   1.651
 3043SOL     OW10027   0.580   5.206   0.813
 3043SOL    HW110028   0.660   5.184   0.758
 3043SOL    HW210029   0.581   5.303   0.838
 3044SOL     OW10030   3.033   4.786   6.200
 3044SOL    HW110031   2.957   4.725   6.223
 3044SOL    HW210032   3.023   4.818   6.105
 3045SOL     OW10033   4.838   0.640   2.243
 3045SOL    HW110034   4.840   0.557   2.298
 3045SOL    HW210035   4.745   0.677   2.242
 3046SOL     OW10036   1.635   2.415   5.786
 3046SOL    HW110037   1.715   2.358   5.771
 3046SOL    HW210038   1.552   2.362   5.766
 3047SOL     OW10039   4.919   5.768   2.230
 3047SOL    HW110040   4.876   5.810   2.151
 3047SOL    HW210041   5.010   5.735   2.205
 3048SOL     OW10042   3.351   3.354   1.749
 3048SOL    HW110043   3.257   3.326   1.729
 3048SOL    HW210044   3.387   3.408   1.673
 3049SOL     OW10045   1.333   5.983   1.209
 3049SOL    HW110046   1.281   5.990   1.294
 3049SOL    HW210047   1.416   6.037   1.215
 3050SOL     OW10048   3.409   0.548   3.601
 3050SOL    HW110049   3.368   0.481   3.663
 3050SOL    HW210050   3.465   0.500   3.533
 3051SOL     OW10051   2.947   3.606   7.017
 3051SOL    HW110052   2.979   3.534   0.054
 3051SOL    HW210053   2.847   3.614   7.024
 3052SOL     OW10054   4.345   0.905   2.102
 3052SOL    HW110055   4.281   0.938   2.033
 3052SOL    HW210056   4.389   0.983   2.147
 3053SOL     OW10057   6.533   0.559   6.333
 3053SOL    HW110058   6.491   0.543   6.422
 3053SOL    HW210059   6.469   0.530   6.261
 3054SOL     OW10060   0.813   2.924   0.386
 3054SOL    HW110061   0.891   2.881   0.430
 3054SOL    HW210062   0.786   2.871   0.306
 3055SOL     OW10063   4.872   0.260   3.664
 3055SOL    HW110064   4.787   0.291   3.706
 3055SOL    HW210065   4.854   0.182   3.605
 3056SOL     OW10066   0.330   0.421   6.746
 3056SOL    HW110067   0.310   0.437   6.649
 3056SOL    HW210068   0.256   0.459   6.802
 3057SOL     OW10069   4.394   5.701   2.972
 3057SOL    HW110070   4.450   5.780   2.948
 3057SOL    HW210071   4.318   5.694   2.907
 3058SOL     OW10072   6.814   5.757   1.518
 3058SOL    HW110073   6.734   5.766   1.457
 3058SOL    HW210074   6.812   5.667   1.562
 3059SOL     OW10075   1.698   2.704   5.173
 3059SOL    HW110076   1.781   2.701   5.117
 3059SOL    HW210077   1.713   2.651   5.256
 3060SOL     OW10078   0.297   6.163   0.368
 3060SOL    HW110079   0.384   6.185   0.325
 3060SOL    HW210080   0.258   6.082   0.326
 3061SOL     OW10081   6.846   1.018   4.756
 3061SOL    HW110082   6.943   1.026   4.779
 3061SOL    HW210083   6.812   0.930   4.790
 3062SOL     OW10084   1.522   6.882   0.232
 3062SOL    HW110085   1.465   6.914   0.308
 3062SOL    HW210086   1.609   6.930   0.233
 3063SOL     OW10087   2.700   5.274   2.004
 3063SOL    HW110088   2.767   5.202   2.023
 3063SOL    HW210089   2.608   5.238   2.021
 3064SOL     OW10090   6.131   3.443   3.643
 3064SOL    HW110091   6.126   3.347   3.670
 3064SOL    HW210092   6.204   3.454   3.576
 3065SOL     OW10093   1.839   0.641   6.440
 3065SOL    HW110094   1.915   0.586   6.473
 3065SOL    HW210095   1.873   0.726   6.400
 3066SOL     OW10096   5.785   4.629   0.662
 3066SOL    HW110097   5.713   4.578   0.710
 3066SOL    HW210098   5.815   4.706   0.718
 3067SOL     OW10099   3.777   1.300   4.403
 3067SOL    HW110100   3.736   1.359   4.333
 3067SOL    HW210101   3.736   1.209   4.398
 3068SOL     OW10102   5.233   5.978   0.580
 3068SOL    HW110103   5.230   5.885   0.545
 3068SOL    HW210104   5.314   6.025   0.543
 3069SOL     OW10105   6.635   5.890   1.856
 3069SOL    HW110106   6.576   5.892   1.776
 3069SOL    HW210107   6.612   5.967   1.917
 3070SOL     OW10108   1.966   1.087   2.181
 3070SOL    HW110109   1.995   1.075   2.086
 3070SOL    HW210110   1.868   1.108   2.184
 3071SOL     OW10111   6.193   6.470   3.683
 3071SOL    HW110112   6.151   6.475   3.774
 3071SOL    HW210113   6.244   6.554   3.665
 3072SOL     OW10114   0.806   6.367   0.884
 3072SOL    HW110115   0.787   6.373   0.786
 3072SOL    HW210116   0.752   6.293   0.924
 3073SOL     OW10117   0.721   3.346   4.998
 3073SOL    HW110118   0.653   3.275   4.979
 3073SOL    HW210119   0.782   3.356   4.919
 3074SOL     OW10120   5.538   3.066   0.842
 3074SOL    HW110121   5.493   3.126   0.908
 3074SOL    HW210122   5.574   2.985   0.888
 3075SOL     OW10123   1.814   6.262   1.161
 3075SOL    HW110124   1.872   6.209   1.100
 3075SOL    HW210125   1.794   6.351   1.120
 3076SOL     OW10126   6.323   0.911   4.292
 3076SOL    HW110127   6.272   0.938   4.373
 3076SOL    HW210128   6.419   0.940   4.301
 3077SOL     OW10129   5.158   4.825   2.704
 3077SOL    HW110130   5.069   4.809   2.660
 3077SOL    HW210131   5.231   4.805   2.639
 3078SOL     OW10132   1.949   3.536   1.222
 3078SOL    HW110133   2.013   3.520   1.297
 3078SOL    HW210134   1.870   3.476   1.234
 3079SOL     OW10135   1.788   2.808   4.443
 3079SOL    HW110136   1.777   2.746   4.365
 3079SOL    HW210137   1.882   2.801   4.477
 3080SOL     OW10138   5.666   4.646   2.437
 3080SOL    HW110139   5.662   4.652   2.338
 3080SOL    HW210140   5.760   4.625   2.465
 3081SOL     OW10141   0.667   4.305   6.315
 3081SOL    HW110142   0.590   4.256   6.276
 3081SOL    HW210143   0.725   4.340   6.241
 3082SOL     OW10144   3.727   6.668   3.544
 3082SOL    HW110145   3.824   6.648   3.556
 3082SOL    HW210146   3.672   6.591   3.574
 3083SOL     OW10147   4.101   6.438   3.365
 3083SOL    HW110148   4.108   6.535   3.339
 3083SOL    HW210149   4.059   6.387   3.290
 3084SOL     OW10150   4.826   4.649   4.859
 3084SOL    HW110151   4.864   4.661   4.767
 3084SOL    HW210152   4.760   4.574   4.857
 3085SOL     OW10153   0.337   4.627   2.816
 3085SOL    HW110154   0.325   4.582   2.904
 3085SOL    HW210155   0.410   4.582   2.765
 3086SOL     OW10156   4.175   1.638   1.325
 3086SOL    HW110157   4.088   1.597   1.296
 3086SOL    HW210158   4.230   1.570   1.373
 3087SOL     OW10159   0.599   4.797   3.707
 3087SOL    HW110160   0.689   4.767   3.741
 3087SOL    HW210161   0.577   4.886   3.747
 3088SOL     OW10162   2.460   4.869   5.512
 3088SOL    HW110163   2.361   4.879   5.519
 3088SOL    HW210164   2.483   4.774   5.490
 3089SOL     OW10165   0.818   2.782   0.003
 3089SOL    HW110166   0.903   2.796   6.975
 3089SOL    HW210167   0.741   2.820   6.976
 3090SOL     OW10168   1.666   1.845   1.625
 3090SOL    HW110169   1.719   1.864   1.708
 3090SOL    HW210170   1.597   1.776   1.645
 3091SOL     OW10171   2.762   6.311   0.225
 3091SOL    HW110172   2.759   6.211   0.219
 3091SOL    HW210173   2.731   6.351   0.139
 3092SOL     OW10174   5.114   0.407   6.879
 3092SOL    HW110175   5.086   0.503   6.880
 3092SOL    HW210176   5.052   0.354   6.936
 3093SOL     OW10177   5.467   4.920   5.779
 3093SOL    HW110178   5.453   4.826   5.749
 3093SOL    HW210179   5.519   4.921   5.864
 3094SOL     OW10180   3.503   6.775   4.928
 3094SOL    HW110181   3.467   6.850   4.874
 3094SOL    HW210182   3.456   6.690   4.904
 3095SOL     OW10183   2.721   5.026   4.336
 3095SOL    HW110184   2.630   5.042   4.299
 3095SOL    HW210185   2.767   5.114   4.352
 3096SOL     OW10186   0.693   0.605   4.269
 3096SOL    HW110187   0.760   0.577   4.199
 3096SOL    HW210188   0.604   0.617   4.227
 3097SOL     OW10189   0.453   2.775   0.801
 3097SOL    HW110190   0.366   2.749   0.844
 3097SOL    HW210191   0.514   2.695   0.798
 3098SOL     OW10192   2.439   3.313   1.368
 3098SOL    HW110193   2.484   3.401   1.382
 3098SOL    HW210194   2.471   3.271   1.283
 3099SOL     OW10195   7.007   5.974   5.032
 3099SOL    HW110196   0.055   5.973   4.963
 3099SOL    HW210197   6.980   6.069   5.051
 3100SOL     OW10198   6.662   0.320   4.651
 3100SOL    HW110199   6.697   0.324   4.744
 3100SOL    HW210200   6.735   0.340   4.586
 3101SOL     OW10201   4.700   6.132   5.314
 3101SOL    HW110202   4.708   6.230   5.294
 3101SOL    HW210203   4.604   6.109   5.331
 3102SOL     OW10204   1.328   5.110   2.094
 3102SOL    HW110205   1.248   5.099   2.035
 3102SOL    HW210206   1.301   5.096   2.189
 3103SOL     OW10207   3.122   1.757   1.468
 3103SOL    HW110208   3.048   1.727   1.408
 3103SOL    HW210209   3.084   1.818   1.538
 3104SOL     OW10210   6.077   0.003   4.480
 3104SOL    HW110211   6.001   7.007   4.419
 3104SOL    HW210212   6.160   0.017   4.426
 3105SOL     OW10213   6.623   5.244   3.360
 3105SOL    HW110214   6.592   5.178   3.291
 3105SOL    HW210215   6.622   5.201   3.450
 3106SOL     OW10216   6.574   1.445   3.086
 3106SOL    HW110217   6.651   1.510   3.083
 3106SOL    HW210218   6.544   1.424   2.993
 3107SOL     OW10219   3.463   0.292   4.422
 3107SOL    HW110220   3.440   0.215   4.483
 3107SOL    HW210221   3.419   0.375   4.455
 3108SOL     OW10222   1.979   0.729   4.625
 3108SOL    HW110223   1.989   0.753   4.722
 3108SOL    HW210224   2.032   0.647   4.606
 3109SOL     OW10225   5.934   5.958   2.806
 3109SOL    HW110226   5.990   5.898   2.748
 3109SOL    HW210227   5.954   6.054   2.783
 3110SOL     OW10228   1.256   1.752   3.743
 3110SOL    HW110229   1.160   1.724   3.733
 3110SOL    HW210230   1.313   1.672   3.760
 3111SOL     OW10231   6.735   5.693   4.144
 3111SOL    HW110232   6.807   5.757   4.118
 3111SOL    HW210233   6.666   5.741   4.199
 3112SOL     OW10234   4.832   2.608   6.163
 3112SOL    HW110235   4.801   2.599   6.068
 3112SOL    HW210236   4.807   2.525   6.213
 3113SOL     OW10237   2.013   7.019   4.441
 3113SOL    HW110238   1.945   6.946   4.451
 3113SOL    HW210239   2.071   7.021   4.523
 3114SOL     OW10240   4.937   3.428   0.195
 3114SOL    HW110241   5.014   3.442   0.134
 3114SOL    HW210242   4.866   3.376   0.147
 3115SOL     OW10243   5.003   3.382   0.456
 3115SOL    HW110244   4.958   3.378   0.366
 3115SOL    HW210245   5.092   3.338   0.451
 3116SOL     OW10246   0.547   3.869   6.816
 3116SOL    HW110247   0.512   3.777   6.798
 3116SOL    HW210248   0.486   3.936   6.774
 3117SOL     OW10249   4.457   3.744   5.336
 3117SOL    HW110250   4.367   3.763   5.299
 3117SOL    HW210251   4.499   3.669   5.285
 3118SOL     OW10252   6.964   4.718   7.013
 3118SOL    HW110253   6.957   4.810   0.027
 3118SOL    HW210254   0.027   4.677   0.014
 3119SOL     OW10255   1.951   3.864   5.689
 3119SOL    HW110256   2.028   3.877   5.626
 3119SOL    HW210257   1.944   3.767   5.712
 3120SOL     OW10258   2.275   6.421   4.445
 3120SOL    HW110259   2.262   6.450   4.539
 3120SOL    HW210260   2.218   6.341   4.426
 3121SOL     OW10261   0.897   1.435   2.270
 3121SOL    HW110262   0.802   1.465   2.271
 3121SOL    HW210263   0.947   1.484   2.199
 3122SOL     OW10264   3.140   5.898   6.207
 3122SOL    HW110265   3.187   5.863   6.288
 3122SOL    HW210266   3.181   5.858   6.125
 3123SOL     OW10267   3.738   6.360   3.962
 3123SOL    HW110268   3.721   6.293   3.890
 3123SOL    HW210269   3.653   6.379   4.011
 3124SOL     OW10270   3.978   0.290   4.985
 3124SOL    HW110271   3.947   0.366   4.927
 3124SOL    HW210272   3.978   0.318   5.080
 3125SOL     OW10273   6.025   2.021   6.077
 3125SOL    HW110274   5.970   1.947   6.038
 3125SOL    HW210275   6.026   2.099   6.015
 3126SOL     OW10276   4.993   4.496   6.807
 3126SOL    HW110277   5.052   4.573   6.783
 3126SOL    HW210278   4.900   4.515   6.777
 3127SOL     OW10279   0.487   2.581   2.847
 3127SOL    HW110280   0.540   2.504   2.811
 3127SOL    HW210281   0.529   2.614   2.931
 3128SOL     OW10282   1.772   6.987   0.286
 3128SOL    HW110283   1.799   6.953   0.375
 3128SOL    HW210284   1.828   6.944   0.215
 3129SOL     OW10285   0.639   4.267   6.602
 3129SOL    HW110286   0.673   4.351   6.646
 3129SOL    HW210287   0.627   4.284   6.504
 3130SOL     OW10288   2.449   4.571   2.542
 3130SOL    HW110289   2.525   4.623   2.502
 3130SOL    HW210290   2.402   4.628   2.609
 3131SOL     OW10291   0.876   3.066   2.100
 3131SOL    HW110292   0.849   3.122   2.022
 3131SOL    HW210293   0.965   3.024   2.081
 3132SOL     OW10294   5.347   6.012   5.438
 3132SOL    HW110295   5.406   6.051   5.509
 3132SOL    HW210296   5.258   6.057   5.441
 3133SOL     OW10297   2.708   2.041   3.851
 3133SOL    HW110298   2.635   2.056   3.784
 3133SOL    HW210299   2.672   2.053   3.943
 3134SOL     OW10300   5.351   3.708   1.740
 3134SOL    HW110301   5.328   3.715   1.643
 3134SOL    HW210302   5.450   3.722   1.752
 3135SOL     OW10303   4.436   2.107   4.619
 3135SOL    HW110304   4.436   2.013   4.585
 3135SOL    HW210305   4.455   2.107   4.717
 3136SOL     OW10306   6.111   6.323   5.465
 3136SOL    HW110307   6.191   6.338   5.407
 3136SOL    HW210308   6.030   6.366   5.423
 3137SOL     OW10309   5.404   0.661   3.834
 3137SOL    HW110310   5.367   0.753   3.847
 3137SOL    HW210311   5.380   0.628   3.742
 3138SOL     OW10312   6.663   1.673   4.322
 3138SOL    HW110313   6.747   1.621   4.336
 3138SOL    HW210314   6.634   1.713   4.409
 3139SOL     OW10315   5.190   7.023   6.392
 3139SOL    HW110316   5.183   0.093   6.359
 3139SOL    HW210317   5.110   6.971   6.363
 3140SOL     OW10318   6.436   5.632   6.100
 3140SOL    HW110319   6.515   5.692   6.108
 3140SOL    HW210320   6.373   5.669   6.032
 3141SOL     OW10321   0.699   6.655   6.120
 3141SOL    HW110322   0.734   6.674   6.027
 3141SOL    HW210323   0.766   6.687   6.187
 3142SOL     OW10324   4.813   6.478   0.450
 3142SOL    HW110325   4.869   6.398   0.429
 3142SOL    HW210326   4.720   6.448   0.473
 3143SOL     OW10327   6.946   2.511   6.916
 3143SOL    HW110328   6.966   2.561   7.000
 3143SOL    HW210329   7.016   2.442   6.900
 3144SOL     OW10330   2.479   3.855   0.685
 3144SOL    HW110331   2.471   3.770   0.738
 3144SOL    HW210332   2.439   3.930   0.738
 3145SOL     OW10333   2.257   5.614   2.925
 3145SOL    HW110334   2.261   5.652   3.018
 3145SOL    HW210335   2.228   5.518   2.930
 3146SOL     OW10336   1.160   6.124   3.404
 3146SOL    HW110337   1.230   6.091   3.340
 3146SOL    HW210338   1.164   6.071   3.488
 3147SOL     OW10339   3.972   5.313   6.628
 3147SOL    HW110340   4.051   5.323   6.688
 3147SOL    HW210341   3.948   5.216   6.621
 3148SOL     OW10342   4.228   5.611   4.328
 3148SOL    HW110343   4.287   5.542   4.370
 3148SOL    HW210344   4.134   5.579   4.329
 3149SOL     OW10345   3.169   0.174   5.494
 3149SOL    HW110346   3.204   0.101   5.552
 3149SOL    HW210347   3.104   0.230   5.545
 3150SOL     OW10348   5.172   5.854   4.400
 3150SOL    HW110349   5.161   5.911   4.482
 3150SOL    HW210350   5.134   5.763   4.417
 3151SOL     OW10351   4.721   1.648   6.316
 3151SOL    HW110352   4.780   1.624   6.393
 3151SOL    HW210353   4.701   1.745   6.317
 3152SOL     OW10354   1.204   5.065   1.811
 3152SOL    HW110355   1.142   5.031   1.882
 3152SOL    HW210356   1.191   5.163   1.800
 3153SOL     OW10357   6.473   4.534   1.939
 3153SOL    HW110358   6.413   4.485   2.002
 3153SOL    HW210359   6.544   4.472   1.906
 3154SOL     OW10360   6.362   1.903   0.186
 3154SOL    HW110361   6.336   1.980   0.245
 3154SOL    HW210362   6.306   1.823   0.210
 3155SOL     OW10363   0.104   5.639   1.532
 3155SOL    HW110364   0.078   5.723   1.484
 3155SOL    HW210365   0.165   5.585   1.473
 3156SOL     OW10366   4.059   3.341   4.122
 3156SOL    HW110367   4.006   3.270   4.170
 3156SOL    HW210368   4.088   3.305   4.033
 3157SOL     OW10369   1.386   2.821   4.713
 3157SOL    HW110370   1.363   2.911   4.677
 3157SOL    HW210371   1.338   2.806   4.800
 3158SOL     OW10372   4.619   0.350   1.294
 3158SOL    HW110373   4.625   0.344   1.393
 3158SOL    HW210374   4.539   0.300   1.261
 3159SOL     OW10375   4.839   6.318   0.042
 3159SOL    HW110376   4.752   6.308   0.090
 3159SOL    HW210377   4.851   6.412   0.013
 3160SOL     OW10378   6.354   4.726   6.096
 3160SOL    HW110379   6.375   4.803   6.036
 3160SOL    HW210380   6.355   4.756   6.191
 3161SOL     OW10381   1.293   1.472   2.743
 3161SOL    HW110382   1.286   1.463   2.644
 3161SOL    HW210383   1.360   1.542   2.766
 3162SOL     OW10384   0.288   5.237   0.069
 3162SOL    HW110385   0.355   5.283   0.011
 3162SOL    HW210386   0.277   5.289   0.154
 3163SOL     OW10387   3.862   2.623   6.124
 3163SOL    HW110388   3.900   2.653   6.212
 3163SOL    HW210389   3.832   2.703   6.072
 3164SOL     OW10390   5.120   4.162   1.759
 3164SOL    HW110391   5.066   4.200   1.834
 3164SOL    HW210392   5.208   4.208   1.755
 3165SOL     OW10393   1.570   6.638   1.841
 3165SOL    HW110394   1.552   6.729   1.878
 3165SOL    HW210395   1.486   6.598   1.806
 3166SOL     OW10396   5.090   2.836   6.119
 3166SOL    HW110397   5.032   2.762   6.152
 3166SOL    HW210398   5.184   2.802   6.108
 3167SOL     OW10399   6.606   4.750   1.860
 3167SOL    HW110400   6.588   4.780   1.767
 3167SOL    HW210401   6.539   4.681   1.887
 3168SOL     OW10402   5.122   2.819   0.768
 3168SOL    HW110403   5.081   2.765   0.695
 3168SOL    HW210404   5.166   2.758   0.834
 3169SOL     OW10405   0.829   3.321   5.869
 3169SOL    HW110406   0.831   3.308   5.968
 3169SOL    HW210407   0.802   3.415   5.849
 3170SOL     OW10408   3.640   0.261   0.376
 3170SOL    HW110409   3.730   0.227   0.403
 3170SOL    HW210410   3.575   0.249   0.451
 3171SOL     OW10411   6.150   6.775   1.395
 3171SOL    HW110412   6.145   6.866   1.436
 3171SOL    HW210413   6.238   6.732   1.419
 3172SOL     OW10414   6.883   6.100   4.735
 3172SOL    HW110415   6.873   6.027   4.667
 3172SOL    HW210416   6.817   6.087   4.809
 3173SOL     OW10417   2.595   0.683   1.845
 3173SOL    HW110418   2.540   0.600   1.850
 3173SOL    HW210419   2.547   0.751   1.789
 3174SOL     OW10420   2.387   3.261   6.224
 3174SOL    HW110421   2.401   3.202   6.145
 3174SOL    HW210422   2.409   3.355   6.200
 3175SOL     OW10423   0.967   6.544   6.613
 3175SOL    HW110424   0.939   6.469   6.553
 3175SOL    HW210425   0.925   6.629   6.582
 3176SOL     OW10426   1.683   4.580   6.109
 3176SOL    HW110427   1.620   4.646   6.068
 3176SOL    HW210428   1.645   4.545   6.194
 3177SOL     OW10429   5.491   5.298   5.880
 3177SOL    HW110430   5.407   5.317   5.931
 3177SOL    HW210431   5.533   5.214   5.915
 3178SOL     OW10432   0.028   4.029   1.888
 3178SOL    HW110433   0.052   4.094   1.816
 3178SOL    HW210434   6.977   4.067   1.943
 3179SOL     OW10435   1.685   2.329   1.966
 3179SOL    HW110436   1.769   2.279   1.947
 3179SOL    HW210437   1.682   2.354   2.063
 3180SOL     OW10438   4.273   0.945   5.780
 3180SOL    HW110439   4.353   1.005   5.785
 3180SOL    HW210440   4.303   0.851   5.765
 3181SOL     OW10441   0.796   0.922   3.795
 3181SOL    HW110442   0.835   0.847   3.849
 3181SOL    HW210443   0.745   0.884   3.718
 3182SOL     OW10444   0.427   0.264   5.751
 3182SOL    HW110445   0.392   0.171   5.740
 3182SOL    HW210446   0.463   0.298   5.664
 3183SOL     OW10447   3.948   4.630   1.511
 3183SOL    HW110448   3.953   4.533   1.535
 3183SOL    HW210449   3.888   4.641   1.432
 3184SOL     OW10450   2.596   1.903   2.090
 3184SOL    HW110451   2.660   1.977   2.113
 3184SOL    HW210452   2.598   1.834   2.162
 3185SOL     OW10453   0.044   0.402   5.473
 3185SOL    HW110454   0.100   0.408   5.556
 3185SOL    HW210455   0.084   0.460   5.402
 3186SOL     OW10456   3.391   1.237   3.028
 3186SOL    HW110457   3.398   1.240   3.127
 3186SOL    HW210458   3.363   1.327   2.994
 3187SOL     OW10459   4.042   3.943   6.956
 3187SOL    HW110460   3.996   3.856   6.972
 3187SOL    HW210461   4.059   3.989   0.019
 3188SOL     OW10462   3.549   6.220   2.777
 3188SOL    HW110463   3.492   6.286   2.729
 3188SOL    HW210464   3.537   6.129   2.737
 3189SOL     OW10465   1.617   0.878   2.851
 3189SOL    HW110466   1.642   0.858   2.945
 3189SOL    HW210467   1.573   0.798   2.810
 3190SOL     OW10468   1.337   6.453   1.297
 3190SOL    HW110469   1.266   6.434   1.229
 3190SOL    HW210470   1.346   6.551   1.309
 3191SOL     OW10471   3.582   0.838   1.228
 3191SOL    HW110472   3.550   0.798   1.313
 3191SOL    HW210473   3.512   0.900   1.192
 3192SOL     OW10474   0.699   1.716   0.527
 3192SOL    HW110475   0.650   1.799   0.503
 3192SOL    HW210476   0.718   1.715   0.625
 3193SOL     OW10477   4.418   2.269   6.353
 3193SOL    HW110478   4.403   2.185   6.302
 3193SOL    HW210479   4.424   2.249   6.451
 3194SOL     OW10480   1.382   3.489   6.349
 3194SOL    HW110481   1.464   3.436   6.326
 3194SOL    HW210482   1.393   3.583   6.316
 3195SOL     OW10483   1.760   2.548   3.136
 3195SOL    HW110484   1.851   2.531   3.173
 3195SOL    HW210485   1.694   2.486   3.179
 3196SOL     OW10486   6.894   6.999   4.655
 3196SOL    HW110487   6.925   0.070   4.662
 3196SOL    HW210488   6.835   6.978   4.733
 3197SOL     OW10489   1.174   5.345   2.947
 3197SOL    HW110490   1.162   5.250   2.978
 3197SOL    HW210491   1.260   5.381   2.982
 3198SOL     OW10492   6.952   2.144   6.300
 3198SOL    HW110493   6.906   2.197   6.370
 3198SOL    HW210494   0.016   2.186   6.279
 3199SOL     OW10495   4.739   1.856   1.748
 3199SOL    HW110496   4.753   1.858   1.847
 3199SOL    HW210497   4.658   1.909   1.724
 3200SOL     OW10498   6.849   2.786   0.980
 3200SOL    HW110499   6.858   2.698   1.028
 3200SOL    HW210500   6.928   2.843   1.000
 3201SOL     OW10501   5.250   3.542   4.008
 3201SOL    HW110502   5.345   3.547   3.977
 3201SOL    HW210503   5.240   3.593   4.093
 3202SOL     OW10504   2.030   4.367   2.952
 3202SOL    HW110505   2.020   4.321   3.040
 3202SOL    HW210506   2.007   4.304   2.878
 3203SOL     OW10507   6.130   0.883   1.566
 3203SOL    HW110508   6.048   0.936   1.542
 3203SOL    HW210509   6.125   0.793   1.523
 3204SOL     OW10510   5.887   5.483   1.673
 3204SOL    HW110511   5.830   5.541   1.615
 3204SOL    HW210512   5.963   5.446   1.620
 3205SOL     OW10513   6.599   4.237   6.373
 3205SOL    HW110514   6.531   4.174   6.410
 3205SOL    HW210515   6.650   4.192   6.300
 3206SOL     OW10516   0.180   6.753   5.601
 3206SOL    HW110517   0.188   6.708   5.690
 3206SOL    HW210518   0.084   6.772   5.582
 3207SOL     OW10519   0.767   1.264   5.296
 3207SOL    HW110520   0.737   1.358   5.312
 3207SOL    HW210521   0.759   1.243   5.199
 3208SOL     OW10522   4.446   5.716   5.056
 3208SOL    HW110523   4.484   5.636   5.010
 3208SOL    HW210524   4.422   5.693   5.150
 3209SOL     OW10525   3.015   6.752   4.226
 3209SOL    HW110526   2.930   6.700   4.223
 3209SOL    HW210527   3.082   6.709   4.167
 3210SOL     OW10528   0.256   3.621   2.565
 3210SOL    HW110529   0.337   3.656   2.518
 3210SOL    HW210530   0.210   3.695   2.614
 3211SOL     OW10531   2.446   4.306   0.549
 3211SOL    HW110532   2.508   4.374   0.587
 3211SOL    HW210533   2.478   4.279   0.458
 3212SOL     OW10534   4.533   2.383   6.845
 3212SOL    HW110535   4.549   2.482   6.852
 3212SOL    HW210536   4.440   2.362   6.875
 3213SOL     OW10537   5.858   5.591   3.210
 3213SOL    HW110538   5.857   5.690   3.198
 3213SOL    HW210539   5.806   5.567   3.292
 3214SOL     OW10540   4.453   6.074   6.935
 3214SOL    HW110541   4.377   6.071   6.870
 3214SOL    HW210542   4.540   6.075   6.885
 3215SOL     OW10543   6.627   2.644   0.777
 3215SOL    HW110544   6.682   2.576   0.729
 3215SOL    HW210545   6.676   2.675   0.859
 3216SOL     OW10546   5.636   6.102   3.356
 3216SOL    HW110547   5.630   6.163   3.277
 3216SOL    HW210548   5.545   6.074   3.384
 3217SOL     OW10549   1.155   4.415   3.046
 3217SOL    HW110550   1.057   4.432   3.042
 3217SOL    HW210551   1.183   4.404   3.141
 3218SOL     OW10552   3.973   6.670   3.195
 3218SOL    HW110553   3.934   6.762   3.202
 3218SOL    HW210554   4.063   6.675   3.153
 3219SOL     OW10555   0.065   0.331   2.952
 3219SOL    HW110556   0.026   0.302   2.864
 3219SOL    HW210557   0.160   0.358   2.938
 3220SOL     OW10558   0.212   4.538   4.827
 3220SOL    HW110559   0.184   4.443   4.841
 3220SOL    HW210560   0.176   4.571   4.740
 3221SOL     OW10561   2.527   6.363   2.863
 3221SOL    HW110562   2.591   6.368   2.939
 3221SOL    HW210563   2.565   6.303   2.792
 3222SOL     OW10564   4.991   1.839   2.945
 3222SOL    HW110565   4.928   1.761   2.942
 3222SOL    HW210566   4.943   1.920   2.978
 3223SOL     OW10567   2.698   5.406   6.503
 3223SOL    HW110568   2.753   5.468   6.447
 3223SOL    HW210569   2.732   5.408   6.597
 3224SOL     OW10570   4.611   5.527   6.842
 3224SOL    HW110571   4.549   5.478   6.903
 3224SOL    HW210572   4.586   5.624   6.838
 3225SOL     OW10573   4.348   3.356   6.963
 3225SOL    HW110574   4.399   3.402   0.011
 3225SOL    HW210575   4.281   3.419   6.924
 3226SOL     OW10576   2.465   0.746   4.011
 3226SOL    HW110577   2.427   0.655   3.996
 3226SOL    HW210578   2.446   0.775   4.105
 3227SOL     OW10579   3.496   1.885   6.160
 3227SOL    HW110580   3.531   1.966   6.205
 3227SOL    HW210581   3.492   1.900   6.061
 3228SOL     OW10582   5.991   3.335   4.216
 3228SOL    HW110583   6.078   3.383   4.214
 3228SOL    HW210584   5.970   3.300   4.124
 3229SOL     OW10585   3.566   2.194   6.041
 3229SOL    HW110586   3.524   2.233   6.123
 3229SOL    HW210587   3.586   2.267   5.976
 3230SOL     OW10588   0.628   0.969   2.926
 3230SOL    HW110589   0.648   1.067   2.929
 3230SOL    HW210590   0.533   0.954   2.952
 3231SOL     OW10591   4.615   5.468   1.372
 3231SOL    HW110592   4.706   5.507   1.364
 3231SOL    HW210593   4.558   5.498   1.295
 3232SOL     OW10594   3.718   5.142   5.436
 3232SOL    HW110595   3.771   5.166   5.517
 3232SOL    HW210596   3.750   5.196   5.358
 3233SOL     OW10597   1.072   3.964   1.513
 3233SOL    HW110598   1.130   3.908   1.573
 3233SOL    HW210599   1.004   4.013   1.568
 3234SOL     OW10600   0.091   2.264   0.303
 3234SOL    HW110601   0.183   2.299   0.285
 3234SOL    HW210602   0.023   2.331   0.275
 3235SOL     OW10603   5.549   6.687   2.593
 3235SOL    HW110604   5.540   6.587   2.592
 3235SOL    HW210605   5.597   6.715   2.676
 3236SOL     OW10606   1.303   2.776   1.787
 3236SOL    HW110607   1.247   2.737   1.714
 3236SOL    HW210608   1.256   2.764   1.875
 3237SOL     OW10609   4.820   6.621   4.734
 3237SOL    HW110610   4.720   6.620   4.731
 3237SOL    HW210611   4.856   6.631   4.641
 3238SOL     OW10612   0.417   5.599   6.452
 3238SOL    HW110613   0.386   5.582   6.546
 3238SOL    HW210614   0.439   5.697   6.442
 3239SOL     OW10615   6.274   0.526   6.212
 3239SOL    HW110616   6.222   0.471   6.147
 3239SOL    HW210617   6.220   0.605   6.240
 3240SOL     OW10618   0.589   0.121   4.475
 3240SOL    HW110619   0.559   0.206   4.519
 3240SOL    HW210620   0.670   0.086   4.522
 3241SOL     OW10621   5.237   1.307   4.002
 3241SOL    HW110622   5.161   1.347   3.952
 3241SOL    HW210623   5.228   1.328   4.099
 3242SOL     OW10624   3.787   5.843   6.364
 3242SOL    HW110625   3.862   5.790   6.323
 3242SOL    HW210626   3.752   5.794   6.443
 3243SOL     OW10627   4.491   5.393   0.040
 3243SOL    HW110628   4.576   5.365   0.084
 3243SOL    HW210629   4.438   5.449   0.103
 3244SOL     OW10630   4.347   5.970   5.592
 3244SOL    HW110631   4.438   5.938   5.617
 3244SOL    HW210632   4.350   6.014   5.502
 3245SOL     OW10633   4.156   2.890   6.233
 3245SOL    HW110634   4.155   2.963   6.165
 3245SOL    HW210635   4.246   2.848   6.235
 3246SOL     OW10636   5.950   6.926   2.438
 3246SOL    HW110637   5.955   6.912   2.537
 3246SOL    HW210638   5.856   6.914   2.407
 3247SOL     OW10639   6.977   3.601   4.083
 3247SOL    HW110640   7.013   3.553   4.002
 3247SOL    HW210641   6.908   3.544   4.127
 3248SOL     OW10642   6.323   3.303   2.119
 3248SOL    HW110643   6.255   3.249   2.168
 3248SOL    HW210644   6.316   3.398   2.148
 3249SOL     OW10645   3.411   5.020   5.166
 3249SOL    HW110646   3.357   5.010   5.083
 3249SOL    HW210647   3.362   4.977   5.243
 3250SOL     OW10648   4.879   6.941   2.566
 3250SOL    HW110649   4.925   6.999   2.632
 3250SOL    HW210650   4.906   6.846   2.581
 3251SOL     OW10651   3.752   1.734   2.598
 3251SOL    HW110652   3.688   1.735   2.675
 3251SOL    HW210653   3.746   1.646   2.551
 3252SOL     OW10654   3.357   1.200   2.743
 3252SOL    HW110655   3.261   1.222   2.725
 3252SOL    HW210656   3.374   1.207   2.841
 3253SOL     OW10657   4.564   2.749   1.338
 3253SOL    HW110658   4.484   2.755   1.279
 3253SOL    HW210659   4.593   2.841   1.364
 3254SOL     OW10660   3.880   4.942   3.616
 3254SOL    HW110661   3.931   4.965   3.533
 3254SOL    HW210662   3.944   4.917   3.688
 3255SOL     OW10663   4.453   5.722   0.270
 3255SOL    HW110664   4.407   5.757   0.352
 3255SOL    HW210665   4.550   5.706   0.291
 3256SOL     OW10666   5.353   6.587   5.891
 3256SOL    HW110667   5.302   6.502   5.905
 3256SOL    HW210668   5.445   6.577   5.930
 3257SOL     OW10669   1.617   1.639   1.134
 3257SOL    HW110670   1.579   1.556   1.093
 3257SOL    HW210671   1.544   1.694   1.173
 3258SOL     OW10672   4.832   6.813   1.455
 3258SOL    HW110673   4.897   6.740   1.435
 3258SOL    HW210674   4.839   6.839   1.551
 3259SOL     OW10675   4.500   6.213   4.172
 3259SOL    HW110676   4.485   6.117   4.197
 3259SOL    HW210677   4.425   6.269   4.208
 3260SOL     OW10678   1.424   1.340   0.052
 3260SOL    HW110679   1.352   1.372   7.015
 3260SOL    HW210680   1.384   1.315   0.140
 3261SOL     OW10681   4.088   6.912   1.063
 3261SOL    HW110682   4.122   6.842   1.126
 3261SOL    HW210683   4.003   6.951   1.099
 3262SOL     OW10684   3.418   1.594   3.583
 3262SOL    HW110685   3.341   1.530   3.580
 3262SOL    HW210686   3.493   1.559   3.528
 3263SOL     OW10687   4.207   6.934   2.444
 3263SOL    HW110688   4.110   6.927   2.423
 3263SOL    HW210689   4.225   6.893   2.534
 3264SOL     OW10690   0.456   5.459   0.019
 3264SOL    HW110691   0.517   5.406   0.077
 3264SOL    HW210692   0.506   5.539   7.008
 3265SOL     OW10693   4.306   1.774   6.479
 3265SOL    HW110694   4.239   1.830   6.429
 3265SOL    HW210695   4.340   1.826   6.557
 3266SOL     OW10696   7.021   2.778   6.611
 3266SOL    HW110697   0.088   2.808   6.638
 3266SOL    HW210698   6.971   2.855   6.573
 3267SOL     OW10699   3.242   1.929   1.268
 3267SOL    HW110700   3.211   1.875   1.347
 3267SOL    HW210701   3.338   1.954   1.281
 3268SOL     OW10702   1.301   3.969   0.357
 3268SOL    HW110703   1.299   3.893   0.291
 3268SOL    HW210704   1.222   3.961   0.418
 3269SOL     OW10705   4.313   4.440   1.510
 3269SOL    HW110706   4.290   4.367   1.575
 3269SOL    HW210707   4.410   4.433   1.485
 3270SOL     OW10708   0.339   5.329   3.835
 3270SOL    HW110709   0.306   5.282   3.918
 3270SOL    HW210710   0.390   5.264   3.779
 3271SOL     OW10711   6.069   2.309   2.009
 3271SOL    HW110712   6.159   2.344   2.033
 3271SOL    HW210713   6.077   2.238   1.940
 3272SOL     OW10714   3.791   0.627   0.484
 3272SOL    HW110715   3.837   0.643   0.397
 3272SOL    HW210716   3.804   0.532   0.512
 3273SOL     OW10717   0.970   6.337   2.484
 3273SOL    HW110718   0.944   6.294   2.397
 3273SOL    HW210719   1.023   6.273   2.539
 3274SOL     OW10720   2.857   2.268   5.488
 3274SOL    HW110721   2.804   2.208   5.428
 3274SOL    HW210722   2.860   2.229   5.580
 3275SOL     OW10723   1.961   0.477   6.685
 3275SOL    HW110724   2.026   0.553   6.680
 3275SOL    HW210725   1.985   0.408   6.616
 3276SOL     OW10726   3.458   5.433   6.704
 3276SOL    HW110727   3.531   5.499   6.723
 3276SOL    HW210728   3.413   5.458   6.618
 3277SOL     OW10729   6.976   6.429   5.908
 3277SOL    HW110730   6.907   6.436   5.836
 3277SOL    HW210731   6.946   6.364   5.977
 3278SOL     OW10732   1.196   1.110   5.373
 3278SOL    HW110733   1.221   1.051   5.450
 3278SOL    HW210734   1.152   1.055   5.302
 3279SOL     OW10735   7.017   6.722   1.043
 3279SOL    HW110736   6.958   6.735   1.122
 3279SOL    HW210737   0.073   6.781   1.050
 3280SOL     OW10738   2.492   5.115   6.191
 3280SOL    HW110739   2.522   5.090   6.099
 3280SOL    HW210740   2.445   5.037   6.232
 3281SOL     OW10741   2.385   5.452   0.218
 3281SOL    HW110742   2.456   5.408   0.272
 3281SOL    HW210743   2.422   5.477   0.128
 3282SOL     OW10744   2.776   5.642   4.052
 3282SOL    HW110745   2.859   5.617   4.001
 3282SOL    HW210746   2.706   5.672   3.987
 3283SOL     OW10747   2.953   0.872   3.352
 3283SOL    HW110748   2.910   0.842   3.436
 3283SOL    HW210749   3.050   0.892   3.369
 3284SOL     OW10750   0.318   5.907   7.019
 3284SOL    HW110751   0.407   5.941   6.987
 3284SOL    HW210752   0.284   5.838   6.955
 3285SOL     OW10753   0.225   2.515   2.894
 3285SOL    HW110754   0.200   2.418   2.885
 3285SOL    HW210755   0.323   2.525   2.877
 3286SOL     OW10756   3.197   3.556   4.891
 3286SOL    HW110757   3.132   3.615   4.939
 3286SOL    HW210758   3.259   3.612   4.837
 3287SOL     OW10759   1.846   5.316   0.079
 3287SOL    HW110760   1.866   5.219   0.068
 3287SOL    HW210761   1.902   5.369   0.015
 3288SOL     OW10762   0.622   6.052   6.327
 3288SOL    HW110763   0.647   6.035   6.231
 3288SOL    HW210764   0.541   5.998   6.351
 3289SOL     OW10765   0.708   5.603   5.482
 3289SOL    HW110766   0.724   5.594   5.384
 3289SOL    HW210767   0.658   5.523   5.515
 3290SOL     OW10768   0.323   5.763   1.243
 3290SOL    HW110769   0.378   5.747   1.161
 3290SOL    HW210770   0.361   5.711   1.319
 3291SOL     OW10771   1.724   6.403   6.866
 3291SOL    HW110772   1.766   6.312   6.856
 3291SOL    HW210773   1.705   6.441   6.775
 3292SOL     OW10774   0.045   6.702   6.388
 3292SOL    HW110775   0.083   6.784   6.344
 3292SOL    HW210776   0.060   6.707   6.487
 3293SOL     OW10777   6.987   1.083   3.253
 3293SOL    HW110778   6.977   0.988   3.222
 3293SOL    HW210779   0.018   1.085   3.336
 3294SOL     OW10780   6.706   0.174   6.080
 3294SOL    HW110781   6.747   0.128   6.001
 3294SOL    HW210782   6.609   0.190   6.062
 3295SOL     OW10783   2.496   2.417   0.864
 3295SOL    HW110784   2.509   2.509   0.902
 3295SOL    HW210785   2.477   2.353   0.938
 3296SOL     OW10786   2.079   0.097   2.645
 3296SOL    HW110787   2.061   0.006   2.682
 3296SOL    HW210788   2.162   0.095   2.591
 3297SOL     OW10789   3.214   2.405   5.567
 3297SOL    HW110790   3.308   2.418   5.536
 3297SOL    HW210791   3.194   2.307   5.574
 3298SOL     OW10792   6.743   3.327   2.962
 3298SOL    HW110793   6.720   3.261   2.890
 3298SOL    HW210794   6.724   3.420   2.929
 3299SOL     OW10795   1.289   0.228   5.049
 3299SOL    HW110796   1.281   0.168   5.128
 3299SOL    HW210797   1.310   0.321   5.079
 3300SOL     OW10798   6.134   6.734   4.791
 3300SOL    HW110799   6.212   6.725   4.728
 3300SOL    HW210800   6.088   6.821   4.776
 3301SOL     OW10801   0.422   3.715   3.442
 3301SOL    HW110802   0.471   3.629   3.456
 3301SOL    HW210803   0.399   3.755   3.530
 3302SOL     OW10804   1.172   4.785   3.828
 3302SOL    HW110805   1.114   4.766   3.749
 3302SOL    HW210806   1.118   4.830   3.899
 3303SOL     OW10807   3.983   3.125   3.716
 3303SOL    HW110808   3.987   3.041   3.662
 3303SOL    HW210809   3.922   3.191   3.672
 3304SOL     OW10810   1.150   5.986   3.940
 3304SOL    HW110811   1.158   5.890   3.967
 3304SOL    HW210812   1.057   6.004   3.906
 3305SOL     OW10813   1.757   1.053   1.723
 3305SOL    HW110814   1.788   1.144   1.694
 3305SOL    HW210815   1.787   1.036   1.817
 3306SOL     OW10816   2.140   3.963   3.488
 3306SOL    HW110817   2.208   4.024   3.448
 3306SOL    HW210818   2.177   3.922   3.571
 3307SOL     OW10819   6.779   6.389   0.296
 3307SOL    HW110820   6.835   6.335   0.234
 3307SOL    HW210821   6.710   6.331   0.339
 3308SOL     OW10822   4.501   6.171   0.404
 3308SOL    HW110823   4.590   6.126   0.395
 3308SOL    HW210824   4.487   6.198   0.499
 3309SOL     OW10825   1.062   5.028   3.574
 3309SOL    HW110826   1.118   5.089   3.519
 3309SOL    HW210827   1.002   5.082   3.633
 3310SOL     OW10828   0.887   4.489   2.945
 3310SOL    HW110829   0.818   4.449   3.005
 3310SOL    HW210830   0.871   4.458   2.851
 3311SOL     OW10831   3.968   6.627   1.128
 3311SOL    HW110832   3.951   6.574   1.211
 3311SOL    HW210833   4.051   6.594   1.083
 3312SOL     OW10834   3.095   4.060   5.903
 3312SOL    HW110835   3.035   4.127   5.948
 3312SOL    HW210836   3.173   4.107   5.863
 3313SOL     OW10837   1.110   5.479   3.600
 3313SOL    HW110838   1.195   5.470   3.652
 3313SOL    HW210839   1.085   5.575   3.593
 3314SOL     OW10840   1.793   3.488   5.161
 3314SOL    HW110841   1.747   3.426   5.225
 3314SOL    HW210842   1.733   3.505   5.083
 3315SOL     OW10843   6.772   2.403   3.538
 3315SOL    HW110844   6.850   2.352   3.504
 3315SOL    HW210845   6.690   2.346   3.532
 3316SOL     OW10846   4.693   2.068   5.826
 3316SOL    HW110847   4.606   2.022   5.806
 3316SOL    HW210848   4.675   2.155   5.872
 3317SOL     OW10849   4.564   2.858   1.681
 3317SOL    HW110850   4.577   2.934   1.745
 3317SOL    HW210851   4.504   2.887   1.607
 3318SOL     OW10852   2.932   6.029   5.596
 3318SOL    HW110853   2.951   6.092   5.672
 3318SOL    HW210854   2.950   5.935   5.625
 3319SOL     OW10855   0.645   6.593   4.266
 3319SOL    HW110856   0.615   6.541   4.186
 3319SOL    HW210857   0.685   6.531   4.333
 3320SOL     OW10858   5.814   0.907   5.254
 3320SOL    HW110859   5.838   0.997   5.218
 3320SOL    HW210860   5.873   0.886   5.332
 3321SOL     OW10861   3.978   3.087   2.915
 3321SOL    HW110862   3.947   3.013   2.856
 3321SOL    HW210863   3.908   3.159   2.917
 3322SOL     OW10864   3.837   2.229   0.948
 3322SOL    HW110865   3.909   2.250   0.882
 3322SOL    HW210866   3.763   2.297   0.940
 3323SOL     OW10867   2.129   4.284   6.714
 3323SOL    HW110868   2.203   4.300   6.779
 3323SOL    HW210869   2.167   4.269   6.623
 3324SOL     OW10870   0.824   3.609   0.520
 3324SOL    HW110871   0.831   3.657   0.433
 3324SOL    HW210872   0.915   3.594   0.558
 3325SOL     OW10873   1.476   2.587   0.449
 3325SOL    HW110874   1.528   2.601   0.532
 3325SOL    HW210875   1.383   2.558   0.472
 3326SOL     OW10876   6.698   1.718   1.109
 3326SOL    HW110877   6.663   1.788   1.171
 3326SOL    HW210878   6.625   1.688   1.048
 3327SOL     OW10879   2.919   6.820   2.110
 3327SOL    HW110880   2.838   6.806   2.166
 3327SOL    HW210881   2.893   6.823   2.013
 3328SOL     OW10882   4.916   0.977   2.256
 3328SOL    HW110883   4.964   1.062   2.280
 3328SOL    HW210884   4.882   0.933   2.338
 3329SOL     OW10885   4.114   0.946   5.461
 3329SOL    HW110886   4.116   0.874   5.530
 3329SOL    HW210887   4.077   0.910   5.376
 3330SOL     OW10888   5.995   6.725   2.204
 3330SOL    HW110889   5.948   6.644   2.239
 3330SOL    HW210890   6.093   6.715   2.219
 3331SOL     OW10891   2.158   3.526   3.155
 3331SOL    HW110892   2.141   3.593   3.228
 3331SOL    HW210893   2.158   3.434   3.194
 3332SOL     OW10894   4.260   5.396   0.432
 3332SOL    HW110895   4.319   5.452   0.491
 3332SOL    HW210896   4.269   5.300   0.459
 3333SOL     OW10897   3.147   3.686   1.659
 3333SOL    HW110898   3.077   3.691   1.587
 3333SOL    HW210899   3.103   3.666   1.747
 3334SOL     OW10900   2.015   2.348   2.576
 3334SOL    HW110901   1.926   2.307   2.596
 3334SOL    HW210902   2.014   2.384   2.482
 3335SOL     OW10903   3.508   4.436   5.401
 3335SOL    HW110904   3.540   4.531   5.401
 3335SOL    HW210905   3.557   4.384   5.331
 3336SOL     OW10906   3.882   6.857   4.021
 3336SOL    HW110907   3.931   6.941   4.040
 3336SOL    HW210908   3.785   6.878   4.003
 3337SOL     OW10909   3.678   3.866   2.835
 3337SOL    HW110910   3.624   3.790   2.873
 3337SOL    HW210911   3.762   3.877   2.887
 3338SOL     OW10912   1.837   1.525   1.189
 3338SOL    HW110913   1.878   1.507   1.100
 3338SOL    HW210914   1.754   1.579   1.177
 3339SOL     OW10915   2.328   0.725   5.516
 3339SOL    HW110916   2.364   0.669   5.590
 3339SOL    HW210917   2.383   0.808   5.507
 3340SOL     OW10918   4.221   1.185   4.326
 3340SOL    HW110919   4.314   1.198   4.294
 3340SOL    HW210920   4.209   1.090   4.355
 3341SOL     OW10921   2.567   4.758   2.378
 3341SOL    HW110922   2.587   4.829   2.444
 3341SOL    HW210923   2.478   4.775   2.335
 3342SOL     OW10924   6.175   0.321   2.825
 3342SOL    HW110925   6.107   0.384   2.863
 3342SOL    HW210926   6.134   0.271   2.748
 3343SOL     OW10927   4.702   5.486   6.586
 3343SOL    HW110928   4.701   5.387   6.573
 3343SOL    HW210929   4.665   5.509   6.676
 3344SOL     OW10930   0.473   3.100   1.820
 3344SOL    HW110931   0.545   3.035   1.795
 3344SOL    HW210932   0.430   3.070   1.905
 3345SOL     OW10933   0.691   4.552   0.839
 3345SOL    HW110934   0.705   4.643   0.876
 3345SOL    HW210935   0.595   4.525   0.853
 3346SOL     OW10936   2.352   1.007   6.631
 3346SOL    HW110937   2.375   0.937   6.563
 3346SOL    HW210938   2.348   0.966   6.722
 3347SOL     OW10939   0.840   3.219   6.138
 3347SOL    HW110940   0.798   3.146   6.191
 3347SOL    HW210941   0.859   3.297   6.197
 3348SOL     OW10942   3.871   3.559   6.135
 3348SOL    HW110943   3.839   3.474   6.094
 3348SOL    HW210944   3.795   3.623   6.145
 3349SOL     OW10945   2.621   4.642   3.457
 3349SOL    HW110946   2.615   4.591   3.543
 3349SOL    HW210947   2.561   4.601   3.389
 3350SOL     OW10948   0.287   4.093   5.621
 3350SOL    HW110949   0.213   4.073   5.684
 3350SOL    HW210950   0.267   4.178   5.572
 3351SOL     OW10951   5.307   0.796   0.767
 3351SOL    HW110952   5.343   0.864   0.831
 3351SOL    HW210953   5.239   0.839   0.708
 3352SOL     OW10954   5.308   2.376   6.861
 3352SOL    HW110955   5.313   2.308   6.787
 3352SOL    HW210956   5.387   2.437   6.854
 3353SOL     OW10957   2.217   0.991   1.769
 3353SOL    HW110958   2.314   1.009   1.754
 3353SOL    HW210959   2.205   0.894   1.793
 3354SOL     OW10960   3.780   2.784   5.894
 3354SOL    HW110961   3.708   2.854   5.890
 3354SOL    HW210962   3.798   2.749   5.802
 3355SOL     OW10963   1.992   1.200   4.928
 3355SOL    HW110964   1.947   1.277   4.972
 3355SOL    HW210965   2.046   1.233   4.850
 3356SOL     OW10966   1.476   6.826   5.655
 3356SOL    HW110967   1.409   6.852   5.724
 3356SOL    HW210968   1.541   6.760   5.694
 3357SOL     OW10969   3.248   3.226   2.493
 3357SOL    HW110970   3.278   3.284   2.417
 3357SOL    HW210971   3.151   3.242   2.511
 3358SOL     OW10972   6.222   0.987   2.611
 3358SOL    HW110973   6.216   0.898   2.566
 3358SOL    HW210974   6.219   0.974   2.711
 3359SOL     OW10975   0.068   5.615   4.219
 3359SOL    HW110976   0.058   5.556   4.139
 3359SOL    HW210977   0.146   5.584   4.274
 3360SOL     OW10978   0.042   2.844   5.615
 3360SOL    HW110979   7.019   2.775   5.669
 3360SOL    HW210980   0.077   2.915   5.677
 3361SOL     OW10981   0.355   0.623   4.528
 3361SOL    HW110982   0.302   0.708   4.521
 3361SOL    HW210983   0.448   0.644   4.559
 3362SOL     OW10984   3.758   2.145   3.746
 3362SOL    HW110985   3.665   2.179   3.731
 3362SOL    HW210986   3.812   2.216   3.792
 3363SOL     OW10987   5.642   3.168   1.187
 3363SOL    HW110988   5.617   3.236   1.256
 3363SOL    HW210989   5.675   3.085   1.232
 3364SOL     OW10990   2.495   4.461   2.942
 3364SOL    HW110991   2.491   4.484   2.845
 3364SOL    HW210992   2.437   4.382   2.961
 3365SOL     OW10993   1.829   3.241   4.913
 3365SOL    HW110994   1.790   3.244   4.821
 3365SOL    HW210995   1.775   3.298   4.974
 3366SOL     OW10996   6.521   3.301   4.368
 3366SOL    HW110997   6.542   3.223   4.428
 3366SOL    HW210998   6.596   3.366   4.370
 3367SOL     OW10999   3.281   3.731   4.335
 3367SOL    HW111000   3.326   3.820   4.344
 3367SOL    HW211001   3.215   3.720   4.408
 3368SOL     OW11002   1.372   5.931   6.634
 3368SOL    HW111003   1.454   5.913   6.580
 3368SOL    HW211004   1.396   5.986   6.714
 3369SOL     OW11005   4.537   2.142   1.182
 3369SOL    HW111006   4.562   2.176   1.091
 3369SOL    HW211007   4.592   2.189   1.250
 3370SOL     OW11008   0.273   5.653   1.756
 3370SOL    HW111009   0.211   5.690   1.687
 3370SOL    HW211010   0.298   5.559   1.732
 3371SOL     OW11011   2.155   3.071   3.176
 3371SOL    HW111012   2.200   3.022   3.252
 3371SOL    HW211013   2.098   3.144   3.213
 3372SOL     OW11014   6.335   2.934   1.442
 3372SOL    HW111015   6.417   2.922   1.387
 3372SOL    HW211016   6.305   3.030   1.438
 3373SOL     OW11017   0.135   2.127   1.529
 3373SOL    HW111018   0.165   2.174   1.613
 3373SOL    HW211019   0.192   2.046   1.515
 3374SOL     OW11020   1.117   0.161   3.615
 3374SOL    HW111021   1.064   0.124   3.538
 3374SOL    HW211022   1.213   0.169   3.589
 3375SOL     OW11023   6.949   5.050   6.695
 3375SOL    HW111024   6.982   4.962   6.661
 3375SOL    HW211025   7.008   5.082   6.769
 3376SOL     OW11026   2.206   3.548   5.610
 3376SOL    HW111027   2.302   3.558   5.583
 3376SOL    HW211028   2.202   3.505   5.700
 3377SOL     OW11029   6.036   4.836   3.455
 3377SOL    HW111030   6.042   4.904   3.382
 3377SOL    HW211031   5.956   4.856   3.511
 3378SOL     OW11032   1.681   6.484   6.599
 3378SOL    HW111033   1.649   6.578   6.586
 3378SOL    HW211034   1.660   6.431   6.517
 3379SOL     OW11035   0.789   3.821   4.353
 3379SOL    HW111036   0.870   3.768   4.327
 3379SOL    HW211037   0.769   3.806   4.450
 3380SOL     OW11038   4.064   4.063   5.871
 3380SOL    HW111039   4.117   4.096   5.949
 3380SOL    HW211040   4.045   4.139   5.809
 3381SOL     OW11041   1.434   2.931   1.243
 3381SOL    HW111042   1.466   2.967   1.155
 3381SOL    HW211043   1.495   2.963   1.316
 3382SOL     OW11044   6.885   2.526   1.051
 3382SOL    HW111045   6.785   2.530   1.058
 3382SOL    HW211046   6.923   2.503   1.141
 3383SOL     OW11047   4.154   5.003   6.822
 3383SOL    HW111048   4.171   5.087   6.874
 3383SOL    HW211049   4.124   5.026   6.730
 3384SOL     OW11050   3.248   4.082   0.750
 3384SOL    HW111051   3.287   4.012   0.809
 3384SOL    HW211052   3.156   4.107   0.782
 3385SOL     OW11053   0.484   2.386   3.156
 3385SOL    HW111054   0.455   2.340   3.072
 3385SOL    HW211055   0.584   2.393   3.157
 3386SOL     OW11056   6.758   4.722   6.828
 3386SOL    HW111057   6.659   4.733   6.820
 3386SOL    HW211058   6.783   4.716   6.925
 3387SOL     OW11059   6.367   0.589   3.125
 3387SOL    HW111060   6.386   0.668   3.183
 3387SOL    HW211061   6.343   0.510   3.182
 3388SOL     OW11062   5.500   3.291   1.705
 3388SOL    HW111063   5.429   3.349   1.745
 3388SOL    HW211064   5.578   3.285   1.768
 3389SOL     OW11065   5.958   6.152   0.740
 3389SOL    HW111066   5.965   6.143   0.839
 3389SOL    HW211067   5.926   6.244   0.718
 3390SOL     OW11068   3.931   6.709   6.042
 3390SOL    HW111069   3.915   6.808   6.034
 3390SOL    HW211070   3.874   6.661   5.976
 3391SOL     OW11071   5.928   3.294   3.358
 3391SOL    HW111072   5.883   3.209   3.329
 3391SOL    HW211073   5.980   3.332   3.281
 3392SOL     OW11074   4.173   0.262   5.449
 3392SOL    HW111075   4.175   0.175   5.401
 3392SOL    HW211076   4.156   0.336   5.384
 3393SOL     OW11077   4.991   6.992   1.225
 3393SOL    HW111078   5.035   6.924   1.165
 3393SOL    HW211079   4.948   6.945   1.302
 3394SOL     OW11080   3.130   5.447   1.404
 3394SOL    HW111081   3.079   5.531   1.418
 3394SOL    HW211082   3.134   5.395   1.489
 3395SOL     OW11083   4.036   0.128   3.092
 3395SOL    HW111084   3.997   0.213   3.057
 3395SOL    HW211085   4.105   0.148   3.161
 3396SOL     OW11086   4.639   2.257   4.044
 3396SOL    HW111087   4.624   2.164   4.079
 3396SOL    HW211088   4.709   2.302   4.098
 3397SOL     OW11089   2.145   5.681   6.432
 3397SOL    HW111090   2.101   5.651   6.517
 3397SOL    HW211091   2.236   5.639   6.426
 3398SOL     OW11092   7.006   2.108   5.274
 3398SOL    HW111093   6.949   2.186   5.250
 3398SOL    HW211094   0.066   2.139   5.317
 3399SOL     OW11095   0.551   4.787   3.447
 3399SOL    HW111096   0.611   4.852   3.400
 3399SOL    HW211097   0.580   4.779   3.542
 3400SOL     OW11098   5.588   2.185   5.272
 3400SOL    HW111099   5.507   2.225   5.314
 3400SOL    HW211100   5.577   2.086   5.265
 3401SOL     OW11101   6.578   3.829   5.968
 3401SOL    HW111102   6.497   3.783   5.931
 3401SOL    HW211103   6.620   3.885   5.896
 3402SOL     OW11104   6.824   5.046   1.289
 3402SOL    HW111105   6.856   4.970   1.345
 3402SOL    HW211106   6.760   5.102   1.343
 3403SOL     OW11107   4.603   6.596   6.464
 3403SOL    HW111108   4.690   6.635   6.494
 3403SOL    HW211109   4.531   6.621   6.530
 3404SOL     OW11110   5.078   3.224   5.340
 3404SOL    HW111111   5.160   3.167   5.331
 3404SOL    HW211112   5.086   3.304   5.282
 3405SOL     OW11113   5.193   6.374   5.817
 3405SOL    HW111114   5.236   6.384   5.727
 3405SOL    HW211115   5.174   6.278   5.834
 3406SOL     OW11116   2.102   3.801   2.331
 3406SOL    HW111117   2.184   3.808   2.274
 3406SOL    HW211118   2.128   3.781   2.425
 3407SOL     OW11119   1.881   3.847   0.375
 3407SOL    HW111120   1.871   3.903   0.457
 3407SOL    HW211121   1.889   3.751   0.400
 3408SOL     OW11122   4.996   1.999   3.673
 3408SOL    HW111123   4.941   1.985   3.755
 3408SOL    HW211124   4.938   1.991   3.592
 3409SOL     OW11125   4.359   0.944   0.587
 3409SOL    HW111126   4.349   1.041   0.611
 3409SOL    HW211127   4.277   0.913   0.538
 3410SOL     OW11128   5.518   6.819   2.008
 3410SOL    HW111129   5.474   6.876   2.077
 3410SOL    HW211130   5.501   6.722   2.028
 3411SOL     OW11131   6.696   1.805   0.788
 3411SOL    HW111132   6.642   1.860   0.852
 3411SOL    HW211133   6.785   1.784   0.828
 3412SOL     OW11134   5.311   2.954   1.396
 3412SOL    HW111135   5.295   2.977   1.300
 3412SOL    HW211136   5.228   2.913   1.434
 3413SOL     OW11137   0.183   2.488   6.182
 3413SOL    HW111138   0.279   2.462   6.180
 3413SOL    HW211139   0.172   2.573   6.234
 3414SOL     OW11140   4.050   3.026   0.891
 3414SOL    HW111141   4.076   3.108   0.840
 3414SOL    HW211142   4.060   2.945   0.833
 3415SOL     OW11143   2.475   2.457   4.410
 3415SOL    HW111144   2.493   2.498   4.500
 3415SOL    HW211145   2.381   2.422   4.408
 3416SOL     OW11146   6.276   6.873   6.746
 3416SOL    HW111147   6.257   6.775   6.736
 3416SOL    HW211148   6.210   6.925   6.691
 3417SOL     OW11149   6.792   0.230   2.917
 3417SOL    HW111150   6.769   0.149   2.862
 3417SOL    HW211151   6.824   0.202   3.007
 3418SOL     OW11152   4.662   4.924   2.200
 3418SOL    HW111153   4.645   4.946   2.296
 3418SOL    HW211154   4.730   4.987   2.164
 3419SOL     OW11155   2.861   5.612   6.346
 3419SOL    HW111156   2.944   5.573   6.384
 3419SOL    HW211157   2.836   5.695   6.396
 3420SOL     OW11158   4.722   2.605   3.820
 3420SOL    HW111159   4.813   2.571   3.796
 3420SOL    HW211160   4.653   2.538   3.794
 3421SOL     OW11161   5.721   2.052   3.431
 3421SOL    HW111162   5.777   2.126   3.466
 3421SOL    HW211163   5.694   1.992   3.507
 3422SOL     OW11164   2.094   6.738   1.053
 3422SOL    HW111165   2.131   6.659   1.101
 3422SOL    HW211166   2.153   6.762   0.976
 3423SOL     OW11167   0.893   4.364   5.672
 3423SOL    HW111168   0.825   4.424   5.630
 3423SOL    HW211169   0.850   4.277   5.698
 3424SOL     OW11170   4.637   0.085   1.563
 3424SOL    HW111171   4.719   0.032   1.585
 3424SOL    HW211172   4.659   0.182   1.560
 3425SOL     OW11173   5.606   4.566   1.264
 3425SOL    HW111174   5.685   4.508   1.280
 3425SOL    HW211175   5.568   4.596   1.352
 3426SOL     OW11176   5.606   3.623   0.351
 3426SOL    HW111177   5.638   3.718   0.347
 3426SOL    HW211178   5.559   3.600   0.266
 3427SOL     OW11179   1.141   2.231   0.502
 3427SOL    HW111180   1.067   2.221   0.568
 3427SOL    HW211181   1.203   2.153   0.510
 3428SOL     OW11182   5.067   6.043   5.537
 3428SOL    HW111183   5.052   5.950   5.504
 3428SOL    HW211184   5.057   6.045   5.636
 3429SOL     OW11185   0.080   0.256   1.322
 3429SOL    HW111186   0.050   0.165   1.293
 3429SOL    HW211187   0.106   0.310   1.243
 3430SOL     OW11188   2.237   4.595   5.625
 3430SOL    HW111189   2.231   4.559   5.532
 3430SOL    HW211190   2.278   4.525   5.684
 3431SOL     OW11191   2.449   5.892   2.923
 3431SOL    HW111192   2.478   5.888   2.828
 3431SOL    HW211193   2.453   5.987   2.956
 3432SOL     OW11194   2.616   4.002   0.264
 3432SOL    HW111195   2.701   4.012   0.315
 3432SOL    HW211196   2.546   3.963   0.323
 3433SOL     OW11197   2.452   1.365   6.140
 3433SOL    HW111198   2.400   1.433   6.088
 3433SOL    HW211199   2.405   1.277   6.136
 3434SOL     OW11200   2.924   2.090   1.474
 3434SOL    HW111201   2.907   1.998   1.512
 3434SOL    HW211202   2.936   2.155   1.549
 3435SOL     OW11203   2.080   0.404   0.540
 3435SOL    HW111204   2.033   0.395   0.627
 3435SOL    HW211205   2.018   0.444   0.472
 3436SOL     OW11206   3.480   5.665   1.161
 3436SOL    HW111207   3.551   5.608   1.122
 3436SOL    HW211208   3.513   5.759   1.170
 3437SOL     OW11209   1.138   6.561   6.201
 3437SOL    HW111210   1.125   6.490   6.132
 3437SOL    HW211211   1.191   6.523   6.278
 3438SOL     OW11212   1.074   4.309   1.034
 3438SOL    HW111213   1.066   4.296   0.935
 3438SOL    HW211214   1.040   4.227   1.081
 3439SOL     OW11215   2.166   5.907   2.992
 3439SOL    HW111216   2.263   5.918   2.970
 3439SOL    HW211217   2.111   5.932   2.912
 3440SOL     OW11218   3.754   3.513   4.221
 3440SOL    HW111219   3.833   3.574   4.219
 3440SOL    HW211220   3.685   3.548   4.283
 3441SOL     OW11221   5.377   5.602   5.767
 3441SOL    HW111222   5.347   5.630   5.676
 3441SOL    HW211223   5.466   5.642   5.787
 3442SOL     OW11224   3.198   3.077   1.655
 3442SOL    HW111225   3.170   3.167   1.622
 3442SOL    HW211226   3.189   3.010   1.581
 3443SOL     OW11227   2.493   5.840   2.643
 3443SOL    HW111228   2.592   5.852   2.630
 3443SOL    HW211229   2.444   5.898   2.578
 3444SOL     OW11230   5.656   4.284   1.625
 3444SOL    HW111231   5.575   4.321   1.579
 3444SOL    HW211232   5.733   4.281   1.561
 3445SOL     OW11233   6.254   4.666   3.706
 3445SOL    HW111234   6.329   4.661   3.772
 3445SOL    HW211235   6.236   4.761   3.683
 3446SOL     OW11236   4.910   1.044   1.291
 3446SOL    HW111237   4.989   1.104   1.290
 3446SOL    HW211238   4.875   1.034   1.384
 3447SOL     OW11239   5.013   1.085   0.358
 3447SOL    HW111240   5.102   1.102   0.315
 3447SOL    HW211241   4.985   1.166   0.409
 3448SOL     OW11242   1.791   6.416   4.923
 3448SOL    HW111243   1.803   6.375   5.014
 3448SOL    HW211244   1.713   6.373   4.878
 3449SOL     OW11245   6.578   4.538   5.080
 3449SOL    HW111246   6.511   4.469   5.051
 3449SOL    HW211247   6.636   4.500   5.151
 3450SOL     OW11248   1.494   6.597   6.975
 3450SOL    HW111249   1.489   6.647   6.888
 3450SOL    HW211250   1.580   6.547   6.980
 3451SOL     OW11251   1.884   6.099   0.364
 3451SOL    HW111252   1.976   6.100   0.327
 3451SOL    HW211253   1.850   6.192   0.373
 3452SOL     OW11254   4.893   0.495   5.549
 3452SOL    HW111255   4.967   0.435   5.520
 3452SOL    HW211256   4.910   0.528   5.642
 3453SOL     OW11257   4.860   6.517   5.667
 3453SOL    HW111258   4.820   6.608   5.676
 3453SOL    HW211259   4.950   6.525   5.623
 3454SOL     OW11260   0.997   2.091   2.496
 3454SOL    HW111261   0.975   2.126   2.587
 3454SOL    HW211262   0.913   2.071   2.447
 3455SOL     OW11263   1.650   3.350   5.367
 3455SOL    HW111264   1.558   3.370   5.400
 3455SOL    HW211265   1.714   3.351   5.444
 3456SOL     OW11266   4.999   4.383   2.403
 3456SOL    HW111267   4.933   4.333   2.347
 3456SOL    HW211268   4.951   4.432   2.476
 3457SOL     OW11269   3.912   5.565   5.342
 3457SOL    HW111270   3.898   5.663   5.327
 3457SOL    HW211271   3.983   5.532   5.279
 3458SOL     OW11272   4.307   1.649   3.076
 3458SOL    HW111273   4.400   1.662   3.042
 3458SOL    HW211274   4.306   1.660   3.175
 3459SOL     OW11275   4.039   0.631   3.430
 3459SOL    HW111276   4.005   0.538   3.445
 3459SOL    HW211277   4.126   0.628   3.381
 3460SOL     OW11278   3.684   1.799   5.803
 3460SOL    HW111279   3.604   1.856   5.822
 3460SOL    HW211280   3.767   1.845   5.837
 3461SOL     OW11281   5.387   4.518   6.738
 3461SOL    HW111282   5.445   4.438   6.723
 3461SOL    HW211283   5.444   4.600   6.741
 3462SOL     OW11284   2.565   3.289   6.606
 3462SOL    HW111285   2.468   3.315   6.605
 3462SOL    HW211286   2.622   3.371   6.606
 3463SOL     OW11287   6.422   4.226   1.387
 3463SOL    HW111288   6.488   4.217   1.313
 3463SOL    HW211289   6.462   4.190   1.472
 3464SOL     OW11290   0.096   4.965   6.032
 3464SOL    HW111291   0.188   4.969   5.991
 3464SOL    HW211292   0.034   4.915   5.970
 3465SOL     OW11293   1.901   0.511   1.776
 3465SOL    HW111294   1.948   0.424   1.758
 3465SOL    HW211295   1.817   0.515   1.722
 3466SOL     OW11296   6.579   4.128   5.307
 3466SOL    HW111297   6.649   4.155   5.372
 3466SOL    HW211298   6.524   4.054   5.345
 3467SOL     OW11299   1.734   2.440   6.255
 3467SOL    HW111300   1.825   2.401   6.242
 3467SOL    HW211301   1.674   2.407   6.182
 3468SOL     OW11302   3.369   0.005   3.987
 3468SOL    HW111303   3.371   6.948   3.929
 3468SOL    HW211304   3.444   0.066   3.961
 3469SOL     OW11305   6.054   2.580   3.286
 3469SOL    HW111306   6.017   2.571   3.193
 3469SOL    HW211307   6.044   2.492   3.334
 3470SOL     OW11308   0.602   5.519   0.835
 3470SOL    HW111309   0.643   5.586   0.896
 3470SOL    HW211310   0.656   5.511   0.752
 3471SOL     OW11311   4.076   5.930   4.761
 3471SOL    HW111312   4.164   5.939   4.714
 3471SOL    HW211313   4.090   5.889   4.851
 3472SOL     OW11314   3.082   0.681   4.549
 3472SOL    HW111315   3.055   0.668   4.644
 3472SOL    HW211316   3.095   0.779   4.531
 3473SOL     OW11317   5.919   0.962   6.165
 3473SOL    HW111318   5.914   0.867   6.135
 3473SOL    HW211319   5.856   1.017   6.110
 3474SOL     OW11320   3.901   5.196   1.798
 3474SOL    HW111321   3.881   5.106   1.837
 3474SOL    HW211322   3.960   5.186   1.718
 3475SOL     OW11323   1.449   5.541   4.082
 3475SOL    HW111324   1.382   5.607   4.115
 3475SOL    HW211325   1.536   5.555   4.129
 3476SOL     OW11326   4.321   0.499   4.247
 3476SOL    HW111327   4.292   0.473   4.155
 3476SOL    HW211328   4.371   0.424   4.288
 3477SOL     OW11329   3.961   6.400   1.289
 3477SOL    HW111330   3.974   6.301   1.276
 3477SOL    HW211331   4.019   6.430   1.365
 3478SOL     OW11332   3.646   5.449   6.374
 3478SOL    HW111333   3.560   5.398   6.362
 3478SOL    HW211334   3.672   5.490   6.287
 3479SOL     OW11335   0.776   0.389   1.719
 3479SOL    HW111336   0.688   0.374   1.674
 3479SOL    HW211337   0.818   0.301   1.741
 3480SOL     OW11338   0.275   1.292   3.371
 3480SOL    HW111339   0.190   1.291   3.424
 3480SOL    HW211340   0.353   1.296   3.433
 3481SOL     OW11341   2.621   6.719   6.639
 3481SOL    HW111342   2.556   6.661   6.688
 3481SOL    HW211343   2.629   6.807   6.686
 3482SOL     OW11344   6.853   2.310   0.917
 3482SOL    HW111345   6.924   2.299   0.847
 3482SOL    HW211346   6.882   2.379   0.983
 3483SOL     OW11347   2.045   0.409   1.354
 3483SOL    HW111348   2.024   0.488   1.296
 3483SOL    HW211349   2.058   0.441   1.449
 3484SOL     OW11350   3.608   2.991   3.886
 3484SOL    HW111351   3.556   3.076   3.880
 3484SOL    HW211352   3.603   2.955   3.979
 3485SOL     OW11353   1.385   3.051   5.355
 3485SOL    HW111354   1.332   2.978   5.398
 3485SOL    HW211355   1.323   3.115   5.310
 3486SOL     OW11356   4.497   1.946   1.697
 3486SOL    HW111357   4.427   1.999   1.745
 3486SOL    HW211358   4.517   1.989   1.609
 3487SOL     OW11359   5.919   1.785   6.364
 3487SOL    HW111360   5.824   1.814   6.369
 3487SOL    HW211361   5.972   1.834   6.433
 3488SOL     OW11362   6.007   3.591   3.387
 3488SOL    HW111363   6.049   3.594   3.477
 3488SOL    HW211364   5.926   3.532   3.389
 3489SOL     OW11365   3.530   0.471   1.404
 3489SOL    HW111366   3.498   0.381   1.434
 3489SOL    HW211367   3.630   0.470   1.395
 3490SOL     OW11368   4.715   3.593   0.409
 3490SOL    HW111369   4.810   3.624   0.405
 3490SOL    HW211370   4.673   3.605   0.319
 3491SOL     OW11371   0.195   3.318   5.556
 3491SOL    HW111372   0.196   3.415   5.581
 3491SOL    HW211373   0.275   3.296   5.501
 3492SOL     OW11374   0.073   4.544   6.645
 3492SOL    HW111375   0.072   4.463   6.585
 3492SOL    HW211376   0.152   4.539   6.706
 3493SOL     OW11377   6.549   4.639   0.985
 3493SOL    HW111378   6.551   4.692   1.070
 3493SOL    HW211379   6.507   4.550   1.003
 3494SOL     OW11380   3.341   0.264   1.536
 3494SOL    HW111381   3.327   0.323   1.615
 3494SOL    HW211382   3.267   0.278   1.470
 3495SOL     OW11383   4.537   5.058   1.549
 3495SOL    HW111384   4.529   4.995   1.472
 3495SOL    HW211385   4.504   5.149   1.522
 3496SOL     OW11386   1.867   2.635   0.394
 3496SOL    HW111387   1.854   2.628   0.295
 3496SOL    HW211388   1.905   2.725   0.416
 3497SOL     OW11389   4.398   0.600   3.931
 3497SOL    HW111390   4.305   0.565   3.937
 3497SOL    HW211391   4.411   0.670   4.002
 3498SOL     OW11392   2.437   1.670   1.423
 3498SOL    HW111393   2.449   1.769   1.414
 3498SOL    HW211394   2.367   1.639   1.359
 3499SOL     OW11395   6.697   2.844   4.753
 3499SOL    HW111396   6.660   2.775   4.816
 3499SOL    HW211397   6.706   2.805   4.662
 3500SOL     OW11398   6.564   4.445   6.795
 3500SOL    HW111399   6.609   4.361   6.825
 3500SOL    HW211400   6.569   4.452   6.696
 3501SOL     OW11401   1.888   4.743   4.848
 3501SOL    HW111402   1.878   4.665   4.786
 3501SOL    HW211403   1.983   4.747   4.880
 3502SOL     OW11404   0.811   1.923   0.927
 3502SOL    HW111405   0.794   2.019   0.903
 3502SOL    HW211406   0.906   1.901   0.908
 3503SOL     OW11407   5.059   5.667   5.704
 3503SOL    HW111408   5.092   5.712   5.621
 3503SOL    HW211409   5.094   5.573   5.707
 3504SOL     OW11410   2.724   3.361   1.526
 3504SOL    HW111411   2.679   3.377   1.614
 3504SOL    HW211412   2.769   3.272   1.527
 3505SOL     OW11413   5.337   5.682   5.511
 3505SOL    HW111414   5.340   5.616   5.437
 3505SOL    HW211415   5.407   5.752   5.496
 3506SOL     OW11416   4.577   5.260   3.378
 3506SOL    HW111417   4.673   5.236   3.389
 3506SOL    HW211418   4.548   5.241   3.284
 3507SOL     OW11419   1.226   0.228   6.688
 3507SOL    HW111420   1.322   0.237   6.662
 3507SOL    HW211421   1.219   0.176   6.772
 3508SOL     OW11422   5.424   3.623   0.122
 3508SOL    HW111423   5.490   3.698   0.113
 3508SOL    HW211424   5.379   3.607   0.034
 3509SOL     OW11425   6.626   6.100   6.640
 3509SOL    HW111426   6.571   6.162   6.696
 3509SOL    HW211427   6.620   6.007   6.679
 3510SOL     OW11428   2.037   2.393   1.954
 3510SOL    HW111429   2.024   2.313   2.014
 3510SOL    HW211430   2.127   2.432   1.971
 3511SOL     OW11431   0.247   2.834   6.692
 3511SOL    HW111432   0.321   2.767   6.698
 3511SOL    HW211433   0.284   2.927   6.694
 3512SOL     OW11434   2.559   2.711   0.264
 3512SOL    HW111435   2.593   2.805   0.259
 3512SOL    HW211436   2.572   2.676   0.357
 3513SOL     OW11437   6.468   4.069   1.626
 3513SOL    HW111438   6.532   4.068   1.703
 3513SOL    HW211439   6.449   3.975   1.598
 3514SOL     OW11440   0.846   6.784   1.145
 3514SOL    HW111441   0.802   6.698   1.115
 3514SOL    HW211442   0.785   6.832   1.208
 3515SOL     OW11443   3.024   6.215   3.281
 3515SOL    HW111444   2.975   6.129   3.278
 3515SOL    HW211445   2.965   6.286   3.320
 3516SOL     OW11446   3.071   1.235   0.498
 3516SOL    HW111447   3.039   1.183   0.577
 3516SOL    HW211448   3.066   1.333   0.519
 3517SOL     OW11449   1.028   1.524   6.482
 3517SOL    HW111450   1.051   1.505   6.386
 3517SOL    HW211451   0.983   1.613   6.488
 3518SOL     OW11452   4.514   3.243   6.195
 3518SOL    HW111453   4.484   3.338   6.207
 3518SOL    HW211454   4.605   3.231   6.235
 3519SOL     OW11455   2.232   6.596   6.457
 3519SOL    HW111456   2.330   6.588   6.443
 3519SOL    HW211457   2.212   6.679   6.509
 3520SOL     OW11458   3.650   5.521   1.011
 3520SOL    HW111459   3.739   5.493   0.976
 3520SOL    HW211460   3.593   5.555   0.935
 3521SOL     OW11461   5.669   2.107   1.560
 3521SOL    HW111462   5.616   2.037   1.513
 3521SOL    HW211463   5.762   2.074   1.575
 3522SOL     OW11464   3.512   5.335   2.492
 3522SOL    HW111465   3.606   5.323   2.524
 3522SOL    HW211466   3.463   5.395   2.555
 3523SOL     OW11467   2.919   4.856   4.873
 3523SOL    HW111468   2.900   4.777   4.931
 3523SOL    HW211469   2.833   4.898   4.844
 3524SOL     OW11470   2.858   0.055   0.750
 3524SOL    HW111471   2.957   0.049   0.754
 3524SOL    HW211472   2.829   0.150   0.760
 3525SOL     OW11473   0.609   2.980   2.127
 3525SOL    HW111474   0.602   2.969   2.226
 3525SOL    HW211475   0.692   3.031   2.105
 3526SOL     OW11476   1.032   0.608   2.800
 3526SOL    HW111477   0.940   0.645   2.816
 3526SOL    HW211478   1.039   0.579   2.704
 3527SOL     OW11479   5.444   3.114   6.443
 3527SOL    HW111480   5.350   3.081   6.442
 3527SOL    HW211481   5.458   3.176   6.365
 3528SOL     OW11482   0.346   6.438   3.253
 3528SOL    HW111483   0.423   6.423   3.191
 3528SOL    HW211484   0.376   6.427   3.347
 3529SOL     OW11485   4.414   6.825   5.545
 3529SOL    HW111486   4.337   6.764   5.561
 3529SOL    HW211487   4.416   6.897   5.615
 3530SOL     OW11488   2.746   5.620   2.690
 3530SOL    HW111489   2.779   5.527   2.711
 3530SOL    HW211490   2.760   5.679   2.770
 3531SOL     OW11491   6.115   4.565   0.634
 3531SOL    HW111492   6.134   4.490   0.571
 3531SOL    HW211493   6.082   4.528   0.721
 3532SOL     OW11494   2.556   0.303   6.619
 3532SOL    HW111495   2.487   0.236   6.647
 3532SOL    HW211496   2.644   0.257   6.607
 3533SOL     OW11497   0.868   1.525   3.285
 3533SOL    HW111498   0.901   1.448   3.339
 3533SOL    HW211499   0.941   1.557   3.224
 3534SOL     OW11500   5.328   1.274   4.887
 3534SOL    HW111501   5.307   1.223   4.970
 3534SOL    HW211502   5.401   1.228   4.836
 3535SOL     OW11503   5.836   5.235   6.231
 3535SOL    HW111504   5.751   5.184   6.250
 3535SOL    HW211505   5.821   5.332   6.251
 3536SOL     OW11506   1.756   3.420   3.170
 3536SOL    HW111507   1.765   3.325   3.141
 3536SOL    HW211508   1.828   3.475   3.128
 3537SOL     OW11509   2.061   5.853   0.799
 3537SOL    HW111510   2.098   5.761   0.785
 3537SOL    HW211511   2.031   5.863   0.893
 3538SOL     OW11512   2.671   0.495   3.310
 3538SOL    HW111513   2.575   0.469   3.311
 3538SOL    HW211514   2.683   0.580   3.259
 3539SOL     OW11515   5.255   4.816   6.573
 3539SOL    HW111516   5.223   4.759   6.648
 3539SOL    HW211517   5.346   4.785   6.545
 3540SOL     OW11518   3.240   3.167   6.832
 3540SOL    HW111519   3.181   3.122   6.898
 3540SOL    HW211520   3.188   3.188   6.749
 3541SOL     OW11521   3.155   2.264   1.007
 3541SOL    HW111522   3.141   2.362   0.996
 3541SOL    HW211523   3.117   2.234   1.095
 3542SOL     OW11524   5.499   2.154   5.927
 3542SOL    HW111525   5.531   2.158   6.022
 3542SOL    HW211526   5.577   2.137   5.867
 3543SOL     OW11527   2.082   2.707   3.116
 3543SOL    HW111528   2.160   2.751   3.073
 3543SOL    HW211529   2.112   2.654   3.196
 3544SOL     OW11530   2.800   4.572   6.076
 3544SOL    HW111531   2.780   4.670   6.076
 3544SOL    HW211532   2.814   4.540   6.170
 3545SOL     OW11533   3.409   0.024   1.418
 3545SOL    HW111534   3.329   0.015   1.358
 3545SOL    HW211535   3.411   0.115   1.458
 3546SOL     OW11536   6.611   3.668   3.172
 3546SOL    HW111537   6.698   3.690   3.127
 3546SOL    HW211538   6.629   3.618   3.256
 3547SOL     OW11539   6.979   3.480   5.406
 3547SOL    HW111540   6.896   3.468   5.352
 3547SOL    HW211541   0.015   3.400   5.394
 3548SOL     OW11542   5.494   1.279   5.574
 3548SOL    HW111543   5.401   1.284   5.610
 3548SOL    HW211544   5.552   1.230   5.639
 3549SOL     OW11545   3.001   5.341   6.733
 3549SOL    HW111546   2.990   5.301   6.824
 3549SOL    HW211547   2.946   5.424   6.727
 3550SOL     OW11548   5.083   1.395   5.079
 3550SOL    HW111549   5.044   1.480   5.044
 3550SOL    HW211550   5.041   1.373   5.167
 3551SOL     OW11551   3.957   2.046   4.832
 3551SOL    HW111552   3.884   2.091   4.781
 3551SOL    HW211553   4.032   2.110   4.846
 3552SOL     OW11554   0.256   6.278   2.465
 3552SOL    HW111555   0.321   6.340   2.421
 3552SOL    HW211556   0.284   6.263   2.560
 3553SOL     OW11557   3.840   4.866   6.155
 3553SOL    HW111558   3.889   4.915   6.226
 3553SOL    HW211559   3.811   4.930   6.084
 3554SOL     OW11560   4.292   3.546   1.721
 3554SOL    HW111561   4.235   3.466   1.737
 3554SOL    HW211562   4.238   3.629   1.731
 3555SOL     OW11563   2.369   2.303   3.944
 3555SOL    HW111564   2.337   2.266   4.031
 3555SOL    HW211565   2.439   2.373   3.962
 3556SOL     OW11566   4.034   1.013   5.884
 3556SOL    HW111567   4.122   0.966   5.874
 3556SOL    HW211568   3.960   0.947   5.869
 3557SOL     OW11569   6.647   1.675   1.664
 3557SOL    HW111570   6.610   1.731   1.738
 3557SOL    HW211571   6.581   1.603   1.642
 3558SOL     OW11572   3.194   0.092   1.241
 3558SOL    HW111573   3.114   0.071   1.183
 3558SOL    HW211574   3.215   0.189   1.233
 3559SOL     OW11575   4.502   6.553   4.401
 3559SOL    HW111576   4.430   6.484   4.390
 3559SOL    HW211577   4.567   6.546   4.325
 3560SOL     OW11578   1.730   5.925   5.080
 3560SOL    HW111579   1.816   5.882   5.053
 3560SOL    HW211580   1.680   5.952   4.998
 3561SOL     OW11581   5.133   4.165   5.274
 3561SOL    HW111582   5.149   4.107   5.194
 3561SOL    HW211583   5.175   4.255   5.259
 3562SOL     OW11584   2.483   1.602   5.165
 3562SOL    HW111585   2.557   1.594   5.231
 3562SOL    HW211586   2.457   1.698   5.154
 3563SOL     OW11587   5.587   2.293   5.621
 3563SOL    HW111588   5.646   2.288   5.541
 3563SOL    HW211589   5.619   2.228   5.690
 3564SOL     OW11590   6.889   4.599   2.498
 3564SOL    HW111591   6.843   4.661   2.434
 3564SOL    HW211592   6.821   4.553   2.555
 3565SOL     OW11593   3.398   5.928   3.523
 3565SOL    HW111594   3.443   5.881   3.447
 3565SOL    HW211595   3.369   5.861   3.591
 3566SOL     OW11596   6.832   1.316   5.632
 3566SOL    HW111597   6.818   1.250   5.559
 3566SOL    HW211598   6.849   1.406   5.593
 3567SOL     OW11599   0.306   4.610   6.786
 3567SOL    HW111600   0.334   4.640   6.878
 3567SOL    HW211601   0.356   4.527   6.762
 3568SOL     OW11602   6.107   3.875   6.295
 3568SOL    HW111603   6.202   3.903   6.281
 3568SOL    HW211604   6.103   3.810   6.371
 3569SOL     OW11605   2.734   2.505   5.239
 3569SOL    HW111606   2.688   2.533   5.323
 3569SOL    HW211607   2.833   2.513   5.251
 3570SOL     OW11608   6.310   1.364   4.223
 3570SOL    HW111609   6.367   1.445   4.238
 3570SOL    HW211610   6.305   1.312   4.309
 3571SOL     OW11611   6.267   5.676   6.328
 3571SOL    HW111612   6.215   5.593   6.342
 3571SOL    HW211613   6.329   5.664   6.251
 3572SOL     OW11614   5.664   3.840   4.362
 3572SOL    HW111615   5.707   3.930   4.369
 3572SOL    HW211616   5.732   3.772   4.333
 3573SOL     OW11617   1.292   3.751   3.250
 3573SOL    HW111618   1.335   3.702   3.327
 3573SOL    HW211619   1.292   3.849   3.269
 3574SOL     OW11620   0.197   4.233   0.341
 3574SOL    HW111621   0.212   4.326   0.376
 3574SOL    HW211622   0.105   4.203   0.366
 3575SOL     OW11623   6.351   5.297   2.876
 3575SOL    HW111624   6.255   5.268   2.873
 3575SOL    HW211625   6.357   5.394   2.854
 3576SOL     OW11626   0.374   1.676   6.291
 3576SOL    HW111627   0.363   1.666   6.390
 3576SOL    HW211628   0.290   1.711   6.251
 3577SOL     OW11629   1.029   2.577   6.218
 3577SOL    HW111630   1.078   2.664   6.227
 3577SOL    HW211631   1.045   2.521   6.300
 3578SOL     OW11632   3.196   4.210   6.686
 3578SOL    HW111633   3.209   4.192   6.783
 3578SOL    HW211634   3.286   4.215   6.641
 3579SOL     OW11635   0.033   3.414   4.802
 3579SOL    HW111636   0.097   3.341   4.823
 3579SOL    HW211637   0.080   3.486   4.750
 3580SOL     OW11638   6.133   1.964   1.949
 3580SOL    HW111639   6.180   2.023   1.884
 3580SOL    HW211640   6.197   1.937   2.022
 3581SOL     OW11641   6.908   0.499   2.408
 3581SOL    HW111642   6.878   0.536   2.496
 3581SOL    HW211643   6.842   0.432   2.375
 3582SOL     OW11644   0.704   0.582   6.002
 3582SOL    HW111645   0.646   0.661   5.983
 3582SOL    HW211646   0.736   0.586   6.096
 3583SOL     OW11647   1.031   4.673   0.129
 3583SOL    HW111648   0.978   4.618   0.193
 3583SOL    HW211649   1.019   4.770   0.151
 3584SOL     OW11650   5.581   6.158   6.297
 3584SOL    HW111651   5.482   6.151   6.306
 3584SOL    HW211652   5.623   6.068   6.313
 3585SOL     OW11653   3.642   5.161   4.544
 3585SOL    HW111654   3.559   5.162   4.600
 3585SOL    HW211655   3.721   5.144   4.604
 3586SOL     OW11656   6.499   3.082   5.761
 3586SOL    HW111657   6.565   3.155   5.740
 3586SOL    HW211658   6.438   3.069   5.682
 3587SOL     OW11659   3.443   6.768   0.493
 3587SOL    HW111660   3.450   6.687   0.436
 3587SOL    HW211661   3.397   6.746   0.579
 3588SOL     OW11662   1.834   2.265   5.580
 3588SOL    HW111663   1.879   2.246   5.667
 3588SOL    HW211664   1.746   2.218   5.577
 3589SOL     OW11665   2.948   0.801   5.092
 3589SOL    HW111666   2.914   0.723   5.040
 3589SOL    HW211667   2.900   0.884   5.064
 3590SOL     OW11668   1.248   5.253   6.166
 3590SOL    HW111669   1.310   5.282   6.093
 3590SOL    HW211670   1.262   5.156   6.184
 3591SOL     OW11671   5.579   3.046   5.513
 3591SOL    HW111672   5.565   2.970   5.576
 3591SOL    HW211673   5.510   3.117   5.530
 3592SOL     OW11674   5.247   3.156   2.814
 3592SOL    HW111675   5.212   3.064   2.832
 3592SOL    HW211676   5.265   3.166   2.716
 3593SOL     OW11677   1.912   6.948   4.152
 3593SOL    HW111678   1.948   7.015   4.217
 3593SOL    HW211679   1.937   6.856   4.182
 3594SOL     OW11680   2.276   0.927   3.450
 3594SOL    HW111681   2.257   1.023   3.429
 3594SOL    HW211682   2.222   0.868   3.389
 3595SOL     OW11683   2.490   6.339   5.788
 3595SOL    HW111684   2.451   6.380   5.871
 3595SOL    HW211685   2.573   6.289   5.811
 3596SOL     OW11686   6.210   0.730   2.469
 3596SOL    HW111687   6.168   0.797   2.408
 3596SOL    HW211688   6.274   0.673   2.416
 3597SOL     OW11689   3.983   6.398   4.438
 3597SOL    HW111690   3.973   6.362   4.345
 3597SOL    HW211691   3.999   6.322   4.501
 3598SOL     OW11692   0.682   0.021   5.806
 3598SOL    HW111693   0.667   0.106   5.754
 3598SOL    HW211694   0.613   0.013   5.877
 3599SOL     OW11695   6.859   2.392   5.218
 3599SOL    HW111696   6.907   2.466   5.265
 3599SOL    HW211697   6.819   2.426   5.133
 3600SOL     OW11698   5.906   3.137   1.665
 3600SOL    HW111699   5.964   3.215   1.690
 3600SOL    HW211700   5.810   3.162   1.680
 3601SOL     OW11701   0.386   3.812   0.466
 3601SOL    HW111702   0.460   3.840   0.404
 3601SOL    HW211703   0.383   3.712   0.471
 3602SOL     OW11704   1.987   0.710   0.169
 3602SOL    HW111705   2.056   0.780   0.150
 3602SOL    HW211706   1.897   0.753   0.172
 3603SOL     OW11707   3.939   5.036   4.244
 3603SOL    HW111708   3.914   5.033   4.340
 3603SOL    HW211709   4.018   4.977   4.228
 3604SOL     OW11710   6.869   2.495   2.526
 3604SOL    HW111711   6.898   2.420   2.584
 3604SOL    HW211712   6.939   2.513   2.456
 3605SOL     OW11713   5.803   4.321   6.476
 3605SOL    HW111714   5.868   4.269   6.419
 3605SOL    HW211715   5.710   4.309   6.440
 3606SOL     OW11716   6.838   4.517   5.688
 3606SOL    HW111717   6.823   4.552   5.595
 3606SOL    HW211718   6.755   4.528   5.742
 3607SOL     OW11719   5.294   1.158   0.552
 3607SOL    HW111720   5.336   1.086   0.498
 3607SOL    HW211721   5.365   1.216   0.592
 3608SOL     OW11722   0.618   1.541   1.516
 3608SOL    HW111723   0.632   1.496   1.428
 3608SOL    HW211724   0.540   1.500   1.562
 3609SOL     OW11725   6.444   0.462   4.571
 3609SOL    HW111726   6.515   0.400   4.603
 3609SOL    HW211727   6.411   0.518   4.648
 3610SOL     OW11728   0.558   6.865   4.961
 3610SOL    HW111729   0.578   6.958   4.990
 3610SOL    HW211730   0.639   6.826   4.916
 3611SOL     OW11731   3.540   5.247   5.637
 3611SOL    HW111732   3.595   5.213   5.562
 3611SOL    HW211733   3.462   5.299   5.601
 3612SOL     OW11734   1.118   6.210   6.461
 3612SOL    HW111735   1.134   6.182   6.556
 3612SOL    HW211736   1.033   6.264   6.457
 3613SOL     OW11737   4.798   5.209   0.638
 3613SOL    HW111738   4.714   5.155   0.650
 3613SOL    HW211739   4.828   5.202   0.543
 3614SOL     OW11740   3.848   3.320   3.585
 3614SOL    HW111741   3.760   3.289   3.551
 3614SOL    HW211742   3.837   3.408   3.632
 3615SOL     OW11743   5.800   5.183   5.749
 3615SOL    HW111744   5.796   5.102   5.691
 3615SOL    HW211745   5.710   5.199   5.790
 3616SOL     OW11746   6.423   2.119   6.495
 3616SOL    HW111747   6.473   2.199   6.531
 3616SOL    HW211748   6.475   2.080   6.419
 3617SOL     OW11749   6.103   2.242   6.648
 3617SOL    HW111750   6.149   2.184   6.581
 3617SOL    HW211751   6.004   2.227   6.643
 3618SOL     OW11752   1.339   1.662   5.731
 3618SOL    HW111753   1.420   1.630   5.682
 3618SOL    HW211754   1.367   1.718   5.809
 3619SOL     OW11755   6.037   2.418   4.142
 3619SOL    HW111756   5.981   2.428   4.224
 3619SOL    HW211757   6.036   2.322   4.112
 3620SOL     OW11758   5.737   0.042   5.867
 3620SOL    HW111759   5.648   0.006   5.838
 3620SOL    HW211760   5.759   0.123   5.813
 3621SOL     OW11761   3.189   2.824   5.970
 3621SOL    HW111762   3.214   2.903   6.025
 3621SOL    HW211763   3.240   2.825   5.884
 3622SOL     OW11764   0.758   0.970   3.166
 3622SOL    HW111765   0.683   0.958   3.101
 3622SOL    HW211766   0.754   1.061   3.205
 3623SOL     OW11767   5.860   5.159   4.000
 3623SOL    HW111768   5.782   5.096   3.992
 3623SOL    HW211769   5.837   5.232   4.065
 3624SOL     OW11770   2.233   6.580   3.447
 3624SOL    HW111771   2.238   6.600   3.349
 3624SOL    HW211772   2.322   6.597   3.489
 3625SOL     OW11773   6.328   3.403   5.942
 3625SOL    HW111774   6.233   3.371   5.942
 3625SOL    HW211775   6.388   3.330   5.975
 3626SOL     OW11776   2.067   3.659   4.960
 3626SOL    HW111777   2.027   3.571   4.986
 3626SOL    HW211778   2.127   3.691   5.033
 3627SOL     OW11779   4.034   3.668   3.575
 3627SOL    HW111780   3.953   3.670   3.633
 3627SOL    HW211781   4.027   3.740   3.506
 3628SOL     OW11782   2.531   5.902   1.897
 3628SOL    HW111783   2.447   5.848   1.903
 3628SOL    HW211784   2.574   5.907   1.987
 3629SOL     OW11785   6.318   2.256   4.951
 3629SOL    HW111786   6.380   2.280   5.026
 3629SOL    HW211787   6.323   2.158   4.935
 3630SOL     OW11788   5.593   2.184   4.529
 3630SOL    HW111789   5.640   2.132   4.457
 3630SOL    HW211790   5.519   2.237   4.488
 3631SOL     OW11791   2.306   0.225   4.739
 3631SOL    HW111792   2.367   0.284   4.686
 3631SOL    HW211793   2.277   0.148   4.682
 3632SOL     OW11794   5.591   1.094   0.979
 3632SOL    HW111795   5.503   1.047   0.994
 3632SOL    HW211796   5.625   1.071   0.888
 3633SOL     OW11797   2.960   2.505   5.657
 3633SOL    HW111798   2.898   2.503   5.578
 3633SOL    HW211799   3.030   2.436   5.645
 3634SOL     OW11800   0.461   6.678   4.548
 3634SOL    HW111801   0.416   6.635   4.469
 3634SOL    HW211802   0.461   6.778   4.536
 3635SOL     OW11803   3.231   1.439   5.403
 3635SOL    HW111804   3.268   1.450   5.311
 3635SOL    HW211805   3.181   1.352   5.409
 3636SOL     OW11806   0.081   6.194   5.785
 3636SOL    HW111807   0.167   6.176   5.833
 3636SOL    HW211808   0.035   6.271   5.829
 3637SOL     OW11809   6.340   2.171   0.988
 3637SOL    HW111810   6.305   2.187   1.080
 3637SOL    HW211811   6.300   2.237   0.924
 3638SOL     OW11812   6.464   4.685   3.862
 3638SOL    HW111813   6.558   4.718   3.859
 3638SOL    HW211814   6.438   4.667   3.957
 3639SOL     OW11815   3.729   3.574   1.022
 3639SOL    HW111816   3.796   3.517   1.068
 3639SOL    HW211817   3.676   3.626   1.089
 3640SOL     OW11818   3.567   5.881   6.939
 3640SOL    HW111819   3.649   5.835   6.974
 3640SOL    HW211820   3.526   5.935   7.013
 3641SOL     OW11821   3.544   1.695   4.743
 3641SOL    HW111822   3.573   1.774   4.797
 3641SOL    HW211823   3.523   1.724   4.649
 3642SOL     OW11824   4.972   1.187   5.871
 3642SOL    HW111825   5.057   1.145   5.904
 3642SOL    HW211826   4.939   1.135   5.792
 3643SOL     OW11827   3.187   5.687   4.603
 3643SOL    HW111828   3.088   5.682   4.602
 3643SOL    HW211829   3.222   5.641   4.685
 3644SOL     OW11830   6.853   1.329   1.203
 3644SOL    HW111831   6.838   1.412   1.258
 3644SOL    HW211832   6.809   1.251   1.248
 3645SOL     OW11833   5.416   1.715   4.184
 3645SOL    HW111834   5.344   1.647   4.186
 3645SOL    HW211835   5.478   1.700   4.261
 3646SOL     OW11836   6.596   4.588   5.371
 3646SOL    HW111837   6.561   4.678   5.397
 3646SOL    HW211838   6.696   4.589   5.377
 3647SOL     OW11839   1.867   3.401   0.138
 3647SOL    HW111840   1.871   3.303   0.160
 3647SOL    HW211841   1.959   3.434   0.119
 3648SOL     OW11842   4.051   5.525   3.080
 3648SOL    HW111843   3.959   5.489   3.096
 3648SOL    HW211844   4.100   5.464   3.018
 3649SOL     OW11845   4.187   3.189   0.709
 3649SOL    HW111846   4.152   3.232   0.625
 3649SOL    HW211847   4.273   3.141   0.688
 3650SOL     OW11848   6.891   5.847   0.664
 3650SOL    HW111849   6.796   5.816   0.667
 3650SOL    HW211850   6.913   5.894   0.750
 3651SOL     OW11851   0.965   6.222   2.244
 3651SOL    HW111852   0.929   6.218   2.150
 3651SOL    HW211853   1.036   6.153   2.255
 3652SOL     OW11854   4.976   6.737   3.276
 3652SOL    HW111855   4.905   6.781   3.331
 3652SOL    HW211856   4.992   6.645   3.310
 3653SOL     OW11857   6.246   1.045   3.033
 3653SOL    HW111858   6.273   0.955   2.999
 3653SOL    HW211859   6.167   1.078   2.980
 3654SOL     OW11860   2.112   6.589   0.594
 3654SOL    HW111861   2.048   6.662   0.568
 3654SOL    HW211862   2.067   6.526   0.656
 3655SOL     OW11863   1.234   6.813   3.734
 3655SOL    HW111864   1.174   6.769   3.800
 3655SOL    HW211865   1.321   6.836   3.778
 3656SOL     OW11866   1.439   2.463   1.277
 3656SOL    HW111867   1.418   2.463   1.375
 3656SOL    HW211868   1.355   2.452   1.224
 3657SOL     OW11869   4.554   5.888   6.397
 3657SOL    HW111870   4.635   5.944   6.411
 3657SOL    HW211871   4.581   5.795   6.373
 3658SOL     OW11872   1.033   5.982   4.921
 3658SOL    HW111873   1.125   5.965   4.956
 3658SOL    HW211874   1.038   6.043   4.842
 3659SOL     OW11875   2.672   4.409   6.653
 3659SOL    HW111876   2.689   4.482   6.588
 3659SOL    HW211877   2.580   4.419   6.691
 3660SOL     OW11878   4.764   6.149   2.173
 3660SOL    HW111879   4.833   6.105   2.231
 3660SOL    HW211880   4.754   6.097   2.088
 3661SOL     OW11881   4.839   2.159   6.565
 3661SOL    HW111882   4.821   2.076   6.512
 3661SOL    HW211883   4.850   2.237   6.504
 3662SOL     OW11884   3.531   0.324   4.811
 3662SOL    HW111885   3.445   0.289   4.774
 3662SOL    HW211886   3.568   0.257   4.876
 3663SOL     OW11887   1.239   1.343   0.277
 3663SOL    HW111888   1.272   1.360   0.370
 3663SOL    HW211889   1.188   1.257   0.275
 3664SOL     OW11890   5.188   1.469   1.127
 3664SOL    HW111891   5.250   1.420   1.066
 3664SOL    HW211892   5.241   1.524   1.191
 3665SOL     OW11893   0.393   5.711   5.343
 3665SOL    HW111894   0.392   5.716   5.442
 3665SOL    HW211895   0.362   5.621   5.313
 3666SOL     OW11896   1.743   4.445   3.727
 3666SOL    HW111897   1.757   4.386   3.648
 3666SOL    HW211898   1.830   4.460   3.774
 3667SOL     OW11899   6.127   0.464   0.398
 3667SOL    HW111900   6.047   0.439   0.343
 3667SOL    HW211901   6.206   0.411   0.367
 3668SOL     OW11902   1.569   0.249   2.388
 3668SOL    HW111903   1.634   0.311   2.432
 3668SOL    HW211904   1.597   0.235   2.293
 3669SOL     OW11905   5.972   1.769   4.443
 3669SOL    HW111906   5.962   1.867   4.462
 3669SOL    HW211907   6.051   1.755   4.383
 3670SOL     OW11908   2.582   5.620   0.692
 3670SOL    HW111909   2.557   5.534   0.738
 3670SOL    HW211910   2.634   5.599   0.609
 3671SOL     OW11911   6.325   0.400   3.322
 3671SOL    HW111912   6.226   0.400   3.309
 3671SOL    HW211913   6.346   0.419   3.418
 3672SOL     OW11914   6.113   1.698   0.746
 3672SOL    HW111915   6.175   1.690   0.824
 3672SOL    HW211916   6.018   1.697   0.779
 3673SOL     OW11917   4.086   0.957   6.327
 3673SOL    HW111918   4.095   1.004   6.415
 3673SOL    HW211919   4.176   0.942   6.287
 3674SOL     OW11920   0.533   6.771   6.309
 3674SOL    HW111921   0.522   6.714   6.390
 3674SOL    HW211922   0.571   6.716   6.234
 3675SOL     OW11923   1.750   2.509   5.416
 3675SOL    HW111924   1.785   2.415   5.422
 3675SOL    HW211925   1.715   2.537   5.505
 3676SOL     OW11926   3.942   5.298   4.205
 3676SOL    HW111927   3.928   5.199   4.211
 3676SOL    HW211928   3.858   5.342   4.173
 3677SOL     OW11929   1.032   5.968   2.795
 3677SOL    HW111930   1.093   6.042   2.767
 3677SOL    HW211931   1.064   5.882   2.754
 3678SOL     OW11932   0.792   2.901   3.743
 3678SOL    HW111933   0.885   2.936   3.732
 3678SOL    HW211934   0.769   2.898   3.840
 3679SOL     OW11935   0.103   1.001   2.590
 3679SOL    HW111936   0.074   1.013   2.685
 3679SOL    HW211937   0.023   0.995   2.530
 3680SOL     OW11938   6.426   3.193   4.043
 3680SOL    HW111939   6.432   3.286   4.079
 3680SOL    HW211940   6.356   3.142   4.093
 3681SOL     OW11941   0.682   0.858   5.958
 3681SOL    HW111942   0.643   0.874   6.049
 3681SOL    HW211943   0.771   0.903   5.952
 3682SOL     OW11944   5.912   2.335   5.674
 3682SOL    HW111945   5.869   2.424   5.681
 3682SOL    HW211946   5.868   2.282   5.601
 3683SOL     OW11947   6.919   0.640   4.939
 3683SOL    HW111948   6.969   0.559   4.970
 3683SOL    HW211949   6.968   0.723   4.968
 3684SOL     OW11950   1.625   2.736   1.120
 3684SOL    HW111951   1.543   2.768   1.167
 3684SOL    HW211952   1.686   2.814   1.104
 3685SOL     OW11953   6.286   6.336   5.836
 3685SOL    HW111954   6.239   6.269   5.778
 3685SOL    HW211955   6.226   6.361   5.912
 3686SOL     OW11956   6.058   4.997   3.247
 3686SOL    HW111957   6.040   5.071   3.182
 3686SOL    HW211958   6.139   4.946   3.218
 3687SOL     OW11959   3.327   6.252   5.627
 3687SOL    HW111960   3.298   6.168   5.582
 3687SOL    HW211961   3.371   6.312   5.560
 3688SOL     OW11962   1.059   4.248   0.328
 3688SOL    HW111963   1.098   4.170   0.376
 3688SOL    HW211964   1.128   4.320   0.318
 3689SOL     OW11965   0.787   0.487   5.528
 3689SOL    HW111966   0.761   0.581   5.549
 3689SOL    HW211967   0.774   0.469   5.431
 3690SOL     OW11968   4.479   0.384   6.481
 3690SOL    HW111969   4.469   0.363   6.578
 3690SOL    HW211970   4.518   0.476   6.470
 3691SOL     OW11971   2.625   2.868   6.839
 3691SOL    HW111972   2.535   2.854   6.880
 3691SOL    HW211973   2.616   2.932   6.762
 3692SOL     OW11974   0.867   5.744   4.411
 3692SOL    HW111975   0.795   5.676   4.427
 3692SOL    HW211976   0.924   5.752   4.493
 3693SOL     OW11977   1.693   2.930   2.844
 3693SOL    HW111978   1.746   3.007   2.808
 3693SOL    HW211979   1.742   2.888   2.920
 3694SOL     OW11980   0.733   5.271   3.480
 3694SOL    HW111981   0.795   5.259   3.558
 3694SOL    HW211982   0.728   5.367   3.456
 3695SOL     OW11983   0.610   2.151   2.522
 3695SOL    HW111984   0.650   2.241   2.539
 3695SOL    HW211985   0.662   2.104   2.451
 3696SOL     OW11986   4.551   6.333   5.687
 3696SOL    HW111987   4.644   6.299   5.682
 3696SOL    HW211988   4.551   6.422   5.734
 3697SOL     OW11989   6.862   6.489   3.472
 3697SOL    HW111990   6.852   6.547   3.552
 3697SOL    HW211991   6.802   6.409   3.482
 3698SOL     OW11992   3.768   0.015   5.625
 3698SOL    HW111993   3.720   6.951   5.622
 3698SOL    HW211994   3.736   0.073   5.550
 3699SOL     OW11995   6.832   3.754   3.069
 3699SOL    HW111996   6.833   3.808   2.985
 3699SOL    HW211997   6.908   3.688   3.067
 3700SOL     OW11998   6.046   0.427   3.385
 3700SOL    HW111999   6.064   0.523   3.408
 3700SOL    HW212000   5.963   0.422   3.329
 3701SOL     OW12001   0.341   0.945   3.895
 3701SOL    HW112002   0.243   0.962   3.905
 3701SOL    HW212003   0.375   0.897   3.976
 3702SOL     OW12004   4.586   0.304   1.861
 3702SOL    HW112005   4.621   0.211   1.875
 3702SOL    HW212006   4.651   0.370   1.900
 3703SOL     OW12007   4.191   3.915   5.676
 3703SOL    HW112008   4.273   3.904   5.733
 3703SOL    HW212009   4.114   3.943   5.735
 3704SOL     OW12010   2.689   0.996   1.767
 3704SOL    HW112011   2.617   1.044   1.818
 3704SOL    HW212012   2.750   1.063   1.725
 3705SOL     OW12013   4.955   6.698   3.833
 3705SOL    HW112014   4.939   6.796   3.843
 3705SOL    HW212015   5.052   6.679   3.843
 3706SOL     OW12016   1.343   2.395   4.396
 3706SOL    HW112017   1.251   2.363   4.416
 3706SOL    HW212018   1.359   2.482   4.442
 3707SOL     OW12019   5.420   3.260   5.256
 3707SOL    HW112020   5.393   3.301   5.169
 3707SOL    HW212021   5.488   3.189   5.240
 3708SOL     OW12022   5.781   6.982   6.392
 3708SOL    HW112023   5.801   6.957   6.487
 3708SOL    HW212024   5.705   6.927   6.358
 3709SOL     OW12025   3.511   1.153   6.442
 3709SOL    HW112026   3.454   1.074   6.422
 3709SOL    HW212027   3.499   1.180   6.538
 3710SOL     OW12028   6.938   5.857   0.332
 3710SOL    HW112029   6.873   5.924   0.296
 3710SOL    HW212030   6.960   5.880   0.427
 3711SOL     OW12031   0.673   5.734   2.577
 3711SOL    HW112032   0.647   5.705   2.669
 3711SOL    HW212033   0.687   5.833   2.575
 3712SOL     OW12034   6.959   6.350   6.627
 3712SOL    HW112035   6.905   6.391   6.700
 3712SOL    HW212036   6.955   6.409   6.546
 3713SOL     OW12037   2.204   6.408   4.979
 3713SOL    HW112038   2.295   6.408   5.021
 3713SOL    HW212039   2.135   6.420   5.050
 3714SOL     OW12040   5.285   6.237   4.840
 3714SOL    HW112041   5.204   6.292   4.860
 3714SOL    HW212042   5.363   6.297   4.825
 3715SOL     OW12043   5.905   4.216   4.965
 3715SOL    HW112044   5.987   4.190   5.017
 3715SOL    HW212045   5.928   4.223   4.868
 3716SOL     OW12046   0.159   6.424   4.226
 3716SOL    HW112047   0.189   6.352   4.289
 3716SOL    HW212048   0.065   6.451   4.248
 3717SOL     OW12049   6.110   5.629   0.557
 3717SOL    HW112050   6.024   5.592   0.523
 3717SOL    HW212051   6.093   5.717   0.601
 3718SOL     OW12052   1.874   6.452   6.244
 3718SOL    HW112053   1.804   6.502   6.193
 3718SOL    HW212054   1.898   6.369   6.194
 3719SOL     OW12055   4.611   4.468   1.211
 3719SOL    HW112056   4.660   4.555   1.202
 3719SOL    HW212057   4.624   4.432   1.303
 3720SOL     OW12058   6.360   2.593   6.977
 3720SOL    HW112059   6.371   2.511   0.009
 3720SOL    HW212060   6.381   2.571   6.882
 3721SOL     OW12061   5.359   4.770   0.487
 3721SOL    HW112062   5.341   4.843   0.421
 3721SOL    HW212063   5.373   4.810   0.578
 3722SOL     OW12064   6.787   6.375   2.415
 3722SOL    HW112065   6.799   6.335   2.506
 3722SOL    HW212066   6.706   6.433   2.414
 3723SOL     OW12067   5.773   6.705   1.649
 3723SOL    HW112068   5.687   6.747   1.676
 3723SOL    HW212069   5.847   6.742   1.705
 3724SOL     OW12070   1.932   5.067   6.753
 3724SOL    HW112071   1.884   4.982   6.773
 3724SOL    HW212072   1.895   5.108   6.670
 3725SOL     OW12073   5.467   5.926   6.953
 3725SOL    HW112074   5.485   6.021   6.926
 3725SOL    HW212075   5.431   5.925   0.022
 3726SOL     OW12076   6.743   4.063   1.359
 3726SOL    HW112077   6.653   4.021   1.347
 3726SOL    HW212078   6.807   3.994   1.394
 3727SOL     OW12079   0.273   3.390   6.116
 3727SOL    HW112080   0.237   3.471   6.162
 3727SOL    HW212081   0.216   3.368   6.037
 3728SOL     OW12082   1.678   3.300   0.323
 3728SOL    HW112083   1.600   3.274   0.266
 3728SOL    HW212084   1.737   3.361   0.272
 3729SOL     OW12085   0.731   2.426   3.211
 3729SOL    HW112086   0.774   2.361   3.274
 3729SOL    HW212087   0.802   2.484   3.170
 3730SOL     OW12088   2.726   6.043   0.203
 3730SOL    HW112089   2.666   6.033   0.123
 3730SOL    HW212090   2.673   6.029   0.286
 3731SOL     OW12091   4.637   1.578   0.460
 3731SOL    HW112092   4.573   1.504   0.483
 3731SOL    HW212093   4.607   1.622   0.375
 3732SOL     OW12094   2.186   3.153   5.905
 3732SOL    HW112095   2.131   3.230   5.936
 3732SOL    HW212096   2.137   3.103   5.833
 3733SOL     OW12097   2.119   3.943   1.690
 3733SOL    HW112098   2.147   3.906   1.779
 3733SOL    HW212099   2.162   4.032   1.676
 3734SOL     OW12100   4.261   1.312   1.507
 3734SOL    HW112101   4.317   1.391   1.530
 3734SOL    HW212102   4.271   1.241   1.577
 3735SOL     OW12103   0.772   1.922   2.803
 3735SOL    HW112104   0.748   1.890   2.895
 3735SOL    HW212105   0.818   1.849   2.753
 3736SOL     OW12106   6.922   3.094   0.800
 3736SOL    HW112107   7.003   3.087   0.859
 3736SOL    HW212108   6.949   3.129   0.710
 3737SOL     OW12109   5.049   0.349   3.486
 3737SOL    HW112110   4.974   0.328   3.550
 3737SOL    HW212111   5.093   0.264   3.458
 3738SOL     OW12112   6.107   5.879   3.060
 3738SOL    HW112113   6.024   5.833   3.092
 3738SOL    HW212114   6.114   5.870   2.961
 3739SOL     OW12115   2.002   4.204   2.746
 3739SOL    HW112116   2.097   4.173   2.748
 3739SOL    HW212117   1.973   4.214   2.651
 3740SOL     OW12118   4.427   0.742   7.021
 3740SOL    HW112119   4.365   0.699   6.956
 3740SOL    HW212120   4.514   0.763   6.975
 3741SOL     OW12121   4.315   4.117   1.409
 3741SOL    HW112122   4.376   4.177   1.461
 3741SOL    HW212123   4.239   4.170   1.372
 3742SOL     OW12124   2.325   1.964   5.447
 3742SOL    HW112125   2.290   2.057   5.460
 3742SOL    HW212126   2.378   1.959   5.363
 3743SOL     OW12127   6.153   5.061   0.923
 3743SOL    HW112128   6.151   5.006   0.840
 3743SOL    HW212129   6.236   5.118   0.924
 3744SOL     OW12130   1.065   5.742   4.026
 3744SOL    HW112131   1.013   5.774   3.947
 3744SOL    HW212132   1.065   5.643   4.028
 3745SOL     OW12133   3.054   5.621   2.951
 3745SOL    HW112134   3.040   5.545   3.013
 3745SOL    HW212135   3.072   5.704   3.004
 3746SOL     OW12136   4.300   1.168   1.735
 3746SOL    HW112137   4.379   1.132   1.786
 3746SOL    HW212138   4.255   1.239   1.789
 3747SOL     OW12139   3.045   6.557   6.356
 3747SOL    HW112140   3.014   6.469   6.320
 3747SOL    HW212141   2.976   6.627   6.339
 3748SOL     OW12142   5.614   1.351   1.887
 3748SOL    HW112143   5.643   1.447   1.886
 3748SOL    HW212144   5.532   1.342   1.944
 3749SOL     OW12145   1.647   6.722   4.263
 3749SOL    HW112146   1.567   6.706   4.206
 3749SOL    HW212147   1.730   6.707   4.210
 3750SOL     OW12148   1.557   3.867   0.308
 3750SOL    HW112149   1.632   3.853   0.373
 3750SOL    HW212150   1.477   3.902   0.357
 3751SOL     OW12151   0.149   3.809   2.875
 3751SOL    HW112152   0.112   3.780   2.963
 3751SOL    HW212153   0.081   3.864   2.826
 3752SOL     OW12154   5.423   0.921   5.881
 3752SOL    HW112155   5.471   0.894   5.965
 3752SOL    HW212156   5.433   0.848   5.813
 3753SOL     OW12157   6.142   0.601   4.565
 3753SOL    HW112158   6.182   0.555   4.485
 3753SOL    HW212159   6.122   0.534   4.636
 3754SOL     OW12160   1.975   0.664   2.259
 3754SOL    HW112161   1.919   0.588   2.291
 3754SOL    HW212162   1.970   0.739   2.325
 3755SOL     OW12163   3.413   5.093   4.733
 3755SOL    HW112164   3.382   5.053   4.647
 3755SOL    HW212165   3.372   5.043   4.810
 3756SOL     OW12166   3.018   5.838   0.005
 3756SOL    HW112167   3.045   5.855   0.100
 3756SOL    HW212168   3.033   5.920   6.975
 3757SOL     OW12169   6.488   4.991   1.941
 3757SOL    HW112170   6.454   4.897   1.933
 3757SOL    HW212171   6.588   4.990   1.940
 3758SOL     OW12172   2.057   0.929   4.132
 3758SOL    HW112173   2.006   0.998   4.185
 3758SOL    HW212174   2.070   0.961   4.039
 3759SOL     OW12175   4.992   0.785   4.510
 3759SOL    HW112176   5.045   0.833   4.579
 3759SOL    HW212177   5.005   0.686   4.520
 3760SOL     OW12178   0.136   0.459   3.697
 3760SOL    HW112179   0.215   0.513   3.727
 3760SOL    HW212180   0.055   0.517   3.695
 3761SOL     OW12181   6.003   1.586   4.777
 3761SOL    HW112182   6.002   1.519   4.703
 3761SOL    HW212183   6.080   1.648   4.764
 3762SOL     OW12184   1.856   3.909   2.749
 3762SOL    HW112185   1.869   4.008   2.745
 3762SOL    HW212186   1.890   3.868   2.664
 3763SOL     OW12187   0.149   3.820   0.336
 3763SOL    HW112188   0.236   3.836   0.382
 3763SOL    HW212189   0.163   3.822   0.237
 3764SOL     OW12190   1.710   6.942   2.821
 3764SOL    HW112191   1.635   6.980   2.875
 3764SOL    HW212192   1.797   6.965   2.864
 3765SOL     OW12193   6.302   1.653   1.606
 3765SOL    HW112194   6.373   1.723   1.615
 3765SOL    HW212195   6.314   1.585   1.678
 3766SOL     OW12196   1.885   2.653   4.175
 3766SOL    HW112197   1.921   2.674   4.085
 3766SOL    HW212198   1.899   2.555   4.194
 3767SOL     OW12199   3.223   4.342   6.107
 3767SOL    HW112200   3.140   4.332   6.052
 3767SOL    HW212201   3.198   4.364   6.201
 3768SOL     OW12202   1.532   0.556   4.297
 3768SOL    HW112203   1.593   0.481   4.270
 3768SOL    HW212204   1.537   0.569   4.396
 3769SOL     OW12205   5.882   5.395   4.926
 3769SOL    HW112206   5.946   5.327   4.963
 3769SOL    HW212207   5.928   5.484   4.923
 3770SOL     OW12208   1.054   1.098   0.362
 3770SOL    HW112209   0.979   1.118   0.426
 3770SOL    HW212210   1.018   1.101   0.268
 3771SOL     OW12211   6.628   4.860   0.799
 3771SOL    HW112212   6.586   4.804   0.871
 3771SOL    HW212213   6.618   4.957   0.824
 3772SOL     OW12214   1.018   6.510   0.106
 3772SOL    HW112215   1.000   6.480   0.012
 3772SOL    HW212216   1.106   6.558   0.109
 3773SOL     OW12217   5.639   4.175   5.621
 3773SOL    HW112218   5.593   4.129   5.546
 3773SOL    HW212219   5.686   4.108   5.679
 3774SOL     OW12220   5.636   5.726   1.888
 3774SOL    HW112221   5.619   5.761   1.795
 3774SOL    HW212222   5.568   5.656   1.910
 3775SOL     OW12223   4.122   5.182   3.200
 3775SOL    HW112224   4.047   5.228   3.248
 3775SOL    HW212225   4.094   5.163   3.105
 3776SOL     OW12226   3.957   2.675   6.368
 3776SOL    HW112227   4.021   2.628   6.429
 3776SOL    HW212228   3.989   2.769   6.353
 3777SOL     OW12229   2.812   6.306   3.836
 3777SOL    HW112230   2.862   6.273   3.916
 3777SOL    HW212231   2.876   6.335   3.765
 3778SOL     OW12232   3.094   5.922   4.513
 3778SOL    HW112233   3.023   5.881   4.457
 3778SOL    HW212234   3.159   5.851   4.542
 3779SOL     OW12235   0.211   5.218   0.989
 3779SOL    HW112236   0.152   5.149   1.032
 3779SOL    HW212237   0.261   5.177   0.914
 3780SOL     OW12238   0.169   2.229   2.134
 3780SOL    HW112239   0.146   2.250   2.229
 3780SOL    HW212240   0.214   2.308   2.092
 3781SOL     OW12241   1.447   6.442   5.225
 3781SOL    HW112242   1.350   6.438   5.249
 3781SOL    HW212243   1.458   6.498   5.143
 3782SOL     OW12244   4.077   6.077   2.402
 3782SOL    HW112245   4.086   6.107   2.307
 3782SOL    HW212246   4.066   6.157   2.461
 3783SOL     OW12247   5.393   4.600   5.520
 3783SOL    HW112248   5.414   4.584   5.616
 3783SOL    HW212249   5.421   4.520   5.466
 3784SOL     OW12250   5.285   2.489   2.181
 3784SOL    HW112251   5.244   2.418   2.124
 3784SOL    HW212252   5.275   2.465   2.277
 3785SOL     OW12253   0.591   3.467   5.209
 3785SOL    HW112254   0.626   3.423   5.126
 3785SOL    HW212255   0.578   3.398   5.280
 3786SOL     OW12256   2.390   2.267   3.264
 3786SOL    HW112257   2.372   2.307   3.354
 3786SOL    HW212258   2.312   2.211   3.236
 3787SOL     OW12259   3.957   0.481   3.037
 3787SOL    HW112260   3.978   0.465   2.940
 3787SOL    HW212261   4.026   0.541   3.077
 3788SOL     OW12262   0.054   3.902   4.721
 3788SOL    HW112263   0.041   3.863   4.630
 3788SOL    HW212264   7.020   3.982   4.732
 3789SOL     OW12265   0.593   2.669   3.112
 3789SOL    HW112266   0.595   2.582   3.161
 3789SOL    HW212267   0.500   2.705   3.111
 3790SOL     OW12268   1.269   6.093   0.038
 3790SOL    HW112269   1.248   6.190   0.024
 3790SOL    HW212270   1.318   6.081   0.124
 3791SOL     OW12271   5.298   1.683   5.890
 3791SOL    HW112272   5.379   1.731   5.858
 3791SOL    HW212273   5.309   1.660   5.987
 3792SOL     OW12274   0.890   0.816   4.159
 3792SOL    HW112275   0.987   0.840   4.153
 3792SOL    HW212276   0.876   0.725   4.121
 3793SOL     OW12277   5.974   6.003   1.207
 3793SOL    HW112278   6.057   5.948   1.208
 3793SOL    HW212279   5.894   5.944   1.215
 3794SOL     OW12280   1.827   3.292   1.227
 3794SOL    HW112281   1.731   3.267   1.233
 3794SOL    HW212282   1.884   3.216   1.258
 3795SOL     OW12283   2.988   6.087   0.948
 3795SOL    HW112284   3.071   6.095   0.892
 3795SOL    HW212285   2.908   6.102   0.890
 3796SOL     OW12286   4.267   2.488   1.350
 3796SOL    HW112287   4.361   2.474   1.383
 3796SOL    HW212288   4.253   2.433   1.267
 3797SOL     OW12289   1.350   3.861   2.559
 3797SOL    HW112290   1.387   3.924   2.628
 3797SOL    HW212291   1.371   3.767   2.586
 3798SOL     OW12292   2.431   6.908   3.148
 3798SOL    HW112293   2.374   6.908   3.066
 3798SOL    HW212294   2.520   6.868   3.126
 3799SOL     OW12295   6.408   2.638   2.952
 3799SOL    HW112296   6.356   2.633   3.037
 3799SOL    HW212297   6.505   2.652   2.974
 3800SOL     OW12298   5.094   1.517   3.055
 3800SOL    HW112299   5.157   1.487   2.984
 3800SOL    HW212300   5.009   1.549   3.013
 3801SOL     OW12301   5.164   6.770   1.826
 3801SOL    HW112302   5.242   6.826   1.797
 3801SOL    HW212303   5.145   6.787   1.923
 3802SOL     OW12304   0.565   1.366   2.076
 3802SOL    HW112305   0.582   1.387   2.172
 3802SOL    HW212306   0.582   1.448   2.021
 3803SOL     OW12307   3.207   4.085   3.549
 3803SOL    HW112308   3.284   4.036   3.509
 3803SOL    HW212309   3.219   4.092   3.648
 3804SOL     OW12310   3.625   0.906   4.529
 3804SOL    HW112311   3.712   0.946   4.558
 3804SOL    HW212312   3.573   0.974   4.477
 3805SOL     OW12313   2.816   2.660   0.854
 3805SOL    HW112314   2.721   2.651   0.885
 3805SOL    HW212315   2.821   2.730   0.783
 3806SOL     OW12316   4.318   4.104   6.446
 3806SOL    HW112317   4.219   4.091   6.441
 3806SOL    HW212318   4.339   4.173   6.515
 3807SOL     OW12319   1.596   5.083   4.216
 3807SOL    HW112320   1.660   5.132   4.275
 3807SOL    HW212321   1.646   5.037   4.143
 3808SOL     OW12322   4.967   0.542   5.812
 3808SOL    HW112323   5.012   0.616   5.863
 3808SOL    HW212324   4.899   0.499   5.871
 3809SOL     OW12325   6.356   1.998   1.598
 3809SOL    HW112326   6.456   2.001   1.604
 3809SOL    HW212327   6.327   2.022   1.505
 3810SOL     OW12328   6.741   2.463   3.073
 3810SOL    HW112329   6.643   2.455   3.056
 3810SOL    HW212330   6.771   2.555   3.050
 3811SOL     OW12331   0.326   5.828   4.494
 3811SOL    HW112332   0.251   5.894   4.504
 3811SOL    HW212333   0.410   5.877   4.474
 3812SOL     OW12334   3.437   5.769   6.744
 3812SOL    HW112335   3.358   5.723   6.785
 3812SOL    HW212336   3.481   5.827   6.813
 3813SOL     OW12337   6.002   4.031   1.231
 3813SOL    HW112338   6.022   3.933   1.234
 3813SOL    HW212339   5.927   4.047   1.167
 3814SOL     OW12340   6.976   0.144   3.882
 3814SOL    HW112341   6.951   0.065   3.938
 3814SOL    HW212342   6.922   0.144   3.798
 3815SOL     OW12343   5.356   2.936   0.654
 3815SOL    HW112344   5.428   2.977   0.711
 3815SOL    HW212345   5.273   2.926   0.709
 3816SOL     OW12346   0.279   6.846   4.878
 3816SOL    HW112347   0.377   6.829   4.873
 3816SOL    HW212348   0.231   6.788   4.812
 3817SOL     OW12349   4.888   3.045   2.637
 3817SOL    HW112350   4.887   3.127   2.580
 3817SOL    HW212351   4.897   3.072   2.733
 3818SOL     OW12352   0.153   0.405   1.071
 3818SOL    HW112353   0.143   0.504   1.071
 3818SOL    HW212354   0.240   0.380   1.028
 3819SOL     OW12355   6.700   4.106   2.970
 3819SOL    HW112356   6.679   4.029   3.030
 3819SOL    HW212357   6.760   4.170   3.017
 3820SOL     OW12358   5.666   6.792   3.532
 3820SOL    HW112359   5.583   6.768   3.481
 3820SOL    HW212360   5.644   6.799   3.629
 3821SOL     OW12361   0.922   0.036   0.659
 3821SOL    HW112362   0.907   0.133   0.638
 3821SOL    HW212363   0.842   7.023   0.704
 3822SOL     OW12364   3.654   0.033   0.165
 3822SOL    HW112365   3.671   0.116   0.219
 3822SOL    HW212366   3.592   6.997   0.217
 3823SOL     OW12367   4.559   4.688   6.513
 3823SOL    HW112368   4.511   4.763   6.558
 3823SOL    HW212369   4.622   4.725   6.444
 3824SOL     OW12370   0.749   2.652   0.237
 3824SOL    HW112371   0.797   2.708   0.169
 3824SOL    HW212372   0.670   2.608   0.193
 3825SOL     OW12373   1.314   4.362   1.202
 3825SOL    HW112374   1.262   4.343   1.118
 3825SOL    HW212375   1.387   4.427   1.181
 3826SOL     OW12376   6.972   3.836   2.455
 3826SOL    HW112377   6.948   3.751   2.408
 3826SOL    HW212378   6.893   3.869   2.507
 3827SOL     OW12379   1.011   0.736   1.367
 3827SOL    HW112380   1.037   0.792   1.289
 3827SOL    HW212381   1.093   0.703   1.414
 3828SOL     OW12382   3.483   3.937   5.101
 3828SOL    HW112383   3.563   3.882   5.080
 3828SOL    HW212384   3.447   3.979   5.018
 3829SOL     OW12385   0.688   5.156   2.166
 3829SOL    HW112386   0.648   5.137   2.256
 3829SOL    HW212387   0.769   5.213   2.178
 3830SOL     OW12388   0.392   0.532   5.403
 3830SOL    HW112389   0.465   0.577   5.351
 3830SOL    HW212390   0.366   0.589   5.480
 3831SOL     OW12391   4.164   2.307   3.019
 3831SOL    HW112392   4.077   2.350   2.995
 3831SOL    HW212393   4.149   2.238   3.090
 3832SOL     OW12394   0.080   0.521   1.845
 3832SOL    HW112395   0.140   0.475   1.910
 3832SOL    HW212396   0.132   0.590   1.794
 3833SOL     OW12397   2.015   6.435   6.474
 3833SOL    HW112398   2.094   6.496   6.464
 3833SOL    HW212399   1.954   6.445   6.396
 3834SOL     OW12400   4.099   4.188   1.213
 3834SOL    HW112401   4.173   4.203   1.148
 3834SOL    HW212402   4.037   4.266   1.211
 3835SOL     OW12403   3.936   5.829   5.512
 3835SOL    HW112404   3.884   5.897   5.459
 3835SOL    HW212405   3.970   5.871   5.596
 3836SOL     OW12406   0.248   4.927   5.705
 3836SOL    HW112407   0.347   4.913   5.709
 3836SOL    HW212408   0.223   4.965   5.616
 3837SOL     OW12409   4.192   5.275   5.143
 3837SOL    HW112410   4.253   5.217   5.089
 3837SOL    HW212411   4.244   5.319   5.217
 3838SOL     OW12412   1.966   1.397   3.248
 3838SOL    HW112413   1.891   1.440   3.198
 3838SOL    HW212414   2.024   1.468   3.288
 3839SOL     OW12415   4.246   0.621   2.718
 3839SOL    HW112416   4.170   0.557   2.729
 3839SOL    HW212417   4.304   0.618   2.800
 3840SOL     OW12418   2.652   1.803   6.058
 3840SOL    HW112419   2.583   1.778   6.126
 3840SOL    HW212420   2.670   1.724   5.999
 3841SOL     OW12421   1.089   4.326   3.901
 3841SOL    HW112422   1.159   4.397   3.903
 3841SOL    HW212423   1.115   4.257   3.833
 3842SOL     OW12424   2.557   2.518   4.042
 3842SOL    HW112425   2.484   2.548   4.104
 3842SOL    HW212426   2.626   2.468   4.093
 3843SOL     OW12427   5.645   3.673   0.834
 3843SOL    HW112428   5.610   3.761   0.863
 3843SOL    HW212429   5.744   3.679   0.821
 3844SOL     OW12430   1.201   4.574   6.836
 3844SOL    HW112431   1.143   4.493   6.826
 3844SOL    HW212432   1.234   4.581   6.930
 3845SOL     OW12433   2.312   5.877   6.825
 3845SOL    HW112434   2.313   5.976   6.842
 3845SOL    HW212435   2.381   5.854   6.757
 3846SOL     OW12436   0.313   3.309   4.508
 3846SOL    HW112437   0.321   3.326   4.606
 3846SOL    HW212438   0.400   3.332   4.463
 3847SOL     OW12439   5.369   2.296   4.060
 3847SOL    HW112440   5.309   2.337   4.129
 3847SOL    HW212441   5.461   2.288   4.098
 3848SOL     OW12442   4.923   3.508   2.886
 3848SOL    HW112443   4.988   3.479   2.816
 3848SOL    HW212444   4.874   3.589   2.854
 3849SOL     OW12445   0.743   6.995   6.507
 3849SOL    HW112446   0.646   6.973   6.520
 3849SOL    HW212447   0.750   0.064   6.470
 3850SOL     OW12448   3.170   3.003   1.130
 3850SOL    HW112449   3.250   3.062   1.120
 3850SOL    HW212450   3.101   3.031   1.063
 3851SOL     OW12451   6.796   5.269   3.653
 3851SOL    HW112452   6.891   5.299   3.644
 3851SOL    HW212453   6.791   5.171   3.633
 3852SOL     OW12454   3.560   6.659   4.503
 3852SOL    HW112455   3.626   6.713   4.451
 3852SOL    HW212456   3.472   6.706   4.505
 3853SOL     OW12457   1.324   1.904   3.148
 3853SOL    HW112458   1.306   1.994   3.108
 3853SOL    HW212459   1.329   1.836   3.075
 3854SOL     OW12460   0.970   3.209   3.115
 3854SOL    HW112461   1.031   3.168   3.047
 3854SOL    HW212462   1.025   3.247   3.190
 3855SOL     OW12463   3.945   6.352   0.175
 3855SOL    HW112464   3.867   6.414   0.177
 3855SOL    HW212465   4.030   6.405   0.176
 3856SOL     OW12466   0.504   1.668   5.625
 3856SOL    HW112467   0.423   1.610   5.614
 3856SOL    HW212468   0.586   1.610   5.632
 3857SOL     OW12469   1.337   6.284   5.597
 3857SOL    HW112470   1.365   6.322   5.686
 3857SOL    HW212471   1.374   6.192   5.587
 3858SOL     OW12472   3.268   1.893   5.692
 3858SOL    HW112473   3.246   1.796   5.681
 3858SOL    HW212474   3.299   1.931   5.605
 3859SOL     OW12475   6.259   0.826   1.231
 3859SOL    HW112476   6.234   0.892   1.160
 3859SOL    HW212477   6.292   0.742   1.188
 3860SOL     OW12478   1.817   1.143   4.247
 3860SOL    HW112479   1.822   1.231   4.199
 3860SOL    HW212480   1.804   1.159   4.345
 3861SOL     OW12481   4.696   6.307   2.866
 3861SOL    HW112482   4.758   6.236   2.900
 3861SOL    HW212483   4.725   6.396   2.901
 3862SOL     OW12484   1.095   0.756   4.412
 3862SOL    HW112485   1.094   0.819   4.334
 3862SOL    HW212486   1.186   0.758   4.454
 3863SOL     OW12487   5.951   1.338   6.566
 3863SOL    HW112488   5.974   1.290   6.651
 3863SOL    HW212489   5.978   1.282   6.488
 3864SOL     OW12490   2.339   0.763   5.220
 3864SOL    HW112491   2.416   0.826   5.213
 3864SOL    HW212492   2.328   0.735   5.316
 3865SOL     OW12493   4.000   1.612   0.993
 3865SOL    HW112494   3.967   1.518   0.999
 3865SOL    HW212495   4.099   1.612   0.983
 3866SOL     OW12496   3.475   1.218   6.693
 3866SOL    HW112497   3.517   1.134   6.728
 3866SOL    HW212498   3.521   1.298   6.731
 3867SOL     OW12499   1.285   4.017   3.322
 3867SOL    HW112500   1.190   4.046   3.309
 3867SOL    HW212501   1.343   4.097   3.334
 3868SOL     OW12502   4.333   0.240   6.839
 3868SOL    HW112503   4.255   0.194   6.795
 3868SOL    HW212504   4.328   0.227   6.938
 3869SOL     OW12505   6.530   3.102   3.505
 3869SOL    HW112506   6.482   3.024   3.544
 3869SOL    HW212507   6.500   3.186   3.549
 3870SOL     OW12508   6.647   6.612   1.554
 3870SOL    HW112509   6.631   6.609   1.456
 3870SOL    HW212510   6.570   6.570   1.603
 3871SOL     OW12511   3.500   0.208   2.994
 3871SOL    HW112512   3.420   0.260   2.964
 3871SOL    HW212513   3.568   0.271   3.031
 3872SOL     OW12514   2.987   3.340   4.482
 3872SOL    HW112515   2.918   3.339   4.410
 3872SOL    HW212516   2.954   3.396   4.559
 3873SOL     OW12517   5.597   4.432   0.803
 3873SOL    HW112518   5.542   4.367   0.751
 3873SOL    HW212519   5.558   4.444   0.895
 3874SOL     OW12520   4.129   0.898   0.473
 3874SOL    HW112521   4.080   0.818   0.438
 3874SOL    HW212522   4.074   0.980   0.459
 3875SOL     OW12523   2.047   2.699   3.579
 3875SOL    HW112524   1.957   2.724   3.615
 3875SOL    HW212525   2.117   2.757   3.621
 3876SOL     OW12526   3.427   5.346   1.335
 3876SOL    HW112527   3.357   5.415   1.317
 3876SOL    HW212528   3.478   5.328   1.251
 3877SOL     OW12529   6.629   2.527   1.131
 3877SOL    HW112530   6.559   2.512   1.061
 3877SOL    HW212531   6.648   2.441   1.178
 3878SOL     OW12532   4.802   6.420   4.442
 3878SOL    HW112533   4.745   6.356   4.494
 3878SOL    HW212534   4.873   6.369   4.393
 3879SOL     OW12535   5.925   5.532   0.989
 3879SOL    HW112536   5.934   5.626   0.955
 3879SOL    HW212537   5.986   5.472   0.938
 3880SOL     OW12538   5.132   4.137   4.553
 3880SOL    HW112539   5.130   4.203   4.628
 3880SOL    HW212540   5.204   4.070   4.571
 3881SOL     OW12541   1.326   3.462   1.863
 3881SOL    HW112542   1.365   3.409   1.789
 3881SOL    HW212543   1.311   3.556   1.833
 3882SOL     OW12544   0.173   1.003   6.275
 3882SOL    HW112545   0.208   0.920   6.319
 3882SOL    HW212546   0.217   1.083   6.315
 3883SOL     OW12547   4.242   1.518   2.057
 3883SOL    HW112548   4.182   1.454   2.009
 3883SOL    HW212549   4.194   1.559   2.134
 3884SOL     OW12550   0.725   6.029   2.309
 3884SOL    HW112551   0.785   6.024   2.389
 3884SOL    HW212552   0.724   6.122   2.273
 3885SOL     OW12553   6.622   5.422   2.721
 3885SOL    HW112554   6.646   5.452   2.813
 3885SOL    HW212555   6.671   5.337   2.699
 3886SOL     OW12556   4.308   5.569   5.277
 3886SOL    HW112557   4.383   5.521   5.323
 3886SOL    HW212558   4.271   5.639   5.337
 3887SOL     OW12559   0.860   6.957   0.289
 3887SOL    HW112560   0.810   6.981   0.206
 3887SOL    HW212561   0.821   7.007   0.367
 3888SOL     OW12562   6.912   6.920   5.062
 3888SOL    HW112563   6.900   6.930   5.161
 3888SOL    HW212564   6.879   6.830   5.034
 3889SOL     OW12565   6.726   3.543   0.173
 3889SOL    HW112566   6.776   3.473   0.121
 3889SOL    HW212567   6.672   3.598   0.110
 3890SOL     OW12568   6.349   4.483   3.215
 3890SOL    HW112569   6.393   4.570   3.193
 3890SOL    HW212570   6.280   4.463   3.147
 3891SOL     OW12571   5.198   3.752   4.458
 3891SOL    HW112572   5.234   3.688   4.526
 3891SOL    HW212573   5.100   3.766   4.475
 3892SOL     OW12574   0.328   2.478   1.368
 3892SOL    HW112575   0.407   2.497   1.309
 3892SOL    HW212576   0.247   2.523   1.330
 3893SOL     OW12577   4.299   3.332   0.478
 3893SOL    HW112578   4.381   3.383   0.503
 3893SOL    HW212579   4.326   3.248   0.429
 3894SOL     OW12580   4.631   1.378   0.116
 3894SOL    HW112581   4.531   1.384   0.109
 3894SOL    HW212582   4.656   1.324   0.196
 3895SOL     OW12583   0.888   0.481   5.789
 3895SOL    HW112584   0.813   0.505   5.851
 3895SOL    HW212585   0.853   0.465   5.697
 3896SOL     OW12586   0.535   1.431   5.891
 3896SOL    HW112587   0.618   1.383   5.919
 3896SOL    HW212588   0.534   1.523   5.932
 3897SOL     OW12589   3.880   5.334   2.778
 3897SOL    HW112590   3.817   5.388   2.833
 3897SOL    HW212591   3.854   5.339   2.682
 3898SOL     OW12592   2.705   2.672   5.809
 3898SOL    HW112593   2.732   2.629   5.723
 3898SOL    HW212594   2.730   2.769   5.808
 3899SOL     OW12595   4.679   6.940   5.508
 3899SOL    HW112596   4.679   6.987   5.420
 3899SOL    HW212597   4.605   6.873   5.510
 3900SOL     OW12598   4.800   3.057   3.676
 3900SOL    HW112599   4.796   3.117   3.597
 3900SOL    HW212600   4.893   3.057   3.713
 3901SOL     OW12601   3.207   0.607   6.205
 3901SOL    HW112602   3.248   0.524   6.243
 3901SOL    HW212603   3.197   0.675   6.277
 3902SOL     OW12604   6.033   2.751   1.760
 3902SOL    HW112605   5.960   2.721   1.699
 3902SOL    HW212606   5.995   2.785   1.846
 3903SOL     OW12607   3.765   5.771   0.590
 3903SOL    HW112608   3.796   5.685   0.632
 3903SOL    HW212609   3.723   5.828   0.660
 3904SOL     OW12610   2.100   1.466   6.120
 3904SOL    HW112611   2.153   1.460   6.036
 3904SOL    HW212612   2.162   1.489   6.196
 3905SOL     OW12613   0.007   0.191   6.620
 3905SOL    HW112614   6.949   0.241   6.594
 3905SOL    HW212615   0.009   0.177   6.719
 3906SOL     OW12616   5.794   5.976   5.347
 3906SOL    HW112617   5.710   5.938   5.308
 3906SOL    HW212618   5.838   5.907   5.405
 3907SOL     OW12619   5.640   1.121   3.454
 3907SOL    HW112620   5.731   1.102   3.417
 3907SOL    HW212621   5.581   1.041   3.443
 3908SOL     OW12622   0.892   2.405   7.007
 3908SOL    HW112623   0.846   2.329   0.029
 3908SOL    HW212624   0.826   2.454   6.950
 3909SOL     OW12625   6.395   5.834   5.633
 3909SOL    HW112626   6.449   5.831   5.717
 3909SOL    HW212627   6.453   5.816   5.554
 3910SOL     OW12628   3.190   3.931   2.875
 3910SOL    HW112629   3.090   3.924   2.871
 3910SOL    HW212630   3.228   3.841   2.896
 3911SOL     OW12631   4.955   1.622   4.969
 3911SOL    HW112632   4.974   1.655   4.876
 3911SOL    HW212633   4.874   1.669   5.005
 3912SOL     OW12634   5.251   0.878   5.391
 3912SOL    HW112635   5.170   0.906   5.339
 3912SOL    HW212636   5.326   0.942   5.374
 3913SOL     OW12637   2.814   6.413   6.566
 3913SOL    HW112638   2.857   6.370   6.486
 3913SOL    HW212639   2.716   6.420   6.551
 3914SOL     OW12640   2.783   0.945   1.404
 3914SOL    HW112641   2.773   1.041   1.378
 3914SOL    HW212642   2.740   0.887   1.334
 3915SOL     OW12643   4.820   5.378   1.527
 3915SOL    HW112644   4.749   5.370   1.457
 3915SOL    HW212645   4.809   5.305   1.594
 3916SOL     OW12646   1.379   0.646   4.062
 3916SOL    HW112647   1.415   0.563   4.018
 3916SOL    HW212648   1.422   0.657   4.152
 3917SOL     OW12649   6.781   6.357   6.855
 3917SOL    HW112650   6.693   6.312   6.844
 3917SOL    HW212651   6.795   6.381   6.951
 3918SOL     OW12652   5.032   6.170   1.582
 3918SOL    HW112653   5.046   6.268   1.572
 3918SOL    HW212654   5.096   6.121   1.523
 3919SOL     OW12655   3.452   6.400   6.850
 3919SOL    HW112656   3.434   6.309   6.888
 3919SOL    HW212657   3.527   6.394   6.785
 3920SOL     OW12658   3.425   3.216   0.893
 3920SOL    HW112659   3.509   3.192   0.846
 3920SOL    HW212660   3.431   3.189   0.989
 3921SOL     OW12661   0.268   3.656   1.679
 3921SOL    HW112662   0.247   3.748   1.711
 3921SOL    HW212663   0.345   3.619   1.730
 3922SOL     OW12664   6.480   3.344   1.671
 3922SOL    HW112665   6.522   3.312   1.586
 3922SOL    HW212666   6.421   3.272   1.707
 3923SOL     OW12667   6.679   0.480   6.954
 3923SOL    HW112668   6.695   0.543   6.878
 3923SOL    HW212669   6.760   0.421   6.965
 3924SOL     OW12670   6.631   4.859   3.435
 3924SOL    HW112671   6.644   4.779   3.493
 3924SOL    HW212672   6.719   4.887   3.397
 3925SOL     OW12673   2.935   5.056   1.250
 3925SOL    HW112674   3.014   5.104   1.211
 3925SOL    HW212675   2.917   5.090   1.342
 3926SOL     OW12676   6.716   5.519   2.966
 3926SOL    HW112677   6.784   5.509   3.038
 3926SOL    HW212678   6.648   5.588   2.993
 3927SOL     OW12679   6.349   2.437   3.825
 3927SOL    HW112680   6.350   2.342   3.795
 3927SOL    HW212681   6.384   2.496   3.753
 3928SOL     OW12682   4.037   5.761   6.256
 3928SOL    HW112683   4.092   5.678   6.250
 3928SOL    HW212684   4.006   5.786   6.164
 3929SOL     OW12685   0.058   0.840   5.370
 3929SOL    HW112686   0.016   0.921   5.409
 3929SOL    HW212687   0.157   0.852   5.365
 3930SOL     OW12688   2.737   1.825   3.686
 3930SOL    HW112689   2.734   1.904   3.748
 3930SOL    HW212690   2.644   1.799   3.661
 3931SOL     OW12691   1.366   0.597   1.984
 3931SOL    HW112692   1.421   0.560   1.910
 3931SOL    HW212693   1.368   0.697   1.981
 3932SOL     OW12694   1.685   4.769   3.555
 3932SOL    HW112695   1.634   4.841   3.601
 3932SOL    HW212696   1.641   4.681   3.572
 3933SOL     OW12697   2.329   6.503   0.097
 3933SOL    HW112698   2.292   6.465   0.182
 3933SOL    HW212699   2.390   6.579   0.119
 3934SOL     OW12700   6.957   0.944   0.006
 3934SOL    HW112701   7.000   0.954   0.095
 3934SOL    HW212702   6.880   1.007   7.022
 3935SOL     OW12703   2.737   6.443   7.009
 3935SOL    HW112704   2.833   6.457   6.986
 3935SOL    HW212705   2.684   6.522   6.977
 3936SOL     OW12706   0.047   5.298   5.519
 3936SOL    HW112707   7.021   5.336   5.596
 3936SOL    HW212708   0.097   5.371   5.473
 3937SOL     OW12709   6.951   2.176   3.562
 3937SOL    HW112710   6.943   2.083   3.527
 3937SOL    HW212711   6.949   2.175   3.662
 3938SOL     OW12712   0.565   1.765   3.757
 3938SOL    HW112713   0.515   1.786   3.841
 3938SOL    HW212714   0.657   1.802   3.763
 3939SOL     OW12715   2.517   2.530   2.587
 3939SOL    HW112716   2.534   2.446   2.536
 3939SOL    HW212717   2.419   2.550   2.585
 3940SOL     OW12718   5.022   4.973   0.942
 3940SOL    HW112719   4.935   5.022   0.951
 3940SOL    HW212720   5.064   4.995   0.854
 3941SOL     OW12721   5.119   3.035   5.765
 3941SOL    HW112722   5.072   3.072   5.845
 3941SOL    HW212723   5.082   3.076   5.682
 3942SOL     OW12724   0.505   6.954   6.606
 3942SOL    HW112725   0.533   0.025   6.592
 3942SOL    HW212726   0.483   6.940   6.703
 3943SOL     OW12727   0.125   3.382   2.916
 3943SOL    HW112728   0.098   3.311   2.981
 3943SOL    HW212729   0.068   3.373   2.833
 3944SOL     OW12730   4.573   2.713   5.089
 3944SOL    HW112731   4.588   2.622   5.126
 3944SOL    HW212732   4.481   2.718   5.049
 3945SOL     OW12733   0.188   1.788   0.373
 3945SOL    HW112734   0.123   1.857   0.342
 3945SOL    HW212735   0.281   1.818   0.351
 3946SOL     OW12736   5.662   5.437   5.446
 3946SOL    HW112737   5.693   5.515   5.500
 3946SOL    HW212738   5.614   5.372   5.505
 3947SOL     OW12739   5.412   6.334   0.840
 3947SOL    HW112740   5.394   6.410   0.902
 3947SOL    HW212741   5.337   6.269   0.844
 3948SOL     OW12742   1.493   5.599   2.444
 3948SOL    HW112743   1.550   5.520   2.423
 3948SOL    HW212744   1.443   5.627   2.361
 3949SOL     OW12745   4.483   0.620   3.139
 3949SOL    HW112746   4.498   0.717   3.122
 3949SOL    HW212747   4.463   0.605   3.236
 3950SOL     OW12748   2.048   4.113   0.763
 3950SOL    HW112749   2.027   4.157   0.675
 3950SOL    HW212750   1.962   4.086   0.807
 3951SOL     OW12751   5.338   0.073   1.028
 3951SOL    HW112752   5.304   0.086   1.121
 3951SOL    HW212753   5.273   0.111   0.963
 3952SOL     OW12754   6.340   2.814   2.734
 3952SOL    HW112755   6.361   2.771   2.821
 3952SOL    HW212756   6.248   2.787   2.705
 3953SOL     OW12757   3.824   4.832   1.649
 3953SOL    HW112758   3.879   4.754   1.619
 3953SOL    HW212759   3.821   4.901   1.576
 3954SOL     OW12760   4.209   5.135   4.886
 3954SOL    HW112761   4.257   5.159   4.801
 3954SOL    HW212762   4.124   5.187   4.891
 3955SOL     OW12763   3.132   5.782   6.643
 3955SOL    HW112764   3.165   5.872   6.673
 3955SOL    HW212765   3.164   5.712   6.707
 3956SOL     OW12766   0.437   0.969   3.118
 3956SOL    HW112767   0.460   0.979   3.214
 3956SOL    HW212768   0.420   1.059   3.078
 3957SOL     OW12769   4.910   6.242   4.249
 3957SOL    HW112770   4.855   6.267   4.169
 3957SOL    HW212771   4.920   6.143   4.252
 3958SOL     OW12772   6.042   1.168   4.749
 3958SOL    HW112773   6.139   1.170   4.776
 3958SOL    HW212774   6.021   1.249   4.695
 3959SOL     OW12775   4.108   0.234   0.729
 3959SOL    HW112776   4.178   0.206   0.794
 3959SOL    HW212777   4.145   0.303   0.668
 3960SOL     OW12778   5.052   1.926   6.473
 3960SOL    HW112779   4.961   1.953   6.442
 3960SOL    HW212780   5.121   1.981   6.425
 3961SOL     OW12781   5.477   1.779   2.610
 3961SOL    HW112782   5.426   1.764   2.695
 3961SOL    HW212783   5.563   1.826   2.630
 3962SOL     OW12784   3.099   3.943   0.520
 3962SOL    HW112785   3.183   3.976   0.563
 3962SOL    HW212786   3.121   3.899   0.433
 3963SOL     OW12787   4.962   5.189   3.671
 3963SOL    HW112788   4.904   5.144   3.738
 3963SOL    HW212789   4.949   5.288   3.676
 3964SOL     OW12790   4.547   5.030   4.026
 3964SOL    HW112791   4.606   5.084   4.087
 3964SOL    HW212792   4.537   4.938   4.062
 3965SOL     OW12793   4.735   2.678   4.872
 3965SOL    HW112794   4.662   2.666   4.940
 3965SOL    HW212795   4.786   2.592   4.863
 3966SOL     OW12796   5.009   6.314   6.314
 3966SOL    HW112797   5.013   6.339   6.411
 3966SOL    HW212798   5.025   6.395   6.258
 3967SOL     OW12799   2.135   3.531   2.611
 3967SOL    HW112800   2.153   3.495   2.703
 3967SOL    HW212801   2.183   3.475   2.543
 3968SOL     OW12802   4.910   0.378   0.985
 3968SOL    HW112803   4.929   0.363   0.888
 3968SOL    HW212804   4.811   0.386   0.998
 3969SOL     OW12805   1.649   4.401   2.271
 3969SOL    HW112806   1.577   4.398   2.202
 3969SOL    HW212807   1.697   4.313   2.274
 3970SOL     OW12808   6.093   6.233   3.252
 3970SOL    HW112809   6.024   6.294   3.214
 3970SOL    HW212810   6.161   6.211   3.182
 3971SOL     OW12811   3.163   5.472   3.395
 3971SOL    HW112812   3.185   5.544   3.329
 3971SOL    HW212813   3.246   5.445   3.444
 3972SOL     OW12814   1.442   4.102   0.897
 3972SOL    HW112815   1.507   4.057   0.958
 3972SOL    HW212816   1.484   4.185   0.860
 3973SOL     OW12817   1.365   5.263   6.510
 3973SOL    HW112818   1.390   5.324   6.435
 3973SOL    HW212819   1.304   5.311   6.573
 3974SOL     OW12820   2.111   0.349   5.232
 3974SOL    HW112821   2.127   0.291   5.153
 3974SOL    HW212822   2.014   0.343   5.259
 3975SOL     OW12823   5.056   1.322   5.338
 3975SOL    HW112824   5.107   1.406   5.357
 3975SOL    HW212825   4.966   1.328   5.381
 3976SOL     OW12826   1.351   5.955   1.677
 3976SOL    HW112827   1.367   5.875   1.734
 3976SOL    HW212828   1.436   5.979   1.630
 3977SOL     OW12829   2.469   3.823   5.712
 3977SOL    HW112830   2.450   3.760   5.637
 3977SOL    HW212831   2.449   3.777   5.799
 3978SOL     OW12832   5.830   4.962   4.735
 3978SOL    HW112833   5.833   5.061   4.718
 3978SOL    HW212834   5.871   4.942   4.824
 3979SOL     OW12835   3.045   0.342   0.504
 3979SOL    HW112836   3.023   0.435   0.535
 3979SOL    HW212837   3.068   0.285   0.582
 3980SOL     OW12838   5.542   6.042   0.386
 3980SOL    HW112839   5.532   6.129   0.433
 3980SOL    HW212840   5.592   5.978   0.444
 3981SOL     OW12841   3.383   0.495   0.719
 3981SOL    HW112842   3.401   0.414   0.664
 3981SOL    HW212843   3.294   0.533   0.694
 3982SOL     OW12844   2.286   0.133   3.261
 3982SOL    HW112845   2.309   0.042   3.226
 3982SOL    HW212846   2.359   0.165   3.321
 3983SOL     OW12847   5.125   4.829   4.181
 3983SOL    HW112848   5.215   4.868   4.204
 3983SOL    HW212849   5.054   4.882   4.227
 3984SOL     OW12850   6.521   1.378   2.826
 3984SOL    HW112851   6.570   1.354   2.742
 3984SOL    HW212852   6.437   1.325   2.833
 3985SOL     OW12853   2.919   4.312   6.473
 3985SOL    HW112854   2.869   4.340   6.555
 3985SOL    HW212855   2.866   4.244   6.423
 3986SOL     OW12856   4.784   1.517   2.491
 3986SOL    HW112857   4.832   1.585   2.546
 3986SOL    HW212858   4.687   1.515   2.517
 3987SOL     OW12859   3.623   5.200   3.560
 3987SOL    HW112860   3.638   5.255   3.643
 3987SOL    HW212861   3.619   5.103   3.584
 3988SOL     OW12862   3.627   4.268   6.554
 3988SOL    HW112863   3.585   4.329   6.487
 3988SOL    HW212864   3.628   4.175   6.519
 3989SOL     OW12865   6.672   2.973   6.771
 3989SOL    HW112866   6.702   3.025   6.851
 3989SOL    HW212867   6.677   2.875   6.792
 3990SOL     OW12868   4.410   2.198   2.937
 3990SOL    HW112869   4.448   2.193   3.030
 3990SOL    HW212870   4.320   2.240   2.940
 3991SOL     OW12871   5.867   0.839   2.780
 3991SOL    HW112872   5.951   0.795   2.814
 3991SOL    HW212873   5.827   0.895   2.853
 3992SOL     OW12874   3.030   1.718   0.169
 3992SOL    HW112875   3.018   1.633   0.220
 3992SOL    HW212876   3.022   1.699   0.071
 3993SOL     OW12877   1.512   1.977   2.592
 3993SOL    HW112878   1.479   1.886   2.569
 3993SOL    HW212879   1.486   2.041   2.520
 3994SOL     OW12880   1.754   0.202   5.796
 3994SOL    HW112881   1.843   0.215   5.752
 3994SOL    HW212882   1.748   0.108   5.831
 3995SOL     OW12883   2.708   3.487   6.016
 3995SOL    HW112884   2.767   3.517   6.091
 3995SOL    HW212885   2.734   3.534   5.932
 3996SOL     OW12886   0.921   6.897   4.418
 3996SOL    HW112887   1.013   6.926   4.393
 3996SOL    HW212888   0.924   6.804   4.455
 3997SOL     OW12889   5.243   1.630   3.530
 3997SOL    HW112890   5.258   1.713   3.476
 3997SOL    HW212891   5.182   1.569   3.480
 3998SOL     OW12892   4.130   1.445   3.783
 3998SOL    HW112893   4.180   1.359   3.795
 3998SOL    HW212894   4.062   1.455   3.855
 3999SOL     OW12895   5.511   3.316   3.954
 3999SOL    HW112896   5.417   3.312   3.918
 3999SOL    HW212897   5.512   3.276   4.046
 4000SOL     OW12898   3.404   6.585   3.111
 4000SOL    HW112899   3.499   6.608   3.132
 4000SOL    HW212900   3.372   6.639   3.034
 4001SOL     OW12901   2.431   1.753   3.226
 4001SOL    HW112902   2.465   1.824   3.165
 4001SOL    HW212903   2.406   1.672   3.172
 4002SOL     OW12904   3.269   4.317   0.201
 4002SOL    HW112905   3.241   4.263   0.280
 4002SOL    HW212906   3.347   4.274   0.157
 4003SOL     OW12907   3.670   0.110   4.352
 4003SOL    HW112908   3.614   0.189   4.378
 4003SOL    HW212909   3.747   0.141   4.297
 4004SOL     OW12910   5.324   1.862   3.791
 4004SOL    HW112911   5.314   1.765   3.811
 4004SOL    HW212912   5.290   1.916   3.867
 4005SOL     OW12913   5.091   5.057   6.932
 4005SOL    HW112914   5.017   5.120   6.955
 4005SOL    HW212915   5.059   4.992   6.863
 4006SOL     OW12916   4.675   5.537   2.791
 4006SOL    HW112917   4.652   5.525   2.887
 4006SOL    HW212918   4.702   5.449   2.751
 4007SOL     OW12919   6.851   2.849   0.057
 4007SOL    HW112920   6.913   2.909   0.006
 4007SOL    HW212921   6.805   2.787   7.017
 4008SOL     OW12922   3.179   1.738   3.939
 4008SOL    HW112923   3.098   1.795   3.932
 4008SOL    HW212924   3.190   1.685   3.855
 4009SOL     OW12925   4.388   3.204   1.471
 4009SOL    HW112926   4.368   3.203   1.569
 4009SOL    HW212927   4.483   3.233   1.457
 4010SOL     OW12928   2.536   3.685   1.112
 4010SOL    HW112929   2.573   3.653   1.198
 4010SOL    HW212930   2.465   3.753   1.129
 4011SOL     OW12931   0.821   1.263   1.738
 4011SOL    HW112932   0.809   1.237   1.834
 4011SOL    HW212933   0.743   1.229   1.685
 4012SOL     OW12934   6.318   4.762   1.848
 4012SOL    HW112935   6.314   4.669   1.809
 4012SOL    HW212936   6.349   4.757   1.943
 4013SOL     OW12937   2.917   1.489   5.378
 4013SOL    HW112938   2.937   1.415   5.442
 4013SOL    HW212939   3.001   1.542   5.362
 4014SOL     OW12940   5.164   6.422   2.644
 4014SOL    HW112941   5.139   6.511   2.607
 4014SOL    HW212942   5.115   6.350   2.595
 4015SOL     OW12943   5.035   4.822   6.390
 4015SOL    HW112944   5.076   4.821   6.481
 4015SOL    HW212945   5.103   4.795   6.322
 4016SOL     OW12946   2.552   5.981   5.972
 4016SOL    HW112947   2.456   5.969   5.997
 4016SOL    HW212948   2.560   5.993   5.873
 4017SOL     OW12949   0.195   6.094   0.665
 4017SOL    HW112950   0.195   6.132   0.573
 4017SOL    HW212951   0.144   6.155   0.726
 4018SOL     OW12952   4.087   6.315   2.562
 4018SOL    HW112953   4.099   6.303   2.661
 4018SOL    HW212954   4.150   6.386   2.529
 4019SOL     OW12955   5.312   4.452   3.473
 4019SOL    HW112956   5.382   4.523   3.465
 4019SOL    HW212957   5.285   4.441   3.568
 4020SOL     OW12958   4.686   1.559   5.098
 4020SOL    HW112959   4.685   1.466   5.061
 4020SOL    HW212960   4.680   1.555   5.198
 4021SOL     OW12961   4.040   4.980   5.708
 4021SOL    HW112962   3.946   4.966   5.679
 4021SOL    HW212963   4.054   4.938   5.798
 4022SOL     OW12964   4.858   1.573   6.530
 4022SOL    HW112965   4.870   1.613   6.621
 4022SOL    HW212966   4.804   1.489   6.537
 4023SOL     OW12967   6.433   1.691   4.752
 4023SOL    HW112968   6.362   1.761   4.747
 4023SOL    HW212969   6.518   1.727   4.712
 4024SOL     OW12970   3.287   6.683   3.351
 4024SOL    HW112971   3.331   6.745   3.416
 4024SOL    HW212972   3.351   6.660   3.277
 4025SOL     OW12973   0.356   4.198   3.000
 4025SOL    HW112974   0.366   4.184   2.902
 4025SOL    HW212975   0.397   4.121   3.049
 4026SOL     OW12976   5.708   5.783   3.773
 4026SOL    HW112977   5.662   5.707   3.727
 4026SOL    HW212978   5.799   5.753   3.804
 4027SOL     OW12979   3.491   4.250   1.792
 4027SOL    HW112980   3.400   4.214   1.770
 4027SOL    HW212981   3.510   4.330   1.735
 4028SOL     OW12982   1.760   1.945   4.335
 4028SOL    HW112983   1.709   2.022   4.372
 4028SOL    HW212984   1.794   1.888   4.410
 4029SOL     OW12985   2.912   4.263   5.949
 4029SOL    HW112986   2.891   4.332   5.880
 4029SOL    HW212987   2.829   4.241   6.001
 4030SOL     OW12988   0.858   2.465   5.588
 4030SOL    HW112989   0.789   2.526   5.548
 4030SOL    HW212990   0.892   2.404   5.517
 4031SOL     OW12991   4.895   5.559   3.700
 4031SOL    HW112992   4.965   5.615   3.744
 4031SOL    HW212993   4.827   5.532   3.768
 4032SOL     OW12994   6.600   6.314   4.096
 4032SOL    HW112995   6.523   6.356   4.049
 4032SOL    HW212996   6.686   6.354   4.062
 4033SOL     OW12997   3.259   3.362   4.529
 4033SOL    HW112998   3.283   3.448   4.574
 4033SOL    HW212999   3.173   3.373   4.480
 4034SOL     OW13000   6.070   1.395   4.579
 4034SOL    HW113001   6.162   1.417   4.547
 4034SOL    HW213002   6.002   1.437   4.518
 4035SOL     OW13003   0.579   4.599   0.030
 4035SOL    HW113004   0.589   4.501   0.045
 4035SOL    HW213005   0.586   4.647   0.118
 4036SOL     OW13006   6.059   6.132   2.630
 4036SOL    HW113007   6.084   6.200   2.561
 4036SOL    HW213008   6.135   6.070   2.644
 4037SOL     OW13009   1.414   3.503   6.024
 4037SOL    HW113010   1.413   3.538   5.930
 4037SOL    HW213011   1.448   3.574   6.086
 4038SOL     OW13012   4.930   4.413   2.904
 4038SOL    HW113013   4.976   4.417   2.993
 4038SOL    HW213014   4.948   4.325   2.860
 4039SOL     OW13015   5.375   5.935   0.176
 4039SOL    HW113016   5.287   5.946   0.221
 4039SOL    HW213017   5.433   6.014   0.195
 4040SOL     OW13018   3.201   0.473   1.121
 4040SOL    HW113019   3.146   0.420   1.056
 4040SOL    HW213020   3.174   0.449   1.214
 4041SOL     OW13021   0.849   6.137   2.910
 4041SOL    HW113022   0.887   6.223   2.944
 4041SOL    HW213023   0.918   6.090   2.855
 4042SOL     OW13024   6.021   5.222   2.365
 4042SOL    HW113025   6.023   5.234   2.266
 4042SOL    HW213026   6.047   5.127   2.387
 4043SOL     OW13027   4.675   1.844   2.313
 4043SOL    HW113028   4.671   1.776   2.386
 4043SOL    HW213029   4.586   1.888   2.304
 4044SOL     OW13030   6.079   0.599   3.112
 4044SOL    HW113031   6.023   0.558   3.184
 4044SOL    HW213032   6.176   0.588   3.135
 4045SOL     OW13033   2.342   4.844   6.757
 4045SOL    HW113034   2.304   4.934   6.736
 4045SOL    HW213035   2.268   4.781   6.778
 4046SOL     OW13036   0.798   1.914   1.945
 4046SOL    HW113037   0.708   1.945   1.978
 4046SOL    HW213038   0.862   1.991   1.945
 4047SOL     OW13039   2.764   3.682   1.736
 4047SOL    HW113040   2.668   3.681   1.708
 4047SOL    HW213041   2.780   3.608   1.801
 4048SOL     OW13042   5.525   0.811   1.394
 4048SOL    HW113043   5.545   0.833   1.490
 4048SOL    HW213044   5.569   0.879   1.335
 4049SOL     OW13045   6.090   6.816   5.798
 4049SOL    HW113046   5.994   6.823   5.770
 4049SOL    HW213047   6.138   6.901   5.774
 4050SOL     OW13048   2.066   6.338   0.191
 4050SOL    HW113049   1.985   6.397   0.184
 4050SOL    HW213050   2.112   6.354   0.279
 4051SOL     OW13051   2.821   4.747   0.394
 4051SOL    HW113052   2.754   4.726   0.322
 4051SOL    HW213053   2.896   4.800   0.355
 4052SOL     OW13054   0.621   0.437   0.125
 4052SOL    HW113055   0.647   0.357   0.072
 4052SOL    HW213056   0.662   0.432   0.216
 4053SOL     OW13057   3.421   5.205   3.925
 4053SOL    HW113058   3.433   5.114   3.963
 4053SOL    HW213059   3.510   5.246   3.906
 4054SOL     OW13060   3.542   2.572   0.630
 4054SOL    HW113061   3.448   2.567   0.665
 4054SOL    HW213062   3.546   2.641   0.558
 4055SOL     OW13063   2.876   2.594   6.026
 4055SOL    HW113064   2.798   2.573   5.968
 4055SOL    HW213065   2.960   2.562   5.981
 4056SOL     OW13066   3.729   3.034   6.824
 4056SOL    HW113067   3.754   3.096   6.898
 4056SOL    HW213068   3.645   3.065   6.781
 4057SOL     OW13069   5.137   3.396   0.012
 4057SOL    HW113070   5.061   3.386   6.973
 4057SOL    HW213071   5.204   3.460   6.999
 4058SOL     OW13072   2.600   1.240   4.908
 4058SOL    HW113073   2.576   1.265   5.002
 4058SOL    HW213074   2.694   1.269   4.888
 4059SOL     OW13075   2.061   1.918   4.777
 4059SOL    HW113076   2.083   1.880   4.687
 4059SOL    HW213077   1.971   1.886   4.805
 4060SOL     OW13078   4.154   4.854   4.193
 4060SOL    HW113079   4.200   4.783   4.140
 4060SOL    HW213080   4.179   4.944   4.157
 4061SOL     OW13081   3.524   4.483   1.635
 4061SOL    HW113082   3.529   4.557   1.702
 4061SOL    HW213083   3.471   4.513   1.556
 4062SOL     OW13084   3.192   1.281   2.476
 4062SOL    HW113085   3.151   1.284   2.567
 4062SOL    HW213086   3.196   1.186   2.444
 4063SOL     OW13087   3.218   5.689   6.007
 4063SOL    HW113088   3.183   5.757   5.942
 4063SOL    HW213089   3.149   5.618   6.021
 4064SOL     OW13090   0.715   0.358   2.928
 4064SOL    HW113091   0.747   0.418   3.000
 4064SOL    HW213092   0.657   0.409   2.864
 4065SOL     OW13093   6.771   6.605   0.870
 4065SOL    HW113094   6.866   6.632   0.855
 4065SOL    HW213095   6.734   6.563   0.787
 4066SOL     OW13096   5.628   3.800   1.723
 4066SOL    HW113097   5.609   3.827   1.629
 4066SOL    HW213098   5.596   3.872   1.785
 4067SOL     OW13099   5.540   1.453   2.778
 4067SOL    HW113100   5.575   1.536   2.823
 4067SOL    HW213101   5.616   1.393   2.755
 4068SOL     OW13102   5.523   0.521   4.549
 4068SOL    HW113103   5.616   0.544   4.575
 4068SOL    HW213104   5.511   0.421   4.553
 4069SOL     OW13105   5.540   5.186   0.604
 4069SOL    HW113106   5.627   5.143   0.628
 4069SOL    HW213107   5.541   5.282   0.632
 4070SOL     OW13108   2.015   4.228   3.222
 4070SOL    HW113109   1.949   4.162   3.187
 4070SOL    HW213110   2.090   4.180   3.267
 4071SOL     OW13111   1.657   0.357   4.519
 4071SOL    HW113112   1.750   0.329   4.542
 4071SOL    HW213113   1.643   0.351   4.420
 4072SOL     OW13114   1.407   0.052   4.507
 4072SOL    HW113115   1.485   0.026   4.564
 4072SOL    HW213116   1.375   0.143   4.533
 4073SOL     OW13117   2.447   5.605   6.364
 4073SOL    HW113118   2.527   5.655   6.397
 4073SOL    HW213119   2.476   5.519   6.322
 4074SOL     OW13120   0.898   2.672   0.983
 4074SOL    HW113121   0.806   2.703   0.958
 4074SOL    HW213122   0.914   2.581   0.945
 4075SOL     OW13123   4.460   1.311   3.142
 4075SOL    HW113124   4.425   1.383   3.202
 4075SOL    HW213125   4.522   1.252   3.193
 4076SOL     OW13126   2.078   3.333   4.821
 4076SOL    HW113127   2.099   3.279   4.739
 4076SOL    HW213128   1.986   3.311   4.853
 4077SOL     OW13129   3.731   0.694   0.127
 4077SOL    HW113130   3.809   0.680   0.189
 4077SOL    HW213131   3.652   0.643   0.162
 4078SOL     OW13132   6.122   4.212   1.415
 4078SOL    HW113133   6.078   4.159   1.341
 4078SOL    HW213134   6.221   4.204   1.407
 4079SOL     OW13135   0.789   1.195   3.714
 4079SOL    HW113136   0.888   1.192   3.697
 4079SOL    HW213137   0.759   1.107   3.751
 4080SOL     OW13138   3.402   3.544   1.528
 4080SOL    HW113139   3.402   3.523   1.430
 4080SOL    HW213140   3.320   3.596   1.551
 4081SOL     OW13141   2.021   1.589   5.199
 4081SOL    HW113142   2.059   1.675   5.232
 4081SOL    HW213143   2.085   1.514   5.221
 4082SOL     OW13144   0.944   2.709   4.977
 4082SOL    HW113145   0.870   2.742   5.036
 4082SOL    HW213146   1.026   2.692   5.031
 4083SOL     OW13147   5.777   4.879   3.523
 4083SOL    HW113148   5.747   4.880   3.427
 4083SOL    HW213149   5.702   4.846   3.580
 4084SOL     OW13150   4.673   1.839   3.694
 4084SOL    HW113151   4.769   1.826   3.669
 4084SOL    HW213152   4.644   1.764   3.754
 4085SOL     OW13153   2.961   5.675   1.989
 4085SOL    HW113154   2.876   5.685   1.938
 4085SOL    HW213155   3.030   5.739   1.953
 4086SOL     OW13156   6.548   5.667   6.467
 4086SOL    HW113157   6.472   5.675   6.403
 4086SOL    HW213158   6.624   5.619   6.423
 4087SOL     OW13159   2.576   6.772   2.457
 4087SOL    HW113160   2.615   6.851   2.505
 4087SOL    HW213161   2.522   6.717   2.521
 4088SOL     OW13162   0.039   1.330   5.369
 4088SOL    HW113163   0.031   1.323   5.269
 4088SOL    HW213164   7.009   1.407   5.402
 4089SOL     OW13165   0.136   6.515   3.650
 4089SOL    HW113166   0.051   6.562   3.628
 4089SOL    HW213167   0.139   6.494   3.748
 4090SOL     OW13168   2.418   6.849   5.262
 4090SOL    HW113169   2.395   6.774   5.200
 4090SOL    HW213170   2.435   6.932   5.208
 4091SOL     OW13171   2.224   5.583   1.231
 4091SOL    HW113172   2.216   5.505   1.169
 4091SOL    HW213173   2.139   5.592   1.283
 4092SOL     OW13174   4.869   3.234   4.385
 4092SOL    HW113175   4.924   3.255   4.304
 4092SOL    HW213176   4.892   3.297   4.459
 4093SOL     OW13177   5.205   5.642   2.840
 4093SOL    HW113178   5.158   5.616   2.925
 4093SOL    HW213179   5.267   5.568   2.812
 4094SOL     OW13180   0.240   5.567   6.715
 4094SOL    HW113181   0.298   5.486   6.718
 4094SOL    HW213182   0.211   5.591   6.808
 4095SOL     OW13183   0.507   4.720   0.271
 4095SOL    HW113184   0.424   4.761   0.232
 4095SOL    HW213185   0.493   4.702   0.368
 4096SOL     OW13186   1.732   1.698   6.953
 4096SOL    HW113187   1.697   1.775   6.899
 4096SOL    HW213188   1.655   1.646   6.992
 4097SOL     OW13189   0.028   4.745   5.305
 4097SOL    HW113190   0.033   4.759   5.206
 4097SOL    HW213191   0.120   4.752   5.344
 4098SOL     OW13192   2.382   5.287   2.886
 4098SOL    HW113193   2.454   5.357   2.888
 4098SOL    HW213194   2.404   5.213   2.949
 4099SOL     OW13195   4.423   4.477   5.878
 4099SOL    HW113196   4.420   4.542   5.953
 4099SOL    HW213197   4.330   4.454   5.850
 4100SOL     OW13198   1.731   0.570   3.775
 4100SOL    HW113199   1.770   0.659   3.799
 4100SOL    HW213200   1.752   0.504   3.847
 4101SOL     OW13201   6.225   0.610   0.191
 4101SOL    HW113202   6.186   0.575   0.276
 4101SOL    HW213203   6.323   0.589   0.187
 4102SOL     OW13204   1.783   0.495   6.969
 4102SOL    HW113205   1.875   0.518   6.939
 4102SOL    HW213206   1.729   0.462   6.892
 4103SOL     OW13207   1.312   6.957   2.093
 4103SOL    HW113208   1.383   6.946   2.024
 4103SOL    HW213209   1.335   6.902   2.173
 4104SOL     OW13210   0.199   5.606   3.545
 4104SOL    HW113211   0.140   5.670   3.497
 4104SOL    HW213212   0.246   5.653   3.620
 4105SOL     OW13213   4.547   1.348   0.830
 4105SOL    HW113214   4.589   1.370   0.742
 4105SOL    HW213215   4.612   1.365   0.903
 4106SOL     OW13216   0.084   1.864   3.766
 4106SOL    HW113217   0.147   1.940   3.748
 4106SOL    HW213218   0.101   1.791   3.700
 4107SOL     OW13219   0.359   6.308   6.176
 4107SOL    HW113220   0.316   6.370   6.241
 4107SOL    HW213221   0.440   6.352   6.136
 4108SOL     OW13222   0.255   5.197   4.105
 4108SOL    HW113223   0.325   5.226   4.170
 4108SOL    HW213224   0.188   5.270   4.094
 4109SOL     OW13225   6.105   5.723   3.483
 4109SOL    HW113226   6.122   5.811   3.440
 4109SOL    HW213227   6.061   5.737   3.571
 4110SOL     OW13228   5.218   3.731   0.335
 4110SOL    HW113229   5.224   3.690   0.426
 4110SOL    HW213230   5.299   3.705   0.282
 4111SOL     OW13231   6.847   3.960   5.439
 4111SOL    HW113232   6.837   3.933   5.343
 4111SOL    HW213233   6.914   4.034   5.446
 4112SOL     OW13234   4.449   0.024   4.908
 4112SOL    HW113235   4.464   0.036   4.810
 4112SOL    HW213236   4.399   0.103   4.943
 4113SOL     OW13237   4.752   4.250   4.674
 4113SOL    HW113238   4.749   4.151   4.660
 4113SOL    HW213239   4.716   4.296   4.593
 4114SOL     OW13240   6.421   1.473   3.328
 4114SOL    HW113241   6.422   1.568   3.359
 4114SOL    HW213242   6.474   1.465   3.244
 4115SOL     OW13243   2.897   5.079   3.790
 4115SOL    HW113244   2.886   4.980   3.782
 4115SOL    HW213245   2.859   5.108   3.878
 4116SOL     OW13246   5.514   2.823   3.354
 4116SOL    HW113247   5.506   2.843   3.256
 4116SOL    HW213248   5.593   2.763   3.369
 4117SOL     OW13249   1.201   2.681   2.019
 4117SOL    HW113250   1.259   2.604   2.045
 4117SOL    HW213251   1.120   2.683   2.078
 4118SOL     OW13252   6.930   6.134   6.416
 4118SOL    HW113253   6.855   6.086   6.462
 4118SOL    HW213254   6.941   6.224   6.456
 4119SOL     OW13255   2.113   1.253   3.040
 4119SOL    HW113256   2.073   1.302   3.117
 4119SOL    HW213257   2.169   1.315   2.986
 4120SOL     OW13258   1.828   1.142   6.398
 4120SOL    HW113259   1.811   1.188   6.485
 4120SOL    HW213260   1.869   1.206   6.334
 4121SOL     OW13261   6.877   6.808   2.644
 4121SOL    HW113262   6.898   6.798   2.547
 4121SOL    HW213263   6.960   6.834   2.693
 4122SOL     OW13264   0.602   4.961   4.309
 4122SOL    HW113265   0.689   5.005   4.333
 4122SOL    HW213266   0.584   4.975   4.212
 4123SOL     OW13267   3.869   4.863   2.725
 4123SOL    HW113268   3.802   4.904   2.663
 4123SOL    HW213269   3.831   4.859   2.817
 4124SOL     OW13270   6.414   6.350   0.720
 4124SOL    HW113271   6.335   6.302   0.682
 4124SOL    HW213272   6.435   6.429   0.664
 4125SOL     OW13273   5.484   2.083   1.761
 4125SOL    HW113274   5.463   2.175   1.794
 4125SOL    HW213275   5.565   2.086   1.702
 4126SOL     OW13276   1.318   2.389   1.996
 4126SOL    HW113277   1.409   2.404   1.957
 4126SOL    HW213278   1.263   2.334   1.934
 4127SOL     OW13279   3.853   2.147   4.121
 4127SOL    HW113280   3.880   2.159   4.217
 4127SOL    HW213281   3.756   2.126   4.116
 4128SOL     OW13282   0.452   3.335   1.277
 4128SOL    HW113283   0.524   3.390   1.320
 4128SOL    HW213284   0.364   3.380   1.290
 4129SOL     OW13285   2.812   3.128   0.791
 4129SOL    HW113286   2.864   3.158   0.871
 4129SOL    HW213287   2.835   3.185   0.712
 4130SOL     OW13288   5.983   3.207   1.377
 4130SOL    HW113289   6.081   3.191   1.392
 4130SOL    HW213290   5.931   3.155   1.445
 4131SOL     OW13291   4.759   0.493   1.988
 4131SOL    HW113292   4.701   0.516   2.066
 4131SOL    HW213293   4.820   0.570   1.969
 4132SOL     OW13294   6.495   3.802   4.743
 4132SOL    HW113295   6.415   3.861   4.746
 4132SOL    HW213296   6.544   3.808   4.830
 4133SOL     OW13297   6.045   6.758   1.806
 4133SOL    HW113298   6.050   6.825   1.732
 4133SOL    HW213299   6.121   6.693   1.796
 4134SOL     OW13300   2.396   2.997   1.287
 4134SOL    HW113301   2.474   2.980   1.346
 4134SOL    HW213302   2.356   2.910   1.258
 4135SOL     OW13303   7.014   1.521   2.778
 4135SOL    HW113304   0.043   1.492   2.857
 4135SOL    HW213305   0.033   1.486   2.694
 4136SOL     OW13306   1.130   4.183   1.797
 4136SOL    HW113307   1.154   4.251   1.728
 4136SOL    HW213308   1.051   4.130   1.766
 4137SOL     OW13309   1.644   2.991   0.629
 4137SOL    HW113310   1.695   2.906   0.641
 4137SOL    HW213311   1.546   2.972   0.633
 4138SOL     OW13312   4.270   6.256   1.464
 4138SOL    HW113313   4.350   6.238   1.520
 4138SOL    HW213314   4.188   6.259   1.522
 4139SOL     OW13315   1.621   1.771   3.197
 4139SOL    HW113316   1.717   1.783   3.220
 4139SOL    HW213317   1.568   1.848   3.231
 4140SOL     OW13318   2.373   2.601   4.211
 4140SOL    HW113319   2.290   2.633   4.256
 4140SOL    HW213320   2.432   2.557   4.279
 4141SOL     OW13321   4.108   0.100   6.734
 4141SOL    HW113322   4.106   0.000   6.725
 4141SOL    HW213323   4.094   0.142   6.644
 4142SOL     OW13324   0.003   4.084   2.894
 4142SOL    HW113325   0.024   4.080   2.992
 4142SOL    HW213326   0.058   4.156   2.851
 4143SOL     OW13327   6.009   3.333   0.783
 4143SOL    HW113328   5.924   3.298   0.822
 4143SOL    HW213329   6.036   3.415   0.834
 4144SOL     OW13330   5.788   1.861   0.480
 4144SOL    HW113331   5.824   1.910   0.401
 4144SOL    HW213332   5.696   1.894   0.501
 4145SOL     OW13333   0.279   6.494   0.620
 4145SOL    HW113334   0.337   6.434   0.675
 4145SOL    HW213335   0.323   6.583   0.610
 4146SOL     OW13336   5.691   6.382   3.059
 4146SOL    HW113337   5.704   6.286   3.033
 4146SOL    HW213338   5.608   6.391   3.113
 4147SOL     OW13339   4.629   4.277   5.320
 4147SOL    HW113340   4.536   4.297   5.351
 4147SOL    HW213341   4.636   4.180   5.294
 4148SOL     OW13342   2.705   0.659   5.524
 4148SOL    HW113343   2.672   0.716   5.449
 4148SOL    HW213344   2.634   0.593   5.550
 4149SOL     OW13345   1.947   3.072   0.828
 4149SOL    HW113346   2.017   3.101   0.893
 4149SOL    HW213347   1.991   3.027   0.749
 4150SOL     OW13348   5.893   2.410   6.158
 4150SOL    HW113349   5.953   2.351   6.103
 4150SOL    HW213350   5.944   2.491   6.187
 4151SOL     OW13351   2.313   6.955   4.582
 4151SOL    HW113352   2.398   6.970   4.634
 4151SOL    HW213353   2.267   6.874   4.619
 4152SOL     OW13354   3.203   5.746   1.817
 4152SOL    HW113355   3.242   5.731   1.908
 4152SOL    HW213356   3.232   5.672   1.756
 4153SOL     OW13357   6.822   5.070   1.663
 4153SOL    HW113358   6.860   5.155   1.627
 4153SOL    HW213359   6.773   5.022   1.591
 4154SOL     OW13360   0.733   5.962   4.734
 4154SOL    HW113361   0.819   5.911   4.737
 4154SOL    HW213362   0.706   5.988   4.827
 4155SOL     OW13363   0.982   2.090   1.478
 4155SOL    HW113364   1.061   2.083   1.417
 4155SOL    HW213365   0.898   2.078   1.425
 4156SOL     OW13366   6.783   4.777   5.008
 4156SOL    HW113367   6.700   4.758   5.060
 4156SOL    HW213368   6.771   4.747   4.913
 4157SOL     OW13369   6.828   6.547   1.935
 4157SOL    HW113370   6.834   6.508   2.027
 4157SOL    HW213371   6.908   6.604   1.917
 4158SOL     OW13372   1.930   2.547   1.737
 4158SOL    HW113373   1.949   2.642   1.763
 4158SOL    HW213374   1.962   2.485   1.809
 4159SOL     OW13375   3.072   1.388   3.033
 4159SOL    HW113376   3.076   1.357   3.128
 4159SOL    HW213377   2.988   1.355   2.991
 4160SOL     OW13378   6.725   0.039   6.882
 4160SOL    HW113379   6.643   7.020   6.845
 4160SOL    HW213380   6.739   0.009   6.976
 4161SOL     OW13381   2.105   1.836   1.504
 4161SOL    HW113382   2.076   1.931   1.488
 4161SOL    HW213383   2.114   1.789   1.417
 4162SOL     OW13384   6.356   5.972   1.415
 4162SOL    HW113385   6.274   6.029   1.417
 4162SOL    HW213386   6.348   5.905   1.341
 4163SOL     OW13387   4.196   6.858   1.333
 4163SOL    HW113388   4.205   6.760   1.345
 4163SOL    HW213389   4.286   6.901   1.334
 4164SOL     OW13390   0.087   6.281   4.837
 4164SOL    HW113391   0.011   6.236   4.791
 4164SOL    HW213392   0.109   6.231   4.921
 4165SOL     OW13393   3.806   1.520   5.581
 4165SOL    HW113394   3.730   1.458   5.599
 4165SOL    HW213395   3.890   1.467   5.572
 4166SOL     OW13396   5.683   0.355   2.868
 4166SOL    HW113397   5.745   0.434   2.873
 4166SOL    HW213398   5.589   0.385   2.881
 4167SOL     OW13399   3.024   4.920   5.909
 4167SOL    HW113400   3.055   4.825   5.899
 4167SOL    HW213401   3.084   4.980   5.855
 4168SOL     OW13402   6.873   4.778   0.386
 4168SOL    HW113403   6.902   4.701   0.330
 4168SOL    HW213404   6.896   4.760   0.482
 4169SOL     OW13405   5.223   4.031   5.047
 4169SOL    HW113406   5.213   3.983   4.960
 4169SOL    HW213407   5.321   4.043   5.067
 4170SOL     OW13408   4.778   2.851   4.671
 4170SOL    HW113409   4.779   2.948   4.695
 4170SOL    HW213410   4.749   2.797   4.750
 4171SOL     OW13411   1.499   3.845   1.437
 4171SOL    HW113412   1.480   3.867   1.341
 4171SOL    HW213413   1.507   3.929   1.490
 4172SOL     OW13414   3.640   3.532   0.748
 4172SOL    HW113415   3.545   3.509   0.724
 4172SOL    HW213416   3.649   3.536   0.847
 4173SOL     OW13417   4.365   2.977   5.430
 4173SOL    HW113418   4.348   2.887   5.390
 4173SOL    HW213419   4.460   2.984   5.459
 4174SOL     OW13420   4.726   0.116   4.258
 4174SOL    HW113421   4.743   0.042   4.323
 4174SOL    HW213422   4.794   0.187   4.269
 4175SOL     OW13423   1.559   4.474   6.322
 4175SOL    HW113424   1.594   4.419   6.397
 4175SOL    HW213425   1.472   4.436   6.290
 4176SOL     OW13426   5.218   6.504   0.155
 4176SOL    HW113427   5.253   6.441   0.224
 4176SOL    HW213428   5.292   6.530   0.093
 4177SOL     OW13429   4.924   4.935   4.884
 4177SOL    HW113430   5.024   4.943   4.883
 4177SOL    HW213431   4.898   4.844   4.916
 4178SOL     OW13432   3.804   6.240   2.367
 4178SOL    HW113433   3.833   6.290   2.449
 4178SOL    HW213434   3.791   6.304   2.291
 4179SOL     OW13435   5.134   3.282   4.571
 4179SOL    HW113436   5.176   3.324   4.491
 4179SOL    HW213437   5.148   3.341   4.651
 4180SOL     OW13438   5.888   3.575   0.569
 4180SOL    HW113439   5.822   3.509   0.534
 4180SOL    HW213440   5.981   3.543   0.550
 4181SOL     OW13441   5.275   0.565   5.849
 4181SOL    HW113442   5.322   0.642   5.806
 4181SOL    HW213443   5.207   0.528   5.785
 4182SOL     OW13444   0.787   5.942   4.069
 4182SOL    HW113445   0.869   5.912   4.117
 4182SOL    HW213446   0.766   6.036   4.095
 4183SOL     OW13447   2.130   1.341   1.862
 4183SOL    HW113448   2.205   1.394   1.822
 4183SOL    HW213449   2.142   1.244   1.840
 4184SOL     OW13450   3.586   0.409   2.352
 4184SOL    HW113451   3.568   0.363   2.265
 4184SOL    HW213452   3.536   0.496   2.355
 4185SOL     OW13453   0.194   3.586   3.962
 4185SOL    HW113454   0.252   3.663   3.988
 4185SOL    HW213455   0.155   3.603   3.872
 4186SOL     OW13456   2.011   5.928   6.768
 4186SOL    HW113457   2.005   5.943   6.670
 4186SOL    HW213458   2.104   5.904   6.793
 4187SOL     OW13459   2.433   3.362   0.062
 4187SOL    HW113460   2.375   3.438   0.092
 4187SOL    HW213461   2.398   3.324   7.001
 4188SOL     OW13462   5.600   0.797   5.505
 4188SOL    HW113463   5.671   0.865   5.522
 4188SOL    HW213464   5.584   0.789   5.406
 4189SOL     OW13465   4.890   5.451   3.428
 4189SOL    HW113466   4.812   5.421   3.373
 4189SOL    HW213467   4.858   5.485   3.516
 4190SOL     OW13468   7.003   6.178   0.878
 4190SOL    HW113469   7.021   6.267   0.838
 4190SOL    HW213470   6.995   6.186   0.977
 4191SOL     OW13471   4.841   3.773   6.202
 4191SOL    HW113472   4.813   3.710   6.275
 4191SOL    HW213473   4.768   3.782   6.135
 4192SOL     OW13474   1.244   1.376   2.505
 4192SOL    HW113475   1.163   1.388   2.564
 4192SOL    HW213476   1.218   1.326   2.423
 4193SOL     OW13477   5.595   0.788   0.182
 4193SOL    HW113478   5.613   0.741   0.268
 4193SOL    HW213479   5.651   0.748   0.110
 4194SOL     OW13480   3.815   0.631   5.539
 4194SOL    HW113481   3.854   0.540   5.544
 4194SOL    HW213482   3.814   0.662   5.444
 4195SOL     OW13483   4.490   6.619   1.898
 4195SOL    HW113484   4.500   6.639   1.801
 4195SOL    HW213485   4.509   6.522   1.915
 4196SOL     OW13486   6.862   2.905   3.664
 4196SOL    HW113487   6.879   2.815   3.625
 4196SOL    HW213488   6.943   2.962   3.654
 4197SOL     OW13489   3.955   6.197   5.750
 4197SOL    HW113490   3.966   6.296   5.758
 4197SOL    HW213491   3.859   6.172   5.760
 4198SOL     OW13492   6.528   0.294   2.252
 4198SOL    HW113493   6.508   0.301   2.155
 4198SOL    HW213494   6.455   0.243   2.298
 4199SOL     OW13495   1.497   3.695   6.197
 4199SOL    HW113496   1.558   3.738   6.130
 4199SOL    HW213497   1.523   3.723   6.289
 4200SOL     OW13498   3.423   1.210   5.481
 4200SOL    HW113499   3.506   1.238   5.528
 4200SOL    HW213500   3.410   1.267   5.400
 4201SOL     OW13501   6.332   6.676   3.631
 4201SOL    HW113502   6.432   6.673   3.642
 4201SOL    HW213503   6.297   6.764   3.664
 4202SOL     OW13504   3.326   5.424   6.469
 4202SOL    HW113505   3.343   5.330   6.438
 4202SOL    HW213506   3.228   5.443   6.465
 4203SOL     OW13507   4.990   4.823   0.587
 4203SOL    HW113508   5.049   4.884   0.641
 4203SOL    HW213509   4.998   4.730   0.623
 4204SOL     OW13510   3.909   3.351   5.767
 4204SOL    HW113511   3.904   3.321   5.862
 4204SOL    HW213512   3.900   3.451   5.763
 4205SOL     OW13513   3.629   5.551   5.147
 4205SOL    HW113514   3.637   5.650   5.138
 4205SOL    HW213515   3.712   5.513   5.188
 4206SOL     OW13516   0.716   1.231   5.007
 4206SOL    HW113517   0.677   1.139   4.998
 4206SOL    HW213518   0.785   1.246   4.937
 4207SOL     OW13519   1.704   2.443   1.382
 4207SOL    HW113520   1.623   2.451   1.324
 4207SOL    HW213521   1.697   2.360   1.438
 4208SOL     OW13522   1.281   4.472   5.294
 4208SOL    HW113523   1.333   4.557   5.284
 4208SOL    HW213524   1.336   4.395   5.260
 4209SOL     OW13525   6.484   5.835   2.996
 4209SOL    HW113526   6.414   5.764   2.987
 4209SOL    HW213527   6.515   5.839   3.091
 4210SOL     OW13528   3.834   3.326   4.523
 4210SOL    HW113529   3.756   3.388   4.531
 4210SOL    HW213530   3.802   3.232   4.515
 4211SOL     OW13531   3.386   2.022   5.443
 4211SOL    HW113532   3.398   2.113   5.481
 4211SOL    HW213533   3.462   1.963   5.470
 4212SOL     OW13534   6.901   1.285   3.881
 4212SOL    HW113535   6.872   1.262   3.788
 4212SOL    HW213536   6.878   1.381   3.900
 4213SOL     OW13537   2.895   1.099   3.234
 4213SOL    HW113538   2.972   1.125   3.175
 4213SOL    HW213539   2.914   1.011   3.277
 4214SOL     OW13540   0.679   5.573   4.519
 4214SOL    HW113541   0.696   5.475   4.507
 4214SOL    HW213542   0.641   5.588   4.610
 4215SOL     OW13543   5.081   6.856   5.489
 4215SOL    HW113544   5.057   6.907   5.571
 4215SOL    HW213545   5.176   6.876   5.463
 4216SOL     OW13546   1.581   0.681   2.329
 4216SOL    HW113547   1.661   0.738   2.349
 4216SOL    HW213548   1.538   0.713   2.245
 4217SOL     OW13549   1.127   0.124   2.052
 4217SOL    HW113550   1.178   0.038   2.054
 4217SOL    HW213551   1.184   0.196   2.012
 4218SOL     OW13552   3.364   0.967   1.118
 4218SOL    HW113553   3.294   0.954   1.189
 4218SOL    HW213554   3.379   0.881   1.070
 4219SOL     OW13555   4.554   6.597   4.685
 4219SOL    HW113556   4.532   6.594   4.587
 4219SOL    HW213557   4.493   6.535   4.734
 4220SOL     OW13558   5.400   2.334   1.859
 4220SOL    HW113559   5.477   2.396   1.841
 4220SOL    HW213560   5.314   2.384   1.848
 4221SOL     OW13561   6.597   4.856   0.055
 4221SOL    HW113562   6.604   4.859   0.155
 4221SOL    HW213563   6.594   4.760   0.025
 4222SOL     OW13564   5.265   1.843   3.366
 4222SOL    HW113565   5.239   1.930   3.407
 4222SOL    HW213566   5.325   1.859   3.287
 4223SOL     OW13567   3.909   4.050   1.067
 4223SOL    HW113568   3.991   4.090   1.109
 4223SOL    HW213569   3.928   4.030   0.970
 4224SOL     OW13570   5.645   4.277   5.056
 4224SOL    HW113571   5.613   4.329   5.135
 4224SOL    HW213572   5.743   4.260   5.065
 4225SOL     OW13573   1.599   2.124   5.622
 4225SOL    HW113574   1.545   2.206   5.640
 4225SOL    HW213575   1.545   2.060   5.568
 4226SOL     OW13576   1.104   6.094   4.407
 4226SOL    HW113577   1.198   6.073   4.433
 4226SOL    HW213578   1.072   6.027   4.340
 4227SOL     OW13579   4.931   6.117   1.832
 4227SOL    HW113580   4.976   6.125   1.743
 4227SOL    HW213581   4.937   6.204   1.881
 4228SOL     OW13582   0.625   6.457   4.983
 4228SOL    HW113583   0.645   6.429   4.889
 4228SOL    HW213584   0.533   6.494   4.988
 4229SOL     OW13585   4.911   6.039   5.813
 4229SOL    HW113586   4.885   5.945   5.832
 4229SOL    HW213587   4.840   6.101   5.846
 4230SOL     OW13588   0.878   6.987   2.907
 4230SOL    HW113589   0.950   0.030   2.893
 4230SOL    HW213590   0.791   7.022   2.872
 4231SOL     OW13591   4.871   0.763   5.490
 4231SOL    HW113592   4.873   0.670   5.527
 4231SOL    HW213593   4.878   0.829   5.566
 4232SOL     OW13594   2.079   5.640   3.807
 4232SOL    HW113595   2.018   5.711   3.842
 4232SOL    HW213596   2.160   5.635   3.865
 4233SOL     OW13597   0.503   6.986   4.282
 4233SOL    HW113598   0.515   0.026   4.357
 4233SOL    HW213599   0.590   6.941   4.261
 4234SOL     OW13600   1.889   5.685   5.314
 4234SOL    HW113601   1.816   5.744   5.349
 4234SOL    HW213602   1.926   5.724   5.230
 4235SOL     OW13603   6.573   4.829   5.526
 4235SOL    HW113604   6.479   4.859   5.542
 4235SOL    HW213605   6.605   4.776   5.605
 4236SOL     OW13606   0.527   4.768   2.006
 4236SOL    HW113607   0.446   4.726   1.966
 4236SOL    HW213608   0.500   4.841   2.067
 4237SOL     OW13609   6.288   4.194   4.510
 4237SOL    HW113610   6.250   4.149   4.429
 4237SOL    HW213611   6.387   4.184   4.510
 4238SOL     OW13612   0.988   0.861   3.409
 4238SOL    HW113613   1.029   0.882   3.320
 4238SOL    HW213614   0.930   0.938   3.438
 4239SOL     OW13615   4.462   1.121   2.238
 4239SOL    HW113616   4.477   1.117   2.336
 4239SOL    HW213617   4.502   1.205   2.202
 4240SOL     OW13618   1.891   5.030   0.022
 4240SOL    HW113619   1.884   5.018   6.947
 4240SOL    HW213620   1.987   5.041   0.047
 4241SOL     OW13621   5.953   1.628   0.280
 4241SOL    HW113622   5.925   1.667   0.192
 4241SOL    HW213623   5.904   1.674   0.353
 4242SOL     OW13624   2.241   2.421   3.698
 4242SOL    HW113625   2.296   2.413   3.781
 4242SOL    HW213626   2.293   2.469   3.627
 4243SOL     OW13627   4.547   1.521   2.618
 4243SOL    HW113628   4.539   1.478   2.708
 4243SOL    HW213629   4.477   1.591   2.608
 4244SOL     OW13630   3.430   3.704   1.950
 4244SOL    HW113631   3.460   3.761   2.027
 4244SOL    HW213632   3.391   3.619   1.986
 4245SOL     OW13633   6.451   1.939   6.733
 4245SOL    HW113634   6.520   1.981   6.792
 4245SOL    HW213635   6.458   1.977   6.641
 4246SOL     OW13636   6.218   4.074   3.240
 4246SOL    HW113637   6.198   4.110   3.331
 4246SOL    HW213638   6.264   4.144   3.186
 4247SOL     OW13639   0.842   6.356   3.975
 4247SOL    HW113640   0.765   6.318   4.026
 4247SOL    HW213641   0.808   6.422   3.908
 4248SOL     OW13642   2.519   1.882   4.542
 4248SOL    HW113643   2.450   1.811   4.555
 4248SOL    HW213644   2.546   1.885   4.446
 4249SOL     OW13645   6.517   3.005   5.108
 4249SOL    HW113646   6.538   2.941   5.181
 4249SOL    HW213647   6.471   2.957   5.033
 4250SOL     OW13648   6.843   4.268   3.125
 4250SOL    HW113649   6.926   4.287   3.073
 4250SOL    HW213650   6.807   4.353   3.163
 4251SOL     OW13651   5.972   4.973   0.123
 4251SOL    HW113652   5.969   5.056   0.178
 4251SOL    HW213653   5.916   4.902   0.166
 4252SOL     OW13654   6.684   6.003   4.921
 4252SOL    HW113655   6.623   5.927   4.898
 4252SOL    HW213656   6.685   6.016   5.021
 4253SOL     OW13657   2.916   0.506   2.184
 4253SOL    HW113658   2.964   0.539   2.266
 4253SOL    HW213659   2.843   0.570   2.160
 4254SOL     OW13660   1.089   3.112   1.403
 4254SOL    HW113661   1.161   3.164   1.356
 4254SOL    HW213662   1.002   3.125   1.355
 4255SOL     OW13663   6.005   2.363   3.447
 4255SOL    HW113664   6.010   2.268   3.417
 4255SOL    HW213665   5.926   2.376   3.505
 4256SOL     OW13666   1.099   6.207   0.689
 4256SOL    HW113667   1.190   6.209   0.648
 4256SOL    HW213668   1.105   6.235   0.784
 4257SOL     OW13669   3.559   0.677   5.186
 4257SOL    HW113670   3.497   0.642   5.116
 4257SOL    HW213671   3.513   0.750   5.237
 4258SOL     OW13672   5.966   6.965   1.606
 4258SOL    HW113673   6.023   0.005   1.555
 4258SOL    HW213674   5.900   6.922   1.544
 4259SOL     OW13675   2.738   0.710   6.644
 4259SOL    HW113676   2.818   0.679   6.695
 4259SOL    HW213677   2.708   0.638   6.582
 4260SOL     OW13678   5.182   5.748   3.952
 4260SOL    HW113679   5.256   5.749   3.885
 4260SOL    HW213680   5.139   5.657   3.953
 4261SOL     OW13681   2.311   0.171   2.123
 4261SOL    HW113682   2.396   0.224   2.121
 4261SOL    HW213683   2.328   0.082   2.167
 4262SOL     OW13684   1.224   4.889   5.258
 4262SOL    HW113685   1.292   4.817   5.271
 4262SOL    HW213686   1.269   4.971   5.221
 4263SOL     OW13687   2.743   6.652   4.246
 4263SOL    HW113688   2.770   6.573   4.191
 4263SOL    HW213689   2.680   6.623   4.318
 4264SOL     OW13690   6.955   1.677   2.202
 4264SOL    HW113691   6.892   1.629   2.263
 4264SOL    HW213692   6.919   1.675   2.109
 4265SOL     OW13693   5.964   1.915   6.926
 4265SOL    HW113694   5.912   1.994   6.958
 4265SOL    HW213695   6.058   1.942   6.907
 4266SOL     OW13696   2.362   5.578   0.482
 4266SOL    HW113697   2.368   5.677   0.464
 4266SOL    HW213698   2.335   5.531   0.399
 4267SOL     OW13699   2.067   3.968   5.162
 4267SOL    HW113700   2.069   3.891   5.226
 4267SOL    HW213701   2.158   3.980   5.123
 4268SOL     OW13702   1.756   6.658   0.229
 4268SOL    HW113703   1.685   6.726   0.248
 4268SOL    HW213704   1.784   6.665   0.133
 4269SOL     OW13705   1.954   1.219   0.491
 4269SOL    HW113706   2.042   1.206   0.446
 4269SOL    HW213707   1.890   1.261   0.428
 4270SOL     OW13708   3.116   3.026   3.805
 4270SOL    HW113709   3.142   2.939   3.763
 4270SOL    HW213710   3.169   3.040   3.889
 4271SOL     OW13711   0.180   0.417   5.727
 4271SOL    HW113712   0.253   0.362   5.767
 4271SOL    HW213713   0.098   0.409   5.784
 4272SOL     OW13714   0.524   4.895   4.778
 4272SOL    HW113715   0.620   4.873   4.760
 4272SOL    HW213716   0.475   4.811   4.800
 4273SOL     OW13717   4.920   6.467   4.013
 4273SOL    HW113718   5.008   6.428   4.042
 4273SOL    HW213719   4.937   6.552   3.963
 4274SOL     OW13720   0.596   6.994   2.882
 4274SOL    HW113721   0.561   0.017   2.801
 4274SOL    HW213722   0.635   6.906   2.855
 4275SOL     OW13723   0.175   1.742   6.109
 4275SOL    HW113724   0.217   1.823   6.069
 4275SOL    HW213725   0.187   1.664   6.047
 4276SOL     OW13726   1.416   5.005   2.709
 4276SOL    HW113727   1.368   5.089   2.681
 4276SOL    HW213728   1.355   4.949   2.764
 4277SOL     OW13729   6.887   4.743   4.102
 4277SOL    HW113730   6.859   4.738   4.198
 4277SOL    HW213731   6.969   4.800   4.094
 4278SOL     OW13732   0.008   0.879   4.974
 4278SOL    HW113733   0.054   0.944   4.913
 4278SOL    HW213734   6.954   0.923   5.017
 4279SOL     OW13735   3.661   6.376   5.362
 4279SOL    HW113736   3.664   6.286   5.407
 4279SOL    HW213737   3.576   6.422   5.386
 4280SOL     OW13738   4.874   1.606   5.651
 4280SOL    HW113739   4.961   1.652   5.636
 4280SOL    HW213740   4.872   1.566   5.743
 4281SOL     OW13741   2.251   4.992   4.313
 4281SOL    HW113742   2.342   5.007   4.351
 4281SOL    HW213743   2.248   4.903   4.268
 4282SOL     OW13744   2.264   2.110   0.029
 4282SOL    HW113745   2.349   2.082   0.073
 4282SOL    HW213746   2.285   2.169   6.975
 4283SOL     OW13747   1.929   0.303   4.145
 4283SOL    HW113748   1.904   0.389   4.100
 4283SOL    HW213749   2.000   0.257   4.092
 4284SOL     OW13750   5.323   6.103   2.309
 4284SOL    HW113751   5.409   6.141   2.277
 4284SOL    HW213752   5.314   6.118   2.408
 4285SOL     OW13753   0.545   0.006   6.236
 4285SOL    HW113754   0.628   0.042   6.278
 4285SOL    HW213755   0.528   6.938   6.269
 4286SOL     OW13756   4.939   5.789   6.894
 4286SOL    HW113757   4.919   5.884   6.868
 4286SOL    HW213758   4.924   5.729   6.816
 4287SOL     OW13759   6.187   0.652   5.922
 4287SOL    HW113760   6.279   0.660   5.962
 4287SOL    HW213761   6.182   0.708   5.840
 4288SOL     OW13762   0.682   5.951   3.790
 4288SOL    HW113763   0.745   6.028   3.784
 4288SOL    HW213764   0.690   5.909   3.881
 4289SOL     OW13765   5.717   2.969   1.399
 4289SOL    HW113766   5.791   2.907   1.427
 4289SOL    HW213767   5.647   2.971   1.471
 4290SOL     OW13768   2.176   6.268   1.026
 4290SOL    HW113769   2.214   6.223   1.107
 4290SOL    HW213770   2.095   6.218   0.995
 4291SOL     OW13771   4.505   3.467   1.575
 4291SOL    HW113772   4.580   3.533   1.578
 4291SOL    HW213773   4.437   3.491   1.643
 4292SOL     OW13774   6.277   4.617   5.668
 4292SOL    HW113775   6.312   4.591   5.758
 4292SOL    HW213776   6.177   4.616   5.671
 4293SOL     OW13777   0.088   4.126   6.601
 4293SOL    HW113778   0.011   4.131   6.665
 4293SOL    HW213779   0.118   4.031   6.592
 4294SOL     OW13780   4.364   3.108   0.345
 4294SOL    HW113781   4.436   3.040   0.335
 4294SOL    HW213782   4.311   3.114   0.260
 4295SOL     OW13783   3.853   6.558   4.951
 4295SOL    HW113784   3.815   6.487   5.011
 4295SOL    HW213785   3.798   6.564   4.868
 4296SOL     OW13786   2.977   1.946   0.306
 4296SOL    HW113787   2.973   2.026   0.245
 4296SOL    HW213788   3.000   1.865   0.252
 4297SOL     OW13789   5.475   0.340   5.664
 4297SOL    HW113790   5.510   0.392   5.742
 4297SOL    HW213791   5.522   0.368   5.581
 4298SOL     OW13792   1.775   5.549   6.847
 4298SOL    HW113793   1.683   5.539   6.810
 4298SOL    HW213794   1.783   5.637   6.894
 4299SOL     OW13795   1.130   2.538   6.652
 4299SOL    HW113796   1.113   2.478   6.731
 4299SOL    HW213797   1.216   2.587   6.665
 4300SOL     OW13798   2.867   1.497   6.526
 4300SOL    HW113799   2.962   1.487   6.496
 4300SOL    HW213800   2.822   1.567   6.470
 4301SOL     OW13801   2.542   1.414   0.385
 4301SOL    HW113802   2.523   1.507   0.414
 4301SOL    HW213803   2.477   1.387   0.314
 4302SOL     OW13804   0.983   6.311   5.390
 4302SOL    HW113805   0.923   6.284   5.465
 4302SOL    HW213806   1.015   6.229   5.342
 4303SOL     OW13807   6.060   4.558   3.426
 4303SOL    HW113808   6.077   4.557   3.328
 4303SOL    HW213809   6.070   4.652   3.460
 4304SOL     OW13810   2.894   3.724   4.310
 4304SOL    HW113811   2.888   3.709   4.211
 4304SOL    HW213812   2.803   3.737   4.348
 4305SOL     OW13813   6.295   1.667   3.947
 4305SOL    HW113814   6.281   1.569   3.959
 4305SOL    HW213815   6.319   1.686   3.852
 4306SOL     OW13816   7.001   3.794   6.316
 4306SOL    HW113817   6.998   3.703   6.358
 4306SOL    HW213818   6.915   3.812   6.269
 4307SOL     OW13819   4.802   4.596   5.865
 4307SOL    HW113820   4.876   4.652   5.828
 4307SOL    HW213821   4.837   4.506   5.890
 4308SOL     OW13822   5.572   5.756   6.197
 4308SOL    HW113823   5.479   5.791   6.190
 4308SOL    HW213824   5.597   5.710   6.112
 4309SOL     OW13825   0.681   6.893   0.029
 4309SOL    HW113826   0.620   6.819   0.058
 4309SOL    HW213827   0.628   6.967   7.014
 4310SOL     OW13828   1.653   2.568   3.842
 4310SOL    HW113829   1.607   2.480   3.850
 4310SOL    HW213830   1.750   2.554   3.821
 4311SOL     OW13831   1.397   5.488   3.053
 4311SOL    HW113832   1.400   5.568   3.113
 4311SOL    HW213833   1.479   5.487   2.995
 4312SOL     OW13834   1.658   5.339   1.491
 4312SOL    HW113835   1.566   5.317   1.457
 4312SOL    HW213836   1.667   5.305   1.585
 4313SOL     OW13837   5.260   1.597   2.136
 4313SOL    HW113838   5.232   1.530   2.205
 4313SOL    HW213839   5.260   1.688   2.176
 4314SOL     OW13840   5.272   2.725   3.564
 4314SOL    HW113841   5.264   2.630   3.533
 4314SOL    HW213842   5.369   2.748   3.577
 4315SOL     OW13843   1.778   0.450   2.262
 4315SOL    HW113844   1.797   0.414   2.354
 4315SOL    HW213845   1.697   0.509   2.266
 4316SOL     OW13846   5.192   0.126   1.271
 4316SOL    HW113847   5.154   0.211   1.235
 4316SOL    HW213848   5.128   0.051   1.256
 4317SOL     OW13849   3.297   1.163   4.705
 4317SOL    HW113850   3.385   1.198   4.737
 4317SOL    HW213851   3.313   1.083   4.646
 4318SOL     OW13852   1.020   3.489   3.524
 4318SOL    HW113853   1.052   3.395   3.528
 4318SOL    HW213854   1.075   3.546   3.585
 4319SOL     OW13855   2.644   2.975   0.557
 4319SOL    HW113856   2.700   2.995   0.637
 4319SOL    HW213857   2.657   2.879   0.530
 4320SOL     OW13858   1.576   6.011   1.530
 4320SOL    HW113859   1.548   6.100   1.495
 4320SOL    HW213860   1.626   5.962   1.458
 4321SOL     OW13861   6.423   0.392   4.293
 4321SOL    HW113862   6.453   0.485   4.271
 4321SOL    HW213863   6.461   0.366   4.382
 4322SOL     OW13864   6.147   1.213   6.835
 4322SOL    HW113865   6.131   1.276   6.911
 4322SOL    HW213866   6.127   1.120   6.863
 4323SOL     OW13867   5.799   3.566   2.101
 4323SOL    HW113868   5.723   3.501   2.105
 4323SOL    HW213869   5.767   3.651   2.059
 4324SOL     OW13870   5.548   4.840   6.993
 4324SOL    HW113871   5.449   4.844   7.012
 4324SOL    HW213872   5.564   4.779   6.916
 4325SOL     OW13873   0.824   0.734   6.670
 4325SOL    HW113874   0.898   0.759   6.608
 4325SOL    HW213875   0.825   0.635   6.685
 4326SOL     OW13876   6.612   2.897   5.371
 4326SOL    HW113877   6.671   2.964   5.415
 4326SOL    HW213878   6.573   2.836   5.440
 4327SOL     OW13879   6.074   5.247   2.771
 4327SOL    HW113880   5.979   5.218   2.765
 4327SOL    HW213881   6.099   5.296   2.687
 4328SOL     OW13882   4.593   4.561   6.207
 4328SOL    HW113883   4.665   4.608   6.259
 4328SOL    HW213884   4.527   4.628   6.173
 4329SOL     OW13885   2.925   1.838   6.110
 4329SOL    HW113886   2.914   1.759   6.170
 4329SOL    HW213887   2.849   1.902   6.124
 4330SOL     OW13888   3.073   0.574   5.221
 4330SOL    HW113889   3.036   0.585   5.313
 4330SOL    HW213890   3.055   0.657   5.167
 4331SOL     OW13891   4.919   3.308   1.393
 4331SOL    HW113892   4.933   3.390   1.448
 4331SOL    HW213893   4.821   3.288   1.387
 4332SOL     OW13894   5.506   4.276   2.331
 4332SOL    HW113895   5.490   4.316   2.241
 4332SOL    HW213896   5.420   4.273   2.382
 4333SOL     OW13897   4.392   1.639   5.132
 4333SOL    HW113898   4.475   1.602   5.174
 4333SOL    HW213899   4.366   1.581   5.054
 4334SOL     OW13900   2.735   2.108   2.188
 4334SOL    HW113901   2.817   2.151   2.152
 4334SOL    HW213902   2.662   2.176   2.196
 4335SOL     OW13903   3.153   3.946   3.259
 4335SOL    HW113904   3.135   3.870   3.196
 4335SOL    HW213905   3.073   3.962   3.316
 4336SOL     OW13906   0.840   6.859   5.417
 4336SOL    HW113907   0.863   6.762   5.407
 4336SOL    HW213908   0.857   6.905   5.330
 4337SOL     OW13909   1.370   4.672   0.130
 4337SOL    HW113910   1.360   4.761   0.174
 4337SOL    HW213911   1.462   4.636   0.148
 4338SOL     OW13912   4.806   5.892   4.807
 4338SOL    HW113913   4.876   5.834   4.850
 4338SOL    HW213914   4.850   5.973   4.768
 4339SOL     OW13915   5.509   3.370   5.483
 4339SOL    HW113916   5.464   3.326   5.405
 4339SOL    HW213917   5.468   3.338   5.568
 4340SOL     OW13918   5.756   3.804   2.994
 4340SOL    HW113919   5.699   3.736   3.041
 4340SOL    HW213920   5.812   3.852   3.061
 4341SOL     OW13921   1.171   4.433   1.673
 4341SOL    HW113922   1.185   4.519   1.722
 4341SOL    HW213923   1.147   4.452   1.578
 4342SOL     OW13924   6.583   2.861   4.061
 4342SOL    HW113925   6.495   2.893   4.025
 4342SOL    HW213926   6.655   2.880   3.995
 4343SOL     OW13927   2.506   6.596   6.418
 4343SOL    HW113928   2.534   6.646   6.336
 4343SOL    HW213929   2.557   6.630   6.497
 4344SOL     OW13930   2.018   5.097   3.050
 4344SOL    HW113931   1.933   5.058   3.085
 4344SOL    HW213932   2.094   5.034   3.067
 4345SOL     OW13933   2.015   3.069   5.710
 4345SOL    HW113934   1.932   3.073   5.766
 4345SOL    HW213935   1.990   3.047   5.616
 4346SOL     OW13936   2.155   3.132   1.825
 4346SOL    HW113937   2.121   3.058   1.767
 4346SOL    HW213938   2.205   3.198   1.768
 4347SOL     OW13939   6.577   1.104   1.693
 4347SOL    HW113940   6.516   1.048   1.750
 4347SOL    HW213941   6.528   1.134   1.611
 4348SOL     OW13942   0.285   3.172   2.538
 4348SOL    HW113943   0.315   3.259   2.578
 4348SOL    HW213944   0.254   3.111   2.610
 4349SOL     OW13945   6.926   1.804   2.965
 4349SOL    HW113946   6.908   1.847   2.876
 4349SOL    HW213947   7.022   1.777   2.970
 4350SOL     OW13948   5.021   2.016   4.193
 4350SOL    HW113949   4.984   1.928   4.220
 4350SOL    HW213950   4.951   2.087   4.208
 4351SOL     OW13951   2.019   6.430   0.777
 4351SOL    HW113952   1.984   6.343   0.743
 4351SOL    HW213953   1.959   6.465   0.848
 4352SOL     OW13954   0.809   2.197   1.649
 4352SOL    HW113955   0.867   2.141   1.590
 4352SOL    HW213956   0.865   2.240   1.719
 4353SOL     OW13957   2.955   4.829   0.634
 4353SOL    HW113958   2.951   4.780   0.721
 4353SOL    HW213959   2.881   4.797   0.575
 4354SOL     OW13960   1.958   6.437   5.857
 4354SOL    HW113961   1.959   6.390   5.945
 4354SOL    HW213962   1.882   6.403   5.802
 4355SOL     OW13963   3.397   0.014   2.140
 4355SOL    HW113964   3.370   6.989   2.222
 4355SOL    HW213965   3.422   6.973   2.068
 4356SOL     OW13966   4.804   3.878   1.908
 4356SOL    HW113967   4.901   3.878   1.883
 4356SOL    HW213968   4.749   3.871   1.825
 4357SOL     OW13969   6.305   6.969   6.989
 4357SOL    HW113970   6.302   6.937   6.894
 4357SOL    HW213971   6.390   6.939   0.007
 4358SOL     OW13972   6.607   6.185   0.438
 4358SOL    HW113973   6.683   6.127   0.465
 4358SOL    HW213974   6.521   6.135   0.447
 4359SOL     OW13975   1.254   1.917   5.075
 4359SOL    HW113976   1.303   1.927   5.161
 4359SOL    HW213977   1.295   1.844   5.021
 4360SOL     OW13978   1.704   3.169   3.069
 4360SOL    HW113979   1.610   3.180   3.038
 4360SOL    HW213980   1.763   3.150   2.990
 4361SOL     OW13981   2.990   2.729   1.768
 4361SOL    HW113982   2.965   2.634   1.785
 4361SOL    HW213983   3.007   2.742   1.670
 4362SOL     OW13984   6.179   4.048   5.342
 4362SOL    HW113985   6.165   3.950   5.356
 4362SOL    HW213986   6.232   4.085   5.418
 4363SOL     OW13987   4.944   2.229   5.794
 4363SOL    HW113988   4.876   2.168   5.835
 4363SOL    HW213989   5.035   2.190   5.807
 4364SOL     OW13990   2.977   3.758   5.399
 4364SOL    HW113991   3.049   3.692   5.376
 4364SOL    HW213992   2.940   3.798   5.316
 4365SOL     OW13993   2.502   1.028   2.179
 4365SOL    HW113994   2.484   1.105   2.240
 4365SOL    HW213995   2.423   0.967   2.179
 4366SOL     OW13996   5.719   0.096   0.763
 4366SOL    HW113997   5.718   0.011   0.711
 4366SOL    HW213998   5.749   0.077   0.857
 4367SOL     OW13999   1.023   5.067   5.303
 4367SOL    HW114000   1.093   4.995   5.303
 4367SOL    HW214001   0.993   5.083   5.209
 4368SOL     OW14002   3.889   5.338   0.912
 4368SOL    HW114003   3.984   5.314   0.933
 4368SOL    HW214004   3.828   5.299   0.982
 4369SOL     OW14005   4.545   5.774   2.673
 4369SOL    HW114006   4.602   5.701   2.710
 4369SOL    HW214007   4.533   5.761   2.575
 4370SOL     OW14008   5.111   4.572   3.062
 4370SOL    HW114009   5.059   4.644   3.108
 4370SOL    HW214010   5.189   4.546   3.118
 4371SOL     OW14011   6.456   0.280   1.424
 4371SOL    HW114012   6.431   0.185   1.404
 4371SOL    HW214013   6.434   0.302   1.519
 4372SOL     OW14014   4.419   1.293   2.521
 4372SOL    HW114015   4.328   1.335   2.515
 4372SOL    HW214016   4.485   1.362   2.550
 4373SOL     OW14017   0.090   3.271   6.846
 4373SOL    HW114018   0.084   3.246   6.749
 4373SOL    HW214019   0.167   3.332   6.860
 4374SOL     OW14020   1.116   1.649   1.664
 4374SOL    HW114021   1.051   1.665   1.738
 4374SOL    HW214022   1.151   1.737   1.631
 4375SOL     OW14023   2.638   0.207   4.139
 4375SOL    HW114024   2.716   0.210   4.076
 4375SOL    HW214025   2.664   0.155   4.221
 4376SOL     OW14026   0.144   0.160   2.228
 4376SOL    HW114027   0.056   0.118   2.251
 4376SOL    HW214028   0.171   0.133   2.136
 4377SOL     OW14029   6.069   3.938   0.749
 4377SOL    HW114030   6.018   3.886   0.680
 4377SOL    HW214031   6.072   3.886   0.834
 4378SOL     OW14032   1.654   1.169   2.950
 4378SOL    HW114033   1.617   1.124   2.869
 4378SOL    HW214034   1.749   1.139   2.964
 4379SOL     OW14035   3.003   1.553   4.058
 4379SOL    HW114036   3.076   1.608   4.018
 4379SOL    HW214037   2.916   1.576   4.014
 4380SOL     OW14038   1.141   0.362   1.829
 4380SOL    HW114039   1.060   0.305   1.845
 4380SOL    HW214040   1.113   0.458   1.821
 4381SOL     OW14041   1.542   5.691   4.898
 4381SOL    HW114042   1.517   5.626   4.968
 4381SOL    HW214043   1.459   5.729   4.856
 4382SOL     OW14044   6.772   3.512   5.874
 4382SOL    HW114045   6.709   3.590   5.873
 4382SOL    HW214046   6.726   3.432   5.835
 4383SOL     OW14047   6.338   4.092   6.409
 4383SOL    HW114048   6.273   4.156   6.367
 4383SOL    HW214049   6.362   4.021   6.343
 4384SOL     OW14050   6.064   0.685   3.426
 4384SOL    HW114051   6.101   0.743   3.353
 4384SOL    HW214052   6.036   0.743   3.503
 4385SOL     OW14053   4.475   2.384   5.151
 4385SOL    HW114054   4.389   2.409   5.105
 4385SOL    HW214055   4.472   2.288   5.177
 4386SOL     OW14056   1.436   3.749   5.026
 4386SOL    HW114057   1.362   3.686   5.004
 4386SOL    HW214058   1.402   3.821   5.087
 4387SOL     OW14059   6.482   2.706   1.654
 4387SOL    HW114060   6.519   2.678   1.565
 4387SOL    HW214061   6.557   2.718   1.719
 4388SOL     OW14062   4.854   2.148   6.118
 4388SOL    HW114063   4.921   2.221   6.111
 4388SOL    HW214064   4.762   2.186   6.108
 4389SOL     OW14065   6.504   3.596   1.178
 4389SOL    HW114066   6.472   3.537   1.104
 4389SOL    HW214067   6.579   3.550   1.227
 4390SOL     OW14068   4.427   6.810   1.121
 4390SOL    HW114069   4.487   6.840   1.195
 4390SOL    HW214070   4.441   6.870   1.041
 4391SOL     OW14071   2.749   4.831   6.163
 4391SOL    HW114072   2.752   4.842   6.263
 4391SOL    HW214073   2.679   4.892   6.126
 4392SOL     OW14074   0.767   1.728   4.693
 4392SOL    HW114075   0.773   1.739   4.792
 4392SOL    HW214076   0.811   1.806   4.649
 4393SOL     OW14077   6.106   0.704   1.843
 4393SOL    HW114078   6.102   0.637   1.769
 4393SOL    HW214079   6.065   0.665   1.925
 4394SOL     OW14080   1.096   6.466   1.503
 4394SOL    HW114081   1.147   6.453   1.419
 4394SOL    HW214082   1.140   6.537   1.558
 4395SOL     OW14083   1.664   0.365   1.390
 4395SOL    HW114084   1.643   0.420   1.471
 4395SOL    HW214085   1.699   0.425   1.318
 4396SOL     OW14086   1.605   1.713   3.676
 4396SOL    HW114087   1.698   1.676   3.678
 4396SOL    HW214088   1.548   1.662   3.740
 4397SOL     OW14089   1.753   3.010   4.628
 4397SOL    HW114090   1.743   2.938   4.559
 4397SOL    HW214091   1.678   3.076   4.618
 4398SOL     OW14092   1.806   3.729   6.368
 4398SOL    HW114093   1.824   3.827   6.367
 4398SOL    HW214094   1.755   3.705   6.450
 4399SOL     OW14095   2.252   6.122   1.980
 4399SOL    HW114096   2.266   6.023   1.974
 4399SOL    HW214097   2.190   6.142   2.057
 4400SOL     OW14098   2.342   6.907   3.715
 4400SOL    HW114099   2.277   6.862   3.654
 4400SOL    HW214100   2.419   6.846   3.733
 4401SOL     OW14101   4.098   6.412   5.055
 4401SOL    HW114102   4.009   6.444   5.024
 4401SOL    HW214103   4.086   6.341   5.125
 4402SOL     OW14104   0.744   0.779   2.287
 4402SOL    HW114105   0.672   0.738   2.231
 4402SOL    HW214106   0.830   0.780   2.236
 4403SOL     OW14107   1.106   6.319   0.936
 4403SOL    HW114108   1.007   6.322   0.952
 4403SOL    HW214109   1.153   6.378   1.001
 4404SOL     OW14110   1.249   5.781   5.534
 4404SOL    HW114111   1.276   5.693   5.495
 4404SOL    HW214112   1.251   5.775   5.634
 4405SOL     OW14113   2.563   4.805   2.896
 4405SOL    HW114114   2.484   4.810   2.835
 4405SOL    HW214115   2.635   4.751   2.852
 4406SOL     OW14116   6.713   3.471   1.307
 4406SOL    HW114117   6.762   3.499   1.390
 4406SOL    HW214118   6.765   3.400   1.260
 4407SOL     OW14119   0.220   5.511   1.067
 4407SOL    HW114120   0.316   5.538   1.081
 4407SOL    HW214121   0.217   5.425   1.017
 4408SOL     OW14122   3.022   6.082   6.899
 4408SOL    HW114123   3.032   6.133   6.984
 4408SOL    HW214124   2.995   6.144   6.825
 4409SOL     OW14125   4.085   1.015   1.491
 4409SOL    HW114126   4.030   0.965   1.424
 4409SOL    HW214127   4.165   0.961   1.516
 4410SOL     OW14128   0.142   5.728   0.631
 4410SOL    HW114129   0.042   5.726   0.635
 4410SOL    HW214130   0.176   5.807   0.682
 4411SOL     OW14131   3.865   4.876   5.475
 4411SOL    HW114132   3.791   4.838   5.420
 4411SOL    HW214133   3.832   4.892   5.568
 4412SOL     OW14134   5.136   6.397   4.197
 4412SOL    HW114135   5.212   6.358   4.249
 4412SOL    HW214136   5.056   6.338   4.207
 4413SOL     OW14137   4.727   6.270   3.990
 4413SOL    HW114138   4.761   6.362   4.007
 4413SOL    HW214139   4.642   6.256   4.040
 4414SOL     OW14140   4.627   5.568   1.661
 4414SOL    HW114141   4.723   5.538   1.663
 4414SOL    HW214142   4.569   5.498   1.703
 4415SOL     OW14143   3.698   3.801   0.836
 4415SOL    HW114144   3.729   3.706   0.840
 4415SOL    HW214145   3.776   3.861   0.817
 4416SOL     OW14146   3.917   1.461   3.994
 4416SOL    HW114147   3.962   1.418   4.071
 4416SOL    HW214148   3.847   1.524   4.027
 4417SOL     OW14149   6.230   3.057   4.230
 4417SOL    HW114150   6.189   2.981   4.179
 4417SOL    HW214151   6.157   3.112   4.272
 4418SOL     OW14152   6.254   2.033   2.276
 4418SOL    HW114153   6.240   2.083   2.361
 4418SOL    HW214154   6.169   1.987   2.250
 4419SOL     OW14155   6.518   6.539   6.091
 4419SOL    HW114156   6.525   6.567   5.995
 4419SOL    HW214157   6.432   6.573   6.129
 4420SOL     OW14158   3.275   1.619   1.096
 4420SOL    HW114159   3.364   1.632   1.139
 4420SOL    HW214160   3.230   1.707   1.085
 4421SOL     OW14161   1.612   2.791   5.482
 4421SOL    HW114162   1.691   2.734   5.506
 4421SOL    HW214163   1.644   2.875   5.438
 4422SOL     OW14164   0.951   5.071   0.062
 4422SOL    HW114165   1.035   5.100   0.109
 4422SOL    HW214166   0.964   5.079   6.988
 4423SOL     OW14167   6.654   4.611   5.857
 4423SOL    HW114168   6.733   4.670   5.873
 4423SOL    HW214169   6.621   4.573   5.944
 4424SOL     OW14170   5.237   5.617   4.223
 4424SOL    HW114171   5.309   5.681   4.249
 4424SOL    HW214172   5.210   5.634   4.128
 4425SOL     OW14173   1.859   5.612   1.141
 4425SOL    HW114174   1.918   5.532   1.139
 4425SOL    HW214175   1.911   5.693   1.113
 4426SOL     OW14176   0.894   0.552   4.087
 4426SOL    HW114177   0.857   0.544   3.994
 4426SOL    HW214178   0.992   0.535   4.085
 4427SOL     OW14179   4.116   6.261   2.827
 4427SOL    HW114180   4.088   6.326   2.897
 4427SOL    HW214181   4.092   6.168   2.857
 4428SOL     OW14182   5.125   0.909   4.708
 4428SOL    HW114183   5.161   1.000   4.686
 4428SOL    HW214184   5.144   0.888   4.804
 4429SOL     OW14185   3.028   6.609   3.001
 4429SOL    HW114186   3.103   6.641   2.943
 4429SOL    HW214187   3.052   6.520   3.040
 4430SOL     OW14188   5.825   5.230   4.706
 4430SOL    HW114189   5.834   5.304   4.774
 4430SOL    HW214190   5.753   5.253   4.641
 4431SOL     OW14191   3.275   0.395   3.800
 4431SOL    HW114192   3.205   0.466   3.803
 4431SOL    HW214193   3.240   0.311   3.842
 4432SOL     OW14194   2.205   3.363   6.411
 4432SOL    HW114195   2.123   3.379   6.357
 4432SOL    HW214196   2.280   3.334   6.351
 4433SOL     OW14197   0.467   2.317   4.172
 4433SOL    HW114198   0.521   2.370   4.106
 4433SOL    HW214199   0.402   2.260   4.122
 4434SOL     OW14200   5.694   1.622   1.841
 4434SOL    HW114201   5.604   1.658   1.866
 4434SOL    HW214202   5.765   1.690   1.864
 4435SOL     OW14203   3.892   3.989   0.722
 4435SOL    HW114204   3.900   3.920   0.650
 4435SOL    HW214205   3.977   4.041   0.728
 4436SOL     OW14206   3.767   1.803   1.489
 4436SOL    HW114207   3.715   1.886   1.471
 4436SOL    HW214208   3.854   1.827   1.532
 4437SOL     OW14209   0.328   3.385   2.697
 4437SOL    HW114210   0.274   3.462   2.663
 4437SOL    HW214211   0.293   3.357   2.786
 4438SOL     OW14212   4.588   0.161   5.622
 4438SOL    HW114213   4.623   0.234   5.563
 4438SOL    HW214214   4.620   0.073   5.587
 4439SOL     OW14215   1.156   5.070   3.014
 4439SOL    HW114216   1.060   5.055   2.991
 4439SOL    HW214217   1.172   5.043   3.109
 4440SOL     OW14218   3.059   4.169   0.968
 4440SOL    HW114219   3.033   4.103   1.037
 4440SOL    HW214220   2.977   4.213   0.931
 4441SOL     OW14221   0.145   1.633   0.591
 4441SOL    HW114222   0.177   1.703   0.526
 4441SOL    HW214223   0.217   1.615   0.658
 4442SOL     OW14224   1.186   5.248   5.831
 4442SOL    HW114225   1.183   5.339   5.791
 4442SOL    HW214226   1.149   5.182   5.766
 4443SOL     OW14227   0.734   4.729   6.399
 4443SOL    HW114228   0.698   4.720   6.306
 4443SOL    HW214229   0.827   4.691   6.402
 4444SOL     OW14230   4.554   3.915   0.387
 4444SOL    HW114231   4.523   3.871   0.471
 4444SOL    HW214232   4.617   3.855   0.339
 4445SOL     OW14233   1.228   5.360   7.017
 4445SOL    HW114234   1.313   5.406   6.989
 4445SOL    HW214235   1.202   5.392   0.084
 4446SOL     OW14236   5.424   1.747   0.280
 4446SOL    HW114237   5.365   1.740   0.361
 4446SOL    HW214238   5.417   1.663   0.227
 4447SOL     OW14239   5.978   4.807   5.445
 4447SOL    HW114240   5.903   4.822   5.510
 4447SOL    HW214241   5.973   4.875   5.372
 4448SOL     OW14242   2.961   0.066   1.071
 4448SOL    HW114243   2.876   0.082   1.121
 4448SOL    HW214244   2.942   0.015   0.987
 4449SOL     OW14245   4.447   1.107   6.520
 4449SOL    HW114246   4.393   1.073   6.597
 4449SOL    HW214247   4.432   1.205   6.508
 4450SOL     OW14248   3.305   1.807   0.147
 4450SOL    HW114249   3.348   1.863   0.218
 4450SOL    HW214250   3.210   1.786   0.173
 4451SOL     OW14251   4.804   4.687   4.375
 4451SOL    HW114252   4.864   4.767   4.363
 4451SOL    HW214253   4.789   4.644   4.286
 4452SOL     OW14254   5.900   5.963   4.354
 4452SOL    HW114255   5.903   5.869   4.319
 4452SOL    HW214256   5.991   6.004   4.345
 4453SOL     OW14257   1.154   3.062   1.730
 4453SOL    HW114258   1.168   3.060   1.829
 4453SOL    HW214259   1.156   3.156   1.697
 4454SOL     OW14260   0.471   1.408   6.707
 4454SOL    HW114261   0.534   1.344   6.662
 4454SOL    HW214262   0.424   1.360   6.782
 4455SOL     OW14263   5.864   5.635   5.208
 4455SOL    HW114264   5.768   5.622   5.234
 4455SOL    HW214265   5.870   5.645   5.109
 4456SOL     OW14266   2.284   6.155   3.561
 4456SOL    HW114267   2.331   6.097   3.627
 4456SOL    HW214268   2.305   6.123   3.468
 4457SOL     OW14269   1.908   2.147   4.909
 4457SOL    HW114270   1.982   2.081   4.922
 4457SOL    HW214271   1.833   2.125   4.971
 4458SOL     OW14272   2.172   3.534   1.413
 4458SOL    HW114273   2.131   3.609   1.465
 4458SOL    HW214274   2.194   3.459   1.476
 4459SOL     OW14275   2.122   1.586   4.328
 4459SOL    HW114276   2.166   1.644   4.259
 4459SOL    HW214277   2.128   1.491   4.299
 4460SOL     OW14278   0.510   3.587   4.558
 4460SOL    HW114279   0.504   3.496   4.519
 4460SOL    HW214280   0.606   3.616   4.561
 4461SOL     OW14281   1.719   0.762   1.286
 4461SOL    HW114282   1.749   0.673   1.253
 4461SOL    HW214283   1.715   0.827   1.210
 4462SOL     OW14284   5.995   3.821   2.486
 4462SOL    HW114285   5.999   3.721   2.481
 4462SOL    HW214286   5.899   3.851   2.484
 4463SOL     OW14287   4.905   1.561   1.126
 4463SOL    HW114288   5.004   1.571   1.110
 4463SOL    HW214289   4.887   1.554   1.224
 4464SOL     OW14290   0.886   5.666   6.980
 4464SOL    HW114291   0.807   5.659   6.920
 4464SOL    HW214292   0.857   5.649   0.050
 4465SOL     OW14293   2.745   5.446   0.368
 4465SOL    HW114294   2.800   5.497   0.435
 4465SOL    HW214295   2.738   5.500   0.283
 4466SOL     OW14296   1.897   2.103   3.221
 4466SOL    HW114297   1.889   2.003   3.227
 4466SOL    HW214298   1.833   2.137   3.152
 4467SOL     OW14299   2.586   5.739   3.891
 4467SOL    HW114300   2.610   5.726   3.795
 4467SOL    HW214301   2.607   5.833   3.919
 4468SOL     OW14302   1.199   3.823   0.785
 4468SOL    HW114303   1.104   3.850   0.798
 4468SOL    HW214304   1.242   3.807   0.875
 4469SOL     OW14305   2.314   0.707   1.289
 4469SOL    HW114306   2.267   0.763   1.357
 4469SOL    HW214307   2.382   0.649   1.335
 4470SOL     OW14308   0.668   0.920   2.050
 4470SOL    HW114309   0.583   0.946   2.096
 4470SOL    HW214310   0.742   0.914   2.118
 4471SOL     OW14311   2.187   3.047   6.578
 4471SOL    HW114312   2.229   2.960   6.606
 4471SOL    HW214313   2.165   3.101   6.659
 4472SOL     OW14314   1.282   2.493   0.837
 4472SOL    HW114315   1.242   2.439   0.911
 4472SOL    HW214316   1.280   2.590   0.862
 4473SOL     OW14317   6.410   2.972   3.866
 4473SOL    HW114318   6.486   2.941   3.808
 4473SOL    HW214319   6.425   3.067   3.893
 4474SOL     OW14320   2.824   0.583   1.657
 4474SOL    HW114321   2.736   0.604   1.700
 4474SOL    HW214322   2.878   0.666   1.647
 4475SOL     OW14323   1.008   3.780   1.979
 4475SOL    HW114324   0.976   3.761   1.886
 4475SOL    HW214325   0.965   3.716   2.043
 4476SOL     OW14326   5.884   1.109   4.478
 4476SOL    HW114327   5.811   1.044   4.499
 4476SOL    HW214328   5.854   1.202   4.498
 4477SOL     OW14329   1.838   0.300   5.259
 4477SOL    HW114330   1.828   0.236   5.182
 4477SOL    HW214331   1.750   0.343   5.279
 4478SOL     OW14332   1.152   0.363   1.517
 4478SOL    HW114333   1.093   0.362   1.597
 4478SOL    HW214334   1.239   0.318   1.538
 4479SOL     OW14335   1.033   1.539   0.240
 4479SOL    HW114336   1.113   1.490   0.273
 4479SOL    HW214337   1.000   1.602   0.310
 4480SOL     OW14338   0.787   4.229   4.705
 4480SOL    HW114339   0.740   4.142   4.690
 4480SOL    HW214340   0.787   4.251   4.802
 4481SOL     OW14341   2.396   5.484   5.205
 4481SOL    HW114342   2.330   5.474   5.280
 4481SOL    HW214343   2.473   5.539   5.237
 4482SOL     OW14344   2.548   3.980   6.128
 4482SOL    HW114345   2.637   3.935   6.131
 4482SOL    HW214346   2.560   4.075   6.099
 4483SOL     OW14347   0.625   2.607   1.833
 4483SOL    HW114348   0.713   2.596   1.787
 4483SOL    HW214349   0.551   2.584   1.769
 4484SOL     OW14350   2.481   3.114   0.340
 4484SOL    HW114351   2.542   3.092   0.416
 4484SOL    HW214352   2.427   3.195   0.363
 4485SOL     OW14353   4.730   2.475   5.091
 4485SOL    HW114354   4.649   2.418   5.080
 4485SOL    HW214355   4.795   2.431   5.152
 4486SOL     OW14356   5.715   4.970   5.603
 4486SOL    HW114357   5.771   4.906   5.655
 4486SOL    HW214358   5.623   4.975   5.642
 4487SOL     OW14359   1.802   2.755   6.734
 4487SOL    HW114360   1.860   2.692   6.682
 4487SOL    HW214361   1.853   2.840   6.749
 4488SOL     OW14362   1.212   3.447   3.867
 4488SOL    HW114363   1.207   3.509   3.789
 4488SOL    HW214364   1.179   3.357   3.841
 4489SOL     OW14365   5.062   5.271   5.339
 4489SOL    HW114366   5.062   5.202   5.267
 4489SOL    HW214367   4.983   5.257   5.399
 4490SOL     OW14368   5.716   2.024   1.168
 4490SOL    HW114369   5.767   2.110   1.177
 4490SOL    HW214370   5.618   2.043   1.175
 4491SOL     OW14371   0.623   3.620   3.063
 4491SOL    HW114372   0.610   3.604   3.161
 4491SOL    HW214373   0.555   3.686   3.031
 4492SOL     OW14374   5.940   1.142   1.608
 4492SOL    HW114375   5.892   1.167   1.692
 4492SOL    HW214376   5.891   1.068   1.562
 4493SOL     OW14377   5.504   6.390   4.768
 4493SOL    HW114378   5.562   6.439   4.832
 4493SOL    HW214379   5.449   6.455   4.716
 4494SOL     OW14380   0.781   1.064   5.703
 4494SOL    HW114381   0.715   0.990   5.694
 4494SOL    HW214382   0.835   1.050   5.787
 4495SOL     OW14383   3.713   6.482   2.564
 4495SOL    HW114384   3.665   6.419   2.625
 4495SOL    HW214385   3.779   6.535   2.617
 4496SOL     OW14386   4.733   6.092   6.827
 4496SOL    HW114387   4.728   6.017   6.762
 4496SOL    HW214388   4.750   6.178   6.777
 4497SOL     OW14389   4.286   2.306   0.195
 4497SOL    HW114390   4.190   2.303   0.219
 4497SOL    HW214391   4.296   2.319   0.096
 4498SOL     OW14392   6.956   5.233   6.484
 4498SOL    HW114393   6.963   5.144   6.529
 4498SOL    HW214394   6.976   5.305   6.550
 4499SOL     OW14395   6.178   1.675   3.501
 4499SOL    HW114396   6.110   1.748   3.492
 4499SOL    HW214397   6.248   1.686   3.431
 4500SOL     OW14398   4.254   4.610   6.447
 4500SOL    HW114399   4.219   4.521   6.476
 4500SOL    HW214400   4.279   4.664   6.528
 4501SOL     OW14401   5.886   2.465   2.308
 4501SOL    HW114402   5.908   2.504   2.219
 4501SOL    HW214403   5.927   2.374   2.316
 4502SOL     OW14404   0.900   3.890   0.079
 4502SOL    HW114405   0.856   3.841   0.003
 4502SOL    HW214406   0.960   3.961   0.043
 4503SOL     OW14407   2.915   0.210   2.227
 4503SOL    HW114408   2.980   0.143   2.191
 4503SOL    HW214409   2.946   0.302   2.206
 4504SOL     OW14410   6.683   2.151   3.971
 4504SOL    HW114411   6.688   2.125   4.068
 4504SOL    HW214412   6.739   2.088   3.918
 4505SOL     OW14413   6.815   4.252   2.412
 4505SOL    HW114414   6.885   4.181   2.425
 4505SOL    HW214415   6.806   4.306   2.495
 4506SOL     OW14416   5.488   3.018   3.758
 4506SOL    HW114417   5.389   3.020   3.768
 4506SOL    HW214418   5.512   3.028   3.661
 4507SOL     OW14419   6.877   3.321   3.386
 4507SOL    HW114420   6.801   3.312   3.321
 4507SOL    HW214421   6.895   3.418   3.402
 4508SOL     OW14422   1.224   4.462   0.268
 4508SOL    HW114423   1.306   4.459   0.326
 4508SOL    HW214424   1.224   4.546   0.214
 4509SOL     OW14425   4.923   2.040   2.614
 4509SOL    HW114426   4.858   2.099   2.661
 4509SOL    HW214427   4.923   2.061   2.516
 4510SOL     OW14428   4.361   1.634   4.073
 4510SOL    HW114429   4.379   1.719   4.124
 4510SOL    HW214430   4.275   1.594   4.105
 4511SOL     OW14431   6.879   3.834   1.149
 4511SOL    HW114432   6.825   3.768   1.097
 4511SOL    HW214433   6.883   3.806   1.245
 4512SOL     OW14434   2.954   2.292   6.146
 4512SOL    HW114435   2.906   2.299   6.059
 4512SOL    HW214436   3.042   2.246   6.132
 4513SOL     OW14437   0.469   5.844   6.801
 4513SOL    HW114438   0.380   5.871   6.763
 4513SOL    HW214439   0.542   5.882   6.744
 4514SOL     OW14440   3.507   3.141   6.713
 4514SOL    HW114441   3.413   3.143   6.746
 4514SOL    HW214442   3.541   3.234   6.702
 4515SOL     OW14443   5.543   1.171   4.745
 4515SOL    HW114444   5.636   1.190   4.712
 4515SOL    HW214445   5.510   1.086   4.704
 4516SOL     OW14446   3.092   1.014   5.599
 4516SOL    HW114447   3.006   0.981   5.639
 4516SOL    HW214448   3.131   1.085   5.658
 4517SOL     OW14449   4.405   6.978   6.658
 4517SOL    HW114450   4.401   7.016   6.750
 4517SOL    HW214451   4.482   7.019   6.608
 4518SOL     OW14452   1.375   6.870   1.149
 4518SOL    HW114453   1.424   6.895   1.232
 4518SOL    HW214454   1.414   6.786   1.112
 4519SOL     OW14455   5.020   6.664   0.138
 4519SOL    HW114456   4.939   6.636   0.086
 4519SOL    HW214457   5.086   6.590   0.141
 4520SOL     OW14458   4.302   5.948   5.250
 4520SOL    HW114459   4.277   5.962   5.154
 4520SOL    HW214460   4.333   6.035   5.289
 4521SOL     OW14461   4.995   1.607   4.672
 4521SOL    HW114462   5.091   1.636   4.668
 4521SOL    HW214463   4.940   1.664   4.611
 4522SOL     OW14464   5.677   3.709   3.664
 4522SOL    HW114465   5.664   3.666   3.575
 4522SOL    HW214466   5.715   3.643   3.728
 4523SOL     OW14467   0.914   3.781   6.849
 4523SOL    HW114468   1.001   3.827   6.835
 4523SOL    HW214469   0.847   3.816   6.784
 4524SOL     OW14470   0.089   4.105   2.228
 4524SOL    HW114471   0.082   4.049   2.311
 4524SOL    HW214472   7.023   4.112   2.186
 4525SOL     OW14473   2.281   2.272   5.742
 4525SOL    HW114474   2.244   2.360   5.770
 4525SOL    HW214475   2.291   2.270   5.642
 4526SOL     OW14476   0.309   0.802   6.417
 4526SOL    HW114477   0.342   0.708   6.410
 4526SOL    HW214478   0.339   0.842   6.504
 4527SOL     OW14479   7.013   0.141   2.727
 4527SOL    HW114480   6.915   0.130   2.745
 4527SOL    HW214481   0.001   0.195   2.643
 4528SOL     OW14482   3.944   0.418   6.375
 4528SOL    HW114483   3.847   0.403   6.392
 4528SOL    HW214484   3.961   0.516   6.363
 4529SOL     OW14485   2.778   1.237   6.380
 4529SOL    HW114486   2.739   1.153   6.342
 4529SOL    HW214487   2.877   1.235   6.369
 4530SOL     OW14488   2.440   6.152   4.611
 4530SOL    HW114489   2.361   6.196   4.653
 4530SOL    HW214490   2.463   6.200   4.526
 4531SOL     OW14491   1.460   4.149   6.658
 4531SOL    HW114492   1.470   4.077   6.589
 4531SOL    HW214493   1.381   4.206   6.636
 4532SOL     OW14494   4.904   0.710   2.673
 4532SOL    HW114495   4.909   0.616   2.637
 4532SOL    HW214496   4.858   0.768   2.606
 4533SOL     OW14497   1.519   1.080   2.698
 4533SOL    HW114498   1.435   1.133   2.712
 4533SOL    HW214499   1.515   0.996   2.751
 4534SOL     OW14500   4.246   1.890   5.096
 4534SOL    HW114501   4.315   1.819   5.088
 4534SOL    HW214502   4.156   1.851   5.077
 4535SOL     OW14503   3.525   1.656   1.231
 4535SOL    HW114504   3.543   1.683   1.326
 4535SOL    HW214505   3.538   1.734   1.171
 4536SOL     OW14506   2.426   1.764   5.602
 4536SOL    HW114507   2.524   1.751   5.593
 4536SOL    HW214508   2.395   1.830   5.533
 4537SOL     OW14509   4.007   3.877   3.417
 4537SOL    HW114510   3.918   3.910   3.450
 4537SOL    HW214511   4.080   3.928   3.462
 4538SOL     OW14512   0.996   2.309   1.830
 4538SOL    HW114513   1.076   2.271   1.784
 4538SOL    HW214514   0.969   2.248   1.905
 4539SOL     OW14515   2.699   5.426   4.666
 4539SOL    HW114516   2.634   5.499   4.648
 4539SOL    HW214517   2.685   5.391   4.758
 4540SOL     OW14518   0.995   0.530   0.774
 4540SOL    HW114519   1.083   0.525   0.820
 4540SOL    HW214520   0.930   0.580   0.832
 4541SOL     OW14521   4.490   1.899   6.687
 4541SOL    HW114522   4.506   1.805   6.719
 4541SOL    HW214523   4.560   1.959   6.725
 4542SOL     OW14524   6.609   2.877   1.257
 4542SOL    HW114525   6.599   2.834   1.167
 4542SOL    HW214526   6.615   2.807   1.327
 4543SOL     OW14527   4.260   2.101   0.886
 4543SOL    HW114528   4.353   2.138   0.886
 4543SOL    HW214529   4.230   2.086   0.980
 4544SOL     OW14530   4.723   4.700   1.165
 4544SOL    HW114531   4.702   4.757   1.244
 4544SOL    HW214532   4.822   4.688   1.157
 4545SOL     OW14533   0.591   4.293   5.395
 4545SOL    HW114534   0.656   4.343   5.337
 4545SOL    HW214535   0.518   4.256   5.339
 4546SOL     OW14536   3.234   0.711   5.962
 4546SOL    HW114537   3.211   0.668   6.050
 4546SOL    HW214538   3.224   0.644   5.889
 4547SOL     OW14539   6.418   0.419   6.987
 4547SOL    HW114540   6.516   0.429   6.969
 4547SOL    HW214541   6.390   0.325   6.972
 4548SOL     OW14542   2.412   2.683   3.205
 4548SOL    HW114543   2.466   2.619   3.150
 4548SOL    HW214544   2.409   2.772   3.159
 4549SOL     OW14545   4.882   4.482   2.628
 4549SOL    HW114546   4.794   4.436   2.637
 4549SOL    HW214547   4.924   4.491   2.719
 4550SOL     OW14548   0.830   4.423   3.329
 4550SOL    HW114549   0.917   4.461   3.360
 4550SOL    HW214550   0.759   4.445   3.396
 4551SOL     OW14551   0.943   4.048   5.094
 4551SOL    HW114552   0.845   4.054   5.077
 4551SOL    HW214553   0.984   3.987   5.026
 4552SOL     OW14554   5.935   1.754   1.868
 4552SOL    HW114555   5.992   1.835   1.885
 4552SOL    HW214556   5.940   1.730   1.771
 4553SOL     OW14557   5.214   4.308   6.819
 4553SOL    HW114558   5.121   4.335   6.795
 4553SOL    HW214559   5.276   4.384   6.800
 4554SOL     OW14560   0.324   6.251   1.044
 4554SOL    HW114561   0.346   6.184   1.115
 4554SOL    HW214562   0.255   6.314   1.079
 4555SOL     OW14563   1.065   0.752   6.519
 4555SOL    HW114564   1.138   0.688   6.498
 4555SOL    HW214565   1.093   0.844   6.495
 4556SOL     OW14566   6.106   3.080   5.691
 4556SOL    HW114567   6.021   3.032   5.669
 4556SOL    HW214568   6.085   3.173   5.720
 4557SOL     OW14569   6.043   4.914   4.894
 4557SOL    HW114570   6.060   4.881   4.801
 4557SOL    HW214571   6.090   4.854   4.959
 4558SOL     OW14572   6.862   3.310   4.997
 4558SOL    HW114573   6.927   3.286   5.069
 4558SOL    HW214574   6.911   3.349   4.919
 4559SOL     OW14575   0.156   3.050   2.733
 4559SOL    HW114576   0.176   2.953   2.715
 4559SOL    HW214577   0.071   3.057   2.786
 4560SOL     OW14578   6.181   4.029   2.409
 4560SOL    HW114579   6.123   3.959   2.449
 4560SOL    HW214580   6.204   4.004   2.315
 4561SOL     OW14581   3.388   2.083   3.901
 4561SOL    HW114582   3.476   2.073   3.947
 4561SOL    HW214583   3.395   2.053   3.806
 4562SOL     OW14584   2.370   6.239   0.581
 4562SOL    HW114585   2.301   6.178   0.619
 4562SOL    HW214586   2.419   6.284   0.655
 4563SOL     OW14587   6.838   3.497   1.555
 4563SOL    HW114588   6.773   3.526   1.625
 4563SOL    HW214589   6.922   3.465   1.600
 4564SOL     OW14590   6.865   4.476   2.021
 4564SOL    HW114591   6.916   4.439   2.098
 4564SOL    HW214592   6.883   4.575   2.013
 4565SOL     OW14593   1.742   0.647   4.706
 4565SOL    HW114594   1.788   0.599   4.780
 4565SOL    HW214595   1.810   0.692   4.648
 4566SOL     OW14596   0.510   3.883   1.389
 4566SOL    HW114597   0.567   3.947   1.336
 4566SOL    HW214598   0.431   3.856   1.334
 4567SOL     OW14599   6.920   0.365   6.887
 4567SOL    HW114600   6.887   0.336   6.798
 4567SOL    HW214601   7.001   0.422   6.876
 4568SOL     OW14602   0.636   3.997   4.754
 4568SOL    HW114603   0.684   3.948   4.682
 4568SOL    HW214604   0.557   4.045   4.715
 4569SOL     OW14605   3.304   0.896   2.732
 4569SOL    HW114606   3.311   0.871   2.828
 4569SOL    HW214607   3.338   0.989   2.718
 4570SOL     OW14608   6.276   6.129   1.944
 4570SOL    HW114609   6.257   6.033   1.928
 4570SOL    HW214610   6.372   6.149   1.925
 4571SOL     OW14611   4.795   2.868   6.223
 4571SOL    HW114612   4.821   2.784   6.175
 4571SOL    HW214613   4.794   2.851   6.322
 4572SOL     OW14614   2.506   2.282   6.564
 4572SOL    HW114615   2.572   2.257   6.494
 4572SOL    HW214616   2.488   2.202   6.622
 4573SOL     OW14617   1.015   6.753   0.714
 4573SOL    HW114618   0.915   6.748   0.711
 4573SOL    HW214619   1.046   6.818   0.645
 4574SOL     OW14620   6.100   4.001   6.822
 4574SOL    HW114621   6.186   4.001   6.873
 4574SOL    HW214622   6.034   4.060   6.869
 4575SOL     OW14623   6.240   1.111   4.119
 4575SOL    HW114624   6.263   1.198   4.162
 4575SOL    HW214625   6.262   1.036   4.182
 4576SOL     OW14626   2.734   4.846   5.126
 4576SOL    HW114627   2.642   4.877   5.102
 4576SOL    HW214628   2.748   4.753   5.092
 4577SOL     OW14629   1.076   2.394   2.714
 4577SOL    HW114630   1.014   2.317   2.705
 4577SOL    HW214631   1.158   2.367   2.765
 4578SOL     OW14632   0.158   0.660   3.364
 4578SOL    HW114633   0.155   0.561   3.355
 4578SOL    HW214634   0.179   0.701   3.276
 4579SOL     OW14635   4.670   0.649   1.729
 4579SOL    HW114636   4.699   0.725   1.788
 4579SOL    HW214637   4.656   0.682   1.636
 4580SOL     OW14638   5.473   4.053   0.374
 4580SOL    HW114639   5.449   4.003   0.457
 4580SOL    HW214640   5.565   4.030   0.346
 4581SOL     OW14641   2.878   6.639   2.375
 4581SOL    HW114642   2.879   6.539   2.378
 4581SOL    HW214643   2.797   6.670   2.325
 4582SOL     OW14644   4.785   0.552   3.073
 4582SOL    HW114645   4.697   0.510   3.093
 4582SOL    HW214646   4.771   0.645   3.039
 4583SOL     OW14647   2.015   1.080   6.060
 4583SOL    HW114648   1.972   0.997   6.024
 4583SOL    HW214649   1.950   1.129   6.118
 4584SOL     OW14650   1.861   7.002   5.568
 4584SOL    HW114651   1.910   0.061   5.543
 4584SOL    HW214652   1.880   6.980   5.664
 4585SOL     OW14653   1.767   3.749   3.582
 4585SOL    HW114654   1.677   3.729   3.622
 4585SOL    HW214655   1.838   3.704   3.635
 4586SOL     OW14656   4.865   4.300   0.515
 4586SOL    HW114657   4.826   4.227   0.459
 4586SOL    HW214658   4.828   4.294   0.608
 4587SOL     OW14659   3.206   3.305   5.007
 4587SOL    HW114660   3.278   3.286   5.074
 4587SOL    HW214661   3.215   3.399   4.974
 4588SOL     OW14662   3.292   3.386   5.776
 4588SOL    HW114663   3.334   3.444   5.706
 4588SOL    HW214664   3.314   3.291   5.758
 4589SOL     OW14665   5.951   5.588   2.075
 4589SOL    HW114666   5.857   5.556   2.084
 4589SOL    HW214667   5.961   5.641   1.991
 4590SOL     OW14668   3.590   5.775   2.203
 4590SOL    HW114669   3.541   5.860   2.222
 4590SOL    HW214670   3.526   5.708   2.165
 4591SOL     OW14671   2.630   0.884   5.360
 4591SOL    HW114672   2.565   0.920   5.427
 4591SOL    HW214673   2.680   0.960   5.318
 4592SOL     OW14674   2.840   1.655   3.463
 4592SOL    HW114675   2.777   1.580   3.441
 4592SOL    HW214676   2.796   1.717   3.528
 4593SOL     OW14677   6.850   5.790   2.524
 4593SOL    HW114678   6.899   5.841   2.454
 4593SOL    HW214679   6.869   5.830   2.614
 4594SOL     OW14680   2.681   6.899   2.955
 4594SOL    HW114681   2.716   6.993   2.960
 4594SOL    HW214682   2.612   6.892   2.884
 4595SOL     OW14683   4.803   2.187   5.535
 4595SOL    HW114684   4.822   2.157   5.629
 4595SOL    HW214685   4.713   2.229   5.531
 4596SOL     OW14686   0.353   1.167   1.719
 4596SOL    HW114687   0.296   1.237   1.676
 4596SOL    HW214688   0.314   1.142   1.808
 4597SOL     OW14689   2.203   5.094   6.716
 4597SOL    HW114690   2.222   5.155   6.793
 4597SOL    HW214691   2.109   5.061   6.723
 4598SOL     OW14692   2.230   5.260   0.033
 4598SOL    HW114693   2.283   5.310   0.102
 4598SOL    HW214694   2.231   5.162   0.054
 4599SOL     OW14695   1.661   3.248   1.817
 4599SOL    HW114696   1.662   3.308   1.737
 4599SOL    HW214697   1.740   3.269   1.875
 4600SOL     OW14698   0.095   6.960   6.262
 4600SOL    HW114699   0.158   6.940   6.337
 4600SOL    HW214700   0.111   0.029   6.230
 4601SOL     OW14701   1.004   0.943   4.662
 4601SOL    HW114702   1.012   1.008   4.587
 4601SOL    HW214703   1.014   0.850   4.628
 4602SOL     OW14704   2.712   0.185   6.220
 4602SOL    HW114705   2.812   0.188   6.221
 4602SOL    HW214706   2.681   0.142   6.135
 4603SOL     OW14707   3.938   6.150   1.494
 4603SOL    HW114708   3.996   6.115   1.421
 4603SOL    HW214709   3.995   6.192   1.565
 4604SOL     OW14710   4.834   6.802   5.685
 4604SOL    HW114711   4.777   6.842   5.613
 4604SOL    HW214712   4.906   6.867   5.711
 4605SOL     OW14713   2.061   0.249   1.699
 4605SOL    HW114714   2.046   0.178   1.630
 4605SOL    HW214715   2.126   0.216   1.768
 4606SOL     OW14716   0.605   6.629   2.501
 4606SOL    HW114717   0.565   6.711   2.460
 4606SOL    HW214718   0.544   6.595   2.573
 4607SOL     OW14719   2.095   3.737   3.305
 4607SOL    HW114720   1.997   3.724   3.292
 4607SOL    HW214721   2.111   3.807   3.375
 4608SOL     OW14722   0.277   3.408   4.165
 4608SOL    HW114723   0.262   3.481   4.231
 4608SOL    HW214724   0.252   3.439   4.074
 4609SOL     OW14725   4.722   5.873   6.665
 4609SOL    HW114726   4.708   5.932   6.586
 4609SOL    HW214727   4.771   5.790   6.638
 4610SOL     OW14728   5.565   2.099   6.920
 4610SOL    HW114729   5.569   2.012   6.871
 4610SOL    HW214730   5.472   2.115   6.952
 4611SOL     OW14731   0.347   0.958   5.790
 4611SOL    HW114732   0.256   0.955   5.749
 4611SOL    HW214733   0.391   1.045   5.766
 4612SOL     OW14734   2.473   5.963   2.379
 4612SOL    HW114735   2.530   5.901   2.325
 4612SOL    HW214736   2.479   6.055   2.341
 4613SOL     OW14737   1.934   4.790   2.688
 4613SOL    HW114738   1.979   4.731   2.621
 4613SOL    HW214739   1.841   4.811   2.658
 4614SOL     OW14740   6.125   3.626   3.842
 4614SOL    HW114741   6.221   3.651   3.843
 4614SOL    HW214742   6.105   3.571   3.761
 4615SOL     OW14743   1.221   0.671   1.517
 4615SOL    HW114744   1.317   0.640   1.518
 4615SOL    HW214745   1.170   0.623   1.588
 4616SOL     OW14746   6.557   2.637   4.930
 4616SOL    HW114747   6.517   2.552   4.896
 4616SOL    HW214748   6.486   2.707   4.935
 4617SOL     OW14749   0.946   2.707   2.142
 4617SOL    HW114750   0.863   2.721   2.088
 4617SOL    HW214751   0.930   2.638   2.211
 4618SOL     OW14752   2.719   3.672   5.520
 4618SOL    HW114753   2.802   3.692   5.468
 4618SOL    HW214754   2.741   3.671   5.618
 4619SOL     OW14755   3.095   6.228   3.939
 4619SOL    HW114756   3.094   6.325   3.916
 4619SOL    HW214757   3.160   6.180   3.880
 4620SOL     OW14758   0.733   5.511   1.260
 4620SOL    HW114759   0.750   5.609   1.247
 4620SOL    HW214760   0.794   5.476   1.331
 4621SOL     OW14761   5.043   0.506   1.705
 4621SOL    HW114762   5.098   0.473   1.628
 4621SOL    HW214763   4.996   0.429   1.749
 4622SOL     OW14764   4.370   5.140   0.866
 4622SOL    HW114765   4.284   5.104   0.902
 4622SOL    HW214766   4.426   5.175   0.941
 4623SOL     OW14767   3.659   5.379   1.508
 4623SOL    HW114768   3.731   5.422   1.453
 4623SOL    HW214769   3.575   5.372   1.455
 4624SOL     OW14770   3.922   1.439   3.265
 4624SOL    HW114771   3.948   1.391   3.349
 4624SOL    HW214772   4.005   1.459   3.212
 4625SOL     OW14773   2.257   5.844   1.882
 4625SOL    HW114774   2.237   5.839   1.785
 4625SOL    HW214775   2.174   5.828   1.935
 4626SOL     OW14776   4.117   3.736   1.750
 4626SOL    HW114777   4.055   3.724   1.673
 4626SOL    HW214778   4.081   3.806   1.812
 4627SOL     OW14779   0.186   5.971   4.826
 4627SOL    HW114780   0.231   5.885   4.801
 4627SOL    HW214781   0.251   6.029   4.875
 4628SOL     OW14782   4.423   4.691   3.041
 4628SOL    HW114783   4.410   4.595   3.016
 4628SOL    HW214784   4.506   4.701   3.095
 4629SOL     OW14785   1.827   5.763   6.391
 4629SOL    HW114786   1.885   5.693   6.433
 4629SOL    HW214787   1.838   5.760   6.291
 4630SOL     OW14788   1.333   5.293   2.347
 4630SOL    HW114789   1.426   5.309   2.380
 4630SOL    HW214790   1.305   5.368   2.287
 4631SOL     OW14791   0.980   0.284   3.820
 4631SOL    HW114792   0.974   0.240   3.910
 4631SOL    HW214793   1.002   0.215   3.751
 4632SOL     OW14794   2.519   5.533   2.886
 4632SOL    HW114795   2.605   5.583   2.871
 4632SOL    HW214796   2.446   5.597   2.906
 4633SOL     OW14797   4.767   1.351   4.426
 4633SOL    HW114798   4.724   1.354   4.516
 4633SOL    HW214799   4.743   1.266   4.380
 4634SOL     OW14800   3.049   3.695   5.060
 4634SOL    HW114801   3.033   3.791   5.084
 4634SOL    HW214802   3.023   3.637   5.137
 4635SOL     OW14803   4.344   5.431   1.201
 4635SOL    HW114804   4.410   5.392   1.137
 4635SOL    HW214805   4.363   5.397   1.293
 4636SOL     OW14806   1.843   5.270   0.586
 4636SOL    HW114807   1.891   5.309   0.664
 4636SOL    HW214808   1.899   5.196   0.547
 4637SOL     OW14809   1.396   6.670   0.928
 4637SOL    HW114810   1.416   6.575   0.904
 4637SOL    HW214811   1.297   6.683   0.936
 4638SOL     OW14812   3.278   5.151   6.703
 4638SOL    HW114813   3.246   5.246   6.707
 4638SOL    HW214814   3.378   5.149   6.706
 4639SOL     OW14815   2.763   2.012   7.019
 4639SOL    HW114816   2.715   2.084   6.969
 4639SOL    HW214817   2.858   2.038   0.008
 4640SOL     OW14818   5.999   2.793   5.264
 4640SOL    HW114819   6.079   2.765   5.209
 4640SOL    HW214820   5.922   2.732   5.244
 4641SOL     OW14821   2.076   6.947   3.915
 4641SOL    HW114822   1.993   6.982   3.958
 4641SOL    HW214823   2.065   6.850   3.896
 4642SOL     OW14824   1.770   1.350   3.810
 4642SOL    HW114825   1.793   1.423   3.746
 4642SOL    HW214826   1.832   1.353   3.888
 4643SOL     OW14827   6.587   2.083   0.220
 4643SOL    HW114828   6.637   2.024   0.284
 4643SOL    HW214829   6.517   2.030   0.173
 4644SOL     OW14830   0.005   0.863   6.103
 4644SOL    HW114831   0.038   0.773   6.073
 4644SOL    HW214832   0.066   0.897   6.175
 4645SOL     OW14833   1.690   0.743   4.048
 4645SOL    HW114834   1.621   0.777   4.112
 4645SOL    HW214835   1.728   0.819   3.996
 4646SOL     OW14836   2.496   5.223   4.390
 4646SOL    HW114837   2.489   5.147   4.454
 4646SOL    HW214838   2.490   5.310   4.439
 4647SOL     OW14839   1.959   6.564   3.077
 4647SOL    HW114840   1.996   6.593   2.989
 4647SOL    HW214841   1.958   6.642   3.140
 4648SOL     OW14842   3.032   0.882   4.007
 4648SOL    HW114843   2.988   0.913   4.091
 4648SOL    HW214844   3.080   0.795   4.025
 4649SOL     OW14845   6.109   0.964   1.056
 4649SOL    HW114846   6.089   1.056   1.091
 4649SOL    HW214847   6.061   0.951   0.969
 4650SOL     OW14848   4.690   5.885   1.094
 4650SOL    HW114849   4.693   5.822   1.171
 4650SOL    HW214850   4.657   5.974   1.126
 4651SOL     OW14851   5.912   3.769   6.126
 4651SOL    HW114852   5.839   3.819   6.174
 4651SOL    HW214853   6.000   3.794   6.166
 4652SOL     OW14854   6.997   5.835   4.089
 4652SOL    HW114855   0.022   5.911   4.131
 4652SOL    HW214856   0.026   5.751   4.101
 4653SOL     OW14857   4.748   5.631   0.278
 4653SOL    HW114858   4.728   5.539   0.312
 4653SOL    HW214859   4.846   5.646   0.278
 4654SOL     OW14860   6.811   6.667   4.971
 4654SOL    HW114861   6.810   6.594   4.903
 4654SOL    HW214862   6.847   6.633   5.057
 4655SOL     OW14863   5.274   3.453   1.834
 4655SOL    HW114864   5.175   3.439   1.831
 4655SOL    HW214865   5.295   3.547   1.808
 4656SOL     OW14866   0.551   0.651   1.341
 4656SOL    HW114867   0.589   0.718   1.405
 4656SOL    HW214868   0.467   0.688   1.300
 4657SOL     OW14869   5.725   6.389   1.645
 4657SOL    HW114870   5.665   6.338   1.582
 4657SOL    HW214871   5.708   6.487   1.634
 4658SOL     OW14872   2.779   2.914   5.631
 4658SOL    HW114873   2.776   2.997   5.687
 4658SOL    HW214874   2.862   2.863   5.652
 4659SOL     OW14875   3.508   4.217   1.338
 4659SOL    HW114876   3.580   4.164   1.383
 4659SOL    HW214877   3.508   4.197   1.240
 4660SOL     OW14878   1.453   0.121   4.012
 4660SOL    HW114879   1.436   0.041   3.955
 4660SOL    HW214880   1.515   0.097   4.086
 4661SOL     OW14881   2.510   4.278   5.746
 4661SOL    HW114882   2.504   4.238   5.655
 4661SOL    HW214883   2.428   4.255   5.798
 4662SOL     OW14884   2.951   0.134   5.319
 4662SOL    HW114885   2.925   0.227   5.296
 4662SOL    HW214886   3.025   0.136   5.387
 4663SOL     OW14887   1.092   6.701   6.910
 4663SOL    HW114888   1.146   6.726   6.990
 4663SOL    HW214889   1.153   6.685   6.832
 4664SOL     OW14890   7.007   6.777   0.536
 4664SOL    HW114891   6.940   6.850   0.553
 4664SOL    HW214892   0.055   6.781   0.605
 4665SOL     OW14893   1.823   0.967   5.728
 4665SOL    HW114894   1.747   1.020   5.690
 4665SOL    HW214895   1.903   0.976   5.667
 4666SOL     OW14896   1.970   2.223   6.991
 4666SOL    HW114897   1.890   2.165   7.005
 4666SOL    HW214898   2.048   2.167   6.964
 4667SOL     OW14899   6.590   4.105   1.904
 4667SOL    HW114900   6.601   4.205   1.904
 4667SOL    HW214901   6.677   4.062   1.880
 4668SOL     OW14902   4.077   2.121   5.114
 4668SOL    HW114903   4.129   2.036   5.110
 4668SOL    HW214904   4.004   2.118   5.046
 4669SOL     OW14905   4.876   0.270   6.983
 4669SOL    HW114906   4.799   0.333   6.979
 4669SOL    HW214907   4.861   0.203   0.031
 4670SOL     OW14908   1.123   3.098   0.086
 4670SOL    HW114909   1.111   3.009   0.129
 4670SOL    HW214910   1.119   3.088   7.011
 4671SOL     OW14911   0.723   3.512   0.070
 4671SOL    HW114912   0.654   3.465   0.015
 4671SOL    HW214913   0.810   3.462   0.065
 4672SOL     OW14914   4.403   4.690   6.081
 4672SOL    HW114915   4.311   4.689   6.121
 4672SOL    HW214916   4.439   4.783   6.084
 4673SOL     OW14917   5.009   0.667   6.841
 4673SOL    HW114918   5.002   0.662   6.940
 4673SOL    HW214919   5.014   0.762   6.812
 4674SOL     OW14920   6.751   1.340   0.359
 4674SOL    HW114921   6.823   1.403   0.389
 4674SOL    HW214922   6.741   1.266   0.425
 4675SOL     OW14923   3.714   6.743   6.436
 4675SOL    HW114924   3.640   6.738   6.369
 4675SOL    HW214925   3.735   6.839   6.454
 4676SOL     OW14926   0.758   6.587   4.557
 4676SOL    HW114927   0.841   6.643   4.559
 4676SOL    HW214928   0.678   6.646   4.550
 4677SOL     OW14929   3.000   0.286   0.250
 4677SOL    HW114930   3.074   0.342   0.214
 4677SOL    HW214931   2.995   0.295   0.349
 4678SOL     OW14932   2.022   5.486   1.911
 4678SOL    HW114933   2.093   5.437   1.960
 4678SOL    HW214934   2.030   5.469   1.812
 4679SOL     OW14935   2.736   1.433   6.084
 4679SOL    HW114936   2.726   1.471   5.992
 4679SOL    HW214937   2.646   1.406   6.119
 4680SOL     OW14938   2.372   5.362   1.373
 4680SOL    HW114939   2.377   5.264   1.393
 4680SOL    HW214940   2.322   5.377   1.288
 4681SOL     OW14941   6.979   6.245   4.484
 4681SOL    HW114942   6.977   6.158   4.436
 4681SOL    HW214943   6.885   6.279   4.496
 4682SOL     OW14944   4.187   5.555   6.795
 4682SOL    HW114945   4.225   5.468   6.764
 4682SOL    HW214946   4.165   5.611   6.716
 4683SOL     OW14947   5.745   3.872   2.565
 4683SOL    HW114948   5.782   3.826   2.646
 4683SOL    HW214949   5.700   3.805   2.506
 4684SOL     OW14950   1.249   2.136   4.092
 4684SOL    HW114951   1.290   2.053   4.130
 4684SOL    HW214952   1.163   2.155   4.138
 4685SOL     OW14953   6.496   5.324   4.669
 4685SOL    HW114954   6.451   5.301   4.756
 4685SOL    HW214955   6.594   5.333   4.684
 4686SOL     OW14956   5.155   5.329   0.365
 4686SOL    HW114957   5.193   5.419   0.343
 4686SOL    HW214958   5.208   5.287   0.438
 4687SOL     OW14959   6.631   4.031   4.655
 4687SOL    HW114960   6.567   3.967   4.698
 4687SOL    HW214961   6.722   4.016   4.692
 4688SOL     OW14962   0.586   3.347   6.528
 4688SOL    HW114963   0.668   3.353   6.585
 4688SOL    HW214964   0.612   3.347   6.431
 4689SOL     OW14965   6.239   0.002   5.659
 4689SOL    HW114966   6.316   7.003   5.718
 4689SOL    HW214967   6.258   0.088   5.612
 4690SOL     OW14968   1.087   1.089   6.703
 4690SOL    HW114969   1.181   1.123   6.718
 4690SOL    HW214970   1.087   1.026   6.626
 4691SOL     OW14971   2.799   4.246   0.862
 4691SOL    HW114972   2.707   4.219   0.889
 4691SOL    HW214973   2.809   4.239   0.763
 4692SOL     OW14974   0.185   5.216   2.739
 4692SOL    HW114975   0.274   5.253   2.764
 4692SOL    HW214976   0.185   5.189   2.643
 4693SOL     OW14977   0.298   1.608   4.641
 4693SOL    HW114978   0.373   1.544   4.622
 4693SOL    HW214979   0.250   1.629   4.556
 4694SOL     OW14980   3.107   0.534   0.118
 4694SOL    HW114981   3.157   0.611   0.078
 4694SOL    HW214982   3.034   0.569   0.177
 4695SOL     OW14983   3.953   3.234   1.719
 4695SOL    HW114984   3.950   3.263   1.624
 4695SOL    HW214985   4.003   3.147   1.726
 4696SOL     OW14986   1.197   3.976   6.038
 4696SOL    HW114987   1.104   4.004   6.011
 4696SOL    HW214988   1.193   3.932   6.128
 4697SOL     OW14989   1.617   3.536   0.799
 4697SOL    HW114990   1.675   3.458   0.819
 4697SOL    HW214991   1.570   3.522   0.712
 4698SOL     OW14992   5.130   4.479   2.065
 4698SOL    HW114993   5.157   4.510   1.974
 4698SOL    HW214994   5.108   4.559   2.122
 4699SOL     OW14995   0.135   6.851   2.155
 4699SOL    HW114996   0.075   6.826   2.231
 4699SOL    HW214997   0.197   6.923   2.184
 4700SOL     OW14998   5.245   2.180   1.627
 4700SOL    HW114999   5.272   2.269   1.591
 4700SOL    HW215000   5.327   2.130   1.656
 4701SOL     OW15001   0.893   1.665   0.028
 4701SOL    HW115002   0.877   1.593   6.984
 4701SOL    HW215003   0.944   1.627   0.104
 4702SOL     OW15004   4.579   4.014   6.971
 4702SOL    HW115005   4.499   4.046   6.921
 4702SOL    HW215006   4.609   4.085   0.010
 4703SOL     OW15007   1.043   1.882   2.995
 4703SOL    HW115008   1.104   1.959   3.015
 4703SOL    HW215009   1.067   1.842   2.906
 4704SOL     OW15010   6.942   5.962   1.206
 4704SOL    HW115011   6.982   5.985   1.118
 4704SOL    HW215012   6.984   5.879   1.242
 4705SOL     OW15013   3.588   2.930   4.139
 4705SOL    HW115014   3.648   2.945   4.218
 4705SOL    HW215015   3.493   2.929   4.170
 4706SOL     OW15016   3.866   5.957   6.653
 4706SOL    HW115017   3.940   5.965   6.587
 4706SOL    HW215018   3.804   5.883   6.626
 4707SOL     OW15019   1.991   5.855   1.096
 4707SOL    HW115020   1.959   5.870   1.189
 4707SOL    HW215021   2.091   5.863   1.093
 4708SOL     OW15022   2.910   2.840   0.658
 4708SOL    HW115023   2.935   2.745   0.641
 4708SOL    HW215024   2.919   2.893   0.574
 4709SOL     OW15025   3.926   5.278   5.048
 4709SOL    HW115026   3.927   5.178   5.041
 4709SOL    HW215027   4.016   5.310   5.080
 4710SOL     OW15028   4.680   1.357   6.602
 4710SOL    HW115029   4.581   1.344   6.607
 4710SOL    HW215030   4.724   1.308   6.678
 4711SOL     OW15031   3.581   0.242   2.608
 4711SOL    HW115032   3.484   0.217   2.613
 4711SOL    HW215033   3.596   0.298   2.526
 4712SOL     OW15034   2.524   4.492   0.895
 4712SOL    HW115035   2.576   4.466   0.976
 4712SOL    HW215036   2.454   4.422   0.877
 4713SOL     OW15037   3.295   4.609   1.513
 4713SOL    HW115038   3.268   4.513   1.512
 4713SOL    HW215039   3.260   4.652   1.596
 4714SOL     OW15040   1.685   1.236   0.856
 4714SOL    HW115041   1.769   1.213   0.905
 4714SOL    HW215042   1.626   1.291   0.915
 4715SOL     OW15043   6.586   3.225   2.251
 4715SOL    HW115044   6.647   3.299   2.224
 4715SOL    HW215045   6.497   3.237   2.207
 4716SOL     OW15046   3.938   4.546   6.333
 4716SOL    HW115047   3.988   4.484   6.394
 4716SOL    HW215048   3.840   4.531   6.342
 4717SOL     OW15049   1.244   5.989   2.544
 4717SOL    HW115050   1.203   5.925   2.609
 4717SOL    HW215051   1.226   5.957   2.451
 4718SOL     OW15052   5.103   1.665   6.528
 4718SOL    HW115053   5.009   1.633   6.515
 4718SOL    HW215054   5.105   1.765   6.524
 4719SOL     OW15055   5.077   3.964   3.091
 4719SOL    HW115056   4.987   3.920   3.101
 4719SOL    HW215057   5.118   3.936   3.004
 4720SOL     OW15058   2.128   6.772   5.827
 4720SOL    HW115059   2.191   6.731   5.893
 4720SOL    HW215060   2.050   6.811   5.875
 4721SOL     OW15061   0.494   2.150   1.182
 4721SOL    HW115062   0.430   2.179   1.254
 4721SOL    HW215063   0.472   2.198   1.097
 4722SOL     OW15064   1.740   6.364   0.245
 4722SOL    HW115065   1.708   6.345   0.338
 4722SOL    HW215066   1.788   6.452   0.244
 4723SOL     OW15067   1.934   6.240   6.069
 4723SOL    HW115068   1.894   6.164   6.018
 4723SOL    HW215069   1.982   6.205   6.149
 4724SOL     OW15070   4.156   6.615   2.563
 4724SOL    HW115071   4.247   6.656   2.575
 4724SOL    HW215072   4.144   6.589   2.468
 4725SOL     OW15073   5.148   6.313   3.121
 4725SOL    HW115074   5.051   6.316   3.096
 4725SOL    HW215075   5.185   6.406   3.123
 4726SOL     OW15076   1.081   3.890   6.565
 4726SOL    HW115077   0.991   3.913   6.600
 4726SOL    HW215078   1.146   3.880   6.641
 4727SOL     OW15079   6.722   5.529   0.239
 4727SOL    HW115080   6.799   5.575   0.195
 4727SOL    HW215081   6.755   5.452   0.292
 4728SOL     OW15082   6.099   1.451   0.616
 4728SOL    HW115083   6.029   1.437   0.686
 4728SOL    HW215084   6.142   1.540   0.629
 4729SOL     OW15085   1.619   0.685   2.604
 4729SOL    HW115086   1.615   0.634   2.519
 4729SOL    HW215087   1.591   0.626   2.680
 4730SOL     OW15088   2.728   6.293   5.260
 4730SOL    HW115089   2.777   6.208   5.277
 4730SOL    HW215090   2.632   6.282   5.287
 4731SOL     OW15091   5.913   0.619   5.226
 4731SOL    HW115092   5.866   0.707   5.223
 4731SOL    HW215093   5.909   0.582   5.319
 4732SOL     OW15094   6.867   3.558   6.627
 4732SOL    HW115095   6.878   3.473   6.576
 4732SOL    HW215096   6.876   3.539   6.725
 4733SOL     OW15097   0.399   3.726   2.965
 4733SOL    HW115098   0.326   3.774   2.915
 4733SOL    HW215099   0.362   3.643   3.006
 4734SOL     OW15100   5.444   2.894   6.839
 4734SOL    HW115101   5.452   2.994   6.845
 4734SOL    HW215102   5.534   2.853   6.857
 4735SOL     OW15103   1.180   4.043   3.775
 4735SOL    HW115104   1.093   4.054   3.727
 4735SOL    HW215105   1.211   3.948   3.766
 4736SOL     OW15106   6.981   0.899   6.488
 4736SOL    HW115107   0.045   0.879   6.445
 4736SOL    HW215108   6.912   0.912   6.417
 4737SOL     OW15109   2.486   4.477   1.944
 4737SOL    HW115110   2.521   4.517   2.029
 4737SOL    HW215111   2.435   4.393   1.965
 4738SOL     OW15112   6.754   6.248   1.576
 4738SOL    HW115113   6.814   6.326   1.560
 4738SOL    HW215114   6.807   6.163   1.575
 4739SOL     OW15115   3.865   0.546   2.493
 4739SOL    HW115116   3.817   0.551   2.406
 4739SOL    HW215117   3.931   0.470   2.490
 4740SOL     OW15118   0.526   1.502   2.582
 4740SOL    HW115119   0.570   1.525   2.668
 4740SOL    HW215120   0.509   1.586   2.530
 4741SOL     OW15121   3.840   2.523   1.418
 4741SOL    HW115122   3.875   2.434   1.390
 4741SOL    HW215123   3.848   2.533   1.517
 4742SOL     OW15124   2.388   6.799   0.004
 4742SOL    HW115125   2.488   6.803   0.006
 4742SOL    HW215126   2.353   6.840   0.089
 4743SOL     OW15127   1.950   3.732   2.552
 4743SOL    HW115128   2.034   3.679   2.562
 4743SOL    HW215129   1.879   3.675   2.511
 4744SOL     OW15130   1.769   5.791   0.846
 4744SOL    HW115131   1.733   5.711   0.797
 4744SOL    HW215132   1.767   5.870   0.785
 4745SOL     OW15133   2.571   3.612   0.354
 4745SOL    HW115134   2.566   3.665   0.438
 4745SOL    HW215135   2.493   3.635   0.295
 4746SOL     OW15136   4.530   5.035   4.515
 4746SOL    HW115137   4.571   4.956   4.560
 4746SOL    HW215138   4.444   5.008   4.472
 4747SOL     OW15139   1.522   3.089   1.050
 4747SOL    HW115140   1.608   3.040   1.038
 4747SOL    HW215141   1.516   3.163   0.983
 4748SOL     OW15142   1.935   6.424   2.081
 4748SOL    HW115143   1.863   6.492   2.092
 4748SOL    HW215144   1.984   6.440   1.996
 4749SOL     OW15145   2.375   6.777   0.426
 4749SOL    HW115146   2.381   6.736   0.517
 4749SOL    HW215147   2.278   6.789   0.402
 4750SOL     OW15148   6.031   3.822   5.149
 4750SOL    HW115149   6.051   3.809   5.246
 4750SOL    HW215150   5.932   3.815   5.134
 4751SOL     OW15151   4.766   1.420   2.125
 4751SOL    HW115152   4.806   1.460   2.207
 4751SOL    HW215153   4.668   1.408   2.137
 4752SOL     OW15154   4.898   1.943   0.406
 4752SOL    HW115155   4.896   1.962   0.308
 4752SOL    HW215156   4.904   1.844   0.421
 4753SOL     OW15157   1.825   6.674   4.804
 4753SOL    HW115158   1.845   6.596   4.864
 4753SOL    HW215159   1.899   6.684   4.737
 4754SOL     OW15160   4.567   4.079   6.278
 4754SOL    HW115161   4.531   4.036   6.196
 4754SOL    HW215162   4.492   4.109   6.337
 4755SOL     OW15163   1.424   0.395   1.763
 4755SOL    HW115164   1.403   0.356   1.674
 4755SOL    HW215165   1.351   0.371   1.828
 4756SOL     OW15166   6.657   4.508   0.389
 4756SOL    HW115167   6.756   4.501   0.377
 4756SOL    HW215168   6.635   4.514   0.486
 4757SOL     OW15169   1.203   2.811   1.307
 4757SOL    HW115170   1.142   2.803   1.228
 4757SOL    HW215171   1.285   2.862   1.281
 4758SOL     OW15172   1.667   0.278   3.343
 4758SOL    HW115173   1.717   0.347   3.290
 4758SOL    HW215174   1.729   0.234   3.408
 4759SOL     OW15175   1.138   5.096   0.333
 4759SOL    HW115176   1.175   5.160   0.401
 4759SOL    HW215177   1.085   5.025   0.380
 4760SOL     OW15178   1.415   0.081   0.952
 4760SOL    HW115179   1.399   7.012   0.920
 4760SOL    HW215180   1.444   0.138   0.875
 4761SOL     OW15181   0.238   6.813   0.661
 4761SOL    HW115182   0.243   6.869   0.579
 4761SOL    HW215183   0.315   6.833   0.721
 4762SOL     OW15184   2.149   5.557   2.238
 4762SOL    HW115185   2.235   5.558   2.187
 4762SOL    HW215186   2.144   5.473   2.292
 4763SOL     OW15187   4.820   5.886   1.912
 4763SOL    HW115188   4.898   5.826   1.898
 4763SOL    HW215189   4.838   5.974   1.868
 4764SOL     OW15190   4.797   3.673   5.381
 4764SOL    HW115191   4.762   3.761   5.412
 4764SOL    HW215192   4.732   3.632   5.317
 4765SOL     OW15193   3.102   1.597   5.031
 4765SOL    HW115194   3.136   1.630   5.119
 4765SOL    HW215195   3.013   1.553   5.044
 4766SOL     OW15196   5.900   6.707   4.444
 4766SOL    HW115197   5.849   6.777   4.493
 4766SOL    HW215198   5.852   6.683   4.359
 4767SOL     OW15199   2.439   5.273   5.054
 4767SOL    HW115200   2.446   5.350   5.119
 4767SOL    HW215201   2.389   5.198   5.097
 4768SOL     OW15202   4.732   2.933   6.705
 4768SOL    HW115203   4.696   2.844   6.678
 4768SOL    HW215204   4.831   2.928   6.714
 4769SOL     OW15205   3.368   5.965   1.462
 4769SOL    HW115206   3.440   6.027   1.428
 4769SOL    HW215207   3.282   6.015   1.469
 4770SOL     OW15208   6.510   1.910   5.487
 4770SOL    HW115209   6.593   1.965   5.485
 4770SOL    HW215210   6.447   1.946   5.556
 4771SOL     OW15211   2.415   0.217   5.541
 4771SOL    HW115212   2.468   0.171   5.469
 4771SOL    HW215213   2.355   0.150   5.585
 4772SOL     OW15214   3.034   5.250   0.881
 4772SOL    HW115215   2.961   5.304   0.838
 4772SOL    HW215216   3.024   5.255   0.980
 4773SOL     OW15217   2.496   5.822   4.801
 4773SOL    HW115218   2.448   5.758   4.861
 4773SOL    HW215219   2.455   5.913   4.809
 4774SOL     OW15220   1.743   4.281   0.342
 4774SOL    HW115221   1.656   4.253   0.383
 4774SOL    HW215222   1.815   4.279   0.411
 4775SOL     OW15223   5.346   6.174   4.388
 4775SOL    HW115224   5.360   6.113   4.466
 4775SOL    HW215225   5.336   6.120   4.304
 4776SOL     OW15226   1.186   0.524   5.639
 4776SOL    HW115227   1.141   0.435   5.652
 4776SOL    HW215228   1.117   0.596   5.639
 4777SOL     OW15229   1.305   5.446   0.678
 4777SOL    HW115230   1.268   5.525   0.727
 4777SOL    HW215231   1.393   5.421   0.717
 4778SOL     OW15232   0.907   2.523   4.480
 4778SOL    HW115233   0.942   2.547   4.571
 4778SOL    HW215234   0.976   2.469   4.431
 4779SOL     OW15235   6.164   0.752   4.119
 4779SOL    HW115236   6.202   0.823   4.178
 4779SOL    HW215237   6.175   0.779   4.023
 4780SOL     OW15238   5.404   2.500   5.583
 4780SOL    HW115239   5.340   2.486   5.659
 4780SOL    HW215240   5.475   2.430   5.585
 4781SOL     OW15241   2.187   6.041   2.740
 4781SOL    HW115242   2.283   6.066   2.745
 4781SOL    HW215243   2.163   6.017   2.646
 4782SOL     OW15244   5.225   5.417   5.930
 4782SOL    HW115245   5.263   5.448   5.842
 4782SOL    HW215246   5.241   5.487   5.999
 4783SOL     OW15247   5.755   3.927   0.709
 4783SOL    HW115248   5.821   3.921   0.784
 4783SOL    HW215249   5.800   3.908   0.622
 4784SOL     OW15250   5.811   2.529   6.433
 4784SOL    HW115251   5.870   2.466   6.383
 4784SOL    HW215252   5.720   2.528   6.393
 4785SOL     OW15253   0.428   6.092   3.213
 4785SOL    HW115254   0.506   6.150   3.192
 4785SOL    HW215255   0.456   5.996   3.210
 4786SOL     OW15256   2.593   6.821   1.115
 4786SOL    HW115257   2.568   6.911   1.080
 4786SOL    HW215258   2.670   6.785   1.063
 4787SOL     OW15259   4.113   1.990   4.184
 4787SOL    HW115260   4.071   1.917   4.131
 4787SOL    HW215261   4.084   2.079   4.148
 4788SOL     OW15262   6.166   6.030   0.039
 4788SOL    HW115263   6.163   6.026   6.964
 4788SOL    HW215264   6.220   5.953   0.074
 4789SOL     OW15265   5.018   1.239   1.762
 4789SOL    HW115266   4.957   1.283   1.828
 4789SOL    HW215267   5.035   1.144   1.792
 4790SOL     OW15268   5.330   1.581   5.225
 4790SOL    HW115269   5.295   1.557   5.134
 4790SOL    HW215270   5.266   1.547   5.295
 4791SOL     OW15271   0.025   2.848   1.229
 4791SOL    HW115272   0.095   2.912   1.197
 4791SOL    HW215273   0.035   2.833   1.327
 4792SOL     OW15274   1.868   4.063   4.544
 4792SOL    HW115275   1.795   4.108   4.595
 4792SOL    HW215276   1.943   4.041   4.606
 4793SOL     OW15277   1.373   4.235   6.128
 4793SOL    HW115278   1.309   4.180   6.074
 4793SOL    HW215279   1.452   4.259   6.072
 4794SOL     OW15280   4.805   0.508   3.905
 4794SOL    HW115281   4.860   0.554   3.836
 4794SOL    HW215282   4.864   0.482   3.982
 4795SOL     OW15283   0.628   1.160   4.100
 4795SOL    HW115284   0.700   1.217   4.140
 4795SOL    HW215285   0.635   1.067   4.136
 4796SOL     OW15286   3.493   1.227   6.140
 4796SOL    HW115287   3.423   1.158   6.161
 4796SOL    HW215288   3.583   1.185   6.144
 4797SOL     OW15289   0.430   5.453   4.504
 4797SOL    HW115290   0.346   5.491   4.543
 4797SOL    HW215291   0.503   5.520   4.511
 4798SOL     OW15292   5.220   5.331   6.750
 4798SOL    HW115293   5.172   5.289   6.827
 4798SOL    HW215294   5.219   5.268   6.672
 4799SOL     OW15295   3.427   2.359   6.239
 4799SOL    HW115296   3.349   2.421   6.231
 4799SOL    HW215297   3.512   2.411   6.231
 4800SOL     OW15298   1.929   4.824   0.253
 4800SOL    HW115299   2.004   4.761   0.234
 4800SOL    HW215300   1.843   4.782   0.224
 4801SOL     OW15301   4.890   2.500   1.354
 4801SOL    HW115302   4.919   2.418   1.404
 4801SOL    HW215303   4.967   2.563   1.348
 4802SOL     OW15304   0.461   6.076   2.242
 4802SOL    HW115305   0.380   6.019   2.247
 4802SOL    HW215306   0.535   6.035   2.296
 4803SOL     OW15307   5.678   4.888   0.223
 4803SOL    HW115308   5.709   4.807   0.273
 4803SOL    HW215309   5.643   4.859   0.133
 4804SOL     OW15310   5.061   1.802   0.616
 4804SOL    HW115311   5.005   1.753   0.549
 4804SOL    HW215312   5.001   1.846   0.684
 4805SOL     OW15313   6.632   2.062   1.497
 4805SOL    HW115314   6.725   2.039   1.525
 4805SOL    HW215315   6.616   2.159   1.514
 4806SOL     OW15316   1.465   3.205   2.950
 4806SOL    HW115317   1.403   3.133   2.919
 4806SOL    HW215318   1.412   3.281   2.986
 4807SOL     OW15319   1.003   3.529   6.428
 4807SOL    HW115320   1.074   3.594   6.456
 4807SOL    HW215321   0.936   3.519   6.501
 4808SOL     OW15322   3.918   6.134   1.230
 4808SOL    HW115323   3.966   6.047   1.244
 4808SOL    HW215324   3.890   6.142   1.135
 4809SOL     OW15325   3.451   4.840   1.572
 4809SOL    HW115326   3.436   4.886   1.485
 4809SOL    HW215327   3.400   4.753   1.573
 4810SOL     OW15328   0.917   4.099   3.686
 4810SOL    HW115329   0.911   4.199   3.687
 4810SOL    HW215330   0.870   4.062   3.766
 4811SOL     OW15331   3.296   4.105   4.696
 4811SOL    HW115332   3.256   4.195   4.682
 4811SOL    HW215333   3.390   4.105   4.663
 4812SOL     OW15334   0.604   6.524   1.848
 4812SOL    HW115335   0.506   6.516   1.868
 4812SOL    HW215336   0.636   6.615   1.872
 4813SOL     OW15337   6.318   1.407   0.128
 4813SOL    HW115338   6.357   1.315   0.118
 4813SOL    HW215339   6.219   1.403   0.120
 4814SOL     OW15340   6.666   4.350   1.867
 4814SOL    HW115341   6.748   4.397   1.900
 4814SOL    HW215342   6.677   4.328   1.770
 4815SOL     OW15343   5.769   5.091   2.474
 4815SOL    HW115344   5.749   5.027   2.400
 4815SOL    HW215345   5.803   5.177   2.436
 4816SOL     OW15346   1.725   6.595   2.078
 4816SOL    HW115347   1.777   6.678   2.098
 4816SOL    HW215348   1.662   6.612   2.003
 4817SOL     OW15349   3.584   1.199   1.449
 4817SOL    HW115350   3.614   1.110   1.484
 4817SOL    HW215351   3.485   1.204   1.453
 4818SOL     OW15352   2.629   0.219   4.733
 4818SOL    HW115353   2.602   0.265   4.648
 4818SOL    HW215354   2.665   0.287   4.797
 4819SOL     OW15355   2.585   1.904   1.098
 4819SOL    HW115356   2.546   1.934   1.185
 4819SOL    HW215357   2.546   1.815   1.073
 4820SOL     OW15358   0.397   3.687   2.139
 4820SOL    HW115359   0.396   3.739   2.225
 4820SOL    HW215360   0.353   3.599   2.152
 4821SOL     OW15361   6.597   5.660   2.008
 4821SOL    HW115362   6.619   5.738   1.950
 4821SOL    HW215363   6.533   5.600   1.960
 4822SOL     OW15364   1.838   3.752   3.933
 4822SOL    HW115365   1.933   3.771   3.959
 4822SOL    HW215366   1.787   3.838   3.930
 4823SOL     OW15367   1.176   6.993   4.395
 4823SOL    HW115368   1.185   6.951   4.305
 4823SOL    HW215369   1.265   0.003   4.425
 4824SOL     OW15370   5.141   2.433   3.000
 4824SOL    HW115371   5.194   2.389   2.928
 4824SOL    HW215372   5.044   2.416   2.985
 4825SOL     OW15373   1.564   3.203   4.690
 4825SOL    HW115374   1.582   3.241   4.599
 4825SOL    HW215375   1.554   3.277   4.757
 4826SOL     OW15376   0.165   6.493   0.360
 4826SOL    HW115377   0.180   6.394   0.356
 4826SOL    HW215378   0.193   6.527   0.450
 4827SOL     OW15379   4.733   1.385   1.018
 4827SOL    HW115380   4.813   1.442   1.035
 4827SOL    HW215381   4.759   1.289   1.024
 4828SOL     OW15382   5.580   3.683   1.378
 4828SOL    HW115383   5.495   3.723   1.414
 4828SOL    HW215384   5.617   3.742   1.307
 4829SOL     OW15385   3.324   0.368   6.277
 4829SOL    HW115386   3.423   0.371   6.268
 4829SOL    HW215387   3.283   0.363   6.185
 4830SOL     OW15388   4.943   5.989   3.410
 4830SOL    HW115389   4.908   5.931   3.483
 4830SOL    HW215390   5.010   6.053   3.447
 4831SOL     OW15391   6.592   5.036   5.135
 4831SOL    HW115392   6.685   5.054   5.103
 4831SOL    HW215393   6.563   4.945   5.107
 4832SOL     OW15394   3.516   2.831   5.885
 4832SOL    HW115395   3.504   2.745   5.935
 4832SOL    HW215396   3.539   2.904   5.949
 4833SOL     OW15397   4.682   1.262   3.328
 4833SOL    HW115398   4.625   1.343   3.345
 4833SOL    HW215399   4.697   1.214   3.414
 4834SOL     OW15400   4.120   0.864   0.796
 4834SOL    HW115401   4.083   0.779   0.759
 4834SOL    HW215402   4.126   0.932   0.722
 4835SOL     OW15403   1.671   0.092   6.469
 4835SOL    HW115404   1.690   0.135   6.558
 4835SOL    HW215405   1.609   0.151   6.417
 4836SOL     OW15406   4.907   1.707   4.172
 4836SOL    HW115407   4.839   1.718   4.098
 4836SOL    HW215408   4.867   1.740   4.258
 4837SOL     OW15409   3.181   2.973   1.401
 4837SOL    HW115410   3.175   2.985   1.301
 4837SOL    HW215411   3.123   2.897   1.429
 4838SOL     OW15412   3.751   4.860   2.207
 4838SOL    HW115413   3.718   4.814   2.124
 4838SOL    HW215414   3.832   4.812   2.241
 4839SOL     OW15415   0.102   5.042   5.172
 4839SOL    HW115416   0.159   5.100   5.115
 4839SOL    HW215417   0.081   4.957   5.122
 4840SOL     OW15418   5.745   6.510   0.089
 4840SOL    HW115419   5.717   6.438   0.153
 4840SOL    HW215420   5.834   6.546   0.116
 4841SOL     OW15421   3.403   5.930   1.762
 4841SOL    HW115422   3.423   5.920   1.664
 4841SOL    HW215423   3.317   5.884   1.783
 4842SOL     OW15424   3.691   5.394   2.074
 4842SOL    HW115425   3.696   5.341   1.990
 4842SOL    HW215426   3.761   5.466   2.073
 4843SOL     OW15427   6.966   3.732   0.036
 4843SOL    HW115428   0.026   3.723   7.007
 4843SOL    HW215429   6.976   3.804   0.104
 4844SOL     OW15430   0.002   3.995   6.885
 4844SOL    HW115431   0.072   3.972   6.953
 4844SOL    HW215432   6.981   3.911   6.855
 4845SOL     OW15433   6.339   5.749   4.401
 4845SOL    HW115434   6.269   5.685   4.370
 4845SOL    HW215435   6.351   5.740   4.500
 4846SOL     OW15436   0.681   3.321   0.885
 4846SOL    HW115437   0.752   3.367   0.939
 4846SOL    HW215438   0.591   3.356   0.912
 4847SOL     OW15439   3.505   1.981   5.907
 4847SOL    HW115440   3.537   2.069   5.942
 4847SOL    HW215441   3.422   1.995   5.853
 4848SOL     OW15442   1.854   1.624   3.645
 4848SOL    HW115443   1.913   1.602   3.567
 4848SOL    HW215444   1.909   1.659   3.720
 4849SOL     OW15445   1.671   6.771   6.624
 4849SOL    HW115446   1.769   6.763   6.605
 4849SOL    HW215447   1.631   6.838   6.561
 4850SOL     OW15448   3.495   0.876   2.070
 4850SOL    HW115449   3.473   0.797   2.127
 4850SOL    HW215450   3.492   0.959   2.126
 4851SOL     OW15451   4.305   6.376   5.603
 4851SOL    HW115452   4.302   6.470   5.569
 4851SOL    HW215453   4.398   6.355   5.634
 4852SOL     OW15454   1.490   0.522   6.973
 4852SOL    HW115455   1.447   0.435   6.951
 4852SOL    HW215456   1.423   0.596   6.965
 4853SOL     OW15457   3.352   1.554   2.463
 4853SOL    HW115458   3.320   1.459   2.458
 4853SOL    HW215459   3.300   1.603   2.533
 4854SOL     OW15460   4.637   6.044   2.537
 4854SOL    HW115461   4.613   5.962   2.485
 4854SOL    HW215462   4.719   6.027   2.591
 4855SOL     OW15463   5.642   1.909   2.267
 4855SOL    HW115464   5.578   1.913   2.190
 4855SOL    HW215465   5.636   1.994   2.319
 4856SOL     OW15466   2.850   4.743   3.275
 4856SOL    HW115467   2.801   4.722   3.360
 4856SOL    HW215468   2.832   4.671   3.208
 4857SOL     OW15469   1.099   1.607   5.512
 4857SOL    HW115470   1.130   1.596   5.606
 4857SOL    HW215471   1.075   1.518   5.474
 4858SOL     OW15472   1.881   1.823   4.053
 4858SOL    HW115473   1.937   1.758   4.001
 4858SOL    HW215474   1.940   1.895   4.090
 4859SOL     OW15475   1.476   5.651   4.445
 4859SOL    HW115476   1.539   5.663   4.369
 4859SOL    HW215477   1.527   5.644   4.530
 4860SOL     OW15478   4.047   5.364   1.977
 4860SOL    HW115479   4.037   5.362   1.878
 4860SOL    HW215480   4.065   5.271   2.011
 4861SOL     OW15481   5.427   5.491   6.874
 4861SOL    HW115482   5.374   5.575   6.861
 4861SOL    HW215483   5.374   5.412   6.841
 4862SOL     OW15484   1.982   5.163   4.117
 4862SOL    HW115485   1.928   5.205   4.045
 4862SOL    HW215486   1.922   5.113   4.179
 4863SOL     OW15487   5.905   4.838   0.800
 4863SOL    HW115488   5.913   4.887   0.887
 4863SOL    HW215489   5.986   4.853   0.745
 4864SOL     OW15490   3.373   1.251   3.785
 4864SOL    HW115491   3.416   1.166   3.814
 4864SOL    HW215492   3.305   1.279   3.853
 4865SOL     OW15493   2.363   0.487   5.148
 4865SOL    HW115494   2.283   0.455   5.197
 4865SOL    HW215495   2.362   0.587   5.145
 4866SOL     OW15496   6.287   3.971   1.130
 4866SOL    HW115497   6.281   3.895   1.065
 4866SOL    HW215498   6.198   3.986   1.172
 4867SOL     OW15499   4.462   5.410   2.227
 4867SOL    HW115500   4.382   5.462   2.198
 4867SOL    HW215501   4.534   5.473   2.256
 4868SOL     OW15502   6.683   4.967   2.137
 4868SOL    HW115503   6.728   5.051   2.169
 4868SOL    HW215504   6.584   4.977   2.147
 4869SOL     OW15505   1.429   1.581   0.764
 4869SOL    HW115506   1.351   1.558   0.705
 4869SOL    HW215507   1.419   1.534   0.852
 4870SOL     OW15508   0.674   6.216   2.026
 4870SOL    HW115509   0.650   6.145   1.959
 4870SOL    HW215510   0.608   6.215   2.101
 4871SOL     OW15511   1.187   0.725   4.774
 4871SOL    HW115512   1.265   0.781   4.745
 4871SOL    HW215513   1.185   0.641   4.721
 4872SOL     OW15514   6.738   6.875   3.065
 4872SOL    HW115515   6.672   6.911   2.999
 4872SOL    HW215516   6.825   6.855   3.019
 4873SOL     OW15517   6.756   5.401   4.687
 4873SOL    HW115518   6.827   5.425   4.621
 4873SOL    HW215519   6.744   5.476   4.752
 4874SOL     OW15520   4.714   2.220   2.773
 4874SOL    HW115521   4.640   2.244   2.837
 4874SOL    HW215522   4.683   2.237   2.679
 4875SOL     OW15523   5.284   0.212   0.031
 4875SOL    HW115524   5.216   0.142   0.049
 4875SOL    HW215525   5.248   0.279   6.991
 4876SOL     OW15526   0.016   1.392   3.490
 4876SOL    HW115527   0.055   1.449   3.562
 4876SOL    HW215528   6.972   1.445   3.439
 4877SOL     OW15529   0.233   2.280   5.287
 4877SOL    HW115530   0.239   2.295   5.386
 4877SOL    HW215531   0.240   2.368   5.239
 4878SOL     OW15532   6.678   1.718   2.144
 4878SOL    HW115533   6.761   1.770   2.167
 4878SOL    HW215534   6.599   1.779   2.144
 4879SOL     OW15535   4.725   1.816   2.014
 4879SOL    HW115536   4.631   1.788   1.993
 4879SOL    HW215537   4.730   1.844   2.110
 4880SOL     OW15538   6.454   3.779   0.367
 4880SOL    HW115539   6.554   3.776   0.368
 4880SOL    HW215540   6.418   3.717   0.436
 4881SOL     OW15541   1.748   1.905   0.758
 4881SOL    HW115542   1.648   1.898   0.759
 4881SOL    HW215543   1.780   1.924   0.666
 4882SOL     OW15544   4.222   2.192   5.464
 4882SOL    HW115545   4.289   2.122   5.491
 4882SOL    HW215546   4.135   2.173   5.508
 4883SOL     OW15547   5.027   3.805   1.571
 4883SOL    HW115548   4.970   3.875   1.528
 4883SOL    HW215549   5.024   3.816   1.671
 4884SOL     OW15550   3.246   5.314   0.571
 4884SOL    HW115551   3.324   5.269   0.528
 4884SOL    HW215552   3.200   5.249   0.632
 4885SOL     OW15553   2.339   4.286   2.069
 4885SOL    HW115554   2.409   4.269   2.139
 4885SOL    HW215555   2.248   4.282   2.111
 4886SOL     OW15556   3.005   0.046   1.557
 4886SOL    HW115557   2.987   0.133   1.512
 4886SOL    HW215558   3.032   0.063   1.652
 4887SOL     OW15559   1.205   6.257   1.678
 4887SOL    HW115560   1.231   6.207   1.596
 4887SOL    HW215561   1.141   6.330   1.655
 4888SOL     OW15562   2.274   6.883   2.882
 4888SOL    HW115563   2.218   6.851   2.805
 4888SOL    HW215564   2.349   6.939   2.848
 4889SOL     OW15565   6.545   1.794   5.072
 4889SOL    HW115566   6.610   1.846   5.127
 4889SOL    HW215567   6.474   1.755   5.132
 4890SOL     OW15568   0.919   2.299   5.370
 4890SOL    HW115569   1.012   2.260   5.374
 4890SOL    HW215570   0.853   2.226   5.353
 4891SOL     OW15571   2.618   5.128   6.490
 4891SOL    HW115572   2.651   5.223   6.484
 4891SOL    HW215573   2.519   5.128   6.502
 4892SOL     OW15574   5.201   6.093   2.050
 4892SOL    HW115575   5.138   6.162   2.014
 4892SOL    HW215576   5.199   6.096   2.150
 4893SOL     OW15577   6.800   3.364   2.157
 4893SOL    HW115578   6.822   3.433   2.087
 4893SOL    HW215579   6.842   3.277   2.133
 4894SOL     OW15580   3.087   7.023   2.111
 4894SOL    HW115581   3.038   6.938   2.095
 4894SOL    HW215582   3.182   7.003   2.135
 4895SOL     OW15583   0.848   5.164   3.263
 4895SOL    HW115584   0.825   5.200   3.353
 4895SOL    HW215585   0.946   5.142   3.260
 4896SOL     OW15586   2.565   4.953   2.585
 4896SOL    HW115587   2.631   4.961   2.660
 4896SOL    HW215588   2.509   5.036   2.582
 4897SOL     OW15589   1.792   5.959   5.547
 4897SOL    HW115590   1.782   6.011   5.462
 4897SOL    HW215591   1.870   5.994   5.599
 4898SOL     OW15592   3.956   1.208   5.451
 4898SOL    HW115593   4.030   1.141   5.458
 4898SOL    HW215594   3.870   1.161   5.435
 4899SOL     OW15595   5.921   4.998   2.708
 4899SOL    HW115596   5.894   5.023   2.615
 4899SOL    HW215597   5.843   4.956   2.754
 4900SOL     OW15598   4.254   6.142   5.826
 4900SOL    HW115599   4.205   6.226   5.802
 4900SOL    HW215600   4.336   6.133   5.770
 4901SOL     OW15601   1.843   1.790   4.876
 4901SOL    HW115602   1.835   1.795   4.975
 4901SOL    HW215603   1.811   1.701   4.844
 4902SOL     OW15604   1.572   0.468   6.353
 4902SOL    HW115605   1.590   0.550   6.299
 4902SOL    HW215606   1.656   0.437   6.397
 4903SOL     OW15607   4.588   5.562   1.026
 4903SOL    HW115608   4.606   5.573   0.928
 4903SOL    HW215609   4.509   5.617   1.051
 4904SOL     OW15610   1.856   0.976   5.397
 4904SOL    HW115611   1.863   0.885   5.440
 4904SOL    HW215612   1.768   1.017   5.420
 4905SOL     OW15613   2.419   0.467   3.188
 4905SOL    HW115614   2.396   0.558   3.153
 4905SOL    HW215615   2.349   0.402   3.160
 4906SOL     OW15616   4.872   2.925   5.367
 4906SOL    HW115617   4.805   2.998   5.358
 4906SOL    HW215618   4.904   2.921   5.462
 4907SOL     OW15619   4.941   1.555   0.850
 4907SOL    HW115620   4.886   1.617   0.794
 4907SOL    HW215621   4.913   1.563   0.946
 4908SOL     OW15622   4.842   0.156   0.425
 4908SOL    HW115623   4.749   0.166   0.459
 4908SOL    HW215624   4.882   0.072   0.461
 4909SOL     OW15625   6.742   4.428   3.944
 4909SOL    HW115626   6.714   4.499   4.009
 4909SOL    HW215627   6.672   4.420   3.873
 4910SOL     OW15628   5.940   1.081   4.162
 4910SOL    HW115629   6.032   1.111   4.138
 4910SOL    HW215630   5.939   1.046   4.256
 4911SOL     OW15631   1.916   3.010   3.394
 4911SOL    HW115632   1.838   2.986   3.338
 4911SOL    HW215633   2.001   2.994   3.343
 4912SOL     OW15634   5.129   2.032   5.525
 4912SOL    HW115635   5.100   2.002   5.434
 4912SOL    HW215636   5.103   2.127   5.539
 4913SOL     OW15637   5.633   3.104   5.931
 4913SOL    HW115638   5.637   3.190   5.981
 4913SOL    HW215639   5.547   3.100   5.880
 4914SOL     OW15640   4.466   0.540   5.562
 4914SOL    HW115641   4.541   0.489   5.518
 4914SOL    HW215642   4.398   0.475   5.596
 4915SOL     OW15643   3.016   6.457   5.265
 4915SOL    HW115644   3.021   6.522   5.189
 4915SOL    HW215645   2.975   6.502   5.344
 4916SOL     OW15646   6.671   0.816   4.318
 4916SOL    HW115647   6.687   0.740   4.382
 4916SOL    HW215648   6.754   0.834   4.266
 4917SOL     OW15649   4.049   5.685   1.101
 4917SOL    HW115650   3.960   5.667   1.142
 4917SOL    HW215651   4.106   5.734   1.167
 4918SOL     OW15652   6.539   6.157   1.942
 4918SOL    HW115653   6.619   6.173   1.883
 4918SOL    HW215654   6.542   6.219   2.020
 4919SOL     OW15655   3.486   2.843   2.309
 4919SOL    HW115656   3.510   2.903   2.233
 4919SOL    HW215657   3.411   2.783   2.282
 4920SOL     OW15658   5.441   0.408   5.198
 4920SOL    HW115659   5.390   0.488   5.231
 4920SOL    HW215660   5.465   0.422   5.102
 4921SOL     OW15661   1.643   5.197   0.302
 4921SOL    HW115662   1.679   5.156   0.385
 4921SOL    HW215663   1.634   5.296   0.314
 4922SOL     OW15664   3.461   2.272   5.225
 4922SOL    HW115665   3.432   2.177   5.210
 4922SOL    HW215666   3.382   2.332   5.221
 4923SOL     OW15667   2.674   2.025   2.854
 4923SOL    HW115668   2.683   2.096   2.924
 4923SOL    HW215669   2.662   2.068   2.765
 4924SOL     OW15670   2.212   2.237   5.046
 4924SOL    HW115671   2.231   2.142   5.020
 4924SOL    HW215672   2.248   2.299   4.976
 4925SOL     OW15673   4.490   0.284   2.897
 4925SOL    HW115674   4.457   0.276   2.991
 4925SOL    HW215675   4.420   0.249   2.834
 4926SOL     OW15676   5.631   1.730   1.322
 4926SOL    HW115677   5.574   1.795   1.371
 4926SOL    HW215678   5.691   1.682   1.386
 4927SOL     OW15679   2.902   2.861   5.981
 4927SOL    HW115680   3.000   2.876   5.968
 4927SOL    HW215681   2.887   2.772   6.023
 4928SOL     OW15682   1.166   1.150   0.055
 4928SOL    HW115683   1.115   1.091   7.017
 4928SOL    HW215684   1.109   1.229   0.079
 4929SOL     OW15685   6.965   6.965   3.608
 4929SOL    HW115686   6.891   0.004   3.632
 4929SOL    HW215687   6.944   6.920   3.522
 4930SOL     OW15688   6.413   6.668   2.235
 4930SOL    HW115689   6.418   6.697   2.330
 4930SOL    HW215690   6.325   6.623   2.218
 4931SOL     OW15691   6.242   6.169   1.614
 4931SOL    HW115692   6.201   6.238   1.555
 4931SOL    HW215693   6.335   6.149   1.584
 4932SOL     OW15694   3.463   3.962   3.452
 4932SOL    HW115695   3.424   4.036   3.397
 4932SOL    HW215696   3.413   3.877   3.435
 4933SOL     OW15697   2.356   6.380   3.716
 4933SOL    HW115698   2.299   6.457   3.744
 4933SOL    HW215699   2.310   6.329   3.642
 4934SOL     OW15700   3.798   6.158   2.991
 4934SOL    HW115701   3.878   6.139   2.934
 4934SOL    HW215702   3.721   6.187   2.934
 4935SOL     OW15703   1.427   1.942   0.065
 4935SOL    HW115704   1.472   1.987   0.142
 4935SOL    HW215705   1.444   1.993   7.006
 4936SOL     OW15706   2.382   4.683   0.804
 4936SOL    HW115707   2.435   4.745   0.746
 4936SOL    HW215708   2.440   4.607   0.834
 4937SOL     OW15709   5.362   3.277   4.998
 4937SOL    HW115710   5.385   3.220   4.919
 4937SOL    HW215711   5.407   3.365   4.989
 4938SOL     OW15712   3.375   5.628   5.666
 4938SOL    HW115713   3.361   5.546   5.611
 4938SOL    HW215714   3.449   5.612   5.731
 4939SOL     OW15715   5.136   2.412   5.241
 4939SOL    HW115716   5.074   2.381   5.313
 4939SOL    HW215717   5.088   2.411   5.153
 4940SOL     OW15718   1.474   0.787   4.798
 4940SOL    HW115719   1.476   0.831   4.888
 4940SOL    HW215720   1.560   0.738   4.783
 4941SOL     OW15721   4.020   1.818   6.933
 4941SOL    HW115722   4.068   1.814   6.845
 4941SOL    HW215723   3.922   1.802   6.918
 4942SOL     OW15724   4.918   3.399   4.944
 4942SOL    HW115725   4.864   3.327   4.987
 4942SOL    HW215726   4.880   3.488   4.968
 4943SOL     OW15727   4.533   2.242   0.626
 4943SOL    HW115728   4.609   2.183   0.596
 4943SOL    HW215729   4.447   2.208   0.588
 4944SOL     OW15730   2.282   4.263   3.040
 4944SOL    HW115731   2.289   4.186   2.976
 4944SOL    HW215732   2.215   4.329   3.006
 4945SOL     OW15733   1.437   0.488   3.815
 4945SOL    HW115734   1.518   0.429   3.815
 4945SOL    HW215735   1.452   0.565   3.754
 4946SOL     OW15736   0.834   3.184   1.234
 4946SOL    HW115737   0.858   3.160   1.140
 4946SOL    HW215738   0.749   3.139   1.260
 4947SOL     OW15739   1.134   6.928   0.529
 4947SOL    HW115740   1.107   6.860   0.460
 4947SOL    HW215741   1.054   6.983   0.554
 4948SOL     OW15742   2.794   0.853   2.793
 4948SOL    HW115743   2.731   0.873   2.718
 4948SOL    HW215744   2.817   0.938   2.842
 4949SOL     OW15745   4.627   0.871   5.886
 4949SOL    HW115746   4.573   0.842   5.806
 4949SOL    HW215747   4.643   0.791   5.944
 4950SOL     OW15748   2.817   6.040   4.063
 4950SOL    HW115749   2.890   6.089   4.109
 4950SOL    HW215750   2.855   5.961   4.014
 4951SOL     OW15751   4.672   1.607   4.397
 4951SOL    HW115752   4.743   1.537   4.402
 4951SOL    HW215753   4.583   1.563   4.380
 4952SOL     OW15754   0.224   6.092   4.549
 4952SOL    HW115755   0.131   6.099   4.584
 4952SOL    HW215756   0.289   6.101   4.625
 4953SOL     OW15757   2.527   5.627   1.312
 4953SOL    HW115758   2.532   5.568   1.392
 4953SOL    HW215759   2.434   5.629   1.277
 4954SOL     OW15760   4.695   4.688   0.486
 4954SOL    HW115761   4.755   4.733   0.552
 4954SOL    HW215762   4.731   4.701   0.394
 4955SOL     OW15763   1.579   6.027   6.880
 4955SOL    HW115764   1.571   6.065   6.972
 4955SOL    HW215765   1.633   5.943   6.883
 4956SOL     OW15766   3.964   0.103   5.786
 4956SOL    HW115767   4.009   0.189   5.762
 4956SOL    HW215768   3.904   0.074   5.711
 4957SOL     OW15769   7.009   1.247   4.404
 4957SOL    HW115770   0.030   1.294   4.481
 4957SOL    HW215771   6.960   1.314   4.348
 4958SOL     OW15772   0.844   6.684   5.884
 4958SOL    HW115773   0.809   6.707   5.793
 4958SOL    HW215774   0.904   6.604   5.878
 4959SOL     OW15775   1.213   0.747   6.778
 4959SOL    HW115776   1.159   0.761   6.695
 4959SOL    HW215777   1.195   0.656   6.815
 4960SOL     OW15778   3.653   6.728   4.119
 4960SOL    HW115779   3.613   6.645   4.080
 4960SOL    HW215780   3.582   6.780   4.165
 4961SOL     OW15781   5.496   0.442   4.932
 4961SOL    HW115782   5.469   0.538   4.919
 4961SOL    HW215783   5.475   0.390   4.850
 4962SOL     OW15784   5.727   2.823   1.961
 4962SOL    HW115785   5.718   2.808   2.059
 4962SOL    HW215786   5.637   2.842   1.921
 4963SOL     OW15787   0.419   5.588   1.446
 4963SOL    HW115788   0.465   5.649   1.510
 4963SOL    HW215789   0.443   5.493   1.467
 4964SOL     OW15790   3.560   5.792   3.338
 4964SOL    HW115791   3.611   5.875   3.319
 4964SOL    HW215792   3.617   5.728   3.389
 4965SOL     OW15793   0.498   0.093   4.806
 4965SOL    HW115794   0.459   0.020   4.749
 4965SOL    HW215795   0.488   0.180   4.759
 4966SOL     OW15796   2.935   5.803   4.324
 4966SOL    HW115797   2.848   5.853   4.327
 4966SOL    HW215798   2.919   5.709   4.297
 4967SOL     OW15799   4.160   2.551   6.518
 4967SOL    HW115800   4.168   2.452   6.530
 4967SOL    HW215801   4.179   2.597   6.605
 4968SOL     OW15802   5.076   2.942   3.575
 4968SOL    HW115803   5.137   2.875   3.616
 4968SOL    HW215804   5.013   2.896   3.513
 4969SOL     OW15805   1.457   1.151   1.986
 4969SOL    HW115806   1.375   1.096   1.971
 4969SOL    HW215807   1.432   1.235   2.035
 4970SOL     OW15808   1.363   2.143   4.949
 4970SOL    HW115809   1.338   2.086   5.028
 4970SOL    HW215810   1.358   2.088   4.866
 4971SOL     OW15811   6.289   5.963   3.668
 4971SOL    HW115812   6.327   5.999   3.583
 4971SOL    HW215813   6.189   5.961   3.662
 4972SOL     OW15814   2.183   3.772   0.616
 4972SOL    HW115815   2.086   3.748   0.608
 4972SOL    HW215816   2.193   3.849   0.678
 4973SOL     OW15817   6.049   6.023   1.721
 4973SOL    HW115818   6.134   6.065   1.690
 4973SOL    HW215819   6.024   6.059   1.811
 4974SOL     OW15820   5.708   5.824   2.699
 4974SOL    HW115821   5.784   5.864   2.750
 4974SOL    HW215822   5.737   5.737   2.659
 4975SOL     OW15823   5.936   5.792   0.918
 4975SOL    HW115824   5.975   5.825   0.832
 4975SOL    HW215825   5.842   5.826   0.926
 4976SOL     OW15826   3.266   0.420   4.590
 4976SOL    HW115827   3.259   0.520   4.600
 4976SOL    HW215828   3.175   0.380   4.598
 4977SOL     OW15829   4.562   3.807   0.748
 4977SOL    HW115830   4.489   3.860   0.789
 4977SOL    HW215831   4.533   3.712   0.737
 4978SOL     OW15832   6.060   4.256   5.754
 4978SOL    HW115833   5.993   4.197   5.708
 4978SOL    HW215834   6.038   4.352   5.735
 4979SOL     OW15835   0.164   1.610   4.932
 4979SOL    HW115836   0.070   1.576   4.931
 4979SOL    HW215837   0.199   1.614   4.838
 4980SOL     OW15838   3.515   5.719   2.595
 4980SOL    HW115839   3.614   5.706   2.589
 4980SOL    HW215840   3.470   5.630   2.605
 4981SOL     OW15841   4.414   7.023   5.737
 4981SOL    HW115842   4.347   0.007   5.811
 4981SOL    HW215843   4.441   0.089   5.705
 4982SOL     OW15844   1.925   1.497   6.891
 4982SOL    HW115845   1.869   1.570   6.930
 4982SOL    HW215846   1.953   1.521   6.798
 4983SOL     OW15847   5.665   3.105   4.232
 4983SOL    HW115848   5.573   3.078   4.259
 4983SOL    HW215849   5.676   3.091   4.133
 4984SOL     OW15850   5.252   3.640   4.693
 4984SOL    HW115851   5.210   3.565   4.745
 4984SOL    HW215852   5.348   3.617   4.675
 4985SOL     OW15853   5.632   5.255   3.814
 4985SOL    HW115854   5.593   5.341   3.782
 4985SOL    HW215855   5.717   5.236   3.765
 4986SOL     OW15856   6.153   4.353   2.626
 4986SOL    HW115857   6.105   4.270   2.655
 4986SOL    HW215858   6.206   4.389   2.704
 4987SOL     OW15859   0.150   3.149   0.933
 4987SOL    HW115860   0.166   3.247   0.944
 4987SOL    HW215861   0.232   3.105   0.897
 4988SOL     OW15862   0.058   1.801   4.061
 4988SOL    HW115863   0.084   1.705   4.071
 4988SOL    HW215864   0.087   1.834   3.972
 4989SOL     OW15865   6.023   1.606   1.141
 4989SOL    HW115866   5.988   1.530   1.196
 4989SOL    HW215867   5.949   1.670   1.121
 4990SOL     OW15868   0.699   2.689   5.467
 4990SOL    HW115869   0.612   2.643   5.450
 4990SOL    HW215870   0.684   2.769   5.526
 4991SOL     OW15871   0.746   3.502   4.228
 4991SOL    HW115872   0.726   3.519   4.131
 4991SOL    HW215873   0.776   3.587   4.271
 4992SOL     OW15874   3.655   0.548   4.746
 4992SOL    HW115875   3.622   0.458   4.774
 4992SOL    HW215876   3.624   0.568   4.653
 4993SOL     OW15877   3.009   5.582   3.901
 4993SOL    HW115878   2.993   5.517   3.827
 4993SOL    HW215879   3.107   5.595   3.914
 4994SOL     OW15880   1.040   6.774   2.691
 4994SOL    HW115881   0.969   6.844   2.685
 4994SOL    HW215882   1.006   6.687   2.654
 4995SOL     OW15883   6.751   3.334   6.198
 4995SOL    HW115884   6.671   3.287   6.162
 4995SOL    HW215885   6.763   3.421   6.151
 4996SOL     OW15886   0.221   1.698   1.483
 4996SOL    HW115887   0.241   1.629   1.413
 4996SOL    HW215888   0.228   1.657   1.574
 4997SOL     OW15889   6.449   2.030   2.894
 4997SOL    HW115890   6.445   2.114   2.947
 4997SOL    HW215891   6.539   2.021   2.852
 4998SOL     OW15892   1.752   5.016   5.173
 4998SOL    HW115893   1.737   5.011   5.074
 4998SOL    HW215894   1.666   4.998   5.220
 4999SOL     OW15895   4.999   5.247   1.076
 4999SOL    HW115896   4.969   5.339   1.100
 4999SOL    HW215897   4.987   5.232   0.978
 5000SOL     OW15898   0.915   0.439   4.754
 5000SOL    HW115899   0.956   0.476   4.837
 5000SOL    HW215900   0.976   0.456   4.676
 5001SOL     OW15901   2.140   3.927   6.205
 5001SOL    HW115902   2.116   4.022   6.225
 5001SOL    HW215903   2.135   3.911   6.107
 5002SOL     OW15904   1.898   1.763   2.734
 5002SOL    HW115905   1.932   1.793   2.645
 5002SOL    HW215906   1.831   1.689   2.721
 5003SOL     OW15907   0.335   6.786   2.857
 5003SOL    HW115908   0.405   6.745   2.798
 5003SOL    HW215909   0.319   6.726   2.936
 5004SOL     OW15910   2.282   5.627   6.108
 5004SOL    HW115911   2.348   5.633   6.183
 5004SOL    HW215912   2.219   5.552   6.124
 5005SOL     OW15913   3.894   2.526   0.570
 5005SOL    HW115914   3.980   2.480   0.549
 5005SOL    HW215915   3.829   2.510   0.495
 5006SOL     OW15916   5.724   6.739   5.369
 5006SOL    HW115917   5.684   6.659   5.325
 5006SOL    HW215918   5.743   6.809   5.301
 5007SOL     OW15919   4.003   0.664   6.297
 5007SOL    HW115920   4.039   0.738   6.354
 5007SOL    HW215921   3.910   0.686   6.268
 5008SOL     OW15922   6.249   1.302   3.127
 5008SOL    HW115923   6.223   1.206   3.121
 5008SOL    HW215924   6.296   1.318   3.214
 5009SOL     OW15925   1.174   6.005   1.444
 5009SOL    HW115926   1.096   6.040   1.496
 5009SOL    HW215927   1.236   5.957   1.505
 5010SOL     OW15928   3.811   4.103   4.362
 5010SOL    HW115929   3.846   4.145   4.278
 5010SOL    HW215930   3.888   4.077   4.420
 5011SOL     OW15931   1.808   3.229   2.061
 5011SOL    HW115932   1.900   3.210   2.096
 5011SOL    HW215933   1.775   3.315   2.098
 5012SOL     OW15934   6.557   2.824   5.663
 5012SOL    HW115935   6.480   2.761   5.650
 5012SOL    HW215936   6.523   2.910   5.699
 5013SOL     OW15937   4.286   0.846   6.559
 5013SOL    HW115938   4.319   0.774   6.621
 5013SOL    HW215939   4.321   0.830   6.467
 5014SOL     OW15940   6.083   5.910   0.691
 5014SOL    HW115941   6.181   5.915   0.713
 5014SOL    HW215942   6.042   6.000   0.699
 5015SOL     OW15943   4.350   2.001   3.511
 5015SOL    HW115944   4.433   2.054   3.531
 5015SOL    HW215945   4.270   2.051   3.544
 5016SOL     OW15946   1.919   0.654   2.662
 5016SOL    HW115947   1.819   0.658   2.667
 5016SOL    HW215948   1.951   0.570   2.704
 5017SOL     OW15949   2.471   1.838   0.286
 5017SOL    HW115950   2.450   1.902   0.361
 5017SOL    HW215951   2.416   1.755   0.297
 5018SOL     OW15952   0.093   4.425   2.437
 5018SOL    HW115953   0.093   4.325   2.426
 5018SOL    HW215954   7.024   4.456   2.457
 5019SOL     OW15955   2.792   3.669   0.496
 5019SOL    HW115956   2.865   3.715   0.445
 5019SOL    HW215957   2.734   3.618   0.432
 5020SOL     OW15958   5.362   5.468   6.226
 5020SOL    HW115959   5.353   5.560   6.262
 5020SOL    HW215960   5.456   5.436   6.236
 5021SOL     OW15961   1.574   4.673   5.771
 5021SOL    HW115962   1.595   4.577   5.749
 5021SOL    HW215963   1.527   4.715   5.694
 5022SOL     OW15964   1.916   6.165   0.668
 5022SOL    HW115965   1.930   6.077   0.623
 5022SOL    HW215966   1.861   6.224   0.608
 5023SOL     OW15967   6.299   3.027   0.722
 5023SOL    HW115968   6.362   3.087   0.674
 5023SOL    HW215969   6.224   3.001   0.660
 5024SOL     OW15970   6.690   3.817   3.447
 5024SOL    HW115971   6.695   3.905   3.495
 5024SOL    HW215972   6.779   3.772   3.451
 5025SOL     OW15973   4.909   1.181   2.939
 5025SOL    HW115974   4.885   1.233   3.021
 5025SOL    HW215975   4.965   1.102   2.965
 5026SOL     OW15976   6.167   5.389   5.120
 5026SOL    HW115977   6.194   5.484   5.101
 5026SOL    HW215978   6.202   5.329   5.048
 5027SOL     OW15979   0.423   6.250   2.972
 5027SOL    HW115980   0.467   6.339   2.987
 5027SOL    HW215981   0.427   6.196   3.057
 5028SOL     OW15982   0.407   6.199   1.576
 5028SOL    HW115983   0.496   6.156   1.588
 5028SOL    HW215984   0.375   6.235   1.664
 5029SOL     OW15985   6.662   2.633   1.844
 5029SOL    HW115986   6.647   2.687   1.927
 5029SOL    HW215987   6.760   2.623   1.828
 5030SOL     OW15988   6.375   0.197   6.860
 5030SOL    HW115989   6.380   0.183   6.761
 5030SOL    HW215990   6.350   0.111   6.905
 5031SOL     OW15991   5.740   1.404   4.125
 5031SOL    HW115992   5.695   1.489   4.097
 5031SOL    HW215993   5.813   1.382   4.060
 5032SOL     OW15994   1.980   5.431   0.749
 5032SOL    HW115995   2.074   5.441   0.716
 5032SOL    HW215996   1.980   5.430   0.849
 5033SOL     OW15997   2.750   4.672   5.658
 5033SOL    HW115998   2.779   4.583   5.694
 5033SOL    HW215999   2.762   4.673   5.559
 5034SOL     OW16000   6.531   2.463   2.565
 5034SOL    HW116001   6.584   2.542   2.595
 5034SOL    HW216002   6.450   2.454   2.623
 5035SOL     OW16003   4.548   5.492   0.583
 5035SOL    HW116004   4.617   5.500   0.654
 5035SOL    HW216005   4.457   5.485   0.625
 5036SOL     OW16006   1.357   6.353   6.911
 5036SOL    HW116007   1.393   6.442   6.940
 5036SOL    HW216008   1.412   6.280   6.949
 5037SOL     OW16009   4.230   1.720   3.455
 5037SOL    HW116010   4.178   1.761   3.380
 5037SOL    HW216011   4.259   1.792   3.518
 5038SOL     OW16012   1.073   5.780   5.844
 5038SOL    HW116013   1.116   5.704   5.894
 5038SOL    HW216014   0.981   5.753   5.815
 5039SOL     OW16015   2.430   2.809   5.295
 5039SOL    HW116016   2.457   2.819   5.391
 5039SOL    HW216017   2.426   2.899   5.253
 5040SOL     OW16018   2.792   3.273   6.866
 5040SOL    HW116019   2.694   3.258   6.851
 5040SOL    HW216020   2.814   3.253   6.962
 5041SOL     OW16021   0.946   3.768   1.257
 5041SOL    HW116022   0.848   3.764   1.236
 5041SOL    HW216023   0.960   3.831   1.333
 5042SOL     OW16024   6.402   3.749   6.611
 5042SOL    HW116025   6.311   3.755   6.569
 5042SOL    HW216026   6.398   3.786   6.704
 5043SOL     OW16027   3.692   1.166   4.144
 5043SOL    HW116028   3.682   1.265   4.154
 5043SOL    HW216029   3.788   1.141   4.157
 5044SOL     OW16030   6.342   5.972   3.930
 5044SOL    HW116031   6.260   6.026   3.950
 5044SOL    HW216032   6.345   5.952   3.832
 5045SOL     OW16033   6.256   3.720   0.126
 5045SOL    HW116034   6.223   3.790   0.189
 5045SOL    HW216035   6.252   3.630   0.170
 5046SOL     OW16036   3.632   3.013   4.899
 5046SOL    HW116037   3.719   3.055   4.925
 5046SOL    HW216038   3.556   3.066   4.939
 5047SOL     OW16039   5.744   0.609   2.642
 5047SOL    HW116040   5.662   0.556   2.665
 5047SOL    HW216041   5.764   0.673   2.716
 5048SOL     OW16042   6.957   2.441   1.934
 5048SOL    HW116043   6.889   2.449   2.007
 5048SOL    HW216044   0.004   2.378   1.962
 5049SOL     OW16045   0.946   1.701   1.874
 5049SOL    HW116046   0.882   1.638   1.830
 5049SOL    HW216047   0.899   1.785   1.898
 5050SOL     OW16048   0.307   2.271   1.742
 5050SOL    HW116049   0.399   2.234   1.728
 5050SOL    HW216050   0.303   2.364   1.705
 5051SOL     OW16051   2.565   4.143   0.926
 5051SOL    HW116052   2.566   4.152   1.025
 5051SOL    HW216053   2.471   4.145   0.893
 5052SOL     OW16054   3.934   4.819   1.092
 5052SOL    HW116055   3.934   4.800   0.994
 5052SOL    HW216056   4.027   4.809   1.128
 5053SOL     OW16057   2.473   4.180   1.794
 5053SOL    HW116058   2.455   4.226   1.880
 5053SOL    HW216059   2.536   4.234   1.739
 5054SOL     OW16060   3.515   6.217   5.014
 5054SOL    HW116061   3.420   6.244   5.020
 5054SOL    HW216062   3.538   6.194   4.919
 5055SOL     OW16063   0.879   1.982   4.824
 5055SOL    HW116064   0.970   1.945   4.805
 5055SOL    HW216065   0.832   1.923   4.889
 5056SOL     OW16066   7.022   3.749   5.881
 5056SOL    HW116067   7.019   3.687   5.803
 5056SOL    HW216068   6.961   3.827   5.864
 5057SOL     OW16069   0.790   5.623   3.646
 5057SOL    HW116070   0.741   5.671   3.574
 5057SOL    HW216071   0.732   5.551   3.684
 5058SOL     OW16072   4.151   4.447   0.015
 5058SOL    HW116073   4.106   4.504   0.084
 5058SOL    HW216074   4.203   4.375   0.059
 5059SOL     OW16075   3.638   1.906   4.931
 5059SOL    HW116076   3.569   1.852   4.979
 5059SOL    HW216077   3.708   1.937   4.995
 5060SOL     OW16078   0.337   3.615   4.960
 5060SOL    HW116079   0.427   3.639   4.922
 5060SOL    HW216080   0.339   3.626   5.059
 5061SOL     OW16081   3.084   3.677   4.526
 5061SOL    HW116082   3.063   3.764   4.570
 5061SOL    HW216083   3.024   3.663   4.448
 5062SOL     OW16084   4.653   1.151   2.831
 5062SOL    HW116085   4.750   1.134   2.851
 5062SOL    HW216086   4.635   1.133   2.735
 5063SOL     OW16087   1.608   6.458   2.255
 5063SOL    HW116088   1.663   6.378   2.280
 5063SOL    HW216089   1.655   6.510   2.184
 5064SOL     OW16090   4.724   5.584   0.768
 5064SOL    HW116091   4.683   5.674   0.755
 5064SOL    HW216092   4.821   5.587   0.743
 5065SOL     OW16093   2.177   0.310   3.113
 5065SOL    HW116094   2.113   0.274   3.045
 5065SOL    HW216095   2.204   0.236   3.175
 5066SOL     OW16096   1.968   4.720   1.807
 5066SOL    HW116097   1.873   4.701   1.781
 5066SOL    HW216098   1.982   4.818   1.814
 5067SOL     OW16099   3.934   2.157   1.628
 5067SOL    HW116100   3.991   2.231   1.591
 5067SOL    HW216101   3.838   2.175   1.605
 5068SOL     OW16102   3.918   5.848   0.932
 5068SOL    HW116103   3.954   5.761   0.966
 5068SOL    HW216104   3.855   5.829   0.856
 5069SOL     OW16105   2.799   4.067   6.366
 5069SOL    HW116106   2.850   4.012   6.299
 5069SOL    HW216107   2.846   4.064   6.454
 5070SOL     OW16108   5.541   3.418   4.315
 5070SOL    HW116109   5.613   3.349   4.324
 5070SOL    HW216110   5.453   3.372   4.303
 5071SOL     OW16111   3.838   0.907   3.762
 5071SOL    HW116112   3.873   0.987   3.713
 5071SOL    HW216113   3.897   0.887   3.840
 5072SOL     OW16114   1.343   0.517   0.726
 5072SOL    HW116115   1.303   0.595   0.679
 5072SOL    HW216116   1.309   0.514   0.820
 5073SOL     OW16117   2.645   6.454   2.524
 5073SOL    HW116118   2.732   6.465   2.573
 5073SOL    HW216119   2.662   6.414   2.434
 5074SOL     OW16120   3.475   1.919   1.422
 5074SOL    HW116121   3.493   1.833   1.470
 5074SOL    HW216122   3.401   1.968   1.468
 5075SOL     OW16123   1.474   2.947   6.997
 5075SOL    HW116124   1.522   2.932   0.059
 5075SOL    HW216125   1.490   2.870   6.935
 5076SOL     OW16126   5.166   0.979   0.113
 5076SOL    HW116127   5.197   1.069   0.143
 5076SOL    HW216128   5.245   0.927   0.078
 5077SOL     OW16129   1.471   4.163   4.749
 5077SOL    HW116130   1.473   4.070   4.786
 5077SOL    HW216131   1.514   4.165   4.659
 5078SOL     OW16132   0.516   1.223   3.846
 5078SOL    HW116133   0.599   1.215   3.902
 5078SOL    HW216134   0.491   1.132   3.812
 5079SOL     OW16135   1.742   1.882   5.742
 5079SOL    HW116136   1.785   1.801   5.703
 5079SOL    HW216137   1.699   1.935   5.669
 5080SOL     OW16138   5.894   5.322   5.965
 5080SOL    HW116139   5.885   5.267   5.882
 5080SOL    HW216140   5.892   5.262   6.045
 5081SOL     OW16141   3.629   5.841   5.135
 5081SOL    HW116142   3.564   5.844   5.211
 5081SOL    HW216143   3.582   5.870   5.051
 5082SOL     OW16144   4.562   6.419   0.576
 5082SOL    HW116145   4.494   6.492   0.584
 5082SOL    HW216146   4.559   6.362   0.658
 5083SOL     OW16147   2.773   0.742   2.484
 5083SOL    HW116148   2.793   0.725   2.580
 5083SOL    HW216149   2.832   0.687   2.426
 5084SOL     OW16150   0.807   5.284   5.194
 5084SOL    HW116151   0.851   5.225   5.126
 5084SOL    HW216152   0.848   5.375   5.190
 5085SOL     OW16153   1.411   3.670   5.811
 5085SOL    HW116154   1.335   3.719   5.769
 5085SOL    HW216155   1.481   3.735   5.839
 5086SOL     OW16156   0.876   4.744   2.760
 5086SOL    HW116157   0.858   4.667   2.821
 5086SOL    HW216158   0.970   4.775   2.774
 5087SOL     OW16159   6.796   5.202   2.327
 5087SOL    HW116160   6.865   5.173   2.393
 5087SOL    HW216161   6.742   5.277   2.365
 5088SOL     OW16162   4.374   6.166   2.427
 5088SOL    HW116163   4.454   6.116   2.460
 5088SOL    HW216164   4.291   6.120   2.459
 5089SOL     OW16165   5.247   3.894   4.820
 5089SOL    HW116166   5.284   3.951   4.747
 5089SOL    HW216167   5.210   3.810   4.781
 5090SOL     OW16168   1.609   0.053   3.636
 5090SOL    HW116169   1.516   0.059   3.599
 5090SOL    HW216170   1.628   6.984   3.665
 5091SOL     OW16171   6.560   0.208   0.422
 5091SOL    HW116172   6.472   0.213   0.376
 5091SOL    HW216173   6.619   0.143   0.375
 5092SOL     OW16174   3.343   4.016   4.319
 5092SOL    HW116175   3.257   4.064   4.306
 5092SOL    HW216176   3.417   4.066   4.274
 5093SOL     OW16177   2.356   1.189   2.604
 5093SOL    HW116178   2.339   1.114   2.539
 5093SOL    HW216179   2.453   1.189   2.629
 5094SOL     OW16180   2.459   5.513   6.775
 5094SOL    HW116181   2.401   5.482   6.700
 5094SOL    HW216182   2.493   5.605   6.756
 5095SOL     OW16183   0.550   1.251   3.556
 5095SOL    HW116184   0.592   1.214   3.638
 5095SOL    HW216185   0.502   1.336   3.578
 5096SOL     OW16186   5.200   3.754   6.356
 5096SOL    HW116187   5.155   3.762   6.267
 5096SOL    HW216188   5.203   3.843   6.400
 5097SOL     OW16189   6.334   6.411   6.806
 5097SOL    HW116190   6.398   6.488   6.802
 5097SOL    HW216191   6.278   6.410   6.723
 5098SOL     OW16192   3.895   2.091   1.907
 5098SOL    HW116193   3.825   2.152   1.945
 5098SOL    HW216194   3.903   2.108   1.808
 5099SOL     OW16195   0.583   5.998   1.888
 5099SOL    HW116196   0.492   5.959   1.895
 5099SOL    HW216197   0.604   6.016   1.792
 5100SOL     OW16198   4.642   4.750   2.589
 5100SOL    HW116199   4.589   4.685   2.643
 5100SOL    HW216200   4.579   4.812   2.541
 5101SOL     OW16201   4.020   0.406   5.245
 5101SOL    HW116202   3.954   0.462   5.295
 5101SOL    HW216203   4.082   0.466   5.194
 5102SOL     OW16204   4.625   5.604   4.163
 5102SOL    HW116205   4.676   5.688   4.142
 5102SOL    HW216206   4.685   5.538   4.208
 5103SOL     OW16207   0.656   0.592   5.016
 5103SOL    HW116208   0.656   0.525   4.942
 5103SOL    HW216209   0.561   0.616   5.039
 5104SOL     OW16210   3.400   6.296   2.199
 5104SOL    HW116211   3.439   6.378   2.157
 5104SOL    HW216212   3.367   6.318   2.291
 5105SOL     OW16213   3.017   3.390   0.146
 5105SOL    HW116214   3.114   3.376   0.131
 5105SOL    HW216215   2.974   3.304   0.174
 5106SOL     OW16216   4.154   2.334   1.127
 5106SOL    HW116217   4.065   2.296   1.100
 5106SOL    HW216218   4.218   2.260   1.143
 5107SOL     OW16219   5.636   2.705   1.175
 5107SOL    HW116220   5.588   2.770   1.117
 5107SOL    HW216221   5.699   2.754   1.235
 5108SOL     OW16222   4.629   4.283   5.849
 5108SOL    HW116223   4.684   4.301   5.931
 5108SOL    HW216224   4.547   4.340   5.850
 5109SOL     OW16225   1.796   3.120   1.536
 5109SOL    HW116226   1.846   3.171   1.606
 5109SOL    HW216227   1.848   3.120   1.451
 5110SOL     OW16228   6.954   6.467   6.388
 5110SOL    HW116229   7.005   6.552   6.387
 5110SOL    HW216230   6.861   6.483   6.354
 5111SOL     OW16231   1.292   6.371   4.803
 5111SOL    HW116232   1.208   6.328   4.838
 5111SOL    HW216233   1.289   6.469   4.819
 5112SOL     OW16234   0.502   0.050   2.626
 5112SOL    HW116235   0.579   0.113   2.637
 5112SOL    HW216236   0.425   0.080   2.682
 5113SOL     OW16237   2.061   5.285   0.341
 5113SOL    HW116238   2.054   5.185   0.343
 5113SOL    HW216239   2.005   5.320   0.266
 5114SOL     OW16240   3.728   0.208   0.828
 5114SOL    HW116241   3.808   0.178   0.880
 5114SOL    HW216242   3.663   0.251   0.890
 5115SOL     OW16243   2.023   3.771   1.485
 5115SOL    HW116244   1.925   3.754   1.494
 5115SOL    HW216245   2.056   3.822   1.564
 5116SOL     OW16246   2.902   6.672   6.671
 5116SOL    HW116247   2.814   6.720   6.670
 5116SOL    HW216248   2.890   6.581   6.632
 5117SOL     OW16249   0.550   3.358   4.410
 5117SOL    HW116250   0.542   3.363   4.310
 5117SOL    HW216251   0.604   3.278   4.435
 5118SOL     OW16252   5.924   0.234   0.653
 5118SOL    HW116253   5.863   0.187   0.717
 5118SOL    HW216254   6.018   0.206   0.670
 5119SOL     OW16255   5.311   1.736   0.530
 5119SOL    HW116256   5.231   1.784   0.567
 5119SOL    HW216257   5.393   1.766   0.580
 5120SOL     OW16258   5.050   0.533   5.163
 5120SOL    HW116259   5.066   0.530   5.065
 5120SOL    HW216260   5.137   0.548   5.210
 5121SOL     OW16261   3.277   3.860   6.777
 5121SOL    HW116262   3.304   3.947   6.817
 5121SOL    HW216263   3.277   3.789   6.848
 5122SOL     OW16264   3.865   5.258   3.295
 5122SOL    HW116265   3.837   5.343   3.251
 5122SOL    HW216266   3.789   5.192   3.292
 5123SOL     OW16267   5.161   2.136   2.333
 5123SOL    HW116268   5.168   2.165   2.237
 5123SOL    HW216269   5.070   2.095   2.348
 5124SOL     OW16270   1.882   6.248   3.702
 5124SOL    HW116271   1.897   6.320   3.635
 5124SOL    HW216272   1.822   6.283   3.774
 5125SOL     OW16273   0.135   1.525   3.710
 5125SOL    HW116274   0.060   1.542   3.773
 5125SOL    HW216275   0.171   1.433   3.724
 5126SOL     OW16276   1.051   6.465   0.591
 5126SOL    HW116277   1.063   6.373   0.629
 5126SOL    HW216278   1.082   6.533   0.658
 5127SOL     OW16279   1.953   5.856   0.122
 5127SOL    HW116280   2.047   5.821   0.130
 5127SOL    HW216281   1.891   5.798   0.174
 5128SOL     OW16282   0.120   5.879   1.386
 5128SOL    HW116283   0.183   5.824   1.331
 5128SOL    HW216284   0.118   5.973   1.351
 5129SOL     OW16285   4.465   6.287   1.647
 5129SOL    HW116286   4.554   6.242   1.647
 5129SOL    HW216287   4.456   6.342   1.730
 5130SOL     OW16288   6.799   4.685   2.848
 5130SOL    HW116289   6.785   4.614   2.779
 5130SOL    HW216290   6.765   4.653   2.936
 5131SOL     OW16291   1.252   3.028   3.320
 5131SOL    HW116292   1.313   3.065   3.390
 5131SOL    HW216293   1.199   3.103   3.280
 5132SOL     OW16294   3.172   3.716   6.079
 5132SOL    HW116295   3.234   3.645   6.046
 5132SOL    HW216296   3.147   3.776   6.004
 5133SOL     OW16297   3.395   5.432   0.265
 5133SOL    HW116298   3.306   5.407   0.306
 5133SOL    HW216299   3.412   5.374   0.186
 5134SOL     OW16300   0.853   3.214   1.854
 5134SOL    HW116301   0.855   3.314   1.855
 5134SOL    HW216302   0.773   3.183   1.802
 5135SOL     OW16303   6.746   2.331   6.001
 5135SOL    HW116304   6.739   2.399   6.075
 5135SOL    HW216305   6.803   2.255   6.032
 5136SOL     OW16306   5.243   0.586   4.674
 5136SOL    HW116307   5.212   0.582   4.579
 5136SOL    HW216308   5.338   0.556   4.679
 5137SOL     OW16309   6.030   3.227   6.471
 5137SOL    HW116310   5.937   3.217   6.437
 5137SOL    HW216311   6.067   3.137   6.494
 5138SOL     OW16312   4.258   3.143   6.784
 5138SOL    HW116313   4.273   3.213   6.853
 5138SOL    HW216314   4.161   3.141   6.759
 5139SOL     OW16315   1.677   6.542   4.005
 5139SOL    HW116316   1.609   6.527   4.076
 5139SOL    HW216317   1.673   6.467   3.939
 5140SOL     OW16318   2.485   1.644   0.522
 5140SOL    HW116319   2.433   1.690   0.593
 5140SOL    HW216320   2.572   1.692   0.507
 5141SOL     OW16321   5.763   3.847   1.227
 5141SOL    HW116322   5.846   3.795   1.243
 5141SOL    HW216323   5.777   3.908   1.149
 5142SOL     OW16324   6.204   2.653   4.515
 5142SOL    HW116325   6.218   2.715   4.592
 5142SOL    HW216326   6.266   2.678   4.440
 5143SOL     OW16327   1.059   4.531   4.332
 5143SOL    HW116328   1.072   4.553   4.428
 5143SOL    HW216329   1.027   4.436   4.323
 5144SOL     OW16330   1.598   6.568   6.149
 5144SOL    HW116331   1.546   6.638   6.198
 5144SOL    HW216332   1.572   6.569   6.052
 5145SOL     OW16333   2.331   5.424   6.543
 5145SOL    HW116334   2.374   5.469   6.465
 5145SOL    HW216335   2.364   5.330   6.550
 5146SOL     OW16336   4.097   3.824   6.693
 5146SOL    HW116337   4.086   3.875   6.779
 5146SOL    HW216338   4.011   3.824   6.643
 5147SOL     OW16339   0.252   4.104   1.535
 5147SOL    HW116340   0.345   4.140   1.542
 5147SOL    HW216341   0.187   4.173   1.567
 5148SOL     OW16342   0.572   5.963   0.880
 5148SOL    HW116343   0.574   6.017   0.964
 5148SOL    HW216344   0.573   6.024   0.801
 5149SOL     OW16345   6.129   0.227   3.606
 5149SOL    HW116346   6.107   0.261   3.514
 5149SOL    HW216347   6.086   0.138   3.620
 5150SOL     OW16348   2.007   6.011   4.226
 5150SOL    HW116349   2.094   5.963   4.235
 5150SOL    HW216350   2.018   6.107   4.253
 5151SOL     OW16351   5.724   1.079   6.681
 5151SOL    HW116352   5.637   1.037   6.654
 5151SOL    HW216353   5.710   1.177   6.695
 5152SOL     OW16354   2.180   4.955   0.064
 5152SOL    HW116355   2.159   4.873   0.010
 5152SOL    HW216356   2.244   4.932   0.137
 5153SOL     OW16357   1.824   1.862   0.173
 5153SOL    HW116358   1.920   1.868   0.200
 5153SOL    HW216359   1.807   1.776   0.125
 5154SOL     OW16360   2.052   3.348   6.026
 5154SOL    HW116361   2.041   3.374   6.122
 5154SOL    HW216362   1.968   3.302   5.994
 5155SOL     OW16363   4.151   6.202   2.153
 5155SOL    HW116364   4.168   6.298   2.172
 5155SOL    HW216365   4.059   6.190   2.117
 5156SOL     OW16366   6.720   2.507   6.285
 5156SOL    HW116367   6.621   2.507   6.274
 5156SOL    HW216368   6.749   2.594   6.326
 5157SOL     OW16369   4.797   2.889   3.868
 5157SOL    HW116370   4.777   2.946   3.787
 5157SOL    HW216371   4.755   2.799   3.856
 5158SOL     OW16372   2.626   2.159   1.421
 5158SOL    HW116373   2.717   2.118   1.424
 5158SOL    HW216374   2.634   2.252   1.384
 5159SOL     OW16375   1.046   3.867   4.722
 5159SOL    HW116376   1.062   3.858   4.820
 5159SOL    HW216377   1.125   3.829   4.672
 5160SOL     OW16378   1.299   3.807   4.310
 5160SOL    HW116379   1.319   3.712   4.286
 5160SOL    HW216380   1.326   3.866   4.233
 5161SOL     OW16381   1.134   4.460   5.535
 5161SOL    HW116382   1.049   4.409   5.544
 5161SOL    HW216383   1.173   4.446   5.444
 5162SOL     OW16384   0.071   5.073   4.468
 5162SOL    HW116385   0.059   5.108   4.561
 5162SOL    HW216386   0.167   5.079   4.442
 5163SOL     OW16387   4.768   5.156   1.225
 5163SOL    HW116388   4.846   5.203   1.184
 5163SOL    HW216389   4.798   5.106   1.306
 5164SOL     OW16390   5.852   2.188   5.408
 5164SOL    HW116391   5.917   2.204   5.334
 5164SOL    HW216392   5.763   2.161   5.370
 5165SOL     OW16393   5.772   4.898   5.040
 5165SOL    HW116394   5.743   4.808   5.073
 5165SOL    HW216395   5.868   4.912   5.061
 5166SOL     OW16396   1.881   5.155   1.917
 5166SOL    HW116397   1.945   5.183   1.845
 5166SOL    HW216398   1.850   5.062   1.899
 5167SOL     OW16399   6.515   6.880   5.150
 5167SOL    HW116400   6.562   6.809   5.203
 5167SOL    HW216401   6.499   6.848   5.057
 5168SOL     OW16402   4.514   2.459   3.397
 5168SOL    HW116403   4.546   2.554   3.390
 5168SOL    HW216404   4.464   2.435   3.314
 5169SOL     OW16405   3.319   3.568   6.380
 5169SOL    HW116406   3.277   3.655   6.353
 5169SOL    HW216407   3.349   3.573   6.475
 5170SOL     OW16408   0.057   4.615   5.781
 5170SOL    HW116409   0.044   4.712   5.798
 5170SOL    HW216410   7.002   4.579   5.730
 5171SOL     OW16411   2.614   4.675   4.360
 5171SOL    HW116412   2.604   4.631   4.449
 5171SOL    HW216413   2.525   4.706   4.328
 5172SOL     OW16414   0.453   3.582   1.892
 5172SOL    HW116415   0.454   3.578   1.992
 5172SOL    HW216416   0.498   3.666   1.861
 5173SOL     OW16417   5.828   4.062   6.696
 5173SOL    HW116418   5.888   4.070   6.616
 5173SOL    HW216419   5.872   4.107   6.774
 5174SOL     OW16420   2.167   4.719   4.923
 5174SOL    HW116421   2.158   4.810   4.883
 5174SOL    HW216422   2.224   4.724   5.005
 5175SOL     OW16423   1.783   4.185   0.091
 5175SOL    HW116424   1.704   4.134   0.057
 5175SOL    HW216425   1.776   4.196   0.190
 5176SOL     OW16426   3.870   3.159   0.178
 5176SOL    HW116427   3.922   3.075   0.192
 5176SOL    HW216428   3.798   3.165   0.247
 5177SOL     OW16429   4.669   0.369   5.460
 5177SOL    HW116430   4.655   0.382   5.362
 5177SOL    HW216431   4.750   0.420   5.490
 5178SOL     OW16432   2.199   2.501   1.443
 5178SOL    HW116433   2.263   2.566   1.485
 5178SOL    HW216434   2.106   2.538   1.449
 5179SOL     OW16435   4.805   6.664   5.424
 5179SOL    HW116436   4.819   6.759   5.395
 5179SOL    HW216437   4.888   6.629   5.467
 5180SOL     OW16438   3.491   2.296   6.894
 5180SOL    HW116439   3.437   2.335   6.969
 5180SOL    HW216440   3.458   2.204   6.875
 5181SOL     OW16441   3.701   0.795   2.765
 5181SOL    HW116442   3.688   0.845   2.680
 5181SOL    HW216443   3.652   0.842   2.839
 5182SOL     OW16444   5.960   5.030   1.641
 5182SOL    HW116445   6.058   5.045   1.658
 5182SOL    HW216446   5.947   4.941   1.598
 5183SOL     OW16447   4.407   6.979   2.051
 5183SOL    HW116448   4.424   6.976   2.150
 5183SOL    HW216449   4.491   6.953   2.003
 5184SOL     OW16450   0.962   1.437   3.947
 5184SOL    HW116451   0.944   1.455   3.850
 5184SOL    HW216452   0.983   1.340   3.959
 5185SOL     OW16453   3.921   6.760   2.822
 5185SOL    HW116454   3.827   6.783   2.846
 5185SOL    HW216455   3.946   6.672   2.863
 5186SOL     OW16456   6.238   3.722   0.966
 5186SOL    HW116457   6.264   3.640   1.016
 5186SOL    HW216458   6.311   3.748   0.903
 5187SOL     OW16459   6.815   1.518   3.342
 5187SOL    HW116460   6.775   1.556   3.259
 5187SOL    HW216461   6.804   1.419   3.342
 5188SOL     OW16462   0.479   4.984   6.994
 5188SOL    HW116463   0.419   5.028   0.036
 5188SOL    HW216464   0.572   4.980   0.006
 5189SOL     OW16465   4.733   4.849   6.952
 5189SOL    HW116466   4.734   4.922   7.020
 5189SOL    HW216467   4.803   4.866   6.883
 5190SOL     OW16468   0.781   2.030   3.864
 5190SOL    HW116469   0.825   2.108   3.820
 5190SOL    HW216470   0.822   1.945   3.831
 5191SOL     OW16471   3.224   1.199   1.894
 5191SOL    HW116472   3.142   1.161   1.938
 5191SOL    HW216473   3.292   1.127   1.883
 5192SOL     OW16474   4.898   5.253   2.371
 5192SOL    HW116475   4.967   5.325   2.367
 5192SOL    HW216476   4.943   5.165   2.388
 5193SOL     OW16477   4.511   4.432   3.919
 5193SOL    HW116478   4.482   4.515   3.871
 5193SOL    HW216479   4.555   4.370   3.853
 5194SOL     OW16480   4.987   0.784   5.930
 5194SOL    HW116481   5.031   0.815   6.014
 5194SOL    HW216482   4.994   0.856   5.860
 5195SOL     OW16483   6.348   6.850   4.605
 5195SOL    HW116484   6.323   6.936   4.649
 5195SOL    HW216485   6.448   6.845   4.598
 5196SOL     OW16486   0.598   4.202   1.849
 5196SOL    HW116487   0.635   4.278   1.903
 5196SOL    HW216488   0.633   4.116   1.885
 5197SOL     OW16489   1.698   6.311   4.315
 5197SOL    HW116490   1.658   6.355   4.395
 5197SOL    HW216491   1.638   6.238   4.283
 5198SOL     OW16492   2.673   6.697   4.942
 5198SOL    HW116493   2.712   6.708   4.851
 5198SOL    HW216494   2.700   6.608   4.979
 5199SOL     OW16495   2.084   5.469   1.661
 5199SOL    HW116496   2.005   5.492   1.604
 5199SOL    HW216497   2.161   5.527   1.635
 5200SOL     OW16498   1.063   1.810   4.909
 5200SOL    HW116499   1.028   1.728   4.955
 5200SOL    HW216500   1.091   1.877   4.978
 5201SOL     OW16501   5.429   4.937   4.451
 5201SOL    HW116502   5.518   4.905   4.484
 5201SOL    HW216503   5.426   4.932   4.352
 5202SOL     OW16504   5.192   3.094   0.163
 5202SOL    HW116505   5.205   3.065   0.258
 5202SOL    HW216506   5.178   3.193   0.160
 5203SOL     OW16507   1.501   0.244   6.640
 5203SOL    HW116508   1.473   0.245   6.544
 5203SOL    HW216509   1.567   0.317   6.657
 5204SOL     OW16510   3.699   6.969   6.922
 5204SOL    HW116511   3.628   7.010   6.865
 5204SOL    HW216512   3.682   6.991   7.018
 5205SOL     OW16513   6.532   6.044   0.966
 5205SOL    HW116514   6.590   6.125   0.957
 5205SOL    HW216515   6.556   5.996   1.051
 5206SOL     OW16516   0.737   4.353   5.000
 5206SOL    HW116517   0.694   4.263   5.005
 5206SOL    HW216518   0.726   4.399   5.088
 5207SOL     OW16519   0.200   6.894   4.303
 5207SOL    HW116520   0.176   6.941   4.388
 5207SOL    HW216521   0.298   6.907   4.284
 5208SOL     OW16522   4.987   2.403   0.399
 5208SOL    HW116523   4.910   2.406   0.462
 5208SOL    HW216524   4.965   2.456   0.317
 5209SOL     OW16525   4.685   0.032   3.491
 5209SOL    HW116526   4.666   6.959   3.481
 5209SOL    HW216527   4.735   0.064   3.410
 5210SOL     OW16528   5.071   4.677   1.301
 5210SOL    HW116529   5.009   4.751   1.275
 5210SOL    HW216530   5.164   4.713   1.312
 5211SOL     OW16531   5.239   2.049   3.989
 5211SOL    HW116532   5.264   2.143   4.011
 5211SOL    HW216533   5.170   2.017   4.054
 5212SOL     OW16534   1.169   2.026   1.278
 5212SOL    HW116535   1.084   2.053   1.232
 5212SOL    HW216536   1.243   2.087   1.251
 5213SOL     OW16537   4.117   3.655   2.423
 5213SOL    HW116538   4.109   3.555   2.428
 5213SOL    HW216539   4.094   3.694   2.512
 5214SOL     OW16540   5.552   4.520   6.457
 5214SOL    HW116541   5.536   4.426   6.429
 5214SOL    HW216542   5.612   4.521   6.537
 5215SOL     OW16543   0.125   3.146   4.790
 5215SOL    HW116544   0.033   3.109   4.803
 5215SOL    HW216545   0.170   3.099   4.714
 5216SOL     OW16546   5.413   4.858   0.990
 5216SOL    HW116547   5.367   4.947   0.997
 5216SOL    HW216548   5.435   4.839   0.894
 5217SOL     OW16549   3.824   5.704   4.197
 5217SOL    HW116550   3.919   5.683   4.222
 5217SOL    HW216551   3.821   5.790   4.147
 5218SOL     OW16552   0.608   0.743   0.887
 5218SOL    HW116553   0.676   0.672   0.905
 5218SOL    HW216554   0.618   0.775   0.793
 5219SOL     OW16555   2.686   2.142   5.243
 5219SOL    HW116556   2.729   2.206   5.179
 5219SOL    HW216557   2.616   2.189   5.296
 5220SOL     OW16558   2.229   5.685   3.197
 5220SOL    HW116559   2.228   5.780   3.227
 5220SOL    HW216560   2.278   5.629   3.264
 5221SOL     OW16561   6.857   0.494   1.409
 5221SOL    HW116562   6.904   0.432   1.472
 5221SOL    HW216563   6.825   0.575   1.459
 5222SOL     OW16564   4.406   4.749   1.498
 5222SOL    HW116565   4.425   4.708   1.409
 5222SOL    HW216566   4.486   4.739   1.557
 5223SOL     OW16567   0.235   3.191   0.574
 5223SOL    HW116568   0.164   3.181   0.505
 5223SOL    HW216569   0.258   3.102   0.612
 5224SOL     OW16570   1.010   1.633   4.299
 5224SOL    HW116571   1.081   1.703   4.309
 5224SOL    HW216572   0.928   1.674   4.259
 5225SOL     OW16573   6.565   1.083   4.759
 5225SOL    HW116574   6.660   1.054   4.750
 5225SOL    HW216575   6.508   1.005   4.782
 5226SOL     OW16576   0.623   5.787   3.499
 5226SOL    HW116577   0.663   5.876   3.482
 5226SOL    HW216578   0.549   5.796   3.565
 5227SOL     OW16579   6.978   3.564   5.705
 5227SOL    HW116580   6.991   3.525   5.614
 5227SOL    HW216581   6.887   3.538   5.739
 5228SOL     OW16582   1.472   2.886   5.897
 5228SOL    HW116583   1.386   2.846   5.930
 5228SOL    HW216584   1.549   2.829   5.926
 5229SOL     OW16585   3.865   6.762   6.845
 5229SOL    HW116586   3.810   6.838   6.879
 5229SOL    HW216587   3.943   6.797   6.794
 5230SOL     OW16588   6.995   0.159   1.962
 5230SOL    HW116589   6.924   0.230   1.961
 5230SOL    HW216590   6.971   0.089   2.030
 5231SOL     OW16591   5.617   1.453   3.155
 5231SOL    HW116592   5.553   1.531   3.151
 5231SOL    HW216593   5.703   1.483   3.196
 5232SOL     OW16594   1.864   3.887   6.065
 5232SOL    HW116595   1.823   3.914   6.152
 5232SOL    HW216596   1.902   3.795   6.073
 5233SOL     OW16597   3.037   0.929   2.661
 5233SOL    HW116598   2.969   0.865   2.697
 5233SOL    HW216599   3.129   0.892   2.675
 5234SOL     OW16600   1.575   2.313   0.640
 5234SOL    HW116601   1.564   2.411   0.656
 5234SOL    HW216602   1.668   2.286   0.664
 5235SOL     OW16603   2.332   1.589   0.995
 5235SOL    HW116604   2.274   1.646   0.937
 5235SOL    HW216605   2.428   1.616   0.983
 5236SOL     OW16606   3.390   5.137   2.361
 5236SOL    HW116607   3.290   5.135   2.360
 5236SOL    HW216608   3.421   5.212   2.420
 5237SOL     OW16609   1.797   2.393   4.319
 5237SOL    HW116610   1.797   2.329   4.243
 5237SOL    HW216611   1.716   2.452   4.313
 5238SOL     OW16612   1.183   4.770   2.879
 5238SOL    HW116613   1.180   4.691   2.940
 5238SOL    HW216614   1.215   4.851   2.929
 5239SOL     OW16615   3.061   3.497   1.324
 5239SOL    HW116616   3.054   3.508   1.225
 5239SOL    HW216617   3.026   3.579   1.369
 5240SOL     OW16618   2.613   2.899   5.963
 5240SOL    HW116619   2.712   2.890   5.975
 5240SOL    HW216620   2.566   2.861   6.043
 5241SOL     OW16621   1.466   6.090   2.167
 5241SOL    HW116622   1.407   6.078   2.088
 5241SOL    HW216623   1.559   6.109   2.137
 5242SOL     OW16624   5.041   0.993   0.921
 5242SOL    HW116625   4.974   0.924   0.890
 5242SOL    HW216626   4.996   1.057   0.982
 5243SOL     OW16627   1.957   6.021   1.750
 5243SOL    HW116628   2.034   6.006   1.687
 5243SOL    HW216629   1.937   6.119   1.754
 5244SOL     OW16630   5.095   3.592   0.950
 5244SOL    HW116631   5.029   3.606   0.876
 5244SOL    HW216632   5.168   3.660   0.944
 5245SOL     OW16633   4.156   4.403   0.453
 5245SOL    HW116634   4.189   4.371   0.364
 5245SOL    HW216635   4.057   4.396   0.456
 5246SOL     OW16636   6.588   2.803   2.055
 5246SOL    HW116637   6.535   2.883   2.027
 5246SOL    HW216638   6.673   2.834   2.098
 5247SOL     OW16639   3.455   1.687   5.458
 5247SOL    HW116640   3.530   1.747   5.486
 5247SOL    HW216641   3.405   1.657   5.539
 5248SOL     OW16642   6.863   1.819   2.683
 5248SOL    HW116643   6.821   1.732   2.708
 5248SOL    HW216644   6.888   1.818   2.586
 5249SOL     OW16645   1.254   4.784   0.451
 5249SOL    HW116646   1.163   4.744   0.447
 5249SOL    HW216647   1.271   4.837   0.368
 5250SOL     OW16648   2.088   5.543   0.292
 5250SOL    HW116649   2.171   5.552   0.237
 5250SOL    HW216650   2.092   5.459   0.345
 5251SOL     OW16651   1.275   4.214   1.452
 5251SOL    HW116652   1.281   4.257   1.362
 5251SOL    HW216653   1.232   4.124   1.444
 5252SOL     OW16654   3.181   6.657   2.189
 5252SOL    HW116655   3.098   6.709   2.171
 5252SOL    HW216656   3.161   6.559   2.186
 5253SOL     OW16657   5.756   4.487   4.886
 5253SOL    HW116658   5.811   4.408   4.862
 5253SOL    HW216659   5.700   4.466   4.966
 5254SOL     OW16660   5.629   0.109   3.035
 5254SOL    HW116661   5.707   0.060   3.074
 5254SOL    HW216662   5.652   0.205   3.023
 5255SOL     OW16663   5.596   2.005   4.744
 5255SOL    HW116664   5.602   2.078   4.675
 5255SOL    HW216665   5.624   1.918   4.703
 5256SOL     OW16666   4.540   0.901   3.145
 5256SOL    HW116667   4.507   0.971   3.083
 5256SOL    HW216668   4.522   0.929   3.239
 5257SOL     OW16669   3.971   0.435   6.936
 5257SOL    HW116670   3.913   0.354   6.934
 5257SOL    HW216671   4.001   0.458   6.843
 5258SOL     OW16672   5.456   1.526   2.525
 5258SOL    HW116673   5.452   1.625   2.535
 5258SOL    HW216674   5.476   1.484   2.614
 5259SOL     OW16675   5.082   5.501   3.060
 5259SOL    HW116676   5.075   5.402   3.051
 5259SOL    HW216677   4.994   5.538   3.088
 5260SOL     OW16678   2.861   5.650   0.127
 5260SOL    HW116679   2.768   5.668   0.160
 5260SOL    HW216680   2.908   5.737   0.111
 5261SOL     OW16681   6.745   5.109   1.042
 5261SOL    HW116682   6.798   5.073   1.118
 5261SOL    HW216683   6.658   5.146   1.075
 5262SOL     OW16684   2.168   0.691   2.825
 5262SOL    HW116685   2.187   0.648   2.737
 5262SOL    HW216686   2.116   0.776   2.811
 5263SOL     OW16687   1.623   0.951   3.367
 5263SOL    HW116688   1.623   0.919   3.272
 5263SOL    HW216689   1.703   0.915   3.414
 5264SOL     OW16690   6.865   2.009   1.769
 5264SOL    HW116691   6.770   2.032   1.787
 5264SOL    HW216692   6.871   1.959   1.682
 5265SOL     OW16693   5.494   2.553   4.542
 5265SOL    HW116694   5.409   2.500   4.552
 5265SOL    HW216695   5.473   2.650   4.549
 5266SOL     OW16696   2.355   6.574   0.679
 5266SOL    HW116697   2.261   6.556   0.651
 5266SOL    HW216698   2.365   6.557   0.777
 5267SOL     OW16699   4.435   2.393   4.404
 5267SOL    HW116700   4.513   2.368   4.346
 5267SOL    HW216701   4.441   2.490   4.427
 5268SOL     OW16702   5.527   0.689   6.858
 5268SOL    HW116703   5.622   0.705   6.883
 5268SOL    HW216704   5.518   0.599   6.817
 5269SOL     OW16705   0.581   6.640   2.208
 5269SOL    HW116706   0.514   6.684   2.149
 5269SOL    HW216707   0.536   6.605   2.290
 5270SOL     OW16708   6.239   2.052   0.440
 5270SOL    HW116709   6.145   2.079   0.417
 5270SOL    HW216710   6.289   2.132   0.473
 5271SOL     OW16711   6.333   5.159   4.870
 5271SOL    HW116712   6.270   5.235   4.853
 5271SOL    HW216713   6.281   5.076   4.888
 5272SOL     OW16714   3.918   6.648   0.727
 5272SOL    HW116715   3.865   6.615   0.648
 5272SOL    HW216716   3.873   6.619   0.811
 5273SOL     OW16717   1.115   3.266   2.736
 5273SOL    HW116718   1.194   3.322   2.715
 5273SOL    HW216719   1.046   3.321   2.784
 5274SOL     OW16720   4.658   6.813   2.403
 5274SOL    HW116721   4.668   6.765   2.316
 5274SOL    HW216722   4.748   6.828   2.443
 5275SOL     OW16723   2.774   0.310   0.867
 5275SOL    HW116724   2.787   0.401   0.828
 5275SOL    HW216725   2.678   0.299   0.895
 5276SOL     OW16726   2.234   6.776   1.773
 5276SOL    HW116727   2.247   6.768   1.674
 5276SOL    HW216728   2.304   6.836   1.811
 5277SOL     OW16729   2.897   1.144   2.598
 5277SOL    HW116730   2.859   1.142   2.505
 5277SOL    HW216731   2.948   1.060   2.615
 5278SOL     OW16732   4.113   4.998   2.768
 5278SOL    HW116733   4.181   4.992   2.695
 5278SOL    HW216734   4.033   4.944   2.745
 5279SOL     OW16735   2.902   5.506   1.192
 5279SOL    HW116736   2.906   5.583   1.129
 5279SOL    HW216737   2.940   5.425   1.148
 5280SOL     OW16738   3.240   6.223   5.258
 5280SOL    HW116739   3.151   6.233   5.214
 5280SOL    HW216740   3.229   6.172   5.344
 5281SOL     OW16741   0.064   1.507   2.523
 5281SOL    HW116742   0.077   1.605   2.531
 5281SOL    HW216743   0.152   1.461   2.525
 5282SOL     OW16744   2.625   2.114   3.255
 5282SOL    HW116745   2.693   2.141   3.323
 5282SOL    HW216746   2.549   2.179   3.257
 5283SOL     OW16747   5.308   5.568   0.929
 5283SOL    HW116748   5.369   5.632   0.976
 5283SOL    HW216749   5.214   5.602   0.934
 5284SOL     OW16750   5.399   4.238   2.928
 5284SOL    HW116751   5.457   4.159   2.912
 5284SOL    HW216752   5.347   4.225   3.012
 5285SOL     OW16753   3.206   4.861   3.977
 5285SOL    HW116754   3.219   4.763   3.967
 5285SOL    HW216755   3.286   4.901   4.023
 5286SOL     OW16756   2.290   4.315   1.156
 5286SOL    HW116757   2.315   4.349   1.065
 5286SOL    HW216758   2.207   4.260   1.150
 5287SOL     OW16759   2.482   1.024   0.580
 5287SOL    HW116760   2.426   1.106   0.577
 5287SOL    HW216761   2.428   0.945   0.550
 5288SOL     OW16762   3.049   0.331   0.937
 5288SOL    HW116763   2.950   0.323   0.937
 5288SOL    HW216764   3.088   0.265   0.873
 5289SOL     OW16765   0.929   5.131   0.936
 5289SOL    HW116766   1.009   5.078   0.966
 5289SOL    HW216767   0.846   5.087   0.970
 5290SOL     OW16768   3.793   5.659   0.127
 5290SOL    HW116769   3.733   5.588   0.090
 5290SOL    HW216770   3.827   5.716   0.053
 5291SOL     OW16771   1.831   4.993   5.627
 5291SOL    HW116772   1.847   4.900   5.592
 5291SOL    HW216773   1.841   4.993   5.726
 5292SOL     OW16774   5.034   3.192   6.693
 5292SOL    HW116775   5.063   3.277   6.736
 5292SOL    HW216776   4.958   3.153   6.745
 5293SOL     OW16777   0.903   0.374   4.353
 5293SOL    HW116778   0.879   0.415   4.441
 5293SOL    HW216779   0.878   0.437   4.279
 5294SOL     OW16780   5.825   2.892   6.245
 5294SOL    HW116781   5.864   2.848   6.326
 5294SOL    HW216782   5.895   2.897   6.173
 5295SOL     OW16783   5.812   1.032   2.966
 5295SOL    HW116784   5.748   0.979   3.021
 5295SOL    HW216785   5.775   1.124   2.952
 5296SOL     OW16786   1.963   4.486   0.747
 5296SOL    HW116787   1.960   4.418   0.821
 5296SOL    HW216788   2.006   4.569   0.781
 5297SOL     OW16789   2.283   1.229   1.347
 5297SOL    HW116790   2.336   1.223   1.431
 5297SOL    HW216791   2.299   1.147   1.292
 5298SOL     OW16792   6.585   4.802   1.240
 5298SOL    HW116793   6.557   4.898   1.237
 5298SOL    HW216794   6.667   4.793   1.297
 5299SOL     OW16795   3.173   0.758   1.524
 5299SOL    HW116796   3.111   0.811   1.582
 5299SOL    HW216797   3.161   0.785   1.429
 5300SOL     OW16798   0.404   6.650   3.752
 5300SOL    HW116799   0.337   6.579   3.727
 5300SOL    HW216800   0.443   6.628   3.841
 5301SOL     OW16801   4.480   1.629   6.753
 5301SOL    HW116802   4.394   1.596   6.790
 5301SOL    HW216803   4.489   1.599   6.657
 5302SOL     OW16804   6.479   4.255   2.877
 5302SOL    HW116805   6.453   4.198   2.799
 5302SOL    HW216806   6.566   4.223   2.914
 5303SOL     OW16807   6.528   4.437   3.752
 5303SOL    HW116808   6.490   4.414   3.662
 5303SOL    HW216809   6.489   4.524   3.784
 5304SOL     OW16810   4.626   1.749   5.612
 5304SOL    HW116811   4.673   1.697   5.684
 5304SOL    HW216812   4.530   1.721   5.608
 5305SOL     OW16813   2.549   0.914   3.361
 5305SOL    HW116814   2.601   0.946   3.441
 5305SOL    HW216815   2.452   0.916   3.381
 5306SOL     OW16816   2.872   6.354   6.296
 5306SOL    HW116817   2.922   6.267   6.293
 5306SOL    HW216818   2.824   6.367   6.209
 5307SOL     OW16819   4.738   0.084   6.336
 5307SOL    HW116820   4.765   7.014   6.317
 5307SOL    HW216821   4.689   0.121   6.256
 5308SOL     OW16822   6.787   1.254   3.300
 5308SOL    HW116823   6.858   1.185   3.286
 5308SOL    HW216824   6.700   1.220   3.264
 5309SOL     OW16825   3.874   4.025   4.085
 5309SOL    HW116826   3.779   4.002   4.064
 5309SOL    HW216827   3.935   3.976   4.023
 5310SOL     OW16828   5.459   1.891   1.494
 5310SOL    HW116829   5.380   1.904   1.434
 5310SOL    HW216830   5.431   1.843   1.577
 5311SOL     OW16831   1.959   5.374   6.737
 5311SOL    HW116832   1.896   5.447   6.761
 5311SOL    HW216833   1.912   5.286   6.742
 5312SOL     OW16834   0.885   4.188   2.993
 5312SOL    HW116835   0.966   4.157   2.942
 5312SOL    HW216836   0.806   4.190   2.931
 5313SOL     OW16837   0.990   5.933   6.355
 5313SOL    HW116838   0.964   6.029   6.349
 5313SOL    HW216839   1.020   5.912   6.448
 5314SOL     OW16840   4.018   5.417   6.990
 5314SOL    HW116841   4.053   5.477   6.919
 5314SOL    HW216842   4.092   5.358   7.023
 5315SOL     OW16843   5.975   3.361   2.064
 5315SOL    HW116844   5.902   3.415   2.107
 5315SOL    HW216845   6.009   3.410   1.983
 5316SOL     OW16846   6.787   4.683   4.383
 5316SOL    HW116847   6.775   4.584   4.385
 5316SOL    HW216848   6.884   4.705   4.390
 5317SOL     OW16849   5.304   0.231   2.391
 5317SOL    HW116850   5.257   0.187   2.467
 5317SOL    HW216851   5.387   0.180   2.369
 5318SOL     OW16852   0.355   2.734   4.210
 5318SOL    HW116853   0.305   2.650   4.230
 5318SOL    HW216854   0.324   2.806   4.273
 5319SOL     OW16855   4.937   0.391   0.315
 5319SOL    HW116856   4.900   0.298   0.324
 5319SOL    HW216857   5.037   0.385   0.305
 5320SOL     OW16858   5.684   3.619   6.656
 5320SOL    HW116859   5.659   3.557   6.582
 5320SOL    HW216860   5.783   3.611   6.674
 5321SOL     OW16861   1.410   5.540   5.555
 5321SOL    HW116862   1.461   5.469   5.604
 5321SOL    HW216863   1.456   5.628   5.566
 5322SOL     OW16864   3.401   5.244   6.300
 5322SOL    HW116865   3.336   5.227   6.227
 5322SOL    HW216866   3.428   5.157   6.342
 5323SOL     OW16867   4.513   2.015   0.308
 5323SOL    HW116868   4.499   1.975   0.217
 5323SOL    HW216869   4.440   2.081   0.327
 5324SOL     OW16870   4.113   2.993   1.646
 5324SOL    HW116871   4.174   2.970   1.570
 5324SOL    HW216872   4.039   2.926   1.650
 5325SOL     OW16873   5.342   6.466   2.400
 5325SOL    HW116874   5.300   6.525   2.469
 5325SOL    HW216875   5.423   6.423   2.438
 5326SOL     OW16876   6.947   6.029   1.560
 5326SOL    HW116877   7.007   6.066   1.489
 5326SOL    HW216878   6.943   5.929   1.552
 5327SOL     OW16879   6.330   6.839   4.272
 5327SOL    HW116880   6.322   6.930   4.313
 5327SOL    HW216881   6.426   6.812   4.268
 5328SOL     OW16882   3.716   4.072   0.249
 5328SOL    HW116883   3.699   4.031   0.338
 5328SOL    HW216884   3.798   4.031   0.208
 5329SOL     OW16885   0.442   4.455   0.853
 5329SOL    HW116886   0.348   4.488   0.857
 5329SOL    HW216887   0.444   4.357   0.873
 5330SOL     OW16888   3.673   3.976   1.218
 5330SOL    HW116889   3.761   4.018   1.198
 5330SOL    HW216890   3.603   4.013   1.157
 5331SOL     OW16891   4.723   2.478   0.583
 5331SOL    HW116892   4.675   2.392   0.569
 5331SOL    HW216893   4.678   2.530   0.656
 5332SOL     OW16894   6.171   4.396   0.421
 5332SOL    HW116895   6.217   4.461   0.361
 5332SOL    HW216896   6.118   4.331   0.365
 5333SOL     OW16897   1.854   0.898   3.458
 5333SOL    HW116898   1.923   0.888   3.530
 5333SOL    HW216899   1.868   0.985   3.411
 5334SOL     OW16900   4.512   4.463   2.900
 5334SOL    HW116901   4.569   4.544   2.910
 5334SOL    HW216902   4.466   4.466   2.811
 5335SOL     OW16903   0.090   4.714   1.522
 5335SOL    HW116904   0.123   4.740   1.613
 5335SOL    HW216905   0.071   4.796   1.468
 5336SOL     OW16906   1.811   2.183   4.137
 5336SOL    HW116907   1.783   2.126   4.059
 5336SOL    HW216908   1.842   2.125   4.211
 5337SOL     OW16909   0.091   4.565   1.295
 5337SOL    HW116910   0.006   4.513   1.290
 5337SOL    HW216911   0.105   4.598   1.389
 5338SOL     OW16912   6.614   3.546   0.756
 5338SOL    HW116913   6.649   3.631   0.715
 5338SOL    HW216914   6.644   3.468   0.701
 5339SOL     OW16915   5.598   2.705   2.872
 5339SOL    HW116916   5.518   2.685   2.815
 5339SOL    HW216917   5.675   2.647   2.843
 5340SOL     OW16918   5.487   2.746   2.534
 5340SOL    HW116919   5.513   2.822   2.476
 5340SOL    HW216920   5.547   2.668   2.516
 5341SOL     OW16921   4.520   5.207   3.654
 5341SOL    HW116922   4.428   5.205   3.694
 5341SOL    HW216923   4.513   5.213   3.554
 5342SOL     OW16924   5.799   0.106   4.745
 5342SOL    HW116925   5.827   0.174   4.676
 5342SOL    HW216926   5.751   0.152   4.819
 5343SOL     OW16927   4.100   3.663   5.602
 5343SOL    HW116928   4.137   3.756   5.599
 5343SOL    HW216929   4.106   3.621   5.511
 5344SOL     OW16930   0.679   2.089   6.066
 5344SOL    HW116931   0.589   2.132   6.070
 5344SOL    HW216932   0.672   1.994   6.099
 5345SOL     OW16933   5.604   1.847   6.783
 5345SOL    HW116934   5.557   1.762   6.808
 5345SOL    HW216935   5.694   1.825   6.745
 5346SOL     OW16936   2.814   5.277   4.000
 5346SOL    HW116937   2.883   5.290   4.072
 5346SOL    HW216938   2.724   5.262   4.042
 5347SOL     OW16939   6.338   2.011   4.265
 5347SOL    HW116940   6.389   2.077   4.321
 5347SOL    HW216941   6.382   2.005   4.175
 5348SOL     OW16942   5.378   2.224   3.605
 5348SOL    HW116943   5.324   2.169   3.542
 5348SOL    HW216944   5.451   2.168   3.645
 5349SOL     OW16945   0.499   3.491   2.499
 5349SOL    HW116946   0.452   3.441   2.572
 5349SOL    HW216947   0.495   3.437   2.415
 5350SOL     OW16948   2.132   6.471   6.160
 5350SOL    HW116949   2.052   6.524   6.188
 5350SOL    HW216950   2.115   6.374   6.176
 5351SOL     OW16951   0.618   5.473   1.794
 5351SOL    HW116952   0.525   5.440   1.777
 5351SOL    HW216953   0.684   5.408   1.756
 5352SOL     OW16954   2.138   3.729   4.454
 5352SOL    HW116955   2.129   3.693   4.547
 5352SOL    HW216956   2.154   3.654   4.390
 5353SOL     OW16957   4.617   6.060   3.172
 5353SOL    HW116958   4.540   6.111   3.208
 5353SOL    HW216959   4.590   6.014   3.087
 5354SOL     OW16960   3.567   5.483   0.574
 5354SOL    HW116961   3.517   5.542   0.511
 5354SOL    HW216962   3.623   5.419   0.522
 5355SOL     OW16963   5.196   4.825   5.406
 5355SOL    HW116964   5.290   4.827   5.372
 5355SOL    HW216965   5.133   4.852   5.332
 5356SOL     OW16966   0.196   5.193   1.556
 5356SOL    HW116967   0.119   5.223   1.613
 5356SOL    HW216968   0.202   5.252   1.476
 5357SOL     OW16969   5.022   4.703   2.204
 5357SOL    HW116970   5.024   4.681   2.301
 5357SOL    HW216971   4.939   4.668   2.163
 5358SOL     OW16972   4.510   1.851   0.584
 5358SOL    HW116973   4.429   1.805   0.546
 5358SOL    HW216974   4.538   1.925   0.523
 5359SOL     OW16975   1.712   2.078   6.488
 5359SOL    HW116976   1.698   2.046   6.395
 5359SOL    HW216977   1.710   2.178   6.489
 5360SOL     OW16978   4.929   4.651   3.273
 5360SOL    HW116979   4.843   4.621   3.231
 5360SOL    HW216980   4.957   4.585   3.343
 5361SOL     OW16981   2.740   5.940   2.550
 5361SOL    HW116982   2.762   5.922   2.454
 5361SOL    HW216983   2.824   5.964   2.599
 5362SOL     OW16984   5.663   0.504   1.667
 5362SOL    HW116985   5.669   0.419   1.614
 5362SOL    HW216986   5.714   0.576   1.621
 5363SOL     OW16987   5.623   5.338   4.998
 5363SOL    HW116988   5.714   5.364   4.967
 5363SOL    HW216989   5.593   5.255   4.951
 5364SOL     OW16990   4.817   0.841   2.473
 5364SOL    HW116991   4.784   0.807   2.385
 5364SOL    HW216992   4.745   0.896   2.516
 5365SOL     OW16993   3.331   2.962   4.228
 5365SOL    HW116994   3.256   3.000   4.282
 5365SOL    HW216995   3.314   2.978   4.131
 5366SOL     OW16996   6.196   6.518   1.790
 5366SOL    HW116997   6.114   6.469   1.760
 5366SOL    HW216998   6.228   6.480   1.876
 5367SOL     OW16999   6.484   6.197   1.512
 5367SOL    HW117000   6.577   6.232   1.506
 5367SOL    HW217001   6.476   6.113   1.458
 5368SOL     OW17002   6.910   5.823   3.769
 5368SOL    HW117003   7.001   5.862   3.785
 5368SOL    HW217004   6.842   5.877   3.819
 5369SOL     OW17005   2.859   6.253   2.127
 5369SOL    HW117006   2.776   6.287   2.082
 5369SOL    HW217007   2.883   6.163   2.090
 5370SOL     OW17008   2.841   3.942   1.711
 5370SOL    HW117009   2.797   3.854   1.731
 5370SOL    HW217010   2.842   3.957   1.613
 5371SOL     OW17011   6.534   5.304   5.035
 5371SOL    HW117012   6.591   5.277   5.112
 5371SOL    HW217013   6.471   5.228   5.013
 5372SOL     OW17014   0.666   0.190   2.341
 5372SOL    HW117015   0.577   0.224   2.371
 5372SOL    HW217016   0.728   0.267   2.328
 5373SOL     OW17017   3.533   0.817   6.585
 5373SOL    HW117018   3.463   0.847   6.650
 5373SOL    HW217019   3.592   0.750   6.629
 5374SOL     OW17020   3.062   5.062   1.857
 5374SOL    HW117021   3.060   5.162   1.849
 5374SOL    HW217022   2.997   5.033   1.927
 5375SOL     OW17023   1.012   5.676   4.831
 5375SOL    HW117024   0.951   5.599   4.809
 5375SOL    HW217025   0.995   5.706   4.925
 5376SOL     OW17026   0.333   1.590   6.533
 5376SOL    HW117027   0.259   1.642   6.576
 5376SOL    HW217028   0.385   1.542   6.604
 5377SOL     OW17029   2.312   0.713   3.072
 5377SOL    HW117030   2.260   0.689   2.989
 5377SOL    HW217031   2.393   0.766   3.047
 5378SOL     OW17032   5.862   1.199   2.138
 5378SOL    HW117033   5.857   1.167   2.043
 5378SOL    HW217034   5.870   1.121   2.200
 5379SOL     OW17035   1.202   3.094   6.227
 5379SOL    HW117036   1.296   3.098   6.192
 5379SOL    HW217037   1.190   3.165   6.296
 5380SOL     OW17038   4.456   6.967   0.906
 5380SOL    HW117039   4.438   6.904   0.831
 5380SOL    HW217040   4.527   0.007   0.878
 5381SOL     OW17041   4.446   6.302   3.479
 5381SOL    HW117042   4.391   6.246   3.417
 5381SOL    HW217043   4.541   6.304   3.448
 5382SOL     OW17044   3.996   1.892   1.649
 5382SOL    HW117045   4.054   1.878   1.730
 5382SOL    HW217046   3.962   1.986   1.648
 5383SOL     OW17047   2.125   2.740   4.314
 5383SOL    HW117048   2.044   2.705   4.267
 5383SOL    HW217049   2.102   2.761   4.409
 5384SOL     OW17050   5.093   5.780   5.458
 5384SOL    HW117051   5.183   5.737   5.463
 5384SOL    HW217052   5.039   5.738   5.385
 5385SOL     OW17053   5.056   2.601   5.627
 5385SOL    HW117054   5.118   2.661   5.576
 5385SOL    HW217055   5.026   2.648   5.710
 5386SOL     OW17056   6.246   4.309   4.103
 5386SOL    HW117057   6.264   4.403   4.075
 5386SOL    HW217058   6.161   4.305   4.155
 5387SOL     OW17059   1.854   1.644   2.448
 5387SOL    HW117060   1.907   1.573   2.403
 5387SOL    HW217061   1.853   1.727   2.392
 5388SOL     OW17062   0.570   6.995   1.980
 5388SOL    HW117063   0.660   0.014   1.976
 5388SOL    HW217064   0.580   6.895   1.977
 5389SOL     OW17065   4.403   2.115   3.885
 5389SOL    HW117066   4.503   2.119   3.891
 5389SOL    HW217067   4.375   2.021   3.869
 5390SOL     OW17068   6.628   3.302   3.881
 5390SOL    HW117069   6.571   3.239   3.933
 5390SOL    HW217070   6.577   3.338   3.803
 5391SOL     OW17071   1.990   2.323   0.441
 5391SOL    HW117072   2.060   2.308   0.371
 5391SOL    HW217073   1.993   2.418   0.472
 5392SOL     OW17074   6.012   2.018   3.642
 5392SOL    HW117075   6.041   2.104   3.684
 5392SOL    HW217076   5.955   1.968   3.707
 5393SOL     OW17077   3.622   1.889   5.558
 5393SOL    HW117078   3.658   1.843   5.639
 5393SOL    HW217079   3.689   1.956   5.525
 5394SOL     OW17080   1.754   0.506   1.175
 5394SOL    HW117081   1.820   0.467   1.111
 5394SOL    HW217082   1.685   0.558   1.125
 5395SOL     OW17083   5.766   1.654   1.042
 5395SOL    HW117084   5.801   1.747   1.040
 5395SOL    HW217085   5.724   1.636   1.131
 5396SOL     OW17086   5.748   5.415   3.402
 5396SOL    HW117087   5.655   5.412   3.364
 5396SOL    HW217088   5.786   5.322   3.404
 5397SOL     OW17089   6.552   1.186   3.152
 5397SOL    HW117090   6.567   1.283   3.134
 5397SOL    HW217091   6.485   1.150   3.087
 5398SOL     OW17092   4.941   1.829   3.378
 5398SOL    HW117093   4.864   1.893   3.372
 5398SOL    HW217094   5.027   1.880   3.365
 5399SOL     OW17095   2.696   0.222   5.806
 5399SOL    HW117096   2.753   0.297   5.839
 5399SOL    HW217097   2.641   0.186   5.882
 5400SOL     OW17098   3.669   3.299   1.760
 5400SOL    HW117099   3.661   3.388   1.806
 5400SOL    HW217100   3.765   3.274   1.752
 5401SOL     OW17101   5.929   4.282   1.575
 5401SOL    HW117102   5.959   4.267   1.669
 5401SOL    HW217103   6.006   4.267   1.513
 5402SOL     OW17104   1.683   7.000   1.127
 5402SOL    HW117105   1.759   0.026   1.085
 5402SOL    HW217106   1.614   0.041   1.159
 5403SOL     OW17107   5.276   3.390   0.400
 5403SOL    HW117108   5.315   3.383   0.308
 5403SOL    HW217109   5.349   3.388   0.468
 5404SOL     OW17110   6.744   1.064   0.896
 5404SOL    HW117111   6.666   1.009   0.927
 5404SOL    HW217112   6.717   1.115   0.814
 5405SOL     OW17113   4.941   6.288   6.824
 5405SOL    HW117114   4.902   6.328   6.906
 5405SOL    HW217115   4.958   6.190   6.840
 5406SOL     OW17116   2.761   0.427   3.554
 5406SOL    HW117117   2.731   0.447   3.460
 5406SOL    HW217118   2.794   0.333   3.559
 5407SOL     OW17119   1.679   0.242   2.134
 5407SOL    HW117120   1.731   0.189   2.067
 5407SOL    HW217121   1.734   0.320   2.164
 5408SOL     OW17122   3.457   2.074   4.502
 5408SOL    HW117123   3.554   2.100   4.506
 5408SOL    HW217124   3.417   2.082   4.594
 5409SOL     OW17125   1.296   2.736   0.909
 5409SOL    HW117126   1.322   2.792   0.831
 5409SOL    HW217127   1.240   2.791   0.972
 5410SOL     OW17128   0.671   2.576   0.753
 5410SOL    HW117129   0.642   2.536   0.666
 5410SOL    HW217130   0.764   2.612   0.745
 5411SOL     OW17131   3.567   4.678   6.812
 5411SOL    HW117132   3.483   4.640   6.772
 5411SOL    HW217133   3.646   4.628   6.777
 5412SOL     OW17134   0.211   2.701   5.882
 5412SOL    HW117135   0.191   2.771   5.951
 5412SOL    HW217136   0.158   2.619   5.900
 5413SOL     OW17137   0.104   6.718   4.112
 5413SOL    HW117138   0.128   6.791   4.176
 5413SOL    HW217139   0.006   6.722   4.092
 5414SOL     OW17140   6.113   3.776   5.403
 5414SOL    HW117141   6.204   3.736   5.411
 5414SOL    HW217142   6.049   3.727   5.463
 5415SOL     OW17143   3.680   0.684   0.786
 5415SOL    HW117144   3.631   0.599   0.770
 5415SOL    HW217145   3.769   0.681   0.740
 5416SOL     OW17146   3.071   5.406   6.358
 5416SOL    HW117147   3.040   5.408   6.263
 5416SOL    HW217148   3.059   5.313   6.395
 5417SOL     OW17149   4.832   5.787   3.602
 5417SOL    HW117150   4.737   5.768   3.576
 5417SOL    HW217151   4.885   5.702   3.597
 5418SOL     OW17152   6.030   3.853   4.750
 5418SOL    HW117153   6.086   3.935   4.766
 5418SOL    HW217154   5.949   3.878   4.698
 5419SOL     OW17155   4.218   7.011   6.447
 5419SOL    HW117156   4.184   0.079   6.430
 5419SOL    HW217157   4.278   7.013   6.527
 5420SOL     OW17158   0.967   0.938   1.838
 5420SOL    HW117159   0.968   1.031   1.875
 5420SOL    HW217160   0.959   0.942   1.738
 5421SOL     OW17161   3.791   5.125   2.277
 5421SOL    HW117162   3.775   5.186   2.200
 5421SOL    HW217163   3.756   5.034   2.256
 5422SOL     OW17164   2.479   5.993   4.110
 5422SOL    HW117165   2.531   6.020   4.029
 5422SOL    HW217166   2.539   5.996   4.190
 5423SOL     OW17167   6.034   5.989   2.288
 5423SOL    HW117168   5.983   6.021   2.209
 5423SOL    HW217169   5.977   5.995   2.370
 5424SOL     OW17170   4.454   3.922   5.778
 5424SOL    HW117171   4.470   4.002   5.720
 5424SOL    HW217172   4.476   3.839   5.728
 5425SOL     OW17173   0.557   3.253   5.740
 5425SOL    HW117174   0.591   3.207   5.821
 5425SOL    HW217175   0.495   3.327   5.766
 5426SOL     OW17176   5.683   5.306   2.286
 5426SOL    HW117177   5.745   5.383   2.270
 5426SOL    HW217178   5.725   5.222   2.251
 5427SOL     OW17179   4.805   2.421   6.381
 5427SOL    HW117180   4.762   2.489   6.441
 5427SOL    HW217181   4.891   2.390   6.421
 5428SOL     OW17182   7.012   5.224   3.361
 5428SOL    HW117183   0.044   5.228   3.278
 5428SOL    HW217184   6.977   5.315   3.383
 5429SOL     OW17185   2.756   7.008   3.946
 5429SOL    HW117186   2.802   0.053   4.001
 5429SOL    HW217187   2.809   6.923   3.949
 5430SOL     OW17188   2.809   3.879   6.154
 5430SOL    HW117189   2.847   3.875   6.061
 5430SOL    HW217190   2.814   3.789   6.195
 5431SOL     OW17191   3.452   4.898   6.089
 5431SOL    HW117192   3.446   4.977   6.028
 5431SOL    HW217193   3.483   4.928   6.179
 5432SOL     OW17194   5.245   4.974   0.319
 5432SOL    HW117195   5.231   5.053   0.379
 5432SOL    HW217196   5.158   4.949   0.277
 5433SOL     OW17197   1.648   6.731   1.051
 5433SOL    HW117198   1.651   6.830   1.069
 5433SOL    HW217199   1.558   6.706   1.017
 5434SOL     OW17200   5.173   0.526   4.418
 5434SOL    HW117201   5.235   0.471   4.362
 5434SOL    HW217202   5.079   0.509   4.390
 5435SOL     OW17203   6.662   4.006   0.991
 5435SOL    HW117204   6.728   3.937   1.019
 5435SOL    HW217205   6.618   3.978   0.905
 5436SOL     OW17206   1.597   4.480   2.957
 5436SOL    HW117207   1.638   4.406   2.903
 5436SOL    HW217208   1.523   4.522   2.905
 5437SOL     OW17209   3.844   5.764   1.277
 5437SOL    HW117210   3.794   5.819   1.344
 5437SOL    HW217211   3.790   5.757   1.193
 5438SOL     OW17212   4.874   4.794   2.999
 5438SOL    HW117213   4.833   4.781   3.089
 5438SOL    HW217214   4.823   4.862   2.947
 5439SOL     OW17215   1.450   5.224   1.351
 5439SOL    HW117216   1.484   5.132   1.370
 5439SOL    HW217217   1.350   5.225   1.360
 5440SOL     OW17218   6.036   5.902   3.691
 5440SOL    HW117219   5.955   5.905   3.631
 5440SOL    HW217220   6.009   5.924   3.784
 5441SOL     OW17221   5.095   2.706   3.329
 5441SOL    HW117222   5.008   2.667   3.359
 5441SOL    HW217223   5.168   2.673   3.388
 5442SOL     OW17224   4.764   6.907   5.045
 5442SOL    HW117225   4.676   6.861   5.041
 5442SOL    HW217226   4.798   6.909   5.139
 5443SOL     OW17227   4.262   0.567   4.610
 5443SOL    HW117228   4.354   0.603   4.597
 5443SOL    HW217229   4.195   0.637   4.584
 5444SOL     OW17230   6.430   0.871   4.863
 5444SOL    HW117231   6.344   0.855   4.814
 5444SOL    HW217232   6.444   0.799   4.931
 5445SOL     OW17233   5.464   5.295   5.592
 5445SOL    HW117234   5.476   5.320   5.688
 5445SOL    HW217235   5.394   5.224   5.585
 5446SOL     OW17236   0.610   4.651   6.155
 5446SOL    HW117237   0.519   4.670   6.117
 5446SOL    HW217238   0.666   4.606   6.086
 5447SOL     OW17239   0.973   1.367   0.036
 5447SOL    HW117240   0.877   1.347   0.052
 5447SOL    HW217241   1.008   1.426   0.109
 5448SOL     OW17242   4.434   5.596   3.212
 5448SOL    HW117243   4.391   5.657   3.279
 5448SOL    HW217244   4.421   5.634   3.120
 5449SOL     OW17245   2.826   2.041   1.828
 5449SOL    HW117246   2.901   1.977   1.842
 5449SOL    HW217247   2.862   2.130   1.800
 5450SOL     OW17248   3.984   5.731   1.618
 5450SOL    HW117249   3.911   5.738   1.687
 5450SOL    HW217250   3.961   5.658   1.554
 5451SOL     OW17251   0.744   0.107   3.294
 5451SOL    HW117252   0.732   0.181   3.361
 5451SOL    HW217253   0.663   0.102   3.236
 5452SOL     OW17254   2.080   4.936   2.003
 5452SOL    HW117255   2.180   4.934   2.012
 5452SOL    HW217256   2.048   5.030   2.015
 5453SOL     OW17257   5.634   4.400   3.163
 5453SOL    HW117258   5.538   4.428   3.162
 5453SOL    HW217259   5.648   4.332   3.236
 5454SOL     OW17260   5.612   5.504   3.655
 5454SOL    HW117261   5.549   5.469   3.586
 5454SOL    HW217262   5.687   5.552   3.611
 5455SOL     OW17263   0.943   1.988   3.248
 5455SOL    HW117264   0.969   1.941   3.163
 5455SOL    HW217265   0.952   2.087   3.236
 5456SOL     OW17266   5.959   1.097   0.148
 5456SOL    HW117267   6.019   1.040   0.204
 5456SOL    HW217268   5.994   1.190   0.146
 5457SOL     OW17269   6.061   2.785   0.421
 5457SOL    HW117270   6.066   2.849   0.498
 5457SOL    HW217271   6.117   2.704   0.442
 5458SOL     OW17272   6.315   4.764   0.819
 5458SOL    HW117273   6.262   4.719   0.747
 5458SOL    HW217274   6.272   4.746   0.907
 5459SOL     OW17275   2.105   3.752   5.477
 5459SOL    HW117276   2.131   3.667   5.521
 5459SOL    HW217277   2.008   3.748   5.452
 5460SOL     OW17278   2.026   0.135   0.093
 5460SOL    HW117279   2.038   0.091   0.005
 5460SOL    HW217280   2.044   0.233   0.084
 5461SOL     OW17281   6.663   1.508   6.003
 5461SOL    HW117282   6.679   1.580   5.935
 5461SOL    HW217283   6.572   1.469   5.990
 5462SOL     OW17284   5.532   5.528   0.092
 5462SOL    HW117285   5.509   5.502   7.023
 5462SOL    HW217286   5.577   5.618   0.092
 5463SOL     OW17287   0.031   2.923   6.910
 5463SOL    HW117288   0.032   2.852   6.840
 5463SOL    HW217289   0.089   2.999   6.882
 5464SOL     OW17290   6.959   6.220   5.138
 5464SOL    HW117291   0.030   6.248   5.144
 5464SOL    HW217292   6.907   6.260   5.213
 5465SOL     OW17293   6.770   6.225   3.498
 5465SOL    HW117294   6.695   6.271   3.452
 5465SOL    HW217295   6.767   6.127   3.477
 5466SOL     OW17296   5.704   2.753   5.763
 5466SOL    HW117297   5.724   2.682   5.831
 5466SOL    HW217298   5.713   2.714   5.671
 5467SOL     OW17299   5.559   3.655   3.940
 5467SOL    HW117300   5.623   3.579   3.928
 5467SOL    HW217301   5.539   3.666   4.037
 5468SOL     OW17302   0.280   1.183   2.024
 5468SOL    HW117303   0.188   1.219   2.032
 5468SOL    HW217304   0.345   1.258   2.010
 5469SOL     OW17305   2.291   1.153   5.462
 5469SOL    HW117306   2.256   1.237   5.502
 5469SOL    HW217307   2.216   1.104   5.417
 5470SOL     OW17308   3.678   5.342   4.094
 5470SOL    HW117309   3.663   5.264   4.154
 5470SOL    HW217310   3.633   5.423   4.132
 5471SOL     OW17311   4.757   0.263   3.108
 5471SOL    HW117312   4.698   0.240   3.031
 5471SOL    HW217313   4.793   0.355   3.097
 5472SOL     OW17314   2.632   1.666   6.405
 5472SOL    HW117315   2.596   1.573   6.413
 5472SOL    HW217316   2.566   1.723   6.356
 5473SOL     OW17317   2.719   4.238   1.466
 5473SOL    HW117318   2.635   4.267   1.419
 5473SOL    HW217319   2.731   4.294   1.549
 5474SOL     OW17320   0.347   5.398   3.515
 5474SOL    HW117321   0.376   5.412   3.609
 5474SOL    HW217322   0.287   5.473   3.487
 5475SOL     OW17323   6.983   2.222   5.845
 5475SOL    HW117324   6.920   2.146   5.831
 5475SOL    HW217325   0.053   2.190   5.834
 5476SOL     OW17326   2.538   6.323   6.437
 5476SOL    HW117327   2.541   6.419   6.410
 5476SOL    HW217328   2.443   6.292   6.442
 5477SOL     OW17329   2.208   5.600   4.360
 5477SOL    HW117330   2.212   5.521   4.299
 5477SOL    HW217331   2.116   5.611   4.395
 5478SOL     OW17332   5.450   4.754   6.359
 5478SOL    HW117333   5.482   4.671   6.404
 5478SOL    HW217334   5.440   4.737   6.261
 5479SOL     OW17335   3.409   2.124   4.827
 5479SOL    HW117336   3.364   2.066   4.895
 5479SOL    HW217337   3.380   2.219   4.838
 5480SOL     OW17338   6.260   4.174   4.893
 5480SOL    HW117339   6.210   4.155   4.978
 5480SOL    HW217340   6.237   4.266   4.861
 5481SOL     OW17341   4.706   1.053   6.581
 5481SOL    HW117342   4.614   1.064   6.542
 5481SOL    HW217343   4.710   1.096   6.671
 5482SOL     OW17344   4.184   3.308   1.848
 5482SOL    HW117345   4.248   3.252   1.796
 5482SOL    HW217346   4.103   3.253   1.871
 5483SOL     OW17347   6.863   3.947   5.795
 5483SOL    HW117348   6.817   3.889   5.728
 5483SOL    HW217349   6.812   4.032   5.807
 5484SOL     OW17350   6.832   6.406   3.945
 5484SOL    HW117351   6.789   6.342   3.881
 5484SOL    HW217352   6.926   6.376   3.964
 5485SOL     OW17353   4.207   0.092   5.246
 5485SOL    HW117354   4.231   0.002   5.283
 5485SOL    HW217355   4.124   0.085   5.191
 5486SOL     OW17356   1.115   0.643   3.076
 5486SOL    HW117357   1.102   0.624   2.978
 5486SOL    HW217358   1.089   0.737   3.095
 5487SOL     OW17359   6.333   4.599   0.273
 5487SOL    HW117360   6.427   4.563   0.276
 5487SOL    HW217361   6.303   4.606   0.178
 5488SOL     OW17362   5.046   2.377   6.466
 5488SOL    HW117363   5.100   2.300   6.431
 5488SOL    HW217364   5.101   2.431   6.529
 5489SOL     OW17365   1.646   4.902   2.583
 5489SOL    HW117366   1.612   4.833   2.518
 5489SOL    HW217367   1.568   4.951   2.622
 5490SOL     OW17368   3.202   1.116   0.297
 5490SOL    HW117369   3.136   1.155   0.361
 5490SOL    HW217370   3.159   1.043   0.244
 5491SOL     OW17371   1.854   4.776   0.568
 5491SOL    HW117372   1.858   4.780   0.468
 5491SOL    HW217373   1.759   4.764   0.597
 5492SOL     OW17374   1.045   2.411   6.427
 5492SOL    HW117375   1.130   2.359   6.421
 5492SOL    HW217376   1.048   2.471   6.507
 5493SOL     OW17377   3.939   3.242   6.004
 5493SOL    HW117378   3.939   3.147   6.037
 5493SOL    HW217379   4.030   3.281   6.017
 5494SOL     OW17380   6.338   3.861   1.522
 5494SOL    HW117381   6.345   3.764   1.544
 5494SOL    HW217382   6.246   3.894   1.546
 5495SOL     OW17383   4.141   3.711   2.168
 5495SOL    HW117384   4.141   3.702   2.268
 5495SOL    HW217385   4.222   3.763   2.140
 5496SOL     OW17386   3.456   6.016   2.172
 5496SOL    HW117387   3.520   6.057   2.107
 5496SOL    HW217388   3.389   6.084   2.200
 5497SOL     OW17389   0.359   1.558   3.247
 5497SOL    HW117390   0.459   1.563   3.244
 5497SOL    HW217391   0.331   1.472   3.289
 5498SOL     OW17392   4.424   1.514   5.749
 5498SOL    HW117393   4.481   1.477   5.822
 5498SOL    HW217394   4.339   1.551   5.788
 5499SOL     OW17395   6.733   1.693   3.107
 5499SOL    HW117396   6.660   1.761   3.110
 5499SOL    HW217397   6.818   1.735   3.076
 5500SOL     OW17398   2.511   5.354   0.822
 5500SOL    HW117399   2.548   5.393   0.906
 5500SOL    HW217400   2.563   5.273   0.796
 5501SOL     OW17401   2.520   0.329   2.121
 5501SOL    HW117402   2.579   0.253   2.092
 5501SOL    HW217403   2.536   0.348   2.218
 5502SOL     OW17404   6.178   4.177   5.968
 5502SOL    HW117405   6.143   4.087   5.994
 5502SOL    HW217406   6.142   4.201   5.878
 5503SOL     OW17407   1.374   4.728   3.372
 5503SOL    HW117408   1.448   4.796   3.362
 5503SOL    HW217409   1.358   4.683   3.285
 5504SOL     OW17410   3.159   1.756   4.773
 5504SOL    HW117411   3.142   1.685   4.841
 5504SOL    HW217412   3.212   1.716   4.697
 5505SOL     OW17413   2.792   5.730   5.151
 5505SOL    HW117414   2.752   5.817   5.122
 5505SOL    HW217415   2.800   5.669   5.072
 5506SOL     OW17416   6.735   0.839   4.908
 5506SOL    HW117417   6.787   0.754   4.917
 5506SOL    HW217418   6.638   0.817   4.897
 5507SOL     OW17419   2.791   6.809   3.584
 5507SOL    HW117420   2.739   6.894   3.588
 5507SOL    HW217421   2.766   6.758   3.502
 5508SOL     OW17422   2.130   0.832   6.183
 5508SOL    HW117423   2.212   0.857   6.235
 5508SOL    HW217424   2.111   0.904   6.115
 5509SOL     OW17425   5.968   6.643   0.135
 5509SOL    HW117426   6.050   6.602   0.096
 5509SOL    HW217427   5.964   6.740   0.109
 5510SOL     OW17428   4.542   0.301   6.239
 5510SOL    HW117429   4.619   0.364   6.235
 5510SOL    HW217430   4.498   0.306   6.328
 5511SOL     OW17431   0.216   0.770   2.485
 5511SOL    HW117432   0.193   0.846   2.545
 5511SOL    HW217433   0.179   0.685   2.523
 5512SOL     OW17434   0.484   1.428   0.165
 5512SOL    HW117435   0.411   1.468   0.221
 5512SOL    HW217436   0.447   1.401   0.076
 5513SOL     OW17437   4.590   4.478   4.831
 5513SOL    HW117438   4.594   4.379   4.838
 5513SOL    HW217439   4.529   4.515   4.901
 5514SOL     OW17440   5.677   4.845   2.839
 5514SOL    HW117441   5.639   4.768   2.890
 5514SOL    HW217442   5.655   4.930   2.887
 5515SOL     OW17443   6.656   2.726   2.342
 5515SOL    HW117444   6.727   2.699   2.407
 5515SOL    HW217445   6.640   2.652   2.277
 5516SOL     OW17446   1.343   2.701   6.681
 5516SOL    HW117447   1.425   2.721   6.735
 5516SOL    HW217448   1.361   2.718   6.585
 5517SOL     OW17449   3.050   2.133   1.252
 5517SOL    HW117450   3.131   2.074   1.256
 5517SOL    HW217451   2.995   2.118   1.334
 5518SOL     OW17452   5.358   4.834   6.120
 5518SOL    HW117453   5.276   4.804   6.073
 5518SOL    HW217454   5.335   4.903   6.188
 5519SOL     OW17455   5.330   3.658   3.614
 5519SOL    HW117456   5.361   3.563   3.610
 5519SOL    HW217457   5.397   3.713   3.664
 5520SOL     OW17458   1.710   3.472   2.899
 5520SOL    HW117459   1.675   3.425   2.818
 5520SOL    HW217460   1.660   3.441   2.980
 5521SOL     OW17461   5.159   6.463   2.183
 5521SOL    HW117462   5.120   6.545   2.224
 5521SOL    HW217463   5.231   6.427   2.242
 5522SOL     OW17464   2.582   3.379   1.757
 5522SOL    HW117465   2.494   3.380   1.805
 5522SOL    HW217466   2.656   3.391   1.823
 5523SOL     OW17467   3.280   7.017   2.938
 5523SOL    HW117468   3.347   0.066   2.934
 5523SOL    HW217469   3.188   0.031   2.953
 5524SOL     OW17470   1.136   5.454   5.122
 5524SOL    HW117471   1.221   5.455   5.174
 5524SOL    HW217472   1.151   5.407   5.035
 5525SOL     OW17473   6.647   5.082   6.941
 5525SOL    HW117474   6.599   5.164   6.973
 5525SOL    HW217475   6.628   5.005   7.002
 5526SOL     OW17476   6.144   3.437   3.227
 5526SOL    HW117477   6.190   3.461   3.142
 5526SOL    HW217478   6.100   3.518   3.266
 5527SOL     OW17479   0.938   2.794   1.612
 5527SOL    HW117480   0.844   2.808   1.580
 5527SOL    HW217481   0.946   2.705   1.656
 5528SOL     OW17482   0.257   2.539   4.890
 5528SOL    HW117483   0.337   2.502   4.844
 5528SOL    HW217484   0.256   2.509   4.986
 5529SOL     OW17485   2.542   0.940   4.730
 5529SOL    HW117486   2.453   0.937   4.776
 5529SOL    HW217487   2.592   1.021   4.759
 5530SOL     OW17488   0.087   2.373   0.724
 5530SOL    HW117489   0.043   2.290   0.690
 5530SOL    HW217490   0.022   2.449   0.723
 5531SOL     OW17491   4.040   3.349   4.722
 5531SOL    HW117492   3.963   3.298   4.682
 5531SOL    HW217493   4.100   3.382   4.649
 5532SOL     OW17494   1.518   0.838   0.311
 5532SOL    HW117495   1.595   0.815   0.251
 5532SOL    HW217496   1.447   0.885   0.258
 5533SOL     OW17497   3.018   0.739   3.119
 5533SOL    HW117498   3.006   0.772   3.213
 5533SOL    HW217499   2.929   0.730   3.075
 5534SOL     OW17500   1.222   3.625   6.581
 5534SOL    HW117501   1.277   3.557   6.533
 5534SOL    HW217502   1.282   3.690   6.628
 5535SOL     OW17503   6.669   3.038   3.274
 5535SOL    HW117504   6.578   3.016   3.238
 5535SOL    HW217505   6.660   3.067   3.369
 5536SOL     OW17506   2.457   0.691   4.334
 5536SOL    HW117507   2.386   0.668   4.401
 5536SOL    HW217508   2.502   0.607   4.304
 5537SOL     OW17509   3.770   0.093   5.190
 5537SOL    HW117510   3.714   0.113   5.110
 5537SOL    HW217511   3.791   7.020   5.193
 5538SOL     OW17512   4.090   0.706   5.608
 5538SOL    HW117513   3.994   0.693   5.584
 5538SOL    HW217514   4.100   0.701   5.708
 5539SOL     OW17515   1.056   1.262   1.616
 5539SOL    HW117516   0.971   1.245   1.665
 5539SOL    HW217517   1.070   1.191   1.547
 5540SOL     OW17518   5.025   2.830   1.145
 5540SOL    HW117519   4.954   2.859   1.081
 5540SOL    HW217520   5.011   2.874   1.233
 5541SOL     OW17521   5.468   3.789   5.639
 5541SOL    HW117522   5.375   3.813   5.668
 5541SOL    HW217523   5.464   3.725   5.563
 5542SOL     OW17524   5.236   5.096   6.546
 5542SOL    HW117525   5.141   5.108   6.515
 5542SOL    HW217526   5.251   4.999   6.566
 5543SOL     OW17527   2.249   5.919   6.488
 5543SOL    HW117528   2.229   5.822   6.471
 5543SOL    HW217529   2.312   5.952   6.417
 5544SOL     OW17530   5.131   5.201   6.065
 5544SOL    HW117531   5.144   5.291   6.025
 5544SOL    HW217532   5.135   5.131   5.993
 5545SOL     OW17533   3.999   1.376   2.738
 5545SOL    HW117534   4.060   1.437   2.788
 5545SOL    HW217535   3.905   1.387   2.772
 5546SOL     OW17536   1.042   6.353   4.356
 5546SOL    HW117537   1.075   6.263   4.385
 5546SOL    HW217538   0.990   6.394   4.431
 5547SOL     OW17539   4.104   1.767   5.781
 5547SOL    HW117540   4.073   1.842   5.840
 5547SOL    HW217541   4.150   1.698   5.837
 5548SOL     OW17542   6.723   4.247   5.503
 5548SOL    HW117543   6.649   4.279   5.562
 5548SOL    HW217544   6.802   4.223   5.559
 5549SOL     OW17545   4.130   3.202   1.393
 5549SOL    HW117546   4.115   3.167   1.301
 5549SOL    HW217547   4.228   3.210   1.410
 5550SOL     OW17548   2.266   4.141   3.303
 5550SOL    HW117549   2.270   4.230   3.257
 5550SOL    HW217550   2.280   4.068   3.236
 5551SOL     OW17551   1.585   5.868   2.568
 5551SOL    HW117552   1.521   5.826   2.503
 5551SOL    HW217553   1.534   5.913   2.641
 5552SOL     OW17554   6.528   6.654   5.863
 5552SOL    HW117555   6.440   6.696   5.884
 5552SOL    HW217556   6.515   6.586   5.791
 5553SOL     OW17557   4.569   0.367   6.774
 5553SOL    HW117558   4.602   0.410   6.859
 5553SOL    HW217559   4.508   0.291   6.797
 5554SOL     OW17560   4.609   3.215   1.650
 5554SOL    HW117561   4.572   3.306   1.632
 5554SOL    HW217562   4.566   3.177   1.732
 5555SOL     OW17563   0.905   3.907   2.295
 5555SOL    HW117564   0.982   3.844   2.308
 5555SOL    HW217565   0.940   4.000   2.283
 5556SOL     OW17566   6.351   1.012   3.862
 5556SOL    HW117567   6.297   1.033   3.944
 5556SOL    HW217568   6.308   0.936   3.813
 5557SOL     OW17569   3.639   5.908   1.899
 5557SOL    HW117570   3.561   5.935   1.842
 5557SOL    HW217571   3.669   5.986   1.953
 5558SOL     OW17572   3.725   3.736   0.378
 5558SOL    HW117573   3.731   3.694   0.288
 5558SOL    HW217574   3.816   3.760   0.410
 5559SOL     OW17575   1.008   0.214   2.602
 5559SOL    HW117576   1.082   0.281   2.606
 5559SOL    HW217577   1.019   0.156   2.521
 5560SOL     OW17578   0.198   5.677   2.027
 5560SOL    HW117579   0.228   5.661   1.933
 5560SOL    HW217580   0.105   5.644   2.038
 5561SOL     OW17581   2.810   0.268   4.953
 5561SOL    HW117582   2.848   0.309   5.036
 5561SOL    HW217583   2.865   0.296   4.874
 5562SOL     OW17584   4.288   4.326   0.208
 5562SOL    HW117585   4.334   4.239   0.225
 5562SOL    HW217586   4.347   4.401   0.236
 5563SOL     OW17587   2.879   5.384   2.845
 5563SOL    HW117588   2.956   5.395   2.908
 5563SOL    HW217589   2.804   5.338   2.893
 5564SOL     OW17590   4.906   6.794   6.807
 5564SOL    HW117591   4.863   6.884   6.800
 5564SOL    HW217592   5.005   6.803   6.801
 5565SOL     OW17593   4.314   2.913   6.644
 5565SOL    HW117594   4.245   2.850   6.678
 5565SOL    HW217595   4.305   3.001   6.690
 5566SOL     OW17596   2.152   4.636   0.251
 5566SOL    HW117597   2.181   4.543   0.232
 5566SOL    HW217598   2.232   4.691   0.278
 5567SOL     OW17599   0.806   3.995   1.991
 5567SOL    HW117600   0.823   4.083   2.036
 5567SOL    HW217601   0.871   3.927   2.025
 5568SOL     OW17602   4.507   0.524   3.387
 5568SOL    HW117603   4.601   0.559   3.381
 5568SOL    HW217604   4.462   0.564   3.467
 5569SOL     OW17605   2.155   1.965   2.862
 5569SOL    HW117606   2.147   1.917   2.775
 5569SOL    HW217607   2.250   1.993   2.876
 5570SOL     OW17608   6.557   3.301   3.199
 5570SOL    HW117609   6.525   3.207   3.187
 5570SOL    HW217610   6.616   3.326   3.122
 5571SOL     OW17611   6.660   5.383   2.098
 5571SOL    HW117612   6.657   5.362   2.195
 5571SOL    HW217613   6.717   5.464   2.083
 5572SOL     OW17614   1.780   4.186   4.771
 5572SOL    HW117615   1.739   4.097   4.792
 5572SOL    HW217616   1.795   4.237   4.856
 5573SOL     OW17617   1.545   5.766   5.214
 5573SOL    HW117618   1.576   5.838   5.152
 5573SOL    HW217619   1.551   5.678   5.167
 5574SOL     OW17620   0.339   3.169   0.228
 5574SOL    HW117621   0.364   3.137   0.320
 5574SOL    HW217622   0.249   3.133   0.204
 5575SOL     OW17623   7.018   0.245   0.723
 5575SOL    HW117624   0.009   0.273   0.818
 5575SOL    HW217625   6.922   0.263   0.699
 5576SOL     OW17626   1.444   4.004   2.768
 5576SOL    HW117627   1.530   3.968   2.804
 5576SOL    HW217628   1.410   4.077   2.827
 5577SOL     OW17629   2.341   2.822   6.953
 5577SOL    HW117630   2.363   2.726   6.972
 5577SOL    HW217631   2.352   2.876   0.012
 5578SOL     OW17632   3.683   4.140   2.049
 5578SOL    HW117633   3.612   4.187   1.997
 5578SOL    HW217634   3.761   4.202   2.062
 5579SOL     OW17635   0.680   3.671   1.305
 5579SOL    HW117636   0.674   3.593   1.367
 5579SOL    HW217637   0.635   3.750   1.347
 5580SOL     OW17638   4.317   2.029   6.194
 5580SOL    HW117639   4.379   2.058   6.122
 5580SOL    HW217640   4.297   1.931   6.185
 5581SOL     OW17641   1.517   0.760   1.454
 5581SOL    HW117642   1.591   0.740   1.389
 5581SOL    HW217643   1.554   0.813   1.530
 5582SOL     OW17644   2.991   4.018   6.591
 5582SOL    HW117645   3.054   4.088   6.623
 5582SOL    HW217646   3.031   3.927   6.607
 5583SOL     OW17647   4.203   0.878   2.820
 5583SOL    HW117648   4.290   0.913   2.856
 5583SOL    HW217649   4.219   0.790   2.776
 5584SOL     OW17650   6.246   3.734   4.422
 5584SOL    HW117651   6.302   3.695   4.495
 5584SOL    HW217652   6.301   3.746   4.339
 5585SOL     OW17653   5.232   5.091   3.199
 5585SOL    HW117654   5.179   5.011   3.226
 5585SOL    HW217655   5.170   5.165   3.173
 5586SOL     OW17656   0.088   4.100   5.784
 5586SOL    HW117657   0.025   4.176   5.799
 5586SOL    HW217658   0.045   4.015   5.814
 5587SOL     OW17659   4.618   0.458   0.923
 5587SOL    HW117660   4.638   0.543   0.875
 5587SOL    HW217661   4.562   0.477   1.003
 5588SOL     OW17662   2.605   5.842   3.120
 5588SOL    HW117663   2.536   5.843   3.047
 5588SOL    HW217664   2.625   5.936   3.148
 5589SOL     OW17665   6.156   4.204   6.581
 5589SOL    HW117666   6.241   4.164   6.546
 5589SOL    HW217667   6.129   4.156   6.664
 5590SOL     OW17668   6.621   6.664   3.614
 5590SOL    HW117669   6.611   6.575   3.569
 5590SOL    HW217670   6.707   6.667   3.664
 5591SOL     OW17671   6.914   2.465   1.650
 5591SOL    HW117672   6.916   2.457   1.750
 5591SOL    HW217673   6.887   2.378   1.610
 5592SOL     OW17674   2.389   5.927   3.744
 5592SOL    HW117675   2.422   5.970   3.829
 5592SOL    HW217676   2.413   5.830   3.745
 5593SOL     OW17677   6.865   2.988   6.539
 5593SOL    HW117678   6.938   3.055   6.547
 5593SOL    HW217679   6.800   3.000   6.614
 5594SOL     OW17680   5.093   0.610   4.904
 5594SOL    HW117681   5.087   0.706   4.929
 5594SOL    HW217682   5.148   0.600   4.821
 5595SOL     OW17683   0.823   1.311   4.497
 5595SOL    HW117684   0.784   1.385   4.552
 5595SOL    HW217685   0.919   1.330   4.477
 5596SOL     OW17686   4.205   6.651   2.841
 5596SOL    HW117687   4.154   6.642   2.755
 5596SOL    HW217688   4.238   6.560   2.870
 5597SOL     OW17689   4.789   2.504   4.318
 5597SOL    HW117690   4.738   2.528   4.236
 5597SOL    HW217691   4.754   2.558   4.395
 5598SOL     OW17692   5.509   3.543   4.589
 5598SOL    HW117693   5.507   3.447   4.615
 5598SOL    HW217694   5.547   3.552   4.497
 5599SOL     OW17695   1.308   1.318   4.247
 5599SOL    HW117696   1.379   1.255   4.215
 5599SOL    HW217697   1.276   1.373   4.170
 5600SOL     OW17698   1.012   1.164   1.977
 5600SOL    HW117699   0.933   1.213   2.015
 5600SOL    HW217700   1.094   1.185   2.031
 5601SOL     OW17701   2.458   0.963   5.551
 5601SOL    HW117702   2.486   0.980   5.645
 5601SOL    HW217703   2.413   1.044   5.514
 5602SOL     OW17704   6.489   1.660   0.690
 5602SOL    HW117705   6.419   1.724   0.657
 5602SOL    HW217706   6.561   1.710   0.737
 5603SOL     OW17707   5.796   2.204   6.557
 5603SOL    HW117708   5.827   2.175   6.466
 5603SOL    HW217709   5.703   2.239   6.550
 5604SOL     OW17710   6.526   2.397   4.819
 5604SOL    HW117711   6.465   2.318   4.811
 5604SOL    HW217712   6.572   2.412   4.732
 5605SOL     OW17713   0.599   0.736   4.658
 5605SOL    HW117714   0.690   0.751   4.619
 5605SOL    HW217715   0.602   0.656   4.718
 5606SOL     OW17716   4.738   6.776   0.658
 5606SOL    HW117717   4.671   6.729   0.599
 5606SOL    HW217718   4.753   6.722   0.740
 5607SOL     OW17719   5.689   0.194   2.646
 5607SOL    HW117720   5.704   0.244   2.732
 5607SOL    HW217721   5.764   0.213   2.583
 5608SOL     OW17722   4.874   0.244   5.244
 5608SOL    HW117723   4.809   0.230   5.169
 5608SOL    HW217724   4.864   0.337   5.280
 5609SOL     OW17725   2.760   5.112   1.069
 5609SOL    HW117726   2.828   5.090   1.139
 5609SOL    HW217727   2.673   5.068   1.091
 5610SOL     OW17728   4.533   6.582   1.006
 5610SOL    HW117729   4.511   6.594   0.910
 5610SOL    HW217730   4.494   6.657   1.059
 5611SOL     OW17731   0.976   5.617   2.539
 5611SOL    HW117732   0.970   5.518   2.554
 5611SOL    HW217733   0.883   5.655   2.536
 5612SOL     OW17734   3.580   1.445   6.786
 5612SOL    HW117735   3.573   1.516   6.716
 5612SOL    HW217736   3.594   1.487   6.875
 5613SOL     OW17737   5.542   3.911   3.876
 5613SOL    HW117738   5.546   3.811   3.885
 5613SOL    HW217739   5.632   3.950   3.896
 5614SOL     OW17740   4.582   2.647   4.508
 5614SOL    HW117741   4.568   2.734   4.460
 5614SOL    HW217742   4.611   2.665   4.602
 5615SOL     OW17743   0.405   1.195   4.838
 5615SOL    HW117744   0.426   1.292   4.850
 5615SOL    HW217745   0.325   1.185   4.778
 5616SOL     OW17746   2.393   1.642   4.646
 5616SOL    HW117747   2.375   1.619   4.741
 5616SOL    HW217748   2.438   1.565   4.601
 5617SOL     OW17749   2.791   0.135   6.592
 5617SOL    HW117750   2.829   0.221   6.559
 5617SOL    HW217751   2.829   0.114   6.682
 5618SOL     OW17752   6.878   4.061   3.765
 5618SOL    HW117753   6.862   4.100   3.855
 5618SOL    HW217754   6.793   4.066   3.712
 5619SOL     OW17755   2.931   3.598   6.123
 5619SOL    HW117756   2.961   3.536   6.196
 5619SOL    HW217757   3.009   3.651   6.090
 5620SOL     OW17758   3.646   3.120   0.782
 5620SOL    HW117759   3.708   3.185   0.738
 5620SOL    HW217760   3.700   3.052   0.832
 5621SOL     OW17761   0.925   2.616   5.797
 5621SOL    HW117762   0.891   2.603   5.704
 5621SOL    HW217763   0.966   2.706   5.805
 5622SOL     OW17764   4.773   0.387   5.935
 5622SOL    HW117765   4.675   0.398   5.915
 5622SOL    HW217766   4.811   0.317   5.875
 5623SOL     OW17767   1.838   6.011   5.960
 5623SOL    HW117768   1.800   5.936   6.015
 5623SOL    HW217769   1.910   5.975   5.901
 5624SOL     OW17770   1.111   4.737   3.261
 5624SOL    HW117771   1.160   4.818   3.292
 5624SOL    HW217772   1.106   4.670   3.335
 5625SOL     OW17773   6.420   1.617   4.208
 5625SOL    HW117774   6.389   1.661   4.124
 5625SOL    HW217775   6.512   1.649   4.231
 5626SOL     OW17776   2.637   6.366   4.492
 5626SOL    HW117777   2.591   6.376   4.404
 5626SOL    HW217778   2.706   6.293   4.485
 5627SOL     OW17779   1.168   5.922   6.882
 5627SOL    HW117780   1.091   5.874   6.924
 5627SOL    HW217781   1.204   5.990   6.946
 5628SOL     OW17782   1.393   2.511   6.027
 5628SOL    HW117783   1.373   2.489   6.123
 5628SOL    HW217784   1.339   2.589   5.998
 5629SOL     OW17785   3.195   3.709   2.256
 5629SOL    HW117786   3.130   3.644   2.295
 5629SOL    HW217787   3.144   3.781   2.208
 5630SOL     OW17788   2.002   4.928   0.763
 5630SOL    HW117789   2.024   5.014   0.716
 5630SOL    HW217790   1.955   4.867   0.700
 5631SOL     OW17791   4.588   1.922   0.008
 5631SOL    HW117792   4.610   1.825   0.002
 5631SOL    HW217793   4.575   1.959   6.941
 5632SOL     OW17794   3.897   2.402   5.963
 5632SOL    HW117795   3.859   2.403   5.871
 5632SOL    HW217796   3.877   2.489   6.008
 5633SOL     OW17797   5.933   3.238   3.957
 5633SOL    HW117798   5.971   3.216   3.867
 5633SOL    HW217799   5.836   3.213   3.959
 5634SOL     OW17800   2.413   5.857   5.325
 5634SOL    HW117801   2.483   5.787   5.338
 5634SOL    HW217802   2.349   5.855   5.402
 5635SOL     OW17803   2.236   3.717   5.183
 5635SOL    HW117804   2.315   3.769   5.152
 5635SOL    HW217805   2.249   3.689   5.279
 5636SOL     OW17806   3.572   6.902   3.321
 5636SOL    HW117807   3.668   6.886   3.343
 5636SOL    HW217808   3.516   6.890   3.403
 5637SOL     OW17809   5.203   6.863   3.368
 5637SOL    HW117810   5.132   6.827   3.308
 5637SOL    HW217811   5.292   6.825   3.342
 5638SOL     OW17812   5.504   4.155   1.042
 5638SOL    HW117813   5.497   4.247   1.004
 5638SOL    HW217814   5.553   4.096   0.978
 5639SOL     OW17815   0.660   0.178   7.006
 5639SOL    HW117816   0.721   0.169   6.927
 5639SOL    HW217817   0.570   0.208   6.974
 5640SOL     OW17818   2.601   1.032   3.848
 5640SOL    HW117819   2.664   0.958   3.873
 5640SOL    HW217820   2.631   1.117   3.892
 5641SOL     OW17821   0.601   5.092   5.296
 5641SOL    HW117822   0.648   5.167   5.250
 5641SOL    HW217823   0.664   5.015   5.306
 5642SOL     OW17824   2.154   6.814   6.601
 5642SOL    HW117825   2.154   6.851   6.694
 5642SOL    HW217826   2.161   6.890   6.536
 5643SOL     OW17827   4.654   1.071   4.575
 5643SOL    HW117828   4.582   1.139   4.587
 5643SOL    HW217829   4.733   1.097   4.630
 5644SOL     OW17830   3.361   0.240   5.323
 5644SOL    HW117831   3.285   0.241   5.388
 5644SOL    HW217832   3.326   0.236   5.230
 5645SOL     OW17833   6.631   4.059   3.616
 5645SOL    HW117834   6.647   4.102   3.527
 5645SOL    HW217835   6.540   4.083   3.649
 5646SOL     OW17836   1.696   5.296   2.916
 5646SOL    HW117837   1.770   5.317   2.852
 5646SOL    HW217838   1.720   5.330   3.007
 5647SOL     OW17839   4.912   6.492   1.324
 5647SOL    HW117840   4.843   6.482   1.395
 5647SOL    HW217841   4.875   6.545   1.248
 5648SOL     OW17842   1.869   6.168   3.197
 5648SOL    HW117843   1.939   6.184   3.127
 5648SOL    HW217844   1.909   6.179   3.288
 5649SOL     OW17845   1.453   6.893   3.889
 5649SOL    HW117846   1.520   6.857   3.824
 5649SOL    HW217847   1.465   6.848   3.977
 5650SOL     OW17848   1.388   4.599   1.051
 5650SOL    HW117849   1.452   4.667   1.016
 5650SOL    HW217850   1.346   4.632   1.135
 5651SOL     OW17851   1.660   0.726   0.080
 5651SOL    HW117852   1.571   0.758   0.047
 5651SOL    HW217853   1.684   0.640   0.034
 5652SOL     OW17854   6.669   5.957   1.230
 5652SOL    HW117855   6.768   5.959   1.225
 5652SOL    HW217856   6.639   5.870   1.270
 5653SOL     OW17857   0.588   5.873   0.225
 5653SOL    HW117858   0.641   5.790   0.240
 5653SOL    HW217859   0.535   5.863   0.141
 5654SOL     OW17860   1.440   5.322   4.255
 5654SOL    HW117861   1.501   5.244   4.236
 5654SOL    HW217862   1.450   5.389   4.182
 5655SOL     OW17863   0.095   2.615   3.138
 5655SOL    HW117864   0.162   2.597   3.210
 5655SOL    HW217865   0.127   2.577   3.051
 5656SOL     OW17866   6.741   4.206   6.102
 5656SOL    HW117867   6.691   4.290   6.118
 5656SOL    HW217868   6.786   4.210   6.012
 5657SOL     OW17869   4.670   4.491   5.167
 5657SOL    HW117870   4.742   4.470   5.101
 5657SOL    HW217871   4.656   4.411   5.226
 5658SOL     OW17872   3.350   3.084   6.026
 5658SOL    HW117873   3.268   3.111   6.078
 5658SOL    HW217874   3.431   3.120   6.071
 5659SOL     OW17875   3.530   3.705   6.199
 5659SOL    HW117876   3.569   3.717   6.108
 5659SOL    HW217877   3.434   3.676   6.191
 5660SOL     OW17878   4.632   0.138   6.598
 5660SOL    HW117879   4.635   0.235   6.620
 5660SOL    HW217880   4.651   0.125   6.500
 5661SOL     OW17881   1.357   5.462   5.299
 5661SOL    HW117882   1.342   5.364   5.309
 5661SOL    HW217883   1.368   5.503   5.389
 5662SOL     OW17884   2.457   6.980   2.303
 5662SOL    HW117885   2.545   0.002   2.314
 5662SOL    HW217886   2.454   6.900   2.362
 5663SOL     OW17887   1.250   2.493   0.565
 5663SOL    HW117888   1.267   2.489   0.663
 5663SOL    HW217889   1.236   2.400   0.530
 5664SOL     OW17890   5.740   3.919   4.675
 5664SOL    HW117891   5.689   3.833   4.674
 5664SOL    HW217892   5.686   3.990   4.629
 5665SOL     OW17893   1.047   5.843   0.114
 5665SOL    HW117894   0.984   5.770   0.087
 5665SOL    HW217895   1.057   5.843   0.214
 5666SOL     OW17896   5.928   0.848   3.618
 5666SOL    HW117897   5.902   0.937   3.654
 5666SOL    HW217898   5.870   0.777   3.658
 5667SOL     OW17899   1.832   5.321   4.792
 5667SOL    HW117900   1.808   5.363   4.705
 5667SOL    HW217901   1.756   5.265   4.824
 5668SOL     OW17902   6.274   2.674   3.184
 5668SOL    HW117903   6.359   2.685   3.236
 5668SOL    HW217904   6.207   2.626   3.239
 5669SOL     OW17905   6.620   5.170   0.271
 5669SOL    HW117906   6.691   5.222   0.319
 5669SOL    HW217907   6.637   5.072   0.282
 5670SOL     OW17908   1.804   3.210   3.618
 5670SOL    HW117909   1.853   3.185   3.701
 5670SOL    HW217910   1.841   3.157   3.541
 5671SOL     OW17911   6.391   5.461   5.382
 5671SOL    HW117912   6.362   5.479   5.288
 5671SOL    HW217913   6.352   5.374   5.413
 5672SOL     OW17914   4.706   4.015   5.239
 5672SOL    HW117915   4.707   3.949   5.314
 5672SOL    HW217916   4.774   3.990   5.171
 5673SOL     OW17917   1.012   6.787   1.395
 5673SOL    HW117918   0.957   6.793   1.311
 5673SOL    HW217919   1.087   6.852   1.391
 5674SOL     OW17920   2.405   5.086   4.624
 5674SOL    HW117921   2.356   5.002   4.647
 5674SOL    HW217922   2.367   5.162   4.676
 5675SOL     OW17923   3.840   1.849   0.421
 5675SOL    HW117924   3.936   1.824   0.429
 5675SOL    HW217925   3.811   1.841   0.325
 5676SOL     OW17926   2.932   1.828   1.967
 5676SOL    HW117927   2.836   1.806   1.948
 5676SOL    HW217928   2.989   1.753   1.935
 5677SOL     OW17929   0.137   0.575   0.106
 5677SOL    HW117930   0.216   0.595   0.164
 5677SOL    HW217931   0.155   0.607   0.013
 5678SOL     OW17932   4.115   1.330   1.875
 5678SOL    HW117933   4.061   1.259   1.829
 5678SOL    HW217934   4.077   1.420   1.852
 5679SOL     OW17935   5.929   1.989   5.077
 5679SOL    HW117936   5.952   2.069   5.133
 5679SOL    HW217937   6.014   1.944   5.048
 5680SOL     OW17938   1.621   5.074   6.075
 5680SOL    HW117939   1.539   5.092   6.022
 5680SOL    HW217940   1.599   5.014   6.152
 5681SOL     OW17941   0.018   4.102   2.503
 5681SOL    HW117942   0.019   4.002   2.500
 5681SOL    HW217943   0.082   4.134   2.573
 5682SOL     OW17944   2.333   5.697   3.998
 5682SOL    HW117945   2.359   5.717   3.904
 5682SOL    HW217946   2.406   5.645   4.043
 5683SOL     OW17947   4.273   2.481   6.265
 5683SOL    HW117948   4.242   2.526   6.348
 5683SOL    HW217949   4.318   2.395   6.289
 5684SOL     OW17950   2.079   3.684   6.325
 5684SOL    HW117951   1.986   3.694   6.359
 5684SOL    HW217952   2.103   3.762   6.267
 5685SOL     OW17953   1.770   2.335   3.636
 5685SOL    HW117954   1.832   2.396   3.686
 5685SOL    HW217955   1.819   2.291   3.561
 5686SOL     OW17956   3.229   0.792   4.888
 5686SOL    HW117957   3.171   0.873   4.892
 5686SOL    HW217958   3.178   0.716   4.848
 5687SOL     OW17959   0.231   6.100   6.021
 5687SOL    HW117960   0.163   6.085   6.093
 5687SOL    HW217961   0.290   6.176   6.046
 5688SOL     OW17962   2.262   2.898   3.367
 5688SOL    HW117963   2.302   2.813   3.332
 5688SOL    HW217964   2.244   2.889   3.465
 5689SOL     OW17965   2.264   0.199   1.851
 5689SOL    HW117966   2.322   0.144   1.790
 5689SOL    HW217967   2.263   0.158   1.942
 5690SOL     OW17968   0.977   5.165   6.632
 5690SOL    HW117969   1.008   5.135   6.543
 5690SOL    HW217970   1.052   5.157   6.698
 5691SOL     OW17971   4.027   1.069   2.708
 5691SOL    HW117972   4.013   1.073   2.609
 5691SOL    HW217973   4.078   0.986   2.731
 5692SOL     OW17974   4.509   4.704   0.940
 5692SOL    HW117975   4.506   4.719   1.039
 5692SOL    HW217976   4.580   4.762   0.900
 5693SOL     OW17977   4.372   0.252   1.212
 5693SOL    HW117978   4.290   0.301   1.243
 5693SOL    HW217979   4.353   0.207   1.125
 5694SOL     OW17980   0.397   6.993   2.195
 5694SOL    HW117981   0.426   6.948   2.111
 5694SOL    HW217982   0.403   0.068   2.183
 5695SOL     OW17983   0.768   0.744   2.856
 5695SOL    HW117984   0.776   0.728   2.757
 5695SOL    HW217985   0.700   0.816   2.873
 5696SOL     OW17986   1.646   0.309   4.256
 5696SOL    HW117987   1.741   0.281   4.244
 5696SOL    HW217988   1.587   0.229   4.257
 5697SOL     OW17989   5.910   2.082   1.811
 5697SOL    HW117990   5.927   2.058   1.715
 5697SOL    HW217991   5.989   2.058   1.866
 5698SOL     OW17992   1.840   3.548   4.162
 5698SOL    HW117993   1.799   3.585   4.245
 5698SOL    HW217994   1.821   3.608   4.085
 5699SOL     OW17995   1.714   2.426   2.780
 5699SOL    HW117996   1.803   2.469   2.791
 5699SOL    HW217997   1.690   2.422   2.683
 5700SOL     OW17998   6.594   0.280   2.703
 5700SOL    HW117999   6.591   0.333   2.788
 5700SOL    HW218000   6.647   0.196   2.718
 5701SOL     OW18001   7.006   1.033   1.027
 5701SOL    HW118002   6.915   1.040   0.986
 5701SOL    HW218003   7.000   1.052   1.125
 5702SOL     OW18004   1.565   6.442   4.515
 5702SOL    HW118005   1.469   6.417   4.501
 5702SOL    HW218006   1.570   6.537   4.545
 5703SOL     OW18007   6.916   4.403   6.841
 5703SOL    HW118008   7.010   4.369   6.846
 5703SOL    HW218009   6.916   4.497   6.806
 5704SOL     OW18010   4.904   4.182   3.752
 5704SOL    HW118011   4.980   4.233   3.792
 5704SOL    HW218012   4.932   4.088   3.736
 5705SOL     OW18013   5.928   5.861   6.905
 5705SOL    HW118014   5.867   5.833   6.978
 5705SOL    HW218015   6.008   5.800   6.902
 5706SOL     OW18016   4.980   2.905   1.454
 5706SOL    HW118017   4.910   2.848   1.495
 5706SOL    HW218018   4.946   2.999   1.446
 5707SOL     OW18019   5.566   0.133   1.371
 5707SOL    HW118020   5.622   0.149   1.290
 5707SOL    HW218021   5.488   0.196   1.371
 5708SOL     OW18022   4.980   6.142   2.743
 5708SOL    HW118023   5.050   6.076   2.714
 5708SOL    HW218024   5.003   6.177   2.833
 5709SOL     OW18025   6.642   0.978   2.356
 5709SOL    HW118026   6.558   0.972   2.409
 5709SOL    HW218027   6.653   0.894   2.302
 5710SOL     OW18028   3.057   2.526   0.874
 5710SOL    HW118029   3.014   2.446   0.832
 5710SOL    HW218030   2.994   2.604   0.869
 5711SOL     OW18031   4.988   0.947   1.810
 5711SOL    HW118032   5.078   0.966   1.849
 5711SOL    HW218033   4.937   0.886   1.872
 5712SOL     OW18034   6.338   6.683   0.771
 5712SOL    HW118035   6.393   6.678   0.854
 5712SOL    HW218036   6.241   6.675   0.795
 5713SOL     OW18037   2.996   5.094   0.616
 5713SOL    HW118038   2.988   4.996   0.598
 5713SOL    HW218039   2.961   5.114   0.708
 5714SOL     OW18040   6.387   6.614   1.416
 5714SOL    HW118041   6.368   6.530   1.365
 5714SOL    HW218042   6.412   6.590   1.510
 5715SOL     OW18043   0.418   6.900   1.344
 5715SOL    HW118044   0.517   6.897   1.358
 5715SOL    HW218045   0.372   6.856   1.421
 5716SOL     OW18046   0.569   5.379   6.362
 5716SOL    HW118047   0.589   5.301   6.422
 5716SOL    HW218048   0.486   5.425   6.394
 5717SOL     OW18049   2.198   5.256   2.019
 5717SOL    HW118050   2.289   5.294   2.033
 5717SOL    HW218051   2.198   5.197   1.939
 5718SOL     OW18052   0.633   3.053   0.537
 5718SOL    HW118053   0.691   3.129   0.569
 5718SOL    HW218054   0.688   2.991   0.481
 5719SOL     OW18055   2.872   3.680   0.985
 5719SOL    HW118056   2.828   3.744   0.922
 5719SOL    HW218057   2.837   3.588   0.968
 5720SOL     OW18058   1.998   6.374   5.221
 5720SOL    HW118059   2.000   6.473   5.231
 5720SOL    HW218060   1.904   6.341   5.227
 5721SOL     OW18061   5.775   4.091   1.091
 5721SOL    HW118062   5.799   4.154   1.018
 5721SOL    HW218063   5.681   4.107   1.120
 5722SOL     OW18064   0.403   1.725   4.996
 5722SOL    HW118065   0.426   1.773   4.911
 5722SOL    HW218066   0.309   1.692   4.992
 5723SOL     OW18067   3.834   3.344   6.846
 5723SOL    HW118068   3.758   3.374   6.788
 5723SOL    HW218069   3.800   3.324   6.938
 5724SOL     OW18070   6.416   2.249   3.041
 5724SOL    HW118071   6.464   2.278   3.124
 5724SOL    HW218072   6.324   2.218   3.065
 5725SOL     OW18073   6.332   5.376   3.197
 5725SOL    HW118074   6.351   5.383   3.294
 5725SOL    HW218075   6.411   5.339   3.149
 5726SOL     OW18076   5.804   4.767   3.840
 5726SOL    HW118077   5.769   4.681   3.804
 5726SOL    HW218078   5.902   4.760   3.854
 5727SOL     OW18079   0.204   2.472   4.562
 5727SOL    HW118080   0.158   2.402   4.616
 5727SOL    HW218081   0.291   2.436   4.528
 5728SOL     OW18082   4.827   5.888   5.287
 5728SOL    HW118083   4.829   5.858   5.383
 5728SOL    HW218084   4.778   5.975   5.281
 5729SOL     OW18085   1.143   2.470   5.726
 5729SOL    HW118086   1.216   2.537   5.742
 5729SOL    HW218087   1.081   2.469   5.804
 5730SOL     OW18088   6.433   4.297   5.958
 5730SOL    HW118089   6.343   4.255   5.969
 5730SOL    HW218090   6.423   4.390   5.921
 5731SOL     OW18091   6.469   6.854   1.582
 5731SOL    HW118092   6.449   6.928   1.518
 5731SOL    HW218093   6.541   6.796   1.543
 5732SOL     OW18094   1.287   6.522   3.935
 5732SOL    HW118095   1.205   6.563   3.975
 5732SOL    HW218096   1.260   6.464   3.858
 5733SOL     OW18097   4.400   6.399   5.215
 5733SOL    HW118098   4.367   6.485   5.254
 5733SOL    HW218099   4.496   6.409   5.189
 5734SOL     OW18100   1.495   6.605   4.985
 5734SOL    HW118101   1.532   6.696   4.998
 5734SOL    HW218102   1.395   6.610   4.976
 5735SOL     OW18103   2.920   1.545   1.985
 5735SOL    HW118104   2.923   1.482   1.908
 5735SOL    HW218105   2.990   1.518   2.052
 5736SOL     OW18106   0.688   4.554   6.718
 5736SOL    HW118107   0.746   4.517   6.791
 5736SOL    HW218108   0.634   4.630   6.753
 5737SOL     OW18109   5.611   6.181   6.844
 5737SOL    HW118110   5.609   6.162   6.746
 5737SOL    HW218111   5.658   6.268   6.860
 5738SOL     OW18112   1.808   3.599   6.942
 5738SOL    HW118113   1.741   3.665   6.977
 5738SOL    HW218114   1.844   3.546   7.018
 5739SOL     OW18115   1.799   0.873   6.937
 5739SOL    HW118116   1.756   0.809   7.000
 5739SOL    HW218117   1.728   0.925   6.890
 5740SOL     OW18118   4.344   5.993   0.220
 5740SOL    HW118119   4.369   6.052   0.297
 5740SOL    HW218120   4.247   5.968   0.228
 5741SOL     OW18121   6.668   5.939   4.509
 5741SOL    HW118122   6.659   5.859   4.569
 5741SOL    HW218123   6.628   5.917   4.419
 5742SOL     OW18124   5.723   6.617   2.208
 5742SOL    HW118125   5.644   6.567   2.173
 5742SOL    HW218126   5.693   6.703   2.248
 5743SOL     OW18127   2.475   7.023   5.065
 5743SOL    HW118128   2.568   6.988   5.078
 5743SOL    HW218129   2.479   0.095   5.041
 5744SOL     OW18130   4.906   1.674   0.419
 5744SOL    HW118131   4.933   1.619   0.341
 5744SOL    HW218132   4.808   1.666   0.435
 5745SOL     OW18133   1.713   1.579   4.489
 5745SOL    HW118134   1.767   1.618   4.414
 5745SOL    HW218135   1.625   1.548   4.454
 5746SOL     OW18136   5.179   1.537   6.943
 5746SOL    HW118137   5.261   1.482   6.960
 5746SOL    HW218138   5.147   1.576   0.005
 5747SOL     OW18139   0.516   5.184   1.937
 5747SOL    HW118140   0.598   5.170   1.993
 5747SOL    HW218141   0.443   5.224   1.993
 5748SOL     OW18142   2.437   4.723   1.839
 5748SOL    HW118143   2.360   4.727   1.775
 5748SOL    HW218144   2.440   4.633   1.883
 5749SOL     OW18145   2.053   1.705   3.857
 5749SOL    HW118146   2.086   1.778   3.797
 5749SOL    HW218147   2.111   1.625   3.847
 5750SOL     OW18148   6.023   4.703   4.544
 5750SOL    HW118149   6.084   4.760   4.488
 5750SOL    HW218150   6.014   4.612   4.502
 5751SOL     OW18151   2.182   3.238   5.081
 5751SOL    HW118152   2.159   3.273   4.990
 5751SOL    HW218153   2.248   3.163   5.072
 5752SOL     OW18154   6.704   6.892   5.961
 5752SOL    HW118155   6.644   6.812   5.956
 5752SOL    HW218156   6.793   6.866   5.998
 5753SOL     OW18157   3.527   2.810   6.663
 5753SOL    HW118158   3.593   2.881   6.638
 5753SOL    HW218159   3.441   2.826   6.615
 5754SOL     OW18160   5.926   5.327   1.914
 5754SOL    HW118161   5.942   5.388   1.837
 5754SOL    HW218162   5.951   5.372   2.000
 5755SOL     OW18163   3.227   3.596   6.914
 5755SOL    HW118164   3.132   3.593   6.881
 5755SOL    HW218165   3.240   3.526   6.985
 5756SOL     OW18166   6.567   5.106   3.583
 5756SOL    HW118167   6.565   5.097   3.682
 5756SOL    HW218168   6.587   5.016   3.542
 5757SOL     OW18169   6.442   5.637   1.496
 5757SOL    HW118170   6.346   5.637   1.468
 5757SOL    HW218171   6.462   5.720   1.548
 5758SOL     OW18172   2.623   2.319   4.856
 5758SOL    HW118173   2.711   2.301   4.901
 5758SOL    HW218174   2.590   2.234   4.814
 5759SOL     OW18175   5.204   2.114   6.342
 5759SOL    HW118176   5.302   2.098   6.354
 5759SOL    HW218177   5.187   2.155   6.252
 5760SOL     OW18178   1.889   5.584   2.333
 5760SOL    HW118179   1.838   5.522   2.273
 5760SOL    HW218180   1.987   5.575   2.314
 5761SOL     OW18181   5.077   7.002   5.093
 5761SOL    HW118182   5.101   6.906   5.106
 5761SOL    HW218183   5.090   0.002   4.996
 5762SOL     OW18184   5.679   6.857   0.942
 5762SOL    HW118185   5.712   6.844   1.036
 5762SOL    HW218186   5.580   6.843   0.939
 5763SOL     OW18187   1.519   0.379   0.192
 5763SOL    HW118188   1.544   0.449   0.125
 5763SOL    HW218189   1.584   0.304   0.186
 5764SOL     OW18190   5.695   4.434   5.576
 5764SOL    HW118191   5.653   4.489   5.648
 5764SOL    HW218192   5.659   4.341   5.579
 5765SOL     OW18193   6.899   4.213   0.003
 5765SOL    HW118194   6.867   4.282   6.962
 5765SOL    HW218195   6.949   4.142   6.978
 5766SOL     OW18196   3.169   1.728   1.888
 5766SOL    HW118197   3.175   1.630   1.868
 5766SOL    HW218198   3.250   1.757   1.939
 5767SOL     OW18199   0.505   6.108   0.611
 5767SOL    HW118200   0.456   6.083   0.528
 5767SOL    HW218201   0.596   6.143   0.587
 5768SOL     OW18202   6.791   0.888   2.861
 5768SOL    HW118203   6.801   0.800   2.907
 5768SOL    HW218204   6.698   0.896   2.824
 5769SOL     OW18205   2.952   6.363   3.622
 5769SOL    HW118206   2.899   6.357   3.538
 5769SOL    HW218207   3.048   6.343   3.602
 5770SOL     OW18208   6.753   6.884   1.029
 5770SOL    HW118209   6.758   6.978   0.996
 5770SOL    HW218210   6.793   6.823   0.961
 5771SOL     OW18211   1.244   0.496   0.977
 5771SOL    HW118212   1.225   0.408   1.020
 5771SOL    HW218213   1.281   0.559   1.045
 5772SOL     OW18214   6.016   3.329   0.345
 5772SOL    HW118215   6.031   3.230   0.347
 5772SOL    HW218216   5.917   3.347   0.342
 5773SOL     OW18217   5.433   6.534   3.686
 5773SOL    HW118218   5.387   6.622   3.693
 5773SOL    HW218219   5.365   6.462   3.673
 5774SOL     OW18220   2.300   4.408   3.540
 5774SOL    HW118221   2.342   4.460   3.614
 5774SOL    HW218222   2.359   4.409   3.460
 5775SOL     OW18223   6.594   6.945   6.629
 5775SOL    HW118224   6.527   7.012   6.596
 5775SOL    HW218225   6.664   6.931   6.559
 5776SOL     OW18226   5.249   0.772   6.179
 5776SOL    HW118227   5.340   0.814   6.185
 5776SOL    HW218228   5.254   0.677   6.209
 5777SOL     OW18229   6.236   1.389   3.956
 5777SOL    HW118230   6.136   1.379   3.961
 5777SOL    HW218231   6.275   1.380   4.048
 5778SOL     OW18232   1.133   6.631   2.972
 5778SOL    HW118233   1.228   6.640   3.000
 5778SOL    HW218234   1.124   6.660   2.876
 5779SOL     OW18235   3.988   1.187   1.302
 5779SOL    HW118236   4.054   1.162   1.374
 5779SOL    HW218237   3.949   1.104   1.263
 5780SOL     OW18238   6.838   4.203   1.154
 5780SOL    HW118239   6.800   4.170   1.240
 5780SOL    HW218240   6.770   4.191   1.081
 5781SOL     OW18241   2.093   4.484   5.066
 5781SOL    HW118242   2.155   4.406   5.058
 5781SOL    HW218243   2.137   4.566   5.028
 5782SOL     OW18244   2.204   0.886   1.495
 5782SOL    HW118245   2.110   0.893   1.461
 5782SOL    HW218246   2.206   0.911   1.592
 5783SOL     OW18247   1.492   0.141   1.195
 5783SOL    HW118248   1.452   0.230   1.218
 5783SOL    HW218249   1.467   0.116   1.102
 5784SOL     OW18250   0.829   6.004   0.124
 5784SOL    HW118251   0.911   5.947   0.121
 5784SOL    HW218252   0.755   5.954   0.169
 5785SOL     OW18253   1.796   1.329   0.293
 5785SOL    HW118254   1.720   1.339   0.356
 5785SOL    HW218255   1.770   1.269   0.218
 5786SOL     OW18256   1.635   2.904   1.544
 5786SOL    HW118257   1.627   2.855   1.631
 5786SOL    HW218258   1.721   2.955   1.541
 5787SOL     OW18259   6.095   2.435   4.968
 5787SOL    HW118260   6.072   2.443   4.871
 5787SOL    HW218261   6.173   2.374   4.978
 5788SOL     OW18262   3.505   1.052   2.276
 5788SOL    HW118263   3.418   1.022   2.316
 5788SOL    HW218264   3.520   1.149   2.297
 5789SOL     OW18265   4.466   4.107   0.243
 5789SOL    HW118266   4.528   4.050   0.297
 5789SOL    HW218267   4.513   4.191   0.216
 5790SOL     OW18268   5.661   5.488   4.615
 5790SOL    HW118269   5.653   5.410   4.553
 5790SOL    HW218270   5.752   5.528   4.607
 5791SOL     OW18271   3.776   1.166   2.818
 5791SOL    HW118272   3.775   1.223   2.899
 5791SOL    HW218273   3.871   1.150   2.789
 5792SOL     OW18274   4.798   3.974   2.617
 5792SOL    HW118275   4.768   4.042   2.550
 5792SOL    HW218276   4.898   3.979   2.626
 5793SOL     OW18277   5.463   2.184   5.019
 5793SOL    HW118278   5.495   2.160   5.111
 5793SOL    HW218279   5.537   2.166   4.953
 5794SOL     OW18280   3.351   6.423   6.268
 5794SOL    HW118281   3.397   6.377   6.192
 5794SOL    HW218282   3.341   6.360   6.344
 5795SOL     OW18283   1.087   5.003   2.049
 5795SOL    HW118284   1.055   4.959   2.133
 5795SOL    HW218285   1.016   5.063   2.013
 5796SOL     OW18286   4.522   1.614   6.488
 5796SOL    HW118287   4.448   1.668   6.448
 5796SOL    HW218288   4.598   1.609   6.423
 5797SOL     OW18289   5.132   2.761   0.244
 5797SOL    HW118290   5.074   2.682   0.221
 5797SOL    HW218291   5.189   2.783   0.165
 5798SOL     OW18292   1.858   4.181   5.338
 5798SOL    HW118293   1.820   4.104   5.286
 5798SOL    HW218294   1.957   4.169   5.346
 5799SOL     OW18295   1.447   6.349   3.299
 5799SOL    HW118296   1.518   6.414   3.326
 5799SOL    HW218297   1.360   6.375   3.341
 5800SOL     OW18298   0.473   6.799   0.823
 5800SOL    HW118299   0.440   6.881   0.871
 5800SOL    HW218300   0.465   6.720   0.884
 5801SOL     OW18301   2.256   2.611   2.538
 5801SOL    HW118302   2.159   2.636   2.538
 5801SOL    HW218303   2.292   2.618   2.445
 5802SOL     OW18304   0.167   1.547   2.166
 5802SOL    HW118305   0.167   1.472   2.232
 5802SOL    HW218306   0.080   1.595   2.170
 5803SOL     OW18307   1.077   5.317   4.211
 5803SOL    HW118308   1.116   5.377   4.281
 5803SOL    HW218309   1.129   5.232   4.207
 5804SOL     OW18310   5.811   0.020   3.657
 5804SOL    HW118311   5.894   7.012   3.610
 5804SOL    HW218312   5.766   6.967   3.701
 5805SOL     OW18313   2.209   3.217   1.233
 5805SOL    HW118314   2.262   3.291   1.274
 5805SOL    HW218315   2.267   3.137   1.221
 5806SOL     OW18316   0.514   3.325   3.220
 5806SOL    HW118317   0.519   3.377   3.305
 5806SOL    HW218318   0.591   3.262   3.215
 5807SOL     OW18319   1.098   6.715   0.378
 5807SOL    HW118320   1.082   6.687   0.283
 5807SOL    HW218321   1.045   6.657   0.440
 5808SOL     OW18322   5.738   0.828   4.825
 5808SOL    HW118323   5.836   0.844   4.816
 5808SOL    HW218324   5.697   0.900   4.880
 5809SOL     OW18325   0.429   2.549   5.759
 5809SOL    HW118326   0.519   2.554   5.802
 5809SOL    HW218327   0.364   2.604   5.812
 5810SOL     OW18328   4.041   0.029   5.017
 5810SOL    HW118329   4.011   0.121   4.993
 5810SOL    HW218330   3.975   6.986   4.985
 5811SOL     OW18331   2.805   3.651   5.770
 5811SOL    HW118332   2.841   3.716   5.837
 5811SOL    HW218333   2.879   3.592   5.738
 5812SOL     OW18334   5.715   2.968   0.617
 5812SOL    HW118335   5.668   2.978   0.704
 5812SOL    HW218336   5.720   2.871   0.593
 5813SOL     OW18337   4.297   6.555   1.633
 5813SOL    HW118338   4.355   6.632   1.657
 5813SOL    HW218339   4.354   6.477   1.606
 5814SOL     OW18340   5.127   1.475   1.941
 5814SOL    HW118341   5.072   1.513   1.866
 5814SOL    HW218342   5.148   1.547   2.007
 5815SOL     OW18343   6.338   1.240   3.728
 5815SOL    HW118344   6.346   1.151   3.773
 5815SOL    HW218345   6.304   1.307   3.793
 5816SOL     OW18346   6.837   3.884   2.819
 5816SOL    HW118347   6.877   3.969   2.854
 5816SOL    HW218348   6.761   3.905   2.757
 5817SOL     OW18349   5.473   4.676   3.472
 5817SOL    HW118350   5.488   4.701   3.568
 5817SOL    HW218351   5.429   4.752   3.425
 5818SOL     OW18352   2.170   0.347   5.485
 5818SOL    HW118353   2.155   0.353   5.386
 5818SOL    HW218354   2.250   0.290   5.503
 5819SOL     OW18355   4.270   5.242   7.008
 5819SOL    HW118356   4.249   5.183   0.061
 5819SOL    HW218357   4.362   5.280   7.019
 5820SOL     OW18358   6.049   4.862   2.432
 5820SOL    HW118359   6.027   4.834   2.339
 5820SOL    HW218360   5.989   4.814   2.496
 5821SOL     OW18361   6.127   0.641   1.393
 5821SOL    HW118362   6.195   0.569   1.404
 5821SOL    HW218363   6.158   0.706   1.323
 5822SOL     OW18364   1.768   3.264   2.521
 5822SOL    HW118365   1.719   3.259   2.434
 5822SOL    HW218366   1.866   3.275   2.503
 5823SOL     OW18367   2.184   6.549   3.806
 5823SOL    HW118368   2.139   6.487   3.870
 5823SOL    HW218369   2.117   6.613   3.768
 5824SOL     OW18370   0.934   0.175   1.792
 5824SOL    HW118371   0.893   0.145   1.878
 5824SOL    HW218372   0.940   0.097   1.729
 5825SOL     OW18373   6.182   0.295   4.589
 5825SOL    HW118374   6.217   0.218   4.535
 5825SOL    HW218375   6.259   0.342   4.634
 5826SOL     OW18376   0.430   6.952   4.590
 5826SOL    HW118377   0.478   0.000   4.542
 5826SOL    HW218378   0.335   6.980   4.607
 5827SOL     OW18379   1.913   4.736   5.546
 5827SOL    HW118380   1.931   4.683   5.463
 5827SOL    HW218381   1.961   4.695   5.623
 5828SOL     OW18382   4.463   7.014   4.625
 5828SOL    HW118383   4.441   0.082   4.593
 5828SOL    HW218384   4.383   6.975   4.670
 5829SOL     OW18385   2.468   0.746   3.709
 5829SOL    HW118386   2.491   0.775   3.802
 5829SOL    HW218387   2.517   0.802   3.643
 5830SOL     OW18388   4.106   5.611   5.091
 5830SOL    HW118389   4.163   5.587   5.170
 5830SOL    HW218390   4.123   5.546   5.017
 5831SOL     OW18391   1.577   1.371   5.386
 5831SOL    HW118392   1.665   1.330   5.361
 5831SOL    HW218393   1.503   1.321   5.340
 5832SOL     OW18394   3.220   5.005   0.889
 5832SOL    HW118395   3.129   5.045   0.898
 5832SOL    HW218396   3.211   4.909   0.861
 5833SOL     OW18397   4.241   3.641   6.304
 5833SOL    HW118398   4.185   3.712   6.261
 5833SOL    HW218399   4.191   3.554   6.304
 5834SOL     OW18400   5.639   3.880   6.803
 5834SOL    HW118401   5.628   3.797   6.749
 5834SOL    HW218402   5.709   3.938   6.761
 5835SOL     OW18403   5.399   0.846   2.630
 5835SOL    HW118404   5.323   0.816   2.573
 5835SOL    HW218405   5.481   0.794   2.605
 5836SOL     OW18406   3.929   0.119   2.406
 5836SOL    HW118407   3.931   0.182   2.328
 5836SOL    HW218408   3.887   0.033   2.379
 5837SOL     OW18409   3.690   4.010   6.878
 5837SOL    HW118410   3.612   4.068   6.852
 5837SOL    HW218411   3.684   3.989   6.975
 5838SOL     OW18412   2.893   1.750   0.977
 5838SOL    HW118413   2.859   1.807   0.902
 5838SOL    HW218414   2.992   1.759   0.983
 5839SOL     OW18415   1.421   1.888   1.425
 5839SOL    HW118416   1.348   1.905   1.359
 5839SOL    HW218417   1.482   1.967   1.429
 5840SOL     OW18418   0.969   3.562   2.471
 5840SOL    HW118419   0.921   3.620   2.537
 5840SOL    HW218420   1.050   3.610   2.437
 5841SOL     OW18421   5.527   1.936   0.475
 5841SOL    HW118422   5.455   1.995   0.513
 5841SOL    HW218423   5.490   1.881   0.401
 5842SOL     OW18424   3.216   1.677   0.685
 5842SOL    HW118425   3.207   1.599   0.747
 5842SOL    HW218426   3.218   1.762   0.737
 5843SOL     OW18427   1.775   2.970   1.012
 5843SOL    HW118428   1.831   2.981   1.094
 5843SOL    HW218429   1.832   2.979   0.931
 5844SOL     OW18430   0.782   0.852   4.988
 5844SOL    HW118431   0.759   0.897   4.902
 5844SOL    HW218432   0.743   0.760   4.990
 5845SOL     OW18433   1.227   5.879   2.012
 5845SOL    HW118434   1.244   5.972   1.978
 5845SOL    HW218435   1.304   5.820   1.988
 5846SOL     OW18436   6.375   3.997   5.725
 5846SOL    HW118437   6.313   3.987   5.802
 5846SOL    HW218438   6.343   4.070   5.665
 5847SOL     OW18439   3.156   3.164   0.566
 5847SOL    HW118440   3.177   3.068   0.581
 5847SOL    HW218441   3.133   3.207   0.654
 5848SOL     OW18442   2.112   5.851   3.606
 5848SOL    HW118443   2.075   5.780   3.667
 5848SOL    HW218444   2.200   5.883   3.641
 5849SOL     OW18445   2.631   6.020   5.666
 5849SOL    HW118446   2.562   6.072   5.616
 5849SOL    HW218447   2.715   6.014   5.612
 5850SOL     OW18448   0.529   1.821   1.356
 5850SOL    HW118449   0.570   1.736   1.389
 5850SOL    HW218450   0.562   1.840   1.264
 5851SOL     OW18451   5.606   2.941   4.787
 5851SOL    HW118452   5.624   2.878   4.711
 5851SOL    HW218453   5.684   3.002   4.799
 5852SOL     OW18454   5.399   4.976   3.038
 5852SOL    HW118455   5.337   4.902   3.010
 5852SOL    HW218456   5.352   5.035   3.104
 5853SOL     OW18457   3.934   4.615   5.507
 5853SOL    HW118458   3.882   4.699   5.494
 5853SOL    HW218459   3.897   4.543   5.449
 5854SOL     OW18460   2.551   4.912   5.972
 5854SOL    HW118461   2.480   4.851   5.938
 5854SOL    HW218462   2.617   4.930   5.899
 5855SOL     OW18463   1.970   2.476   3.771
 5855SOL    HW118464   2.055   2.478   3.717
 5855SOL    HW218465   1.982   2.416   3.850
 5856SOL     OW18466   1.608   0.245   2.705
 5856SOL    HW118467   1.515   0.264   2.738
 5856SOL    HW218468   1.607   0.163   2.648
 5857SOL     OW18469   0.016   4.346   6.459
 5857SOL    HW118470   0.039   4.250   6.476
 5857SOL    HW218471   6.952   4.351   6.413
 5858SOL     OW18472   1.953   1.104   3.319
 5858SOL    HW118473   1.907   1.039   3.259
 5858SOL    HW218474   1.923   1.197   3.297
 5859SOL     OW18475   6.139   0.034   2.256
 5859SOL    HW118476   6.076   7.011   2.317
 5859SOL    HW218477   6.158   7.000   2.177
 5860SOL     OW18478   0.469   3.060   3.965
 5860SOL    HW118479   0.378   3.020   3.954
 5860SOL    HW218480   0.500   3.097   3.877
 5861SOL     OW18481   5.115   0.862   5.003
 5861SOL    HW118482   5.191   0.826   5.058
 5861SOL    HW218483   5.043   0.894   5.064
 5862SOL     OW18484   6.874   4.962   3.310
 5862SOL    HW118485   6.909   5.051   3.340
 5862SOL    HW218486   6.951   4.904   3.282
 5863SOL     OW18487   3.795   0.306   5.404
 5863SOL    HW118488   3.724   0.369   5.371
 5863SOL    HW218489   3.832   0.255   5.327
 5864SOL     OW18490   2.914   3.371   2.618
 5864SOL    HW118491   2.901   3.304   2.545
 5864SOL    HW218492   2.851   3.448   2.603
 5865SOL     OW18493   5.807   1.166   5.160
 5865SOL    HW118494   5.774   1.234   5.226
 5865SOL    HW218495   5.879   1.207   5.104
 5866SOL     OW18496   3.850   3.174   2.336
 5866SOL    HW118497   3.927   3.183   2.399
 5866SOL    HW218498   3.816   3.080   2.339
 5867SOL     OW18499   2.726   2.717   1.543
 5867SOL    HW118500   2.740   2.694   1.639
 5867SOL    HW218501   2.781   2.656   1.486
 5868SOL     OW18502   0.526   1.666   6.062
 5868SOL    HW118503   0.474   1.637   6.143
 5868SOL    HW218504   0.484   1.748   6.023
 5869SOL     OW18505   1.321   4.727   4.548
 5869SOL    HW118506   1.384   4.773   4.486
 5869SOL    HW218507   1.371   4.659   4.602
 5870SOL     OW18508   4.329   4.730   4.811
 5870SOL    HW118509   4.268   4.802   4.844
 5870SOL    HW218510   4.332   4.655   4.876
 5871SOL     OW18511   3.602   3.429   3.083
 5871SOL    HW118512   3.645   3.366   3.148
 5871SOL    HW218513   3.607   3.522   3.118
 5872SOL     OW18514   3.485   6.531   2.415
 5872SOL    HW118515   3.585   6.525   2.412
 5872SOL    HW218516   3.449   6.526   2.321
 5873SOL     OW18517   3.677   4.987   2.575
 5873SOL    HW118518   3.644   5.076   2.607
 5873SOL    HW218519   3.716   4.996   2.484
 5874SOL     OW18520   2.143   4.452   5.914
 5874SOL    HW118521   2.049   4.444   5.946
 5874SOL    HW218522   2.156   4.395   5.833
 5875SOL     OW18523   3.571   1.067   0.377
 5875SOL    HW118524   3.489   1.090   0.429
 5875SOL    HW218525   3.616   0.988   0.419
 5876SOL     OW18526   3.809   3.396   2.206
 5876SOL    HW118527   3.902   3.417   2.177
 5876SOL    HW218528   3.806   3.306   2.249
 5877SOL     OW18529   5.945   5.189   1.355
 5877SOL    HW118530   5.991   5.100   1.358
 5877SOL    HW218531   5.846   5.175   1.359
 5878SOL     OW18532   2.289   4.750   2.744
 5878SOL    HW118533   2.234   4.669   2.764
 5878SOL    HW218534   2.230   4.830   2.740
 5879SOL     OW18535   0.242   4.148   0.077
 5879SOL    HW118536   0.236   4.175   0.173
 5879SOL    HW218537   0.336   4.157   0.046
 5880SOL     OW18538   2.522   6.491   1.446
 5880SOL    HW118539   2.444   6.429   1.455
 5880SOL    HW218540   2.596   6.461   1.507
 5881SOL     OW18541   0.624   4.506   3.511
 5881SOL    HW118542   0.595   4.601   3.503
 5881SOL    HW218543   0.606   4.473   3.604
 5882SOL     OW18544   5.119   0.380   1.172
 5882SOL    HW118545   5.161   0.470   1.184
 5882SOL    HW218546   5.031   0.391   1.126
 5883SOL     OW18547   6.428   2.880   6.655
 5883SOL    HW118548   6.512   2.927   6.681
 5883SOL    HW218549   6.363   2.883   6.731
 5884SOL     OW18550   0.696   1.266   3.261
 5884SOL    HW118551   0.651   1.266   3.350
 5884SOL    HW218552   0.795   1.266   3.274
 5885SOL     OW18553   6.159   6.335   1.413
 5885SOL    HW118554   6.104   6.418   1.429
 5885SOL    HW218555   6.230   6.355   1.346
 5886SOL     OW18556   0.533   2.151   5.199
 5886SOL    HW118557   0.596   2.226   5.176
 5886SOL    HW218558   0.479   2.127   5.118
 5887SOL     OW18559   3.189   1.125   4.339
 5887SOL    HW118560   3.258   1.178   4.290
 5887SOL    HW218561   3.210   1.027   4.330
 5888SOL     OW18562   2.044   6.257   3.402
 5888SOL    HW118563   1.986   6.319   3.455
 5888SOL    HW218564   2.117   6.222   3.460
 5889SOL     OW18565   2.290   0.295   1.161
 5889SOL    HW118566   2.205   0.307   1.213
 5889SOL    HW218567   2.320   0.383   1.126
 5890SOL     OW18568   1.944   6.429   5.489
 5890SOL    HW118569   1.960   6.394   5.397
 5890SOL    HW218570   1.977   6.362   5.556
 5891SOL     OW18571   3.887   2.814   6.842
 5891SOL    HW118572   3.820   2.877   6.803
 5891SOL    HW218573   3.839   2.735   6.880
 5892SOL     OW18574   0.362   6.609   1.337
 5892SOL    HW118575   0.359   6.656   1.425
 5892SOL    HW218576   0.360   6.676   1.263
 5893SOL     OW18577   1.455   2.340   3.594
 5893SOL    HW118578   1.389   2.336   3.669
 5893SOL    HW218579   1.544   2.310   3.628
 5894SOL     OW18580   1.330   3.863   3.578
 5894SOL    HW118581   1.417   3.911   3.587
 5894SOL    HW218582   1.263   3.926   3.537
 5895SOL     OW18583   5.085   2.902   4.752
 5895SOL    HW118584   5.051   2.888   4.845
 5895SOL    HW218585   5.009   2.925   4.692
 5896SOL     OW18586   3.821   2.098   6.752
 5896SOL    HW118587   3.806   2.194   6.726
 5896SOL    HW218588   3.877   2.095   6.835
 5897SOL     OW18589   3.824   1.265   0.628
 5897SOL    HW118590   3.751   1.217   0.677
 5897SOL    HW218591   3.893   1.297   0.693
 5898SOL     OW18592   1.838   0.137   1.843
 5898SOL    HW118593   1.879   0.046   1.845
 5898SOL    HW218594   1.907   0.204   1.815
 5899SOL     OW18595   5.257   6.826   4.821
 5899SOL    HW118596   5.258   6.829   4.921
 5899SOL    HW218597   5.320   6.755   4.790
 5900SOL     OW18598   5.135   4.881   2.969
 5900SOL    HW118599   5.147   4.847   2.875
 5900SOL    HW218600   5.056   4.837   3.011
 5901SOL     OW18601   2.277   6.406   6.653
 5901SOL    HW118602   2.255   6.468   6.578
 5901SOL    HW218603   2.195   6.390   6.709
 5902SOL     OW18604   6.895   2.827   0.491
 5902SOL    HW118605   6.988   2.829   0.528
 5902SOL    HW218606   6.840   2.899   0.534
 5903SOL     OW18607   6.136   4.444   0.093
 5903SOL    HW118608   6.196   4.368   0.068
 5903SOL    HW218609   6.072   4.462   0.018
 5904SOL     OW18610   0.507   3.788   2.379
 5904SOL    HW118611   0.544   3.697   2.399
 5904SOL    HW218612   0.578   3.857   2.395
 5905SOL     OW18613   6.839   6.384   2.707
 5905SOL    HW118614   6.800   6.308   2.758
 5905SOL    HW218615   6.937   6.391   2.728
 5906SOL     OW18616   5.722   1.030   3.711
 5906SOL    HW118617   5.661   0.970   3.764
 5906SOL    HW218618   5.671   1.071   3.636
 5907SOL     OW18619   0.495   6.320   1.337
 5907SOL    HW118620   0.424   6.272   1.388
 5907SOL    HW218621   0.465   6.414   1.320
 5908SOL     OW18622   0.594   2.456   5.129
 5908SOL    HW118623   0.692   2.476   5.135
 5908SOL    HW218624   0.542   2.542   5.125
 5909SOL     OW18625   1.001   6.036   0.472
 5909SOL    HW118626   1.021   6.093   0.552
 5909SOL    HW218627   0.998   6.092   0.390
 5910SOL     OW18628   1.515   2.095   3.033
 5910SOL    HW118629   1.518   2.029   3.108
 5910SOL    HW218630   1.597   2.152   3.035
 5911SOL     OW18631   6.490   5.612   0.008
 5911SOL    HW118632   6.521   5.535   0.063
 5911SOL    HW218633   6.521   5.600   6.938
 5912SOL     OW18634   6.472   1.693   5.711
 5912SOL    HW118635   6.510   1.686   5.619
 5912SOL    HW218636   6.377   1.725   5.706
 5913SOL     OW18637   5.419   3.310   0.628
 5913SOL    HW118638   5.343   3.317   0.693
 5913SOL    HW218639   5.483   3.385   0.643
 5914SOL     OW18640   0.943   6.750   6.240
 5914SOL    HW118641   0.943   6.819   6.167
 5914SOL    HW218642   1.029   6.698   6.236
 5915SOL     OW18643   3.854   6.867   0.528
 5915SOL    HW118644   3.944   6.883   0.569
 5915SOL    HW218645   3.794   6.821   0.594
 5916SOL     OW18646   1.263   6.645   1.659
 5916SOL    HW118647   1.252   6.741   1.685
 5916SOL    HW218648   1.335   6.637   1.590
 5917SOL     OW18649   3.166   4.400   6.390
 5917SOL    HW118650   3.107   4.473   6.356
 5917SOL    HW218651   3.113   4.335   6.444
 5918SOL     OW18652   2.707   6.222   5.925
 5918SOL    HW118653   2.774   6.182   5.862
 5918SOL    HW218654   2.676   6.154   5.990
 5919SOL     OW18655   3.614   3.334   3.428
 5919SOL    HW118656   3.519   3.309   3.448
 5919SOL    HW218657   3.648   3.275   3.354
 5920SOL     OW18658   5.944   0.706   6.046
 5920SOL    HW118659   6.042   0.710   6.024
 5920SOL    HW218660   5.927   0.629   6.107
 5921SOL     OW18661   3.656   4.737   6.366
 5921SOL    HW118662   3.648   4.780   6.455
 5921SOL    HW218663   3.709   4.796   6.305
 5922SOL     OW18664   6.425   3.672   2.962
 5922SOL    HW118665   6.513   3.670   3.010
 5922SOL    HW218666   6.396   3.767   2.950
 5923SOL     OW18667   6.056   1.317   1.457
 5923SOL    HW118668   6.003   1.350   1.379
 5923SOL    HW218669   6.001   1.252   1.509
 5924SOL     OW18670   5.483   0.097   2.806
 5924SOL    HW118671   5.522   0.110   2.897
 5924SOL    HW218672   5.548   0.129   2.737
 5925SOL     OW18673   4.507   5.282   1.060
 5925SOL    HW118674   4.562   5.228   1.123
 5925SOL    HW218675   4.567   5.340   1.005
 5926SOL     OW18676   4.017   4.841   3.088
 5926SOL    HW118677   4.004   4.910   3.159
 5926SOL    HW218678   3.933   4.833   3.033
 5927SOL     OW18679   1.588   3.643   2.009
 5927SOL    HW118680   1.572   3.723   2.067
 5927SOL    HW218681   1.621   3.567   2.065
 5928SOL     OW18682   4.349   0.630   1.145
 5928SOL    HW118683   4.326   0.727   1.139
 5928SOL    HW218684   4.434   0.619   1.197
 5929SOL     OW18685   6.816   0.321   5.395
 5929SOL    HW118686   6.903   0.343   5.440
 5929SOL    HW218687   6.777   0.404   5.355
 5930SOL     OW18688   1.298   3.327   1.589
 5930SOL    HW118689   1.288   3.289   1.497
 5930SOL    HW218690   1.299   3.427   1.583
 5931SOL     OW18691   5.411   6.079   2.920
 5931SOL    HW118692   5.345   6.020   2.968
 5931SOL    HW218693   5.369   6.168   2.903
 5932SOL     OW18694   3.095   0.102   6.386
 5932SOL    HW118695   3.169   0.149   6.433
 5932SOL    HW218696   3.045   0.044   6.450
 5933SOL     OW18697   6.891   5.395   4.405
 5933SOL    HW118698   6.980   5.411   4.364
 5933SOL    HW218699   6.870   5.297   4.404
 5934SOL     OW18700   3.445   3.874   5.794
 5934SOL    HW118701   3.367   3.825   5.833
 5934SOL    HW218702   3.414   3.961   5.755
 5935SOL     OW18703   0.440   6.103   4.748
 5935SOL    HW118704   0.490   6.035   4.695
 5935SOL    HW218705   0.452   6.193   4.706
 5936SOL     OW18706   3.756   3.191   3.243
 5936SOL    HW118707   3.856   3.195   3.238
 5936SOL    HW218708   3.723   3.113   3.190
 5937SOL     OW18709   0.445   2.676   2.185
 5937SOL    HW118710   0.523   2.711   2.236
 5937SOL    HW218711   0.474   2.647   2.094
 5938SOL     OW18712   5.965   5.429   5.401
 5938SOL    HW118713   6.016   5.459   5.320
 5938SOL    HW218714   5.868   5.452   5.389
 5939SOL     OW18715   3.788   7.006   4.621
 5939SOL    HW118716   3.874   6.958   4.637
 5939SOL    HW218717   3.762   6.997   4.525
 5940SOL     OW18718   4.991   5.188   3.014
 5940SOL    HW118719   4.987   5.089   3.027
 5940SOL    HW218720   4.902   5.222   2.984
 5941SOL     OW18721   6.460   2.198   2.179
 5941SOL    HW118722   6.400   2.131   2.222
 5941SOL    HW218723   6.539   2.152   2.139
 5942SOL     OW18724   6.478   3.177   6.032
 5942SOL    HW118725   6.545   3.133   6.092
 5942SOL    HW218726   6.499   3.155   5.937
 5943SOL     OW18727   4.061   3.197   0.415
 5943SOL    HW118728   4.115   3.279   0.438
 5943SOL    HW218729   3.991   3.220   0.348
 5944SOL     OW18730   0.321   3.096   6.769
 5944SOL    HW118731   0.291   3.191   6.756
 5944SOL    HW218732   0.362   3.086   6.860
 5945SOL     OW18733   0.753   6.010   5.029
 5945SOL    HW118734   0.775   6.102   5.062
 5945SOL    HW218735   0.838   5.959   5.014
 5946SOL     OW18736   4.067   4.408   6.507
 5946SOL    HW118737   4.073   4.308   6.506
 5946SOL    HW218738   4.083   4.441   6.600
 5947SOL     OW18739   3.310   2.921   4.736
 5947SOL    HW118740   3.313   2.926   4.637
 5947SOL    HW218741   3.323   2.826   4.766
 5948SOL     OW18742   5.279   3.902   2.031
 5948SOL    HW118743   5.368   3.945   2.044
 5948SOL    HW218744   5.206   3.968   2.049
 5949SOL     OW18745   5.841   5.442   1.248
 5949SOL    HW118746   5.862   5.458   1.152
 5949SOL    HW218747   5.881   5.355   1.277
 5950SOL     OW18748   5.372   2.183   5.449
 5950SOL    HW118749   5.353   2.101   5.504
 5950SOL    HW218750   5.293   2.244   5.452
 5951SOL     OW18751   0.973   5.080   5.038
 5951SOL    HW118752   1.053   5.119   4.993
 5951SOL    HW218753   0.921   5.026   4.971
 5952SOL     OW18754   4.076   5.104   2.069
 5952SOL    HW118755   4.165   5.095   2.114
 5952SOL    HW218756   4.078   5.056   1.982
 5953SOL     OW18757   6.365   2.832   4.949
 5953SOL    HW118758   6.349   2.857   4.854
 5953SOL    HW218759   6.278   2.827   4.998
 5954SOL     OW18760   0.524   5.395   5.138
 5954SOL    HW118761   0.614   5.363   5.166
 5954SOL    HW218762   0.517   5.394   5.039
 5955SOL     OW18763   5.296   4.809   1.327
 5955SOL    HW118764   5.224   4.876   1.306
 5955SOL    HW218765   5.381   4.837   1.281
 5956SOL     OW18766   4.966   2.679   4.548
 5956SOL    HW118767   5.063   2.706   4.553
 5956SOL    HW218768   4.910   2.751   4.587
 5957SOL     OW18769   1.304   1.200   2.774
 5957SOL    HW118770   1.293   1.299   2.776
 5957SOL    HW218771   1.217   1.158   2.750
 5958SOL     OW18772   3.620   6.956   3.052
 5958SOL    HW118773   3.588   6.937   3.145
 5958SOL    HW218774   3.595   0.024   3.026
 5959SOL     OW18775   4.930   2.206   4.930
 5959SOL    HW118776   4.929   2.305   4.922
 5959SOL    HW218777   4.917   2.166   4.839
 5960SOL     OW18778   3.276   6.470   5.107
 5960SOL    HW118779   3.204   6.416   5.150
 5960SOL    HW218780   3.297   6.549   5.165
 5961SOL     OW18781   3.838   1.993   2.497
 5961SOL    HW118782   3.797   2.060   2.559
 5961SOL    HW218783   3.849   1.906   2.544
 5962SOL     OW18784   5.202   6.633   6.715
 5962SOL    HW118785   5.215   6.553   6.773
 5962SOL    HW218786   5.247   6.619   6.627
 5963SOL     OW18787   3.887   4.762   6.720
 5963SOL    HW118788   3.936   4.788   6.637
 5963SOL    HW218789   3.885   4.662   6.727
 5964SOL     OW18790   2.033   0.395   2.623
 5964SOL    HW118791   2.116   0.449   2.637
 5964SOL    HW218792   2.055   0.298   2.635
 5965SOL     OW18793   1.805   0.038   6.783
 5965SOL    HW118794   1.865   6.986   6.805
 5965SOL    HW218795   1.717   0.027   6.830
 5966SOL     OW18796   1.717   0.398   5.619
 5966SOL    HW118797   1.727   0.316   5.675
 5966SOL    HW218798   1.805   0.446   5.613
 5967SOL     OW18799   2.189   2.157   4.683
 5967SOL    HW118800   2.221   2.213   4.759
 5967SOL    HW218801   2.131   2.083   4.718
 5968SOL     OW18802   5.730   2.583   0.083
 5968SOL    HW118803   5.659   2.513   0.076
 5968SOL    HW218804   5.702   2.652   0.150
 5969SOL     OW18805   5.306   0.810   6.715
 5969SOL    HW118806   5.325   0.734   6.778
 5969SOL    HW218807   5.213   0.843   6.731
 5970SOL     OW18808   0.266   3.564   1.244
 5970SOL    HW118809   0.198   3.499   1.211
 5970SOL    HW218810   0.237   3.600   1.333
 5971SOL     OW18811   6.050   0.142   2.668
 5971SOL    HW118812   6.000   0.139   2.582
 5971SOL    HW218813   6.018   0.068   2.728
 5972SOL     OW18814   4.729   5.392   0.380
 5972SOL    HW118815   4.810   5.333   0.387
 5972SOL    HW218816   4.683   5.395   0.469
 5973SOL     OW18817   1.575   3.308   2.715
 5973SOL    HW118818   1.631   3.276   2.639
 5973SOL    HW218819   1.576   3.240   2.788
 5974SOL     OW18820   4.099   0.643   0.040
 5974SOL    HW118821   4.184   0.603   0.074
 5974SOL    HW218822   4.040   0.571   0.003
 5975SOL     OW18823   5.276   5.209   0.554
 5975SOL    HW118824   5.373   5.189   0.564
 5975SOL    HW218825   5.250   5.280   0.619
 5976SOL     OW18826   3.641   3.489   5.708
 5976SOL    HW118827   3.664   3.398   5.744
 5976SOL    HW218828   3.725   3.545   5.704
 5977SOL     OW18829   0.638   5.316   0.273
 5977SOL    HW118830   0.595   5.400   0.306
 5977SOL    HW218831   0.704   5.338   0.201
 5978SOL     OW18832   3.523   5.305   0.055
 5978SOL    HW118833   3.597   5.348   0.003
 5978SOL    HW218834   3.551   5.213   0.083
 5979SOL     OW18835   6.120   0.956   1.966
 5979SOL    HW118836   6.118   0.861   1.936
 5979SOL    HW218837   6.090   1.015   1.891
 5980SOL     OW18838   3.262   2.834   1.895
 5980SOL    HW118839   3.322   2.878   1.828
 5980SOL    HW218840   3.191   2.782   1.848
 5981SOL     OW18841   4.773   2.781   0.580
 5981SOL    HW118842   4.815   2.695   0.550
 5981SOL    HW218843   4.688   2.760   0.630
 5982SOL     OW18844   5.965   2.209   2.368
 5982SOL    HW118845   5.865   2.209   2.359
 5982SOL    HW218846   5.999   2.116   2.361
 5983SOL     OW18847   0.206   0.621   4.216
 5983SOL    HW118848   0.134   0.650   4.279
 5983SOL    HW218849   0.275   0.694   4.210
 5984SOL     OW18850   6.059   6.234   3.663
 5984SOL    HW118851   6.109   6.317   3.639
 5984SOL    HW218852   6.057   6.172   3.584
 5985SOL     OW18853   6.395   1.970   3.469
 5985SOL    HW118854   6.480   2.021   3.482
 5985SOL    HW218855   6.318   2.024   3.503
 5986SOL     OW18856   4.232   3.833   5.233
 5986SOL    HW118857   4.239   3.906   5.300
 5986SOL    HW218858   4.235   3.872   5.141
 5987SOL     OW18859   6.673   0.592   4.472
 5987SOL    HW118860   6.735   0.519   4.442
 5987SOL    HW218861   6.587   0.551   4.504
 5988SOL     OW18862   2.849   1.465   7.012
 5988SOL    HW118863   2.837   1.420   6.924
 5988SOL    HW218864   2.898   1.552   6.999
 5989SOL     OW18865   1.098   5.843   6.634
 5989SOL    HW118866   1.129   5.877   6.723
 5989SOL    HW218867   1.171   5.853   6.567
 5990SOL     OW18868   4.261   4.388   0.917
 5990SOL    HW118869   4.341   4.412   0.862
 5990SOL    HW218870   4.270   4.427   1.009
 5991SOL     OW18871   4.148   6.009   0.890
 5991SOL    HW118872   4.057   5.973   0.908
 5991SOL    HW218873   4.140   6.097   0.842
 5992SOL     OW18874   3.119   0.350   1.982
 5992SOL    HW118875   3.025   0.379   1.998
 5992SOL    HW218876   3.172   0.363   2.066
 5993SOL     OW18877   6.210   3.607   6.893
 5993SOL    HW118878   6.227   3.671   6.969
 5993SOL    HW218879   6.188   3.517   6.930
 5994SOL     OW18880   0.086   3.362   1.381
 5994SOL    HW118881   7.020   3.378   1.421
 5994SOL    HW218882   0.157   3.400   1.440
 5995SOL     OW18883   4.612   3.093   1.157
 5995SOL    HW118884   4.636   3.181   1.117
 5995SOL    HW218885   4.534   3.054   1.109
 5996SOL     OW18886   2.258   5.839   1.082
 5996SOL    HW118887   2.272   5.826   0.984
 5996SOL    HW218888   2.270   5.752   1.130
 5997SOL     OW18889   6.903   6.852   3.366
 5997SOL    HW118890   6.941   6.805   3.287
 5997SOL    HW218891   6.803   6.851   3.361
 5998SOL     OW18892   5.253   1.056   1.873
 5998SOL    HW118893   5.327   1.101   1.823
 5998SOL    HW218894   5.230   1.111   1.953
 5999SOL     OW18895   4.105   3.370   1.056
 5999SOL    HW118896   4.128   3.445   1.118
 5999SOL    HW218897   4.154   3.287   1.084
 6000SOL     OW18898   0.516   5.523   0.384
 6000SOL    HW118899   0.436   5.516   0.444
 6000SOL    HW218900   0.546   5.619   0.380
 6001SOL     OW18901   5.289   6.236   6.104
 6001SOL    HW118902   5.228   6.182   6.046
 6001SOL    HW218903   5.307   6.186   6.189
 6002SOL     OW18904   6.609   6.885   4.606
 6002SOL    HW118905   6.697   6.842   4.583
 6002SOL    HW218906   6.623   6.951   4.680
 6003SOL     OW18907   6.664   2.622   4.208
 6003SOL    HW118908   6.656   2.533   4.164
 6003SOL    HW218909   6.641   2.694   4.142
 6004SOL     OW18910   5.872   2.656   3.503
 6004SOL    HW118911   5.808   2.592   3.459
 6004SOL    HW218912   5.956   2.662   3.450
 6005SOL     OW18913   4.955   4.089   5.009
 6005SOL    HW118914   5.053   4.103   4.998
 6005SOL    HW218915   4.918   4.041   4.929
 6006SOL     OW18916   3.588   0.445   5.337
 6006SOL    HW118917   3.503   0.393   5.341
 6006SOL    HW218918   3.574   0.528   5.285
 6007SOL     OW18919   0.440   4.060   6.401
 6007SOL    HW118920   0.387   3.986   6.359
 6007SOL    HW218921   0.389   4.146   6.393
 6008SOL     OW18922   2.258   4.007   5.680
 6008SOL    HW118923   2.345   3.977   5.719
 6008SOL    HW218924   2.255   3.984   5.582
 6009SOL     OW18925   4.639   5.464   3.091
 6009SOL    HW118926   4.706   5.536   3.107
 6009SOL    HW218927   4.550   5.492   3.128
 6010SOL     OW18928   0.240   4.365   4.554
 6010SOL    HW118929   0.285   4.289   4.508
 6010SOL    HW218930   0.296   4.448   4.543
 6011SOL     OW18931   4.562   1.654   2.972
 6011SOL    HW118932   4.552   1.569   2.921
 6011SOL    HW218933   4.655   1.660   3.009
 6012SOL     OW18934   6.025   0.325   6.735
 6012SOL    HW118935   5.931   0.309   6.707
 6012SOL    HW218936   6.072   0.379   6.665
 6013SOL     OW18937   5.218   0.700   2.458
 6013SOL    HW118938   5.296   0.691   2.396
 6013SOL    HW218939   5.137   0.727   2.406
 6014SOL     OW18940   3.088   3.131   4.182
 6014SOL    HW118941   3.042   3.220   4.185
 6014SOL    HW218942   3.137   3.121   4.096
 6015SOL     OW18943   6.627   2.465   4.561
 6015SOL    HW118944   6.628   2.441   4.464
 6015SOL    HW218945   6.659   2.559   4.573
 6016SOL     OW18946   4.514   1.318   5.335
 6016SOL    HW118947   4.570   1.237   5.350
 6016SOL    HW218948   4.571   1.400   5.342
 6017SOL     OW18949   6.631   3.822   4.980
 6017SOL    HW118950   6.633   3.723   4.993
 6017SOL    HW218951   6.654   3.867   5.067
 6018SOL     OW18952   3.653   1.231   4.844
 6018SOL    HW118953   3.731   1.221   4.782
 6018SOL    HW218954   3.684   1.269   4.931
 6019SOL     OW18955   1.200   3.765   5.669
 6019SOL    HW118956   1.240   3.761   5.578
 6019SOL    HW218957   1.145   3.683   5.685
 6020SOL     OW18958   1.234   5.053   0.761
 6020SOL    HW118959   1.304   4.983   0.749
 6020SOL    HW218960   1.248   5.100   0.848
 6021SOL     OW18961   4.214   0.631   2.436
 6021SOL    HW118962   4.243   0.549   2.386
 6021SOL    HW218963   4.226   0.616   2.534
 6022SOL     OW18964   6.119   1.540   3.048
 6022SOL    HW118965   6.022   1.518   3.052
 6022SOL    HW218966   6.173   1.459   3.072
 6023SOL     OW18967   5.054   0.328   1.488
 6023SOL    HW118968   5.083   0.420   1.462
 6023SOL    HW218969   4.976   0.301   1.431
 6024SOL     OW18970   0.296   4.781   1.128
 6024SOL    HW118971   0.211   4.751   1.171
 6024SOL    HW218972   0.281   4.790   1.029
 6025SOL     OW18973   2.870   1.524   3.709
 6025SOL    HW118974   2.968   1.537   3.725
 6025SOL    HW218975   2.837   1.593   3.645
 6026SOL     OW18976   6.667   4.126   4.387
 6026SOL    HW118977   6.658   4.084   4.478
 6026SOL    HW218978   6.626   4.067   4.318
 6027SOL     OW18979   6.070   3.403   6.245
 6027SOL    HW118980   6.165   3.434   6.236
 6027SOL    HW218981   6.065   3.332   6.314
 6028SOL     OW18982   5.491   4.908   0.687
 6028SOL    HW118983   5.508   5.002   0.657
 6028SOL    HW218984   5.574   4.854   0.675
 6029SOL     OW18985   2.542   0.078   3.827
 6029SOL    HW118986   2.613   0.025   3.872
 6029SOL    HW218987   2.567   0.175   3.826
 6030SOL     OW18988   4.941   3.681   4.788
 6030SOL    HW118989   4.939   3.696   4.689
 6030SOL    HW218990   4.849   3.658   4.820
 6031SOL     OW18991   1.035   5.880   4.257
 6031SOL    HW118992   1.052   5.839   4.168
 6031SOL    HW218993   0.969   5.824   4.307
 6032SOL     OW18994   3.542   5.935   4.167
 6032SOL    HW118995   3.608   5.918   4.094
 6032SOL    HW218996   3.459   5.974   4.128
 6033SOL     OW18997   2.296   2.555   2.815
 6033SOL    HW118998   2.258   2.599   2.733
 6033SOL    HW218999   2.227   2.495   2.855
 6034SOL     OW19000   1.180   0.110   6.275
 6034SOL    HW119001   1.179   0.050   6.195
 6034SOL    HW219002   1.166   0.055   6.358
 6035SOL     OW19003   0.641   1.075   2.473
 6035SOL    HW119004   0.541   1.071   2.469
 6035SOL    HW219005   0.676   0.994   2.519
 6036SOL     OW19006   6.225   4.981   1.439
 6036SOL    HW119007   6.282   4.971   1.358
 6036SOL    HW219008   6.154   4.911   1.440
 6037SOL     OW19009   4.025   1.329   0.805
 6037SOL    HW119010   4.006   1.240   0.847
 6037SOL    HW219011   4.114   1.363   0.835
 6038SOL     OW19012   0.448   2.634   6.697
 6038SOL    HW119013   0.518   2.681   6.751
 6038SOL    HW219014   0.457   2.535   6.711
 6039SOL     OW19015   4.127   3.612   4.158
 6039SOL    HW119016   4.095   3.520   4.138
 6039SOL    HW219017   4.224   3.609   4.183
 6040SOL     OW19018   1.516   1.599   0.086
 6040SOL    HW119019   1.493   1.507   0.055
 6040SOL    HW219020   1.537   1.598   0.184
 6041SOL     OW19021   3.236   2.917   5.679
 6041SOL    HW119022   3.232   2.994   5.616
 6041SOL    HW219023   3.233   2.831   5.627
 6042SOL     OW19024   3.857   6.198   3.437
 6042SOL    HW119025   3.878   6.205   3.534
 6042SOL    HW219026   3.933   6.234   3.383
 6043SOL     OW19027   1.735   0.636   3.344
 6043SOL    HW119028   1.780   0.715   3.386
 6043SOL    HW219029   1.642   0.629   3.379
 6044SOL     OW19030   1.841   1.681   2.126
 6044SOL    HW119031   1.861   1.761   2.182
 6044SOL    HW219032   1.904   1.607   2.150
 6045SOL     OW19033   4.911   3.384   3.770
 6045SOL    HW119034   4.841   3.383   3.699
 6045SOL    HW219035   5.001   3.379   3.728
 6046SOL     OW19036   3.312   2.640   1.638
 6046SOL    HW119037   3.388   2.642   1.703
 6046SOL    HW219038   3.340   2.686   1.553
 6047SOL     OW19039   5.694   2.189   0.674
 6047SOL    HW119040   5.756   2.193   0.596
 6047SOL    HW219041   5.610   2.238   0.652
 6048SOL     OW19042   5.569   5.071   5.003
 6048SOL    HW119043   5.527   5.055   4.914
 6048SOL    HW219044   5.646   5.009   5.016
 6049SOL     OW19045   5.358   4.457   6.199
 6049SOL    HW119046   5.310   4.391   6.257
 6049SOL    HW219047   5.295   4.530   6.172
 6050SOL     OW19048   3.137   5.549   0.590
 6050SOL    HW119049   3.180   5.461   0.570
 6050SOL    HW219050   3.147   5.571   0.687
 6051SOL     OW19051   0.286   1.351   2.525
 6051SOL    HW119052   0.361   1.411   2.554
 6051SOL    HW219053   0.318   1.256   2.526
 6052SOL     OW19054   5.667   0.471   1.067
 6052SOL    HW119055   5.601   0.545   1.084
 6052SOL    HW219056   5.619   0.384   1.063
 6053SOL     OW19057   4.622   1.063   6.148
 6053SOL    HW119058   4.707   1.109   6.126
 6053SOL    HW219059   4.545   1.120   6.120
 6054SOL     OW19060   3.870   5.145   0.553
 6054SOL    HW119061   3.785   5.110   0.592
 6054SOL    HW219062   3.853   5.235   0.512
 6055SOL     OW19063   3.486   4.995   6.381
 6055SOL    HW119064   3.387   4.980   6.374
 6055SOL    HW219065   3.521   4.949   6.463
 6056SOL     OW19066   6.027   2.987   4.829
 6056SOL    HW119067   6.063   3.019   4.916
 6056SOL    HW219068   6.099   2.939   4.778
 6057SOL     OW19069   5.066   0.314   2.292
 6057SOL    HW119070   5.161   0.317   2.325
 6057SOL    HW219071   5.061   0.361   2.204
 6058SOL     OW19072   5.951   3.727   0.926
 6058SOL    HW119073   5.898   3.672   0.990
 6058SOL    HW219074   6.049   3.709   0.940
 6059SOL     OW19075   5.160   3.983   5.476
 6059SOL    HW119076   5.099   4.052   5.437
 6059SOL    HW219077   5.205   4.021   5.557
 6060SOL     OW19078   3.337   3.042   0.346
 6060SOL    HW119079   3.262   2.995   0.392
 6060SOL    HW219080   3.345   3.008   0.252
 6061SOL     OW19081   4.048   4.654   0.195
 6061SOL    HW119082   3.985   4.653   0.273
 6061SOL    HW219083   4.141   4.665   0.228
 6062SOL     OW19084   2.431   1.511   0.002
 6062SOL    HW119085   2.443   1.511   6.927
 6062SOL    HW219086   2.510   1.555   0.045
 6063SOL     OW19087   3.856   4.373   5.349
 6063SOL    HW119088   3.809   4.308   5.289
 6063SOL    HW219089   3.796   4.399   5.424
 6064SOL     OW19090   0.493   0.233   0.615
 6064SOL    HW119091   0.404   0.196   0.645
 6064SOL    HW219092   0.544   0.264   0.695
 6065SOL     OW19093   1.203   5.340   1.869
 6065SOL    HW119094   1.200   5.427   1.820
 6065SOL    HW219095   1.202   5.358   1.968
 6066SOL     OW19096   5.186   0.928   3.501
 6066SOL    HW119097   5.143   0.998   3.444
 6066SOL    HW219098   5.207   0.848   3.446
 6067SOL     OW19099   5.847   0.209   5.430
 6067SOL    HW119100   5.761   0.215   5.479
 6067SOL    HW219101   5.887   0.118   5.443
 6068SOL     OW19102   5.020   1.963   4.992
 6068SOL    HW119103   4.995   2.059   4.994
 6068SOL    HW219104   5.009   1.927   4.899
 6069SOL     OW19105   6.812   2.951   5.935
 6069SOL    HW119106   6.836   2.858   5.906
 6069SOL    HW219107   6.886   2.988   5.991
 6070SOL     OW19108   3.657   2.236   1.579
 6070SOL    HW119109   3.673   2.314   1.639
 6070SOL    HW219110   3.639   2.155   1.634
 6071SOL     OW19111   0.098   6.080   4.162
 6071SOL    HW119112   0.182   6.115   4.205
 6071SOL    HW219113   0.020   6.096   4.223
 6072SOL     OW19114   0.208   1.992   0.639
 6072SOL    HW119115   0.138   1.947   0.695
 6072SOL    HW219116   0.174   2.003   0.546
 6073SOL     OW19117   5.003   3.200   1.150
 6073SOL    HW119118   4.987   3.220   1.247
 6073SOL    HW219119   4.917   3.206   1.101
 6074SOL     OW19120   1.726   6.683   2.434
 6074SOL    HW119121   1.716   6.671   2.532
 6074SOL    HW219122   1.668   6.617   2.386
 6075SOL     OW19123   4.837   0.086   5.933
 6075SOL    HW119124   4.868   0.126   5.847
 6075SOL    HW219125   4.743   0.113   5.950
 6076SOL     OW19126   2.574   5.200   4.123
 6076SOL    HW119127   2.566   5.221   4.221
 6076SOL    HW219128   2.496   5.241   4.075
 6077SOL     OW19129   5.258   6.586   1.040
 6077SOL    HW119130   5.223   6.680   1.041
 6077SOL    HW219131   5.185   6.524   1.013
 6078SOL     OW19132   4.209   4.086   0.608
 6078SOL    HW119133   4.266   4.082   0.690
 6078SOL    HW219134   4.225   4.172   0.560
 6079SOL     OW19135   5.008   4.492   6.465
 6079SOL    HW119136   4.916   4.513   6.434
 6079SOL    HW219137   5.006   4.463   6.561
 6080SOL     OW19138   1.031   5.105   1.511
 6080SOL    HW119139   0.998   5.196   1.538
 6080SOL    HW219140   0.972   5.035   1.552
 6081SOL     OW19141   0.870   3.686   5.552
 6081SOL    HW119142   0.866   3.690   5.452
 6081SOL    HW219143   0.807   3.754   5.590
 6082SOL     OW19144   3.500   0.274   2.120
 6082SOL    HW119145   3.543   0.302   2.035
 6082SOL    HW219146   3.447   0.190   2.105
 6083SOL     OW19147   5.554   0.143   0.370
 6083SOL    HW119148   5.494   0.063   0.365
 6083SOL    HW219149   5.531   0.206   0.296
 6084SOL     OW19150   1.000   6.244   1.861
 6084SOL    HW119151   0.961   6.154   1.880
 6084SOL    HW219152   1.086   6.233   1.812
 6085SOL     OW19153   6.065   5.882   6.345
 6085SOL    HW119154   6.140   5.817   6.359
 6085SOL    HW219155   6.032   5.913   6.434
 6086SOL     OW19156   3.757   2.607   6.550
 6086SOL    HW119157   3.708   2.689   6.580
 6086SOL    HW219158   3.835   2.633   6.493
 6087SOL     OW19159   5.061   6.213   0.480
 6087SOL    HW119160   5.076   6.207   0.382
 6087SOL    HW219161   5.108   6.137   0.525
 6088SOL     OW19162   5.308   6.398   5.571
 6088SOL    HW119163   5.306   6.372   5.474
 6088SOL    HW219164   5.400   6.431   5.594
 6089SOL     OW19165   6.731   2.129   2.103
 6089SOL    HW119166   6.736   2.213   2.157
 6089SOL    HW219167   6.824   2.092   2.090
 6090SOL     OW19168   2.988   5.159   4.583
 6090SOL    HW119169   3.026   5.073   4.549
 6090SOL    HW219170   2.904   5.180   4.533
 6091SOL     OW19171   2.676   1.200   1.234
 6091SOL    HW119172   2.609   1.238   1.170
 6091SOL    HW219173   2.721   1.274   1.284
 6092SOL     OW19174   4.111   0.457   2.033
 6092SOL    HW119175   4.203   0.435   2.066
 6092SOL    HW219176   4.074   0.379   1.984
 6093SOL     OW19177   2.242   1.681   2.221
 6093SOL    HW119178   2.173   1.653   2.154
 6093SOL    HW219179   2.220   1.771   2.257
 6094SOL     OW19180   0.742   6.864   4.204
 6094SOL    HW119181   0.811   6.883   4.275
 6094SOL    HW219182   0.686   6.787   4.233
 6095SOL     OW19183   4.246   5.301   6.721
 6095SOL    HW119184   4.275   5.235   6.652
 6095SOL    HW219185   4.277   5.272   6.811
 6096SOL     OW19186   5.517   6.369   2.579
 6096SOL    HW119187   5.613   6.343   2.590
 6096SOL    HW219188   5.462   6.287   2.564
 6097SOL     OW19189   1.432   5.734   1.876
 6097SOL    HW119190   1.484   5.715   1.792
 6097SOL    HW219191   1.467   5.676   1.949
 6098SOL     OW19192   6.430   0.980   5.860
 6098SOL    HW119193   6.370   1.035   5.803
 6098SOL    HW219194   6.525   1.009   5.847
 6099SOL     OW19195   4.656   6.366   5.962
 6099SOL    HW119196   4.720   6.413   6.023
 6099SOL    HW219197   4.585   6.430   5.933
 6100SOL     OW19198   0.550   5.710   2.114
 6100SOL    HW119199   0.467   5.684   2.164
 6100SOL    HW219200   0.545   5.674   2.021
 6101SOL     OW19201   6.317   2.380   2.040
 6101SOL    HW119202   6.368   2.314   2.095
 6101SOL    HW219203   6.330   2.472   2.077
 6102SOL     OW19204   4.526   5.923   2.920
 6102SOL    HW119205   4.532   5.874   2.833
 6102SOL    HW219206   4.474   6.008   2.907
 6103SOL     OW19207   6.770   1.364   0.946
 6103SOL    HW119208   6.815   1.391   1.031
 6103SOL    HW219209   6.767   1.264   0.940
 6104SOL     OW19210   6.002   1.290   4.984
 6104SOL    HW119211   6.004   1.235   4.900
 6104SOL    HW219212   6.093   1.290   5.025
 6105SOL     OW19213   2.638   5.326   5.698
 6105SOL    HW119214   2.673   5.395   5.634
 6105SOL    HW219215   2.629   5.239   5.650
 6106SOL     OW19216   0.719   4.294   0.724
 6106SOL    HW119217   0.692   4.385   0.754
 6106SOL    HW219218   0.656   4.226   0.762
 6107SOL     OW19219   4.933   5.111   4.085
 6107SOL    HW119220   5.029   5.107   4.115
 6107SOL    HW219221   4.930   5.100   3.986
 6108SOL     OW19222   1.321   1.764   2.327
 6108SOL    HW119223   1.367   1.741   2.413
 6108SOL    HW219224   1.276   1.852   2.336
 6109SOL     OW19225   5.557   0.521   4.078
 6109SOL    HW119226   5.507   0.551   4.159
 6109SOL    HW219227   5.517   0.564   3.997
 6110SOL     OW19228   1.209   2.819   6.254
 6110SOL    HW119229   1.204   2.917   6.273
 6110SOL    HW219230   1.260   2.773   6.327
 6111SOL     OW19231   1.365   3.458   2.292
 6111SOL    HW119232   1.279   3.428   2.332
 6111SOL    HW219233   1.360   3.451   2.192
 6112SOL     OW19234   3.752   0.915   2.285
 6112SOL    HW119235   3.750   0.827   2.333
 6112SOL    HW219236   3.662   0.958   2.290
 6113SOL     OW19237   2.801   3.996   6.797
 6113SOL    HW119238   2.838   3.999   6.704
 6113SOL    HW219239   2.870   4.028   6.861
 6114SOL     OW19240   4.741   2.221   2.207
 6114SOL    HW119241   4.794   2.269   2.136
 6114SOL    HW219242   4.648   2.206   2.174
 6115SOL     OW19243   0.488   1.530   5.205
 6115SOL    HW119244   0.457   1.623   5.185
 6115SOL    HW219245   0.562   1.533   5.272
 6116SOL     OW19246   3.938   2.320   5.284
 6116SOL    HW119247   3.860   2.259   5.272
 6116SOL    HW219248   3.905   2.413   5.298
 6117SOL     OW19249   1.136   1.178   3.119
 6117SOL    HW119250   1.110   1.258   3.066
 6117SOL    HW219251   1.229   1.150   3.094
 6118SOL     OW19252   5.772   1.601   1.525
 6118SOL    HW119253   5.870   1.583   1.516
 6118SOL    HW219254   5.734   1.542   1.597
 6119SOL     OW19255   0.101   2.933   0.197
 6119SOL    HW119256   0.059   2.907   0.110
 6119SOL    HW219257   0.052   2.888   0.272
 6120SOL     OW19258   1.791   6.810   5.357
 6120SOL    HW119259   1.707   6.757   5.361
 6120SOL    HW219260   1.813   6.844   5.448
 6121SOL     OW19261   0.570   4.085   5.599
 6121SOL    HW119262   0.586   4.163   5.539
 6121SOL    HW219263   0.473   4.081   5.623
 6122SOL     OW19264   5.315   6.105   6.337
 6122SOL    HW119265   5.273   6.019   6.366
 6122SOL    HW219266   5.308   6.172   6.411
 6123SOL     OW19267   5.388   0.735   5.656
 6123SOL    HW119268   5.308   0.729   5.596
 6123SOL    HW219269   5.469   0.754   5.601
 6124SOL     OW19270   1.784   7.010   5.139
 6124SOL    HW119271   1.771   6.935   5.204
 6124SOL    HW219272   1.725   0.062   5.165
 6125SOL     OW19273   2.656   3.627   7.016
 6125SOL    HW119274   2.651   3.726   7.011
 6125SOL    HW219275   2.576   3.592   0.041
 6126SOL     OW19276   0.700   2.196   4.925
 6126SOL    HW119277   0.771   2.126   4.935
 6126SOL    HW219278   0.742   2.286   4.927
 6127SOL     OW19279   3.923   0.797   1.383
 6127SOL    HW119280   3.913   0.773   1.286
 6127SOL    HW219281   3.833   0.797   1.426
 6128SOL     OW19282   5.606   5.633   1.049
 6128SOL    HW119283   5.705   5.617   1.050
 6128SOL    HW219284   5.577   5.672   1.136
 6129SOL     OW19285   1.810   4.958   3.320
 6129SOL    HW119286   1.770   4.890   3.380
 6129SOL    HW219287   1.846   4.913   3.238
 6130SOL     OW19288   5.793   2.470   2.800
 6130SOL    HW119289   5.727   2.435   2.735
 6130SOL    HW219290   5.886   2.456   2.765
 6131SOL     OW19291   0.590   2.087   1.994
 6131SOL    HW119292   0.500   2.054   2.023
 6131SOL    HW219293   0.602   2.181   2.027
 6132SOL     OW19294   3.407   1.953   6.517
 6132SOL    HW119295   3.359   1.883   6.463
 6132SOL    HW219296   3.444   2.023   6.456
 6133SOL     OW19297   1.232   2.278   3.271
 6133SOL    HW119298   1.260   2.265   3.366
 6133SOL    HW219299   1.243   2.374   3.246
 6134SOL     OW19300   4.791   6.605   6.983
 6134SOL    HW119301   4.720   6.549   6.941
 6134SOL    HW219302   4.822   6.674   6.918
 6135SOL     OW19303   6.000   6.862   6.861
 6135SOL    HW119304   6.071   6.792   6.856
 6135SOL    HW219305   5.959   6.862   6.953
 6136SOL     OW19306   1.170   2.322   1.079
 6136SOL    HW119307   1.266   2.303   1.099
 6136SOL    HW219308   1.118   2.237   1.079
 6137SOL     OW19309   0.759   4.140   2.717
 6137SOL    HW119310   0.697   4.111   2.644
 6137SOL    HW219311   0.834   4.074   2.725
 6138SOL     OW19312   3.279   0.410   2.201
 6138SOL    HW119313   3.312   0.498   2.236
 6138SOL    HW219314   3.356   0.354   2.172
 6139SOL     OW19315   0.897   6.571   5.419
 6139SOL    HW119316   0.803   6.605   5.408
 6139SOL    HW219317   0.898   6.472   5.408
 6140SOL     OW19318   0.702   0.739   3.316
 6140SOL    HW119319   0.712   0.832   3.282
 6140SOL    HW219320   0.763   0.725   3.394
 6141SOL     OW19321   0.812   0.315   6.164
 6141SOL    HW119322   0.904   0.354   6.154
 6141SOL    HW219323   0.757   0.341   6.085
 6142SOL     OW19324   0.736   0.580   6.282
 6142SOL    HW119325   0.700   0.593   6.375
 6142SOL    HW219326   0.742   0.482   6.262
 6143SOL     OW19327   0.181   3.797   0.784
 6143SOL    HW119328   0.222   3.880   0.746
 6143SOL    HW219329   0.251   3.747   0.836
 6144SOL     OW19330   4.565   4.580   3.401
 6144SOL    HW119331   4.548   4.659   3.460
 6144SOL    HW219332   4.610   4.508   3.453
 6145SOL     OW19333   5.729   4.516   3.768
 6145SOL    HW119334   5.810   4.484   3.719
 6145SOL    HW219335   5.652   4.457   3.747
 6146SOL     OW19336   3.843   0.322   4.228
 6146SOL    HW119337   3.865   0.279   4.140
 6146SOL    HW219338   3.928   0.346   4.275
 6147SOL     OW19339   2.029   2.813   4.577
 6147SOL    HW119340   2.100   2.883   4.575
 6147SOL    HW219341   2.051   2.745   4.646
 6148SOL     OW19342   3.915   5.047   6.621
 6148SOL    HW119343   3.900   4.993   6.539
 6148SOL    HW219344   3.851   5.018   6.693
 6149SOL     OW19345   2.267   0.102   2.447
 6149SOL    HW119346   2.196   0.137   2.386
 6149SOL    HW219347   2.336   0.054   2.393
 6150SOL     OW19348   6.790   3.998   6.514
 6150SOL    HW119349   6.730   3.920   6.494
 6150SOL    HW219350   6.841   4.022   6.431
 6151SOL     OW19351   5.085   5.430   4.379
 6151SOL    HW119352   5.125   5.485   4.305
 6151SOL    HW219353   5.085   5.334   4.353
 6152SOL     OW19354   1.140   5.291   4.630
 6152SOL    HW119355   1.220   5.243   4.665
 6152SOL    HW219356   1.168   5.363   4.567
 6153SOL     OW19357   4.717   5.328   0.865
 6153SOL    HW119358   4.717   5.426   0.844
 6153SOL    HW219359   4.776   5.280   0.800
 6154SOL     OW19360   5.363   3.476   3.270
 6154SOL    HW119361   5.331   3.560   3.315
 6154SOL    HW219362   5.299   3.450   3.198
 6155SOL     OW19363   2.755   1.069   2.947
 6155SOL    HW119364   2.771   1.167   2.939
 6155SOL    HW219365   2.759   1.042   3.043
 6156SOL     OW19366   5.321   3.756   1.478
 6156SOL    HW119367   5.228   3.793   1.466
 6156SOL    HW219368   5.327   3.667   1.434
 6157SOL     OW19369   0.946   2.258   3.302
 6157SOL    HW119370   0.937   2.193   3.377
 6157SOL    HW219371   1.042   2.265   3.275
 6158SOL     OW19372   3.409   2.072   6.751
 6158SOL    HW119373   3.425   2.026   6.664
 6158SOL    HW219374   3.369   2.007   6.816
 6159SOL     OW19375   5.501   3.564   0.625
 6159SOL    HW119376   5.508   3.616   0.540
 6159SOL    HW219377   5.572   3.594   0.689
 6160SOL     OW19378   6.381   0.215   6.582
 6160SOL    HW119379   6.428   0.218   6.494
 6160SOL    HW219380   6.282   0.209   6.567
 6161SOL     OW19381   5.378   1.908   6.595
 6161SOL    HW119382   5.446   1.875   6.661
 6161SOL    HW219383   5.406   1.882   6.503
 6162SOL     OW19384   6.107   6.694   3.252
 6162SOL    HW119385   6.070   6.602   3.267
 6162SOL    HW219386   6.043   6.761   3.288
 6163SOL     OW19387   5.403   5.700   2.232
 6163SOL    HW119388   5.407   5.774   2.165
 6163SOL    HW219389   5.435   5.732   2.320
 6164SOL     OW19390   3.961   3.977   4.563
 6164SOL    HW119391   4.055   3.987   4.528
 6164SOL    HW219392   3.964   3.964   4.662
 6165SOL     OW19393   4.158   2.282   6.544
 6165SOL    HW119394   4.139   2.254   6.450
 6165SOL    HW219395   4.249   2.250   6.571
 6166SOL     OW19396   6.675   2.005   6.894
 6166SOL    HW119397   6.712   2.012   6.986
 6166SOL    HW219398   6.750   2.008   6.828
 6167SOL     OW19399   1.708   4.228   2.845
 6167SOL    HW119400   1.664   4.213   2.756
 6167SOL    HW219401   1.808   4.229   2.833
 6168SOL     OW19402   6.942   2.327   3.227
 6168SOL    HW119403   7.003   2.390   3.275
 6168SOL    HW219404   6.866   2.379   3.187
 6169SOL     OW19405   0.913   0.994   5.982
 6169SOL    HW119406   0.964   1.080   5.983
 6169SOL    HW219407   0.966   0.924   6.031
 6170SOL     OW19408   3.468   4.021   6.274
 6170SOL    HW119409   3.550   4.035   6.329
 6170SOL    HW219410   3.485   3.950   6.205
 6171SOL     OW19411   1.508   3.523   2.497
 6171SOL    HW119412   1.484   3.467   2.576
 6171SOL    HW219413   1.452   3.497   2.418
 6172SOL     OW19414   0.246   0.750   2.212
 6172SOL    HW119415   0.249   0.752   2.312
 6172SOL    HW219416   0.179   0.682   2.182
 6173SOL     OW19417   0.504   5.272   2.368
 6173SOL    HW119418   0.560   5.350   2.398
 6173SOL    HW219419   0.517   5.196   2.431
 6174SOL     OW19420   5.908   4.647   2.595
 6174SOL    HW119421   5.861   4.621   2.679
 6174SOL    HW219422   6.004   4.665   2.614
 6175SOL     OW19423   5.695   6.863   2.333
 6175SOL    HW119424   5.631   6.855   2.410
 6175SOL    HW219425   5.651   6.912   2.258
 6176SOL     OW19426   6.661   3.771   6.526
 6176SOL    HW119427   6.709   3.683   6.523
 6176SOL    HW219428   6.578   3.761   6.582
 6177SOL     OW19429   5.381   1.602   1.251
 6177SOL    HW119430   5.401   1.665   1.176
 6177SOL    HW219431   5.457   1.603   1.316
 6178SOL     OW19432   5.061   5.423   1.929
 6178SOL    HW119433   5.097   5.379   1.847
 6178SOL    HW219434   5.013   5.355   1.984
 6179SOL     OW19435   0.159   3.657   4.753
 6179SOL    HW119436   0.217   3.643   4.834
 6179SOL    HW219437   0.129   3.753   4.751
 6180SOL     OW19438   3.493   6.941   6.678
 6180SOL    HW119439   3.447   6.949   6.767
 6180SOL    HW219440   3.499   6.844   6.653
 6181SOL     OW19441   4.449   6.626   0.718
 6181SOL    HW119442   4.352   6.618   0.699
 6181SOL    HW219443   4.482   6.716   0.689
 6182SOL     OW19444   4.925   5.456   5.985
 6182SOL    HW119445   4.878   5.415   5.907
 6182SOL    HW219446   5.021   5.472   5.961
 6183SOL     OW19447   2.035   0.543   3.017
 6183SOL    HW119448   2.084   0.592   2.945
 6183SOL    HW219449   2.089   0.465   3.047
 6184SOL     OW19450   1.992   0.067   6.066
 6184SOL    HW119451   2.037   0.157   6.071
 6184SOL    HW219452   1.977   0.033   6.159
 6185SOL     OW19453   1.065   3.496   0.274
 6185SOL    HW119454   1.086   3.541   0.361
 6185SOL    HW219455   1.098   3.553   0.198
 6186SOL     OW19456   5.714   6.804   3.821
 6186SOL    HW119457   5.711   6.805   3.921
 6186SOL    HW219458   5.718   6.709   3.789
 6187SOL     OW19459   5.156   4.550   4.082
 6187SOL    HW119460   5.123   4.641   4.109
 6187SOL    HW219461   5.251   4.558   4.051
 6188SOL     OW19462   2.665   5.871   1.255
 6188SOL    HW119463   2.732   5.897   1.185
 6188SOL    HW219464   2.627   5.782   1.232
 6189SOL     OW19465   4.920   4.730   3.832
 6189SOL    HW119466   4.841   4.765   3.782
 6189SOL    HW219467   4.957   4.650   3.785
 6190SOL     OW19468   5.830   3.521   6.244
 6190SOL    HW119469   5.837   3.611   6.200
 6190SOL    HW219470   5.920   3.478   6.248
 6191SOL     OW19471   5.293   2.676   0.954
 6191SOL    HW119472   5.357   2.602   0.932
 6191SOL    HW219473   5.221   2.641   1.014
 6192SOL     OW19474   3.535   3.792   0.567
 6192SOL    HW119475   3.566   3.778   0.473
 6192SOL    HW219476   3.612   3.781   0.629
 6193SOL     OW19477   3.647   0.708   2.431
 6193SOL    HW119478   3.699   0.656   2.499
 6193SOL    HW219479   3.567   0.749   2.475
 6194SOL     OW19480   2.129   6.858   0.306
 6194SOL    HW119481   2.054   6.838   0.242
 6194SOL    HW219482   2.169   6.946   0.282
 6195SOL     OW19483   3.669   5.927   5.880
 6195SOL    HW119484   3.659   5.878   5.794
 6195SOL    HW219485   3.619   5.878   5.952
 6196SOL     OW19486   6.804   2.673   0.257
 6196SOL    HW119487   6.840   2.731   0.184
 6196SOL    HW219488   6.780   2.731   0.335
 6197SOL     OW19489   4.538   3.463   0.544
 6197SOL    HW119490   4.606   3.511   0.489
 6197SOL    HW219491   4.582   3.426   0.626
 6198SOL     OW19492   3.687   5.745   2.930
 6198SOL    HW119493   3.735   5.734   2.843
 6198SOL    HW219494   3.614   5.813   2.919
 6199SOL     OW19495   0.216   6.898   1.115
 6199SOL    HW119496   0.254   6.953   1.040
 6199SOL    HW219497   0.286   6.883   1.184
 6200SOL     OW19498   2.575   1.407   6.367
 6200SOL    HW119499   2.663   1.366   6.391
 6200SOL    HW219500   2.551   1.382   6.273
 6201SOL     OW19501   2.197   4.846   5.587
 6201SOL    HW119502   2.169   4.902   5.665
 6201SOL    HW219503   2.204   4.750   5.616
 6202SOL     OW19504   3.480   1.672   1.528
 6202SOL    HW119505   3.425   1.590   1.509
 6202SOL    HW219506   3.511   1.670   1.623
 6203SOL     OW19507   5.500   0.285   3.651
 6203SOL    HW119508   5.561   0.345   3.702
 6203SOL    HW219509   5.533   0.276   3.557
 6204SOL     OW19510   0.606   5.044   5.001
 6204SOL    HW119511   0.548   4.989   4.942
 6204SOL    HW219512   0.587   5.021   5.097
 6205SOL     OW19513   5.504   6.178   0.077
 6205SOL    HW119514   5.586   6.205   0.129
 6205SOL    HW219515   5.506   6.224   7.012
 6206SOL     OW19516   6.725   0.306   2.444
 6206SOL    HW119517   6.666   0.301   2.364
 6206SOL    HW219518   6.669   0.303   2.527
 6207SOL     OW19519   1.444   3.407   4.860
 6207SOL    HW119520   1.519   3.463   4.894
 6207SOL    HW219521   1.415   3.343   4.931
 6208SOL     OW19522   6.305   6.805   6.008
 6208SOL    HW119523   6.297   6.738   6.082
 6208SOL    HW219524   6.228   6.795   5.945
 6209SOL     OW19525   4.301   5.734   7.022
 6209SOL    HW119526   4.284   5.677   0.078
 6209SOL    HW219527   4.271   5.685   6.939
 6210SOL     OW19528   5.335   4.515   3.201
 6210SOL    HW119529   5.391   4.586   3.244
 6210SOL    HW219530   5.299   4.454   3.272
 6211SOL     OW19531   2.796   6.991   5.734
 6211SOL    HW119532   2.785   0.064   5.753
 6211SOL    HW219533   2.771   6.973   5.638
 6212SOL     OW19534   0.665   5.301   2.696
 6212SOL    HW119535   0.692   5.337   2.785
 6212SOL    HW219536   0.706   5.210   2.683
 6213SOL     OW19537   5.539   0.059   6.651
 6213SOL    HW119538   5.446   0.080   6.680
 6213SOL    HW219539   5.540   6.997   6.600
 6214SOL     OW19540   6.535   5.253   3.069
 6214SOL    HW119541   6.469   5.240   2.994
 6214SOL    HW219542   6.605   5.182   3.065
 6215SOL     OW19543   3.281   1.893   6.916
 6215SOL    HW119544   3.260   1.814   6.858
 6215SOL    HW219545   3.309   1.861   7.006
 6216SOL     OW19546   6.195   2.185   1.749
 6216SOL    HW119547   6.250   2.262   1.781
 6216SOL    HW219548   6.252   2.121   1.699
 6217SOL     OW19549   5.543   2.559   1.860
 6217SOL    HW119550   5.628   2.534   1.905
 6217SOL    HW219551   5.502   2.637   1.907
 6218SOL     OW19552   3.528   4.978   4.050
 6218SOL    HW119553   3.514   4.965   4.148
 6218SOL    HW219554   3.625   4.966   4.028
 6219SOL     OW19555   0.703   1.455   4.699
 6219SOL    HW119556   0.747   1.542   4.720
 6219SOL    HW219557   0.631   1.437   4.766
 6220SOL     OW19558   1.909   4.387   5.563
 6220SOL    HW119559   1.891   4.316   5.494
 6220SOL    HW219560   2.006   4.389   5.584
 6221SOL     OW19561   5.300   5.075   5.660
 6221SOL    HW119562   5.223   5.096   5.721
 6221SOL    HW219563   5.363   5.014   5.706
 6222SOL     OW19564   0.816   6.597   1.498
 6222SOL    HW119565   0.819   6.500   1.522
 6222SOL    HW219566   0.908   6.636   1.505
 6223SOL     OW19567   6.764   3.302   4.583
 6223SOL    HW119568   6.731   3.218   4.540
 6223SOL    HW219569   6.857   3.321   4.551
 6224SOL     OW19570   1.789   1.826   6.027
 6224SOL    HW119571   1.833   1.739   6.009
 6224SOL    HW219572   1.777   1.876   5.941
 6225SOL     OW19573   2.823   3.127   1.244
 6225SOL    HW119574   2.824   3.146   1.342
 6225SOL    HW219575   2.777   3.040   1.227
 6226SOL     OW19576   5.659   1.668   4.051
 6226SOL    HW119577   5.667   1.660   3.952
 6226SOL    HW219578   5.565   1.690   4.075
 6227SOL     OW19579   3.439   4.608   6.282
 6227SOL    HW119580   3.456   4.516   6.317
 6227SOL    HW219581   3.516   4.668   6.305
 6228SOL     OW19582   0.144   2.320   2.415
 6228SOL    HW119583   0.121   2.232   2.458
 6228SOL    HW219584   0.227   2.357   2.458
 6229SOL     OW19585   1.314   2.303   2.827
 6229SOL    HW119586   1.373   2.379   2.853
 6229SOL    HW219587   1.370   2.228   2.791
 6230SOL     OW19588   1.261   1.535   4.607
 6230SOL    HW119589   1.319   1.486   4.542
 6230SOL    HW219590   1.200   1.471   4.653
 6231SOL     OW19591   6.937   5.306   1.566
 6231SOL    HW119592   6.965   5.369   1.638
 6231SOL    HW219593   6.894   5.357   1.492
 6232SOL     OW19594   6.610   1.541   6.997
 6232SOL    HW119595   6.664   1.473   0.023
 6232SOL    HW219596   6.518   1.545   0.011
 6233SOL     OW19597   5.643   1.460   6.992
 6233SOL    HW119598   5.706   1.533   6.968
 6233SOL    HW219599   5.682   1.404   0.040
 6234SOL     OW19600   0.436   1.278   5.295
 6234SOL    HW119601   0.487   1.351   5.250
 6234SOL    HW219602   0.428   1.299   5.393
 6235SOL     OW19603   1.131   0.355   2.936
 6235SOL    HW119604   1.054   0.294   2.955
 6235SOL    HW219605   1.098   0.450   2.932
 6236SOL     OW19606   1.174   5.239   0.568
 6236SOL    HW119607   1.225   5.317   0.604
 6236SOL    HW219608   1.173   5.166   0.635
 6237SOL     OW19609   4.233   6.403   0.362
 6237SOL    HW119610   4.207   6.362   0.274
 6237SOL    HW219611   4.294   6.341   0.411
 6238SOL     OW19612   4.221   4.740   3.299
 6238SOL    HW119613   4.319   4.723   3.291
 6238SOL    HW219614   4.182   4.752   3.208
 6239SOL     OW19615   2.565   6.805   1.586
 6239SOL    HW119616   2.615   6.779   1.668
 6239SOL    HW219617   2.477   6.758   1.584
 6240SOL     OW19618   2.520   2.044   0.484
 6240SOL    HW119619   2.530   2.140   0.512
 6240SOL    HW219620   2.606   2.012   0.445
 6241SOL     OW19621   2.632   1.237   2.664
 6241SOL    HW119622   2.724   1.205   2.641
 6241SOL    HW219623   2.632   1.336   2.675
 6242SOL     OW19624   5.368   1.236   3.565
 6242SOL    HW119625   5.396   1.323   3.604
 6242SOL    HW219626   5.358   1.168   3.638
 6243SOL     OW19627   5.950   6.912   2.710
 6243SOL    HW119628   6.033   6.858   2.722
 6243SOL    HW219629   5.882   6.885   2.778
 6244SOL     OW19630   1.586   2.237   1.507
 6244SOL    HW119631   1.529   2.319   1.505
 6244SOL    HW219632   1.592   2.203   1.601
 6245SOL     OW19633   2.951   4.497   1.562
 6245SOL    HW119634   2.975   4.400   1.552
 6245SOL    HW219635   2.955   4.522   1.659
 6246SOL     OW19636   2.737   2.675   6.291
 6246SOL    HW119637   2.792   2.634   6.219
 6246SOL    HW219638   2.796   2.698   6.369
 6247SOL     OW19639   0.648   6.374   3.522
 6247SOL    HW119640   0.556   6.336   3.528
 6247SOL    HW219641   0.643   6.474   3.517
 6248SOL     OW19642   1.740   3.705   1.498
 6248SOL    HW119643   1.746   3.704   1.597
 6248SOL    HW219644   1.650   3.741   1.470
 6249SOL     OW19645   0.980   4.677   0.514
 6249SOL    HW119646   0.973   4.740   0.591
 6249SOL    HW219647   0.961   4.584   0.546
 6250SOL     OW19648   6.380   6.050   0.519
 6250SOL    HW119649   6.314   6.124   0.525
 6250SOL    HW219650   6.332   5.964   0.500
 6251SOL     OW19651   3.702   6.950   0.774
 6251SOL    HW119652   3.705   0.024   0.787
 6251SOL    HW219653   3.790   6.910   0.801
 6252SOL     OW19654   2.011   6.621   4.625
 6252SOL    HW119655   1.973   6.597   4.536
 6252SOL    HW219656   2.076   6.550   4.653
 6253SOL     OW19657   2.315   4.258   2.516
 6253SOL    HW119658   2.314   4.358   2.525
 6253SOL    HW219659   2.346   4.233   2.425
 6254SOL     OW19660   5.088   1.268   6.897
 6254SOL    HW119661   5.185   1.275   6.872
 6254SOL    HW219662   5.051   1.360   6.912
 6255SOL     OW19663   1.936   0.889   1.478
 6255SOL    HW119664   1.854   0.924   1.523
 6255SOL    HW219665   1.909   0.820   1.410
 6256SOL     OW19666   4.383   5.216   2.878
 6256SOL    HW119667   4.387   5.255   2.970
 6256SOL    HW219668   4.394   5.117   2.883
 6257SOL     OW19669   5.977   2.182   0.897
 6257SOL    HW119670   5.936   2.198   0.986
 6257SOL    HW219671   5.943   2.097   0.858
 6258SOL     OW19672   4.620   0.409   3.732
 6258SOL    HW119673   4.667   0.423   3.820
 6258SOL    HW219674   4.567   0.491   3.709
 6259SOL     OW19675   2.912   1.376   1.067
 6259SOL    HW119676   2.846   1.408   1.136
 6259SOL    HW219677   2.957   1.292   1.100
 6260SOL     OW19678   3.487   4.185   0.109
 6260SOL    HW119679   3.562   4.145   0.162
 6260SOL    HW219680   3.524   4.226   0.026
 6261SOL     OW19681   3.184   6.443   6.592
 6261SOL    HW119682   3.254   6.495   6.640
 6261SOL    HW219683   3.148   6.497   6.516
 6262SOL     OW19684   2.170   4.287   0.409
 6262SOL    HW119685   2.252   4.298   0.465
 6262SOL    HW219686   2.183   4.334   0.322
 6263SOL     OW19687   0.459   6.976   5.970
 6263SOL    HW119688   0.454   6.883   5.932
 6263SOL    HW219689   0.490   6.972   6.065
 6264SOL     OW19690   1.496   6.414   0.903
 6264SOL    HW119691   1.521   6.401   0.999
 6264SOL    HW219692   1.490   6.325   0.858
 6265SOL     OW19693   3.093   3.989   1.401
 6265SOL    HW119694   3.066   4.085   1.399
 6265SOL    HW219695   3.147   3.971   1.484
 6266SOL     OW19696   4.393   0.956   4.657
 6266SOL    HW119697   4.468   1.016   4.630
 6266SOL    HW219698   4.420   0.904   4.738
 6267SOL     OW19699   3.084   0.364   6.908
 6267SOL    HW119700   3.070   0.412   6.995
 6267SOL    HW219701   3.120   0.272   6.926
 6268SOL     OW19702   2.918   6.270   2.897
 6268SOL    HW119703   2.831   6.300   2.937
 6268SOL    HW219704   2.993   6.314   2.946
 6269SOL     OW19705   0.107   6.104   2.295
 6269SOL    HW119706   0.180   6.037   2.285
 6269SOL    HW219707   0.141   6.183   2.346
 6270SOL     OW19708   2.029   0.214   5.665
 6270SOL    HW119709   2.109   0.157   5.682
 6270SOL    HW219710   2.043   0.267   5.582
 6271SOL     OW19711   6.497   2.658   5.985
 6271SOL    HW119712   6.469   2.743   5.940
 6271SOL    HW219713   6.534   2.595   5.916
 6272SOL     OW19714   0.515   3.213   4.914
 6272SOL    HW119715   0.442   3.164   4.961
 6272SOL    HW219716   0.572   3.148   4.863
 6273SOL     OW19717   1.010   1.025   2.333
 6273SOL    HW119718   1.051   1.111   2.301
 6273SOL    HW219719   0.944   0.991   2.265
 6274SOL     OW19720   2.280   5.903   6.027
 6274SOL    HW119721   2.269   5.818   6.078
 6274SOL    HW219722   2.265   5.886   5.930
 6275SOL     OW19723   2.953   6.592   5.041
 6275SOL    HW119724   2.905   6.667   4.995
 6275SOL    HW219725   2.895   6.510   5.039
 6276SOL     OW19726   1.418   4.833   3.757
 6276SOL    HW119727   1.432   4.890   3.676
 6276SOL    HW219728   1.320   4.826   3.777
 6277SOL     OW19729   5.096   2.608   2.634
 6277SOL    HW119730   5.017   2.645   2.681
 6277SOL    HW219731   5.102   2.647   2.542
 6278SOL     OW19732   4.518   0.770   4.939
 6278SOL    HW119733   4.566   0.697   4.987
 6278SOL    HW219734   4.584   0.824   4.887
 6279SOL     OW19735   3.729   1.071   6.708
 6279SOL    HW119736   3.771   1.078   6.618
 6279SOL    HW219737   3.781   1.126   6.773
 6280SOL     OW19738   0.433   2.871   5.386
 6280SOL    HW119739   0.482   2.869   5.473
 6280SOL    HW219740   0.336   2.853   5.401
 6281SOL     OW19741   2.697   6.627   5.283
 6281SOL    HW119742   2.767   6.628   5.354
 6281SOL    HW219743   2.693   6.536   5.241
 6282SOL     OW19744   1.776   0.152   4.832
 6282SOL    HW119745   1.727   0.164   4.919
 6282SOL    HW219746   1.725   0.088   4.774
 6283SOL     OW19747   6.287   2.917   4.688
 6283SOL    HW119748   6.296   3.005   4.734
 6283SOL    HW219749   6.325   2.923   4.596
 6284SOL     OW19750   2.175   5.610   4.782
 6284SOL    HW119751   2.157   5.599   4.879
 6284SOL    HW219752   2.271   5.590   4.763
 6285SOL     OW19753   1.527   3.028   3.972
 6285SOL    HW119754   1.607   3.069   3.929
 6285SOL    HW219755   1.446   3.047   3.916
 6286SOL     OW19756   6.436   2.004   3.995
 6286SOL    HW119757   6.513   2.065   4.016
 6286SOL    HW219758   6.461   1.944   3.919
 6287SOL     OW19759   4.421   4.542   2.379
 6287SOL    HW119760   4.354   4.572   2.310
 6287SOL    HW219761   4.513   4.569   2.349
 6288SOL     OW19762   5.780   4.127   2.105
 6288SOL    HW119763   5.792   4.196   2.034
 6288SOL    HW219764   5.792   4.169   2.195
 6289SOL     OW19765   1.369   2.996   2.628
 6289SOL    HW119766   1.449   2.984   2.569
 6289SOL    HW219767   1.300   3.051   2.580
 6290SOL     OW19768   5.503   3.675   4.197
 6290SOL    HW119769   5.517   3.740   4.272
 6290SOL    HW219770   5.521   3.582   4.231
 6291SOL     OW19771   3.881   3.065   3.955
 6291SOL    HW119772   3.922   3.087   3.866
 6291SOL    HW219773   3.789   3.029   3.940
 6292SOL     OW19774   0.499   3.066   3.435
 6292SOL    HW119775   0.457   2.978   3.412
 6292SOL    HW219776   0.567   3.090   3.366
 6293SOL     OW19777   4.333   6.828   6.994
 6293SOL    HW119778   4.250   6.854   0.020
 6293SOL    HW219779   4.408   6.889   7.020
 6294SOL     OW19780   3.612   4.938   3.653
 6294SOL    HW119781   3.602   4.918   3.750
 6294SOL    HW219782   3.709   4.947   3.630
 6295SOL     OW19783   5.084   5.394   5.647
 6295SOL    HW119784   5.001   5.348   5.677
 6295SOL    HW219785   5.090   5.391   5.547
 6296SOL     OW19786   6.568   6.742   4.236
 6296SOL    HW119787   6.577   6.731   4.137
 6296SOL    HW219788   6.586   6.655   4.281
 6297SOL     OW19789   4.895   0.118   5.478
 6297SOL    HW119790   4.888   0.171   5.394
 6297SOL    HW219791   4.815   0.058   5.487
 6298SOL     OW19792   1.577   3.286   6.134
 6298SOL    HW119793   1.501   3.349   6.115
 6298SOL    HW219794   1.540   3.194   6.149
 6299SOL     OW19795   5.903   2.186   0.028
 6299SOL    HW119796   5.827   2.241   7.018
 6299SOL    HW219797   5.982   2.197   6.994
 6300SOL     OW19798   5.420   0.930   5.043
 6300SOL    HW119799   5.348   0.995   5.069
 6300SOL    HW219800   5.507   0.979   5.037
 6301SOL     OW19801   2.556   7.021   0.910
 6301SOL    HW119802   2.507   7.021   0.823
 6301SOL    HW219803   2.571   0.090   0.941
 6302SOL     OW19804   1.210   1.823   4.336
 6302SOL    HW119805   1.289   1.853   4.282
 6302SOL    HW219806   1.231   1.831   4.433
 6303SOL     OW19807   2.742   0.995   4.961
 6303SOL    HW119808   2.687   0.925   5.007
 6303SOL    HW219809   2.688   1.079   4.953
 6304SOL     OW19810   2.464   1.309   1.052
 6304SOL    HW119811   2.404   1.243   1.007
 6304SOL    HW219812   2.412   1.391   1.076
 6305SOL     OW19813   6.418   6.735   1.012
 6305SOL    HW119814   6.321   6.746   1.034
 6305SOL    HW219815   6.456   6.823   0.984
 6306SOL     OW19816   0.141   4.099   4.464
 6306SOL    HW119817   0.049   4.073   4.494
 6306SOL    HW219818   0.190   4.018   4.432
 6307SOL     OW19819   3.804   4.100   6.106
 6307SOL    HW119820   3.770   4.023   6.052
 6307SOL    HW219821   3.862   4.158   6.049
 6308SOL     OW19822   1.367   1.735   4.898
 6308SOL    HW119823   1.356   1.690   4.810
 6308SOL    HW219824   1.425   1.679   4.958
 6309SOL     OW19825   4.913   3.976   4.525
 6309SOL    HW119826   4.978   4.042   4.561
 6309SOL    HW219827   4.857   4.019   4.454
 6310SOL     OW19828   1.994   4.964   4.358
 6310SOL    HW119829   2.087   5.001   4.357
 6310SOL    HW219830   1.992   4.880   4.412
 6311SOL     OW19831   5.966   0.806   5.451
 6311SOL    HW119832   6.038   0.761   5.503
 6311SOL    HW219833   5.923   0.877   5.507
 6312SOL     OW19834   5.069   5.110   5.816
 6312SOL    HW119835   5.039   5.060   5.735
 6312SOL    HW219836   5.039   5.205   5.810
 6313SOL     OW19837   1.729   5.832   3.234
 6313SOL    HW119838   1.811   5.865   3.281
 6313SOL    HW219839   1.676   5.910   3.201
 6314SOL     OW19840   3.476   6.898   1.894
 6314SOL    HW119841   3.402   6.893   1.828
 6314SOL    HW219842   3.558   6.934   1.850
 6315SOL     OW19843   3.765   2.349   6.689
 6315SOL    HW119844   3.782   2.430   6.632
 6315SOL    HW219845   3.673   2.354   6.727
 6316SOL     OW19846   4.647   2.307   6.196
 6316SOL    HW119847   4.717   2.359   6.245
 6316SOL    HW219848   4.562   2.309   6.248
 6317SOL     OW19849   5.331   6.150   3.274
 6317SOL    HW119850   5.254   6.189   3.224
 6317SOL    HW219851   5.298   6.104   3.356
 6318SOL     OW19852   2.826   2.322   5.064
 6318SOL    HW119853   2.926   2.316   5.074
 6318SOL    HW219854   2.793   2.404   5.112
 6319SOL     OW19855   0.320   2.864   3.374
 6319SOL    HW119856   0.230   2.845   3.413
 6319SOL    HW219857   0.317   2.850   3.275
 6320SOL     OW19858   5.612   4.746   4.218
 6320SOL    HW119859   5.619   4.687   4.137
 6320SOL    HW219860   5.638   4.693   4.299
 6321SOL     OW19861   3.373   5.094   1.479
 6321SOL    HW119862   3.277   5.082   1.503
 6321SOL    HW219863   3.382   5.169   1.413
 6322SOL     OW19864   1.781   2.041   6.207
 6322SOL    HW119865   1.739   2.104   6.142
 6322SOL    HW219866   1.792   1.951   6.164
 6323SOL     OW19867   3.265   2.762   1.183
 6323SOL    HW119868   3.193   2.831   1.171
 6323SOL    HW219869   3.336   2.777   1.115
 6324SOL     OW19870   4.621   0.778   6.198
 6324SOL    HW119871   4.629   0.873   6.168
 6324SOL    HW219872   4.566   0.726   6.132
 6325SOL     OW19873   1.527   1.626   1.489
 6325SOL    HW119874   1.488   1.713   1.460
 6325SOL    HW219875   1.474   1.551   1.449
 6326SOL     OW19876   5.354   6.361   1.239
 6326SOL    HW119877   5.322   6.438   1.184
 6326SOL    HW219878   5.449   6.340   1.216
 6327SOL     OW19879   6.990   0.418   5.105
 6327SOL    HW119880   0.054   0.374   5.088
 6327SOL    HW219881   6.995   0.473   5.188
 6328SOL     OW19882   2.389   3.831   6.952
 6328SOL    HW119883   2.327   3.882   6.893
 6328SOL    HW219884   2.471   3.886   6.970
 6329SOL     OW19885   1.534   2.302   3.304
 6329SOL    HW119886   1.511   2.284   3.400
 6329SOL    HW219887   1.450   2.310   3.250
 6330SOL     OW19888   4.801   1.129   1.057
 6330SOL    HW119889   4.797   1.116   1.156
 6330SOL    HW219890   4.735   1.068   1.013
 6331SOL     OW19891   6.066   2.746   0.793
 6331SOL    HW119892   6.092   2.709   0.882
 6331SOL    HW219893   6.093   2.842   0.788
 6332SOL     OW19894   6.487   4.407   2.543
 6332SOL    HW119895   6.465   4.309   2.553
 6332SOL    HW219896   6.457   4.439   2.454
 6333SOL     OW19897   3.803   5.016   3.988
 6333SOL    HW119898   3.835   5.077   3.916
 6333SOL    HW219899   3.829   5.053   4.077
 6334SOL     OW19900   1.836   0.035   2.541
 6334SOL    HW119901   1.797   0.018   2.631
 6334SOL    HW219902   1.931   0.065   2.550
 6335SOL     OW19903   5.705   1.452   0.641
 6335SOL    HW119904   5.689   1.501   0.555
 6335SOL    HW219905   5.626   1.392   0.660
 6336SOL     OW19906   6.806   2.405   5.597
 6336SOL    HW119907   6.804   2.317   5.549
 6336SOL    HW219908   6.901   2.430   5.617
 6337SOL     OW19909   4.682   3.349   6.468
 6337SOL    HW119910   4.635   3.360   6.556
 6337SOL    HW219911   4.715   3.437   6.437
 6338SOL     OW19912   2.636   2.318   2.435
 6338SOL    HW119913   2.734   2.325   2.417
 6338SOL    HW219914   2.586   2.322   2.348
 6339SOL     OW19915   0.323   2.590   3.949
 6339SOL    HW119916   0.421   2.569   3.942
 6339SOL    HW219917   0.309   2.659   4.019
 6340SOL     OW19918   2.890   5.712   3.247
 6340SOL    HW119919   2.794   5.707   3.222
 6340SOL    HW219920   2.918   5.629   3.294
 6341SOL     OW19921   0.217   4.923   3.412
 6341SOL    HW119922   0.167   4.997   3.459
 6341SOL    HW219923   0.296   4.897   3.467
 6342SOL     OW19924   2.571   1.700   1.881
 6342SOL    HW119925   2.639   1.732   1.816
 6342SOL    HW219926   2.543   1.776   1.941
 6343SOL     OW19927   4.853   2.561   6.932
 6343SOL    HW119928   4.854   2.596   6.838
 6343SOL    HW219929   4.797   2.621   6.989
 6344SOL     OW19930   6.310   3.675   5.901
 6344SOL    HW119931   6.260   3.665   5.815
 6344SOL    HW219932   6.337   3.585   5.934
 6345SOL     OW19933   4.140   0.979   1.931
 6345SOL    HW119934   4.128   1.076   1.908
 6345SOL    HW219935   4.056   0.944   1.975
 6346SOL     OW19936   6.417   3.734   3.455
 6346SOL    HW119937   6.365   3.777   3.381
 6346SOL    HW219938   6.513   3.762   3.448
 6347SOL     OW19939   2.787   0.684   2.033
 6347SOL    HW119940   2.768   0.772   2.077
 6347SOL    HW219941   2.722   0.670   1.959
 6348SOL     OW19942   0.987   3.810   5.304
 6348SOL    HW119943   0.907   3.816   5.244
 6348SOL    HW219944   0.982   3.882   5.374
 6349SOL     OW19945   2.539   0.745   1.552
 6349SOL    HW119946   2.562   0.648   1.557
 6349SOL    HW219947   2.621   0.798   1.535
 6350SOL     OW19948   2.240   4.765   3.542
 6350SOL    HW119949   2.249   4.829   3.619
 6350SOL    HW219950   2.149   4.725   3.542
 6351SOL     OW19951   6.337   2.623   2.164
 6351SOL    HW119952   6.416   2.652   2.110
 6351SOL    HW219953   6.284   2.704   2.191
 6352SOL     OW19954   1.822   5.437   4.232
 6352SOL    HW119955   1.841   5.400   4.141
 6352SOL    HW219956   1.835   5.365   4.300
 6353SOL     OW19957   6.533   0.850   6.215
 6353SOL    HW119958   6.458   0.915   6.225
 6353SOL    HW219959   6.500   0.758   6.239
 6354SOL     OW19960   1.052   6.859   2.408
 6354SOL    HW119961   0.973   6.920   2.407
 6354SOL    HW219962   1.080   6.842   2.502
 6355SOL     OW19963   0.941   4.717   5.001
 6355SOL    HW119964   1.032   4.683   5.025
 6355SOL    HW219965   0.906   4.666   4.922
 6356SOL     OW19966   5.006   4.961   1.870
 6356SOL    HW119967   4.924   4.977   1.924
 6356SOL    HW219968   5.087   4.985   1.924
 6357SOL     OW19969   5.154   2.689   1.530
 6357SOL    HW119970   5.118   2.776   1.497
 6357SOL    HW219971   5.252   2.700   1.551
 6358SOL     OW19972   0.431   2.111   4.953
 6358SOL    HW119973   0.396   2.047   4.884
 6358SOL    HW219974   0.524   2.137   4.929
 6359SOL     OW19975   6.249   0.285   5.614
 6359SOL    HW119976   6.319   0.355   5.601
 6359SOL    HW219977   6.164   0.329   5.643
 6360SOL     OW19978   2.114   4.555   4.272
 6360SOL    HW119979   2.150   4.462   4.265
 6360SOL    HW219980   2.020   4.557   4.236
 6361SOL     OW19981   5.652   6.813   6.734
 6361SOL    HW119982   5.705   6.895   6.713
 6361SOL    HW219983   5.630   6.765   6.649
 6362SOL     OW19984   5.712   5.061   6.821
 6362SOL    HW119985   5.686   5.155   6.842
 6362SOL    HW219986   5.689   5.002   6.899
 6363SOL     OW19987   2.277   5.209   3.353
 6363SOL    HW119988   2.263   5.164   3.442
 6363SOL    HW219989   2.192   5.252   3.324
 6364SOL     OW19990   2.960   1.480   5.806
 6364SOL    HW119991   3.001   1.420   5.875
 6364SOL    HW219992   2.915   1.425   5.736
 6365SOL     OW19993   4.812   6.971   4.448
 6365SOL    HW119994   4.767   6.974   4.537
 6365SOL    HW219995   4.907   6.940   4.460
 6366SOL     OW19996   0.218   6.146   5.545
 6366SOL    HW119997   0.133   6.180   5.584
 6366SOL    HW219998   0.262   6.218   5.492
 6367SOL     OW19999   4.397   0.249   3.789
 6367SOL    HW120000   4.461   0.277   3.717
 6367SOL    HW220001   4.422   0.294   3.875
 6368SOL     OW20002   2.897   0.212   4.066
 6368SOL    HW120003   2.975   0.153   4.085
 6368SOL    HW220004   2.927   0.293   4.015
 6369SOL     OW20005   3.100   4.907   4.690
 6369SOL    HW120006   3.037   4.894   4.767
 6369SOL    HW220007   3.075   4.844   4.616
 6370SOL     OW20008   1.424   2.899   2.873
 6370SOL    HW120009   1.524   2.899   2.869
 6370SOL    HW220010   1.387   2.934   2.787
 6371SOL     OW20011   4.988   3.125   3.883
 6371SOL    HW120012   4.968   3.219   3.856
 6371SOL    HW220013   4.934   3.101   3.964
 6372SOL     OW20014   2.794   0.159   1.853
 6372SOL    HW120015   2.809   0.257   1.859
 6372SOL    HW220016   2.746   0.137   1.768
 6373SOL     OW20017   5.930   4.641   4.172
 6373SOL    HW120018   5.847   4.586   4.166
 6373SOL    HW220019   5.982   4.632   4.087
 6374SOL     OW20020   3.054   3.861   3.798
 6374SOL    HW120021   3.108   3.933   3.842
 6374SOL    HW220022   2.986   3.902   3.738
 6375SOL     OW20023   0.778   1.478   3.750
 6375SOL    HW120024   0.690   1.511   3.785
 6375SOL    HW220025   0.774   1.379   3.737
 6376SOL     OW20026   6.071   1.846   5.478
 6376SOL    HW120027   6.128   1.910   5.426
 6376SOL    HW220028   6.037   1.890   5.560
 6377SOL     OW20029   6.889   1.448   6.180
 6377SOL    HW120030   6.810   1.488   6.135
 6377SOL    HW220031   6.911   1.501   6.262
 6378SOL     OW20032   5.575   5.111   3.369
 6378SOL    HW120033   5.529   5.024   3.388
 6378SOL    HW220034   5.656   5.120   3.427
 6379SOL     OW20035   2.473   4.888   5.052
 6379SOL    HW120036   2.419   4.806   5.071
 6379SOL    HW220037   2.432   4.966   5.098
 6380SOL     OW20038   1.088   1.357   5.394
 6380SOL    HW120039   1.014   1.342   5.328
 6380SOL    HW220040   1.141   1.272   5.402
 6381SOL     OW20041   3.803   3.296   2.899
 6381SOL    HW120042   3.872   3.317   2.830
 6381SOL    HW220043   3.792   3.376   2.959
 6382SOL     OW20044   1.130   2.833   0.077
 6382SOL    HW120045   1.227   2.826   0.057
 6382SOL    HW220046   1.098   2.749   0.120
 6383SOL     OW20047   1.972   2.261   3.441
 6383SOL    HW120048   1.952   2.222   3.351
 6383SOL    HW220049   2.010   2.353   3.429
 6384SOL     OW20050   5.747   4.701   1.644
 6384SOL    HW120051   5.669   4.653   1.603
 6384SOL    HW220052   5.713   4.769   1.709
 6385SOL     OW20053   6.258   4.895   4.084
 6385SOL    HW120054   6.206   4.973   4.049
 6385SOL    HW220055   6.355   4.906   4.063
 6386SOL     OW20056   2.420   4.231   0.192
 6386SOL    HW120057   2.501   4.289   0.191
 6386SOL    HW220058   2.448   4.135   0.197
 6387SOL     OW20059   0.790   2.142   6.334
 6387SOL    HW120060   0.717   2.208   6.356
 6387SOL    HW220061   0.782   2.114   6.239
 6388SOL     OW20062   4.648   4.662   1.700
 6388SOL    HW120063   4.581   4.590   1.720
 6388SOL    HW220064   4.663   4.717   1.782
 6389SOL     OW20065   1.044   5.701   2.147
 6389SOL    HW120066   0.961   5.744   2.183
 6389SOL    HW220067   1.105   5.771   2.111
 6390SOL     OW20068   0.904   2.588   3.767
 6390SOL    HW120069   0.833   2.630   3.710
 6390SOL    HW220070   0.985   2.568   3.711
 6391SOL     OW20071   2.959   0.520   6.105
 6391SOL    HW120072   3.048   0.566   6.108
 6391SOL    HW220073   2.949   0.464   6.187
 6392SOL     OW20074   2.593   6.747   3.785
 6392SOL    HW120075   2.586   6.758   3.884
 6392SOL    HW220076   2.689   6.759   3.757
 6393SOL     OW20077   5.986   6.315   1.690
 6393SOL    HW120078   5.897   6.352   1.665
 6393SOL    HW220079   5.991   6.218   1.666
 6394SOL     OW20080   2.627   4.499   0.639
 6394SOL    HW120081   2.616   4.598   0.649
 6394SOL    HW220082   2.659   4.460   0.726
 6395SOL     OW20083   5.732   2.137   2.017
 6395SOL    HW120084   5.663   2.065   2.022
 6395SOL    HW220085   5.797   2.116   1.944
 6396SOL     OW20086   5.344   2.853   6.078
 6396SOL    HW120087   5.359   2.937   6.026
 6396SOL    HW220088   5.427   2.830   6.128
 6397SOL     OW20089   6.235   1.939   6.947
 6397SOL    HW120090   6.269   1.891   0.004
 6397SOL    HW220091   6.307   1.944   6.878
 6398SOL     OW20092   3.711   0.957   0.908
 6398SOL    HW120093   3.682   1.019   0.835
 6398SOL    HW220094   3.696   0.863   0.879
 6399SOL     OW20095   1.916   5.423   6.275
 6399SOL    HW120096   1.983   5.423   6.201
 6399SOL    HW220097   1.963   5.423   6.363
 6400SOL     OW20098   1.990   5.566   3.229
 6400SOL    HW120099   1.932   5.613   3.295
 6400SOL    HW220100   2.078   5.613   3.222
 6401SOL     OW20101   6.868   4.674   3.385
 6401SOL    HW120102   6.946   4.627   3.343
 6401SOL    HW220103   6.898   4.715   3.471
 6402SOL     OW20104   2.724   0.675   3.002
 6402SOL    HW120105   2.742   0.703   2.907
 6402SOL    HW220106   2.654   0.735   3.041
 6403SOL     OW20107   0.620   6.341   6.376
 6403SOL    HW120108   0.598   6.385   6.289
 6403SOL    HW220109   0.600   6.244   6.370
 6404SOL     OW20110   4.145   1.421   3.094
 6404SOL    HW120111   4.225   1.476   3.070
 6404SOL    HW220112   4.130   1.352   3.023
 6405SOL     OW20113   1.830   1.501   3.025
 6405SOL    HW120114   1.734   1.471   3.032
 6405SOL    HW220115   1.867   1.473   2.937
 6406SOL     OW20116   1.814   2.977   3.873
 6406SOL    HW120117   1.810   2.922   3.790
 6406SOL    HW220118   1.892   2.950   3.929
 6407SOL     OW20119   3.080   6.807   3.194
 6407SOL    HW120120   3.073   6.743   3.118
 6407SOL    HW220121   3.141   6.770   3.264
 6408SOL     OW20122   6.458   2.782   0.130
 6408SOL    HW120123   6.490   2.716   0.198
 6408SOL    HW220124   6.413   2.732   0.055
 6409SOL     OW20125   6.696   4.461   3.307
 6409SOL    HW120126   6.661   4.388   3.367
 6409SOL    HW220127   6.718   4.541   3.362
 6410SOL     OW20128   1.600   1.558   0.339
 6410SOL    HW120129   1.538   1.517   0.407
 6410SOL    HW220130   1.694   1.529   0.358
 6411SOL     OW20131   0.513   2.521   3.464
 6411SOL    HW120132   0.423   2.535   3.422
 6411SOL    HW220133   0.582   2.507   3.393
 6412SOL     OW20134   0.056   3.201   5.146
 6412SOL    HW120135   0.102   3.143   5.214
 6412SOL    HW220136   0.092   3.294   5.152
 6413SOL     OW20137   5.391   4.464   2.128
 6413SOL    HW120138   5.299   4.446   2.092
 6413SOL    HW220139   5.384   4.488   2.225
 6414SOL     OW20140   5.870   0.907   1.791
 6414SOL    HW120141   5.828   0.918   1.701
 6414SOL    HW220142   5.925   0.824   1.792
 6415SOL     OW20143   3.345   2.154   2.495
 6415SOL    HW120144   3.443   2.138   2.478
 6415SOL    HW220145   3.294   2.144   2.410
 6416SOL     OW20146   1.219   0.601   6.173
 6416SOL    HW120147   1.236   0.536   6.099
 6416SOL    HW220148   1.151   0.564   6.236
 6417SOL     OW20149   0.644   5.115   2.946
 6417SOL    HW120150   0.642   5.203   2.993
 6417SOL    HW220151   0.560   5.065   2.964
 6418SOL     OW20152   6.734   4.799   2.363
 6418SOL    HW120153   6.787   4.869   2.412
 6418SOL    HW220154   6.704   4.836   2.275
 6419SOL     OW20155   3.131   5.127   2.314
 6419SOL    HW120156   3.054   5.115   2.376
 6419SOL    HW220157   3.141   5.044   2.258
 6420SOL     OW20158   3.099   3.421   6.280
 6420SOL    HW120159   3.055   3.421   6.370
 6420SOL    HW220160   3.189   3.462   6.286
 6421SOL     OW20161   6.047   1.551   1.563
 6421SOL    HW120162   6.050   1.473   1.501
 6421SOL    HW220163   6.140   1.587   1.576
 6422SOL     OW20164   6.491   0.196   4.081
 6422SOL    HW120165   6.452   0.274   4.129
 6422SOL    HW220166   6.542   0.227   4.001
 6423SOL     OW20167   4.810   4.171   2.001
 6423SOL    HW120168   4.800   4.076   1.971
 6423SOL    HW220169   4.719   4.208   2.022
 6424SOL     OW20170   6.832   4.831   5.983
 6424SOL    HW120171   6.771   4.899   6.023
 6424SOL    HW220172   6.878   4.871   5.903
 6425SOL     OW20173   6.832   5.135   4.418
 6425SOL    HW120174   6.925   5.107   4.443
 6425SOL    HW220175   6.770   5.057   4.426
 6426SOL     OW20176   0.601   3.618   4.018
 6426SOL    HW120177   0.523   3.612   4.079
 6426SOL    HW220178   0.604   3.708   3.975
 6427SOL     OW20179   1.724   3.382   6.744
 6427SOL    HW120180   1.737   3.464   6.799
 6427SOL    HW220181   1.701   3.305   6.804
 6428SOL     OW20182   6.320   3.438   1.020
 6428SOL    HW120183   6.357   3.354   0.979
 6428SOL    HW220184   6.230   3.418   1.059
 6429SOL     OW20185   0.887   1.213   4.764
 6429SOL    HW120186   0.849   1.253   4.681
 6429SOL    HW220187   0.893   1.114   4.754
 6430SOL     OW20188   4.599   1.281   1.621
 6430SOL    HW120189   4.535   1.336   1.568
 6430SOL    HW220190   4.691   1.290   1.581
 6431SOL     OW20191   5.850   6.979   3.147
 6431SOL    HW120192   5.840   6.932   3.234
 6431SOL    HW220193   5.938   0.002   3.144
 6432SOL     OW20194   4.567   4.430   0.296
 6432SOL    HW120195   4.624   4.506   0.265
 6432SOL    HW220196   4.576   4.420   0.395
 6433SOL     OW20197   3.232   4.372   1.066
 6433SOL    HW120198   3.308   4.325   1.112
 6433SOL    HW220199   3.164   4.305   1.036
 6434SOL     OW20200   1.117   3.746   1.681
 6434SOL    HW120201   1.158   3.698   1.603
 6434SOL    HW220202   1.187   3.765   1.749
 6435SOL     OW20203   3.770   5.011   6.867
 6435SOL    HW120204   3.777   4.915   6.843
 6435SOL    HW220205   3.826   5.029   6.948
 6436SOL     OW20206   2.218   3.256   4.119
 6436SOL    HW120207   2.255   3.344   4.089
 6436SOL    HW220208   2.129   3.270   4.162
 6437SOL     OW20209   1.571   1.238   0.420
 6437SOL    HW120210   1.553   1.181   0.501
 6437SOL    HW220211   1.542   1.189   0.338
 6438SOL     OW20212   6.834   4.349   5.268
 6438SOL    HW120213   6.775   4.315   5.341
 6438SOL    HW220214   6.845   4.278   5.198
 6439SOL     OW20215   0.448   6.567   0.940
 6439SOL    HW120216   0.460   6.483   0.887
 6439SOL    HW220217   0.361   6.564   0.989
 6440SOL     OW20218   2.123   1.619   1.980
 6440SOL    HW120219   2.087   1.533   1.942
 6440SOL    HW220220   2.137   1.685   1.906
 6441SOL     OW20221   0.815   6.982   2.403
 6441SOL    HW120222   0.761   0.041   2.393
 6441SOL    HW220223   0.808   6.928   2.320
 6442SOL     OW20224   1.748   1.099   3.710
 6442SOL    HW120225   1.687   1.082   3.633
 6442SOL    HW220226   1.743   1.196   3.736
 6443SOL     OW20227   3.293   2.832   0.851
 6443SOL    HW120228   3.364   2.865   0.914
 6443SOL    HW220229   3.203   2.856   0.888
 6444SOL     OW20230   0.624   2.389   3.707
 6444SOL    HW120231   0.579   2.432   3.629
 6444SOL    HW220232   0.715   2.358   3.681
 6445SOL     OW20233   4.833   2.554   5.477
 6445SOL    HW120234   4.909   2.569   5.540
 6445SOL    HW220235   4.837   2.623   5.404
 6446SOL     OW20236   0.284   2.221   5.902
 6446SOL    HW120237   0.355   2.211   5.833
 6446SOL    HW220238   0.326   2.241   5.991
 6447SOL     OW20239   0.444   6.364   2.277
 6447SOL    HW120240   0.426   6.266   2.283
 6447SOL    HW220241   0.536   6.384   2.311
 6448SOL     OW20242   6.374   3.922   2.902
 6448SOL    HW120243   6.287   3.913   2.853
 6448SOL    HW220244   6.441   3.969   2.844
 6449SOL     OW20245   3.987   4.149   1.459
 6449SOL    HW120246   4.054   4.135   1.386
 6449SOL    HW220247   4.008   4.232   1.510
 6450SOL     OW20248   6.770   3.191   1.619
 6450SOL    HW120249   6.833   3.266   1.635
 6450SOL    HW220250   6.695   3.222   1.561
 6451SOL     OW20251   3.144   6.464   5.719
 6451SOL    HW120252   3.164   6.376   5.676
 6451SOL    HW220253   3.182   6.465   5.812
 6452SOL     OW20254   3.792   6.311   5.111
 6452SOL    HW120255   3.760   6.323   5.205
 6452SOL    HW220256   3.720   6.270   5.055
 6453SOL     OW20257   2.023   6.359   6.733
 6453SOL    HW120258   1.953   6.324   6.796
 6453SOL    HW220259   1.981   6.380   6.645
 6454SOL     OW20260   2.873   1.212   3.726
 6454SOL    HW120261   2.815   1.268   3.667
 6454SOL    HW220262   2.838   1.214   3.819
 6455SOL     OW20263   1.029   2.247   4.233
 6455SOL    HW120264   1.032   2.337   4.189
 6455SOL    HW220265   1.012   2.258   4.331
 6456SOL     OW20266   1.384   0.146   3.341
 6456SOL    HW120267   1.468   0.199   3.357
 6456SOL    HW220268   1.359   0.152   3.244
 6457SOL     OW20269   5.452   1.432   0.984
 6457SOL    HW120270   5.446   1.523   0.944
 6457SOL    HW220271   5.547   1.402   0.984
 6458SOL     OW20272   1.109   6.247   2.731
 6458SOL    HW120273   1.209   6.250   2.741
 6458SOL    HW220274   1.067   6.315   2.790
 6459SOL     OW20275   5.433   5.955   0.983
 6459SOL    HW120276   5.487   5.879   0.947
 6459SOL    HW220277   5.354   5.971   0.924
 6460SOL     OW20278   4.263   5.213   6.189
 6460SOL    HW120279   4.286   5.209   6.092
 6460SOL    HW220280   4.288   5.303   6.225
 6461SOL     OW20281   3.050   5.384   4.962
 6461SOL    HW120282   3.088   5.377   5.054
 6461SOL    HW220283   3.023   5.294   4.929
 6462SOL     OW20284   2.149   2.900   5.153
 6462SOL    HW120285   2.216   2.974   5.143
 6462SOL    HW220286   2.154   2.863   5.246
 6463SOL     OW20287   1.858   4.263   6.236
 6463SOL    HW120288   1.775   4.293   6.189
 6463SOL    HW220289   1.924   4.229   6.170
 6464SOL     OW20290   0.879   4.774   4.414
 6464SOL    HW120291   0.848   4.771   4.509
 6464SOL    HW220292   0.926   4.688   4.392
 6465SOL     OW20293   5.860   2.881   4.136
 6465SOL    HW120294   5.770   2.924   4.146
 6465SOL    HW220295   5.900   2.910   4.049
 6466SOL     OW20296   0.114   2.436   5.629
 6466SOL    HW120297   0.115   2.336   5.617
 6466SOL    HW220298   0.117   2.457   5.727
 6467SOL     OW20299   2.665   1.082   6.862
 6467SOL    HW120300   2.658   1.136   6.778
 6467SOL    HW220301   2.608   1.001   6.855
 6468SOL     OW20302   4.182   6.045   1.373
 6468SOL    HW120303   4.227   6.131   1.396
 6468SOL    HW220304   4.196   5.979   1.447
 6469SOL     OW20305   4.955   0.819   5.237
 6469SOL    HW120306   4.894   0.807   5.315
 6469SOL    HW220307   4.995   0.731   5.211
 6470SOL     OW20308   6.381   5.384   6.613
 6470SOL    HW120309   6.339   5.473   6.601
 6470SOL    HW220310   6.433   5.360   6.530
 6471SOL     OW20311   6.251   5.722   5.942
 6471SOL    HW120312   6.172   5.664   5.961
 6471SOL    HW220313   6.219   5.811   5.907
 6472SOL     OW20314   0.355   5.071   0.791
 6472SOL    HW120315   0.357   4.981   0.835
 6472SOL    HW220316   0.438   5.122   0.816
 6473SOL     OW20317   1.909   2.021   5.472
 6473SOL    HW120318   1.922   2.120   5.482
 6473SOL    HW220319   1.922   1.977   5.561
 6474SOL     OW20320   1.510   4.028   5.503
 6474SOL    HW120321   1.552   3.967   5.435
 6474SOL    HW220322   1.574   4.044   5.578
 6475SOL     OW20323   5.856   5.717   4.228
 6475SOL    HW120324   5.948   5.705   4.190
 6475SOL    HW220325   5.790   5.725   4.153
 6476SOL     OW20326   4.784   3.582   1.870
 6476SOL    HW120327   4.800   3.642   1.948
 6476SOL    HW220328   4.733   3.632   1.800
 6477SOL     OW20329   0.054   5.028   1.132
 6477SOL    HW120330   0.039   4.933   1.103
 6477SOL    HW220331   6.994   5.065   1.170
 6478SOL     OW20332   3.290   6.083   2.478
 6478SOL    HW120333   3.269   5.995   2.520
 6478SOL    HW220334   3.389   6.094   2.474
 6479SOL     OW20335   4.201   5.439   2.446
 6479SOL    HW120336   4.282   5.444   2.388
 6479SOL    HW220337   4.222   5.385   2.528
 6480SOL     OW20338   3.631   3.077   5.995
 6480SOL    HW120339   3.714   3.089   6.050
 6480SOL    HW220340   3.619   3.157   5.935
 6481SOL     OW20341   3.281   2.309   1.695
 6481SOL    HW120342   3.237   2.335   1.781
 6481SOL    HW220343   3.305   2.392   1.645
 6482SOL     OW20344   0.087   0.594   6.072
 6482SOL    HW120345   0.174   0.573   6.115
 6482SOL    HW220346   0.061   0.520   6.010
 6483SOL     OW20347   2.622   6.323   2.009
 6483SOL    HW120348   2.587   6.263   1.937
 6483SOL    HW220349   2.587   6.416   1.996
 6484SOL     OW20350   3.620   0.534   2.759
 6484SOL    HW120351   3.654   0.628   2.754
 6484SOL    HW220352   3.698   0.471   2.766
 6485SOL     OW20353   1.406   3.587   3.439
 6485SOL    HW120354   1.395   3.650   3.516
 6485SOL    HW220355   1.341   3.512   3.449
 6486SOL     OW20356   1.045   4.738   3.605
 6486SOL    HW120357   1.052   4.653   3.552
 6486SOL    HW220358   1.077   4.814   3.548
 6487SOL     OW20359   6.212   5.841   5.089
 6487SOL    HW120360   6.275   5.846   5.166
 6487SOL    HW220361   6.129   5.892   5.111
 6488SOL     OW20362   3.177   6.064   5.474
 6488SOL    HW120363   3.220   5.974   5.467
 6488SOL    HW220364   3.094   6.057   5.529
 6489SOL     OW20365   2.105   3.178   6.881
 6489SOL    HW120366   2.104   3.278   6.873
 6489SOL    HW220367   2.195   3.144   6.854
 6490SOL     OW20368   4.073   2.391   6.791
 6490SOL    HW120369   4.098   2.342   6.707
 6490SOL    HW220370   3.974   2.391   6.801
 6491SOL     OW20371   4.139   1.071   6.613
 6491SOL    HW120372   4.068   1.058   6.682
 6491SOL    HW220373   4.199   0.991   6.612
 6492SOL     OW20374   5.918   6.390   6.711
 6492SOL    HW120375   5.856   6.452   6.759
 6492SOL    HW220376   5.986   6.355   6.775
 6493SOL     OW20377   1.418   6.150   5.348
 6493SOL    HW120378   1.323   6.134   5.321
 6493SOL    HW220379   1.435   6.248   5.355
 6494SOL     OW20380   0.402   0.663   3.581
 6494SOL    HW120381   0.426   0.581   3.634
 6494SOL    HW220382   0.348   0.636   3.501
 6495SOL     OW20383   5.127   6.218   3.495
 6495SOL    HW120384   5.082   6.258   3.575
 6495SOL    HW220385   5.223   6.199   3.516
 6496SOL     OW20386   6.881   6.391   2.149
 6496SOL    HW120387   6.841   6.388   2.240
 6496SOL    HW220388   6.966   6.337   2.148
 6497SOL     OW20389   2.345   2.951   0.161
 6497SOL    HW120390   2.384   3.034   0.201
 6497SOL    HW220391   2.328   2.884   0.234
 6498SOL     OW20392   2.511   4.961   4.068
 6498SOL    HW120393   2.548   5.053   4.085
 6498SOL    HW220394   2.584   4.894   4.078
 6499SOL     OW20395   5.267   1.181   5.144
 6499SOL    HW120396   5.182   1.230   5.163
 6499SOL    HW220397   5.320   1.171   5.228
 6500SOL     OW20398   6.938   4.759   3.708
 6500SOL    HW120399   7.019   4.805   3.744
 6500SOL    HW220400   6.929   4.668   3.749
 6501SOL     OW20401   6.291   2.922   1.104
 6501SOL    HW120402   6.194   2.910   1.125
 6501SOL    HW220403   6.330   2.834   1.075
 6502SOL     OW20404   0.188   3.893   3.656
 6502SOL    HW120405   0.286   3.907   3.645
 6502SOL    HW220406   0.162   3.916   3.750
 6503SOL     OW20407   5.873   6.876   3.380
 6503SOL    HW120408   5.927   6.953   3.414
 6503SOL    HW220409   5.809   6.846   3.451
 6504SOL     OW20410   4.245   6.673   6.421
 6504SOL    HW120411   4.308   6.667   6.344
 6504SOL    HW220412   4.152   6.687   6.387
 6505SOL     OW20413   6.456   4.627   1.567
 6505SOL    HW120414   6.513   4.549   1.539
 6505SOL    HW220415   6.380   4.594   1.622
 6506SOL     OW20416   0.391   3.041   0.786
 6506SOL    HW120417   0.428   2.948   0.784
 6506SOL    HW220418   0.452   3.103   0.736
 6507SOL     OW20419   1.320   5.665   6.745
 6507SOL    HW120420   1.314   5.764   6.728
 6507SOL    HW220421   1.246   5.637   6.806
 6508SOL     OW20422   2.145   1.867   3.658
 6508SOL    HW120423   2.186   1.896   3.571
 6508SOL    HW220424   2.096   1.944   3.699
 6509SOL     OW20425   1.976   2.495   4.507
 6509SOL    HW120426   1.916   2.482   4.428
 6509SOL    HW220427   1.924   2.538   4.581
 6510SOL     OW20428   0.322   5.320   6.670
 6510SOL    HW120429   0.310   5.348   6.574
 6510SOL    HW220430   0.333   5.220   6.674
 6511SOL     OW20431   5.923   0.304   4.596
 6511SOL    HW120432   5.927   0.336   4.502
 6511SOL    HW220433   6.015   0.306   4.636
 6512SOL     OW20434   4.439   0.308   3.160
 6512SOL    HW120435   4.496   0.341   3.235
 6512SOL    HW220436   4.376   0.238   3.195
 6513SOL     OW20437   3.541   6.457   4.116
 6513SOL    HW120438   3.441   6.455   4.114
 6513SOL    HW220439   3.573   6.439   4.209
 6514SOL     OW20440   5.315   0.094   3.711
 6514SOL    HW120441   5.388   0.162   3.709
 6514SOL    HW220442   5.343   0.018   3.770
 6515SOL     OW20443   0.415   5.371   4.253
 6515SOL    HW120444   0.449   5.441   4.190
 6515SOL    HW220445   0.415   5.406   4.346
 6516SOL     OW20446   0.365   2.032   0.078
 6516SOL    HW120447   0.373   1.953   0.140
 6516SOL    HW220448   0.445   2.090   0.087
 6517SOL     OW20449   6.524   1.424   0.518
 6517SOL    HW120450   6.567   1.442   0.430
 6517SOL    HW220451   6.524   1.507   0.574
 6518SOL     OW20452   0.568   6.307   0.060
 6518SOL    HW120453   0.577   6.235   0.128
 6518SOL    HW220454   0.614   6.280   7.000
 6519SOL     OW20455   2.229   1.871   3.371
 6519SOL    HW120456   2.218   1.942   3.302
 6519SOL    HW220457   2.299   1.806   3.341
 6520SOL     OW20458   6.537   5.569   3.481
 6520SOL    HW120459   6.592   5.501   3.432
 6520SOL    HW220460   6.598   5.638   3.522
 6521SOL     OW20461   0.586   1.146   4.501
 6521SOL    HW120462   0.676   1.190   4.496
 6521SOL    HW220463   0.523   1.204   4.551
 6522SOL     OW20464   3.151   4.933   6.645
 6522SOL    HW120465   3.205   4.853   6.618
 6522SOL    HW220466   3.213   5.010   6.661
 6523SOL     OW20467   2.760   1.781   6.616
 6523SOL    HW120468   2.719   1.739   6.536
 6523SOL    HW220469   2.775   1.712   6.687
 6524SOL     OW20470   3.601   2.888   3.642
 6524SOL    HW120471   3.676   2.895   3.576
 6524SOL    HW220472   3.632   2.919   3.732
 6525SOL     OW20473   2.151   2.877   2.789
 6525SOL    HW120474   2.076   2.817   2.760
 6525SOL    HW220475   2.219   2.883   2.716
 6526SOL     OW20476   0.870   6.689   5.119
 6526SOL    HW120477   0.811   6.711   5.042
 6526SOL    HW220478   0.932   6.765   5.138
 6527SOL     OW20479   0.540   1.413   4.904
 6527SOL    HW120480   0.615   1.375   4.957
 6527SOL    HW220481   0.500   1.490   4.953
 6528SOL     OW20482   0.010   0.743   3.799
 6528SOL    HW120483   0.025   0.818   3.863
 6528SOL    HW220484   6.958   0.686   3.832
 6529SOL     OW20485   5.753   1.861   3.711
 6529SOL    HW120486   5.784   1.799   3.782
 6529SOL    HW220487   5.727   1.808   3.630
 6530SOL     OW20488   6.758   3.264   0.978
 6530SOL    HW120489   6.817   3.186   0.956
 6530SOL    HW220490   6.766   3.333   0.907
 6531SOL     OW20491   5.409   3.044   4.271
 6531SOL    HW120492   5.347   2.994   4.332
 6531SOL    HW220493   5.438   2.984   4.196
 6532SOL     OW20494   5.858   1.583   0.810
 6532SOL    HW120495   5.808   1.595   0.896
 6532SOL    HW220496   5.800   1.535   0.744
 6533SOL     OW20497   5.363   6.173   1.629
 6533SOL    HW120498   5.268   6.203   1.639
 6533SOL    HW220499   5.417   6.249   1.593
 6534SOL     OW20500   2.749   3.940   1.418
 6534SOL    HW120501   2.747   4.037   1.442
 6534SOL    HW220502   2.694   3.925   1.336
 6535SOL     OW20503   0.476   2.837   4.886
 6535SOL    HW120504   0.428   2.813   4.970
 6535SOL    HW220505   0.483   2.757   4.828
 6536SOL     OW20506   6.637   3.009   6.141
 6536SOL    HW120507   6.625   2.933   6.205
 6536SOL    HW220508   6.696   2.979   6.065
 6537SOL     OW20509   6.531   6.255   6.893
 6537SOL    HW120510   6.449   6.300   6.860
 6537SOL    HW220511   6.513   6.213   6.982
 6538SOL     OW20512   4.006   4.025   0.177
 6538SOL    HW120513   4.068   4.103   0.182
 6538SOL    HW220514   4.032   3.958   0.246
 6539SOL     OW20515   2.269   2.200   6.328
 6539SOL    HW120516   2.181   2.189   6.373
 6539SOL    HW220517   2.293   2.298   6.326
 6540SOL     OW20518   3.922   1.770   4.848
 6540SOL    HW120519   3.927   1.869   4.867
 6540SOL    HW220520   3.900   1.756   4.752
 6541SOL     OW20521   3.111   2.189   4.747
 6541SOL    HW120522   3.037   2.254   4.729
 6541SOL    HW220523   3.148   2.205   4.839
 6542SOL     OW20524   6.668   4.527   3.048
 6542SOL    HW120525   6.673   4.499   3.144
 6542SOL    HW220526   6.636   4.450   2.992
 6543SOL     OW20527   6.418   5.348   0.149
 6543SOL    HW120528   6.404   5.433   0.200
 6543SOL    HW220529   6.476   5.286   0.202
 6544SOL     OW20530   0.908   6.280   3.606
 6544SOL    HW120531   0.951   6.299   3.518
 6544SOL    HW220532   0.809   6.294   3.598
 6545SOL     OW20533   4.757   1.803   5.913
 6545SOL    HW120534   4.835   1.784   5.855
 6545SOL    HW220535   4.741   1.902   5.916
 6546SOL     OW20536   4.729   4.307   6.411
 6546SOL    HW120537   4.826   4.321   6.391
 6546SOL    HW220538   4.706   4.210   6.397
 6547SOL     OW20539   4.089   1.439   5.509
 6547SOL    HW120540   4.041   1.360   5.473
 6547SOL    HW220541   4.178   1.411   5.547
 6548SOL     OW20542   0.947   4.314   6.527
 6548SOL    HW120543   0.864   4.310   6.471
 6548SOL    HW220544   0.995   4.400   6.509
 6549SOL     OW20545   3.066   1.075   0.922
 6549SOL    HW120546   3.051   1.115   1.013
 6549SOL    HW220547   3.099   0.981   0.933
 6550SOL     OW20548   0.190   6.173   3.309
 6550SOL    HW120549   0.280   6.136   3.288
 6550SOL    HW220550   0.186   6.269   3.279
 6551SOL     OW20551   2.036   4.077   2.407
 6551SOL    HW120552   2.126   4.105   2.373
 6551SOL    HW220553   2.026   3.978   2.401
 6552SOL     OW20554   2.647   5.972   4.602
 6552SOL    HW120555   2.616   5.912   4.676
 6552SOL    HW220556   2.593   6.056   4.603
 6553SOL     OW20557   0.190   2.755   1.436
 6553SOL    HW120558   0.277   2.805   1.438
 6553SOL    HW220559   0.185   2.693   1.514
 6554SOL     OW20560   5.778   1.618   5.977
 6554SOL    HW120561   5.848   1.617   6.049
 6554SOL    HW220562   5.722   1.701   5.986
 6555SOL     OW20563   1.963   0.912   2.381
 6555SOL    HW120564   1.916   0.955   2.458
 6555SOL    HW220565   1.964   0.974   2.303
 6556SOL     OW20566   4.658   4.784   5.074
 6556SOL    HW120567   4.678   4.878   5.049
 6556SOL    HW220568   4.726   4.723   5.032
 6557SOL     OW20569   5.446   6.037   1.234
 6557SOL    HW120570   5.428   5.989   1.148
 6557SOL    HW220571   5.485   6.127   1.215
 6558SOL     OW20572   6.575   5.504   1.132
 6558SOL    HW120573   6.642   5.475   1.065
 6558SOL    HW220574   6.490   5.530   1.086
 6559SOL     OW20575   5.825   3.516   1.055
 6559SOL    HW120576   5.838   3.431   1.005
 6559SOL    HW220577   5.826   3.498   1.154
 6560SOL     OW20578   3.922   2.799   1.664
 6560SOL    HW120579   3.912   2.701   1.683
 6560SOL    HW220580   3.841   2.848   1.695
 6561SOL     OW20581   3.971   3.923   2.437
 6561SOL    HW120582   4.013   3.834   2.415
 6561SOL    HW220583   4.000   3.952   2.528
 6562SOL     OW20584   6.260   4.473   6.522
 6562SOL    HW120585   6.216   4.392   6.561
 6562SOL    HW220586   6.359   4.458   6.517
 6563SOL     OW20587   0.827   6.062   6.787
 6563SOL    HW120588   0.895   6.029   6.852
 6563SOL    HW220589   0.776   6.137   6.828
 6564SOL     OW20590   1.488   3.300   2.024
 6564SOL    HW120591   1.440   3.381   1.992
 6564SOL    HW220592   1.557   3.272   1.957
 6565SOL     OW20593   6.419   1.965   4.900
 6565SOL    HW120594   6.470   1.999   4.820
 6565SOL    HW220595   6.470   1.891   4.943
 6566SOL     OW20596   3.242   6.903   1.680
 6566SOL    HW120597   3.212   6.987   1.724
 6566SOL    HW220598   3.257   6.919   1.583
 6567SOL     OW20599   4.191   2.614   1.570
 6567SOL    HW120600   4.210   2.575   1.480
 6567SOL    HW220601   4.106   2.667   1.566
 6568SOL     OW20602   4.775   5.083   1.975
 6568SOL    HW120603   4.829   5.149   2.028
 6568SOL    HW220604   4.678   5.106   1.981
 6569SOL     OW20605   2.985   4.749   0.881
 6569SOL    HW120606   3.057   4.746   0.950
 6569SOL    HW220607   2.941   4.660   0.873
 6570SOL     OW20608   4.572   6.827   1.359
 6570SOL    HW120609   4.531   6.911   1.394
 6570SOL    HW220610   4.670   6.826   1.381
 6571SOL     OW20611   2.096   6.339   3.149
 6571SOL    HW120612   2.095   6.318   3.247
 6571SOL    HW220613   2.039   6.419   3.131
 6572SOL     OW20614   6.443   4.776   5.075
 6572SOL    HW120615   6.471   4.681   5.088
 6572SOL    HW220616   6.344   4.784   5.087
 6573SOL     OW20617   3.261   0.870   3.005
 6573SOL    HW120618   3.189   0.816   3.048
 6573SOL    HW220619   3.334   0.888   3.070
 6574SOL     OW20620   2.442   6.226   2.249
 6574SOL    HW120621   2.357   6.276   2.240
 6574SOL    HW220622   2.497   6.236   2.166
 6575SOL     OW20623   0.609   1.317   1.330
 6575SOL    HW120624   0.604   1.262   1.414
 6575SOL    HW220625   0.703   1.346   1.315
 6576SOL     OW20626   1.186   6.285   6.025
 6576SOL    HW120627   1.181   6.186   6.040
 6576SOL    HW220628   1.094   6.324   6.029
 6577SOL     OW20629   0.256   1.274   3.706
 6577SOL    HW120630   0.323   1.238   3.770
 6577SOL    HW220631   0.210   1.199   3.658
 6578SOL     OW20632   6.988   5.553   3.331
 6578SOL    HW120633   7.019   5.619   3.400
 6578SOL    HW220634   6.900   5.514   3.359
 6579SOL     OW20635   6.958   4.372   4.638
 6579SOL    HW120636   6.914   4.460   4.656
 6579SOL    HW220637   0.013   4.386   4.579
 6580SOL     OW20638   6.240   1.338   0.862
 6580SOL    HW120639   6.266   1.421   0.813
 6580SOL    HW220640   6.315   1.272   0.856
 6581SOL     OW20641   3.745   1.167   5.787
 6581SOL    HW120642   3.692   1.111   5.850
 6581SOL    HW220643   3.820   1.211   5.835
 6582SOL     OW20644   1.319   6.819   2.345
 6582SOL    HW120645   1.345   6.727   2.316
 6582SOL    HW220646   1.220   6.826   2.351
 6583SOL     OW20647   4.412   1.217   6.042
 6583SOL    HW120648   4.463   1.302   6.024
 6583SOL    HW220649   4.314   1.235   6.033
 6584SOL     OW20650   5.324   1.511   6.588
 6584SOL    HW120651   5.234   1.547   6.565
 6584SOL    HW220652   5.336   1.420   6.547
 6585SOL     OW20653   0.002   1.131   0.327
 6585SOL    HW120654   0.008   1.215   0.272
 6585SOL    HW220655   6.950   1.138   0.391
 6586SOL     OW20656   6.293   2.322   5.896
 6586SOL    HW120657   6.378   2.374   5.904
 6586SOL    HW220658   6.292   2.270   5.811
 6587SOL     OW20659   2.975   5.836   4.803
 6587SOL    HW120660   2.961   5.929   4.769
 6587SOL    HW220661   2.942   5.770   4.736
 6588SOL     OW20662   1.826   4.156   1.545
 6588SOL    HW120663   1.760   4.199   1.607
 6588SOL    HW220664   1.883   4.092   1.597
 6589SOL     OW20665   4.800   0.636   0.107
 6589SOL    HW120666   4.899   0.646   0.109
 6589SOL    HW220667   4.764   0.639   0.201
 6590SOL     OW20668   0.176   1.902   5.509
 6590SOL    HW120669   0.137   1.814   5.482
 6590SOL    HW220670   0.234   1.937   5.435
 6591SOL     OW20671   5.800   6.309   2.515
 6591SOL    HW120672   5.837   6.341   2.428
 6591SOL    HW220673   5.803   6.209   2.517
 6592SOL     OW20674   4.640   6.828   4.247
 6592SOL    HW120675   4.689   6.781   4.320
 6592SOL    HW220676   4.554   6.864   4.282
 6593SOL     OW20677   2.160   2.534   3.338
 6593SOL    HW120678   2.256   2.521   3.364
 6593SOL    HW220679   2.118   2.602   3.397
 6594SOL     OW20680   4.364   1.392   0.193
 6594SOL    HW120681   4.377   1.293   0.192
 6594SOL    HW220682   4.267   1.413   0.203
 6595SOL     OW20683   0.613   4.038   1.587
 6595SOL    HW120684   0.592   3.990   1.672
 6595SOL    HW220685   0.568   3.991   1.511
 6596SOL     OW20686   3.970   0.402   5.594
 6596SOL    HW120687   4.063   0.377   5.567
 6596SOL    HW220688   3.905   0.356   5.534
 6597SOL     OW20689   0.698   6.539   3.804
 6597SOL    HW120690   0.651   6.569   3.721
 6597SOL    HW220691   0.763   6.609   3.832
 6598SOL     OW20692   2.015   6.050   5.279
 6598SOL    HW120693   1.948   6.115   5.244
 6598SOL    HW220694   2.045   5.990   5.205
 6599SOL     OW20695   3.877   5.248   5.628
 6599SOL    HW120696   3.921   5.173   5.678
 6599SOL    HW220697   3.947   5.309   5.592
 6600SOL     OW20698   5.074   5.093   5.142
 6600SOL    HW120699   5.173   5.081   5.133
 6600SOL    HW220700   5.029   5.004   5.143
 6601SOL     OW20701   0.651   0.453   0.524
 6601SOL    HW120702   0.739   0.420   0.558
 6601SOL    HW220703   0.577   0.394   0.559
 6602SOL     OW20704   6.908   2.214   1.400
 6602SOL    HW120705   6.996   2.184   1.439
 6602SOL    HW220706   6.897   2.175   1.309
 6603SOL     OW20707   1.344   2.967   4.325
 6603SOL    HW120708   1.343   3.054   4.275
 6603SOL    HW220709   1.438   2.937   4.338
 6604SOL     OW20710   2.710   5.886   1.513
 6604SOL    HW120711   2.632   5.829   1.538
 6604SOL    HW220712   2.710   5.902   1.414
 6605SOL     OW20713   4.264   4.678   0.844
 6605SOL    HW120714   4.349   4.684   0.896
 6605SOL    HW220715   4.283   4.641   0.753
 6606SOL     OW20716   4.622   0.176   2.309
 6606SOL    HW120717   4.719   0.155   2.309
 6606SOL    HW220718   4.569   0.091   2.310
 6607SOL     OW20719   1.716   1.330   1.942
 6607SOL    HW120720   1.781   1.324   1.866
 6607SOL    HW220721   1.657   1.248   1.942
 6608SOL     OW20722   5.350   4.007   2.311
 6608SOL    HW120723   5.375   4.077   2.377
 6608SOL    HW220724   5.272   3.955   2.345
 6609SOL     OW20725   5.074   0.926   6.666
 6609SOL    HW120726   5.029   0.941   6.578
 6609SOL    HW220727   5.063   1.007   6.723
 6610SOL     OW20728   2.455   0.341   0.069
 6610SOL    HW120729   2.432   0.388   0.154
 6610SOL    HW220730   2.530   0.277   0.086
 6611SOL     OW20731   6.893   2.367   2.809
 6611SOL    HW120732   6.874   2.387   2.905
 6611SOL    HW220733   6.958   2.291   2.803
 6612SOL     OW20734   1.086   4.111   0.010
 6612SOL    HW120735   1.037   4.175   6.974
 6612SOL    HW220736   1.166   4.156   0.048
 6613SOL     OW20737   5.853   5.918   3.470
 6613SOL    HW120738   5.774   5.978   3.457
 6613SOL    HW220739   5.823   5.822   3.465
 6614SOL     OW20740   4.869   6.659   6.528
 6614SOL    HW120741   4.877   6.697   6.620
 6614SOL    HW220742   4.923   6.714   6.464
 6615SOL     OW20743   0.701   4.070   4.443
 6615SOL    HW120744   0.621   4.091   4.388
 6615SOL    HW220745   0.754   3.998   4.398
 6616SOL     OW20746   3.742   1.540   5.887
 6616SOL    HW120747   3.680   1.618   5.895
 6616SOL    HW220748   3.800   1.552   5.806
 6617SOL     OW20749   3.573   6.447   3.680
 6617SOL    HW120750   3.615   6.411   3.764
 6617SOL    HW220751   3.575   6.377   3.609
 6618SOL     OW20752   1.653   2.991   2.050
 6618SOL    HW120753   1.595   2.998   1.969
 6618SOL    HW220754   1.726   3.060   2.045
 6619SOL     OW20755   5.103   6.680   4.195
 6619SOL    HW120756   5.157   6.690   4.279
 6619SOL    HW220757   5.105   6.585   4.165
 6620SOL     OW20758   1.766   2.964   5.824
 6620SOL    HW120759   1.668   2.979   5.810
 6620SOL    HW220760   1.782   2.869   5.852
 6621SOL     OW20761   3.486   4.049   0.609
 6621SOL    HW120762   3.505   3.952   0.593
 6621SOL    HW220763   3.417   4.058   0.681
 6622SOL     OW20764   6.170   5.616   1.491
 6622SOL    HW120765   6.097   5.684   1.498
 6622SOL    HW220766   6.135   5.526   1.518
 6623SOL     OW20767   3.525   3.087   2.149
 6623SOL    HW120768   3.463   3.093   2.071
 6623SOL    HW220769   3.617   3.068   2.116
 6624SOL     OW20770   2.481   6.390   4.282
 6624SOL    HW120771   2.445   6.403   4.189
 6624SOL    HW220772   2.406   6.387   4.347
 6625SOL     OW20773   5.964   1.632   6.175
 6625SOL    HW120774   5.945   1.690   6.255
 6625SOL    HW220775   6.041   1.670   6.124
 6626SOL     OW20776   3.520   5.006   3.096
 6626SOL    HW120777   3.429   4.967   3.083
 6626SOL    HW220778   3.524   5.053   3.185
 6627SOL     OW20779   2.154   0.997   5.823
 6627SOL    HW120780   2.143   0.962   5.731
 6627SOL    HW220781   2.071   1.047   5.850
 6628SOL     OW20782   5.075   5.086   2.751
 6628SOL    HW120783   5.100   4.990   2.740
 6628SOL    HW220784   5.107   5.119   2.840
 6629SOL     OW20785   3.461   6.156   1.157
 6629SOL    HW120786   3.477   6.243   1.204
 6629SOL    HW220787   3.364   6.146   1.138
 6630SOL     OW20788   3.630   1.882   0.595
 6630SOL    HW120789   3.698   1.859   0.525
 6630SOL    HW220790   3.675   1.898   0.682
 6631SOL     OW20791   4.463   6.983   2.321
 6631SOL    HW120792   4.540   6.928   2.354
 6631SOL    HW220793   4.381   6.960   2.374
 6632SOL     OW20794   0.058   1.083   1.712
 6632SOL    HW120795   6.987   1.091   1.742
 6632SOL    HW220796   0.083   0.987   1.709
 6633SOL     OW20797   1.176   5.494   6.283
 6633SOL    HW120798   1.148   5.507   6.378
 6633SOL    HW220799   1.209   5.400   6.272
 6634SOL     OW20800   6.098   3.268   6.011
 6634SOL    HW120801   6.088   3.172   6.038
 6634SOL    HW220802   6.068   3.327   6.087
 6635SOL     OW20803   4.602   4.967   3.389
 6635SOL    HW120804   4.563   5.017   3.312
 6635SOL    HW220805   4.674   5.022   3.431
 6636SOL     OW20806   1.995   3.035   5.432
 6636SOL    HW120807   2.016   2.938   5.419
 6636SOL    HW220808   2.061   3.091   5.380
 6637SOL     OW20809   1.060   0.323   0.049
 6637SOL    HW120810   1.029   0.393   7.010
 6637SOL    HW220811   1.070   0.236   0.001
 6638SOL     OW20812   3.903   4.994   5.012
 6638SOL    HW120813   3.816   4.964   5.051
 6638SOL    HW220814   3.974   4.927   5.032
 6639SOL     OW20815   5.808   6.007   5.906
 6639SOL    HW120816   5.817   5.949   5.987
 6639SOL    HW220817   5.888   6.067   5.899
 6640SOL     OW20818   7.016   1.924   4.661
 6640SOL    HW120819   7.013   1.950   4.757
 6640SOL    HW220820   0.081   1.950   4.623
 6641SOL     OW20821   3.013   3.188   6.684
 6641SOL    HW120822   3.024   3.253   6.609
 6641SOL    HW220823   2.947   3.223   6.750
 6642SOL     OW20824   2.977   5.190   0.020
 6642SOL    HW120825   2.934   5.120   0.078
 6642SOL    HW220826   3.075   5.192   0.037
 6643SOL     OW20827   6.939   4.488   0.136
 6643SOL    HW120828   6.929   4.389   0.126
 6643SOL    HW220829   6.927   4.533   0.048
 6644SOL     OW20830   2.941   4.817   2.175
 6644SOL    HW120831   2.905   4.734   2.131
 6644SOL    HW220832   3.037   4.829   2.150
 6645SOL     OW20833   6.938   5.254   0.910
 6645SOL    HW120834   6.862   5.203   0.951
 6645SOL    HW220835   6.954   5.337   0.963
 6646SOL     OW20836   4.819   5.772   4.511
 6646SOL    HW120837   4.816   5.829   4.593
 6646SOL    HW220838   4.898   5.711   4.516
 6647SOL     OW20839   3.206   1.726   2.608
 6647SOL    HW120840   3.226   1.764   2.698
 6647SOL    HW220841   3.124   1.769   2.571
 6648SOL     OW20842   3.568   5.968   2.656
 6648SOL    HW120843   3.568   6.002   2.562
 6648SOL    HW220844   3.546   5.870   2.655
 6649SOL     OW20845   5.844   2.101   6.292
 6649SOL    HW120846   5.792   2.015   6.289
 6649SOL    HW220847   5.915   2.099   6.221
 6650SOL     OW20848   3.963   1.104   3.629
 6650SOL    HW120849   3.931   1.197   3.643
 6650SOL    HW220850   3.923   1.066   3.546
 6651SOL     OW20851   1.451   1.807   0.417
 6651SOL    HW120852   1.499   1.729   0.376
 6651SOL    HW220853   1.517   1.878   0.441
 6652SOL     OW20854   6.524   4.359   0.206
 6652SOL    HW120855   6.545   4.262   0.206
 6652SOL    HW220856   6.579   4.405   0.275
 6653SOL     OW20857   3.923   3.668   3.244
 6653SOL    HW120858   3.966   3.724   3.315
 6653SOL    HW220859   3.969   3.580   3.238
 6654SOL     OW20860   2.164   2.816   1.151
 6654SOL    HW120861   2.219   2.863   1.081
 6654SOL    HW220862   2.140   2.725   1.119
 6655SOL     OW20863   2.677   0.143   1.606
 6655SOL    HW120864   2.686   0.115   1.511
 6655SOL    HW220865   2.642   0.237   1.610
 6656SOL     OW20866   6.389   1.174   2.497
 6656SOL    HW120867   6.379   1.186   2.399
 6656SOL    HW220868   6.320   1.108   2.529
 6657SOL     OW20869   4.430   6.585   6.256
 6657SOL    HW120870   4.473   6.589   6.346
 6657SOL    HW220871   4.440   6.492   6.219
 6658SOL     OW20872   5.687   1.333   5.386
 6658SOL    HW120873   5.654   1.413   5.336
 6658SOL    HW220874   5.621   1.308   5.456
 6659SOL     OW20875   2.328   1.968   6.464
 6659SOL    HW120876   2.363   2.006   6.549
 6659SOL    HW220877   2.299   2.043   6.404
 6660SOL     OW20878   0.169   6.163   1.386
 6660SOL    HW120879   0.258   6.118   1.396
 6660SOL    HW220880   0.174   6.255   1.423
 6661SOL     OW20881   0.115   4.886   3.841
 6661SOL    HW120882   0.110   4.903   3.940
 6661SOL    HW220883   0.166   4.959   3.797
 6662SOL     OW20884   1.078   0.937   6.931
 6662SOL    HW120885   1.156   0.882   6.903
 6662SOL    HW220886   1.047   0.993   6.854
 6663SOL     OW20887   7.007   5.747   3.516
 6663SOL    HW120888   0.010   5.831   3.469
 6663SOL    HW220889   6.952   5.770   3.596
 6664SOL     OW20890   1.505   6.951   1.371
 6664SOL    HW120891   1.507   0.005   1.309
 6664SOL    HW220892   1.516   6.982   1.465
 6665SOL     OW20893   1.347   6.979   3.520
 6665SOL    HW120894   1.273   6.913   3.534
 6665SOL    HW220895   1.323   0.017   3.446
 6666SOL     OW20896   5.878   1.576   5.441
 6666SOL    HW120897   5.785   1.542   5.424
 6666SOL    HW220898   5.879   1.625   5.529
 6667SOL     OW20899   6.359   4.751   4.776
 6667SOL    HW120900   6.371   4.662   4.731
 6667SOL    HW220901   6.315   4.737   4.865
 6668SOL     OW20902   0.075   6.228   2.038
 6668SOL    HW120903   0.058   6.158   2.107
 6668SOL    HW220904   0.171   6.226   2.010
 6669SOL     OW20905   1.956   3.555   3.761
 6669SOL    HW120906   2.026   3.586   3.697
 6669SOL    HW220907   1.939   3.627   3.829
 6670SOL     OW20908   3.597   3.810   6.721
 6670SOL    HW120909   3.609   3.809   6.622
 6670SOL    HW220910   3.651   3.885   6.761
 6671SOL     OW20911   6.114   4.949   0.652
 6671SOL    HW120912   6.158   4.884   0.589
 6671SOL    HW220913   6.081   5.028   0.600
 6672SOL     OW20914   0.798   0.965   5.284
 6672SOL    HW120915   0.841   0.942   5.196
 6672SOL    HW220916   0.725   1.032   5.269
 6673SOL     OW20917   4.913   5.635   2.674
 6673SOL    HW120918   4.902   5.734   2.673
 6673SOL    HW220919   4.856   5.596   2.746
 6674SOL     OW20920   0.541   5.258   5.822
 6674SOL    HW120921   0.594   5.268   5.907
 6674SOL    HW220922   0.443   5.266   5.843
 6675SOL     OW20923   5.486   4.174   1.330
 6675SOL    HW120924   5.476   4.266   1.367
 6675SOL    HW220925   5.492   4.178   1.230
 6676SOL     OW20926   0.743   3.602   5.816
 6676SOL    HW120927   0.647   3.572   5.813
 6676SOL    HW220928   0.760   3.667   5.742
 6677SOL     OW20929   6.960   3.288   0.076
 6677SOL    HW120930   0.009   3.246   0.129
 6677SOL    HW220931   6.992   3.307   7.008
 6678SOL     OW20932   1.379   2.370   6.977
 6678SOL    HW120933   1.334   2.446   6.931
 6678SOL    HW220934   1.319   2.333   0.024
 6679SOL     OW20935   1.729   1.580   4.776
 6679SOL    HW120936   1.756   1.564   4.681
 6679SOL    HW220937   1.631   1.563   4.786
 6680SOL     OW20938   4.484   5.880   6.004
 6680SOL    HW120939   4.546   5.957   5.987
 6680SOL    HW220940   4.392   5.914   6.023
 6681SOL     OW20941   5.156   6.072   6.854
 6681SOL    HW120942   5.193   6.155   6.813
 6681SOL    HW220943   5.232   6.015   6.887
 6682SOL     OW20944   0.525   4.492   2.680
 6682SOL    HW120945   0.620   4.495   2.711
 6682SOL    HW220946   0.522   4.497   2.580
 6683SOL     OW20947   4.850   1.879   5.479
 6683SOL    HW120948   4.798   1.815   5.536
 6683SOL    HW220949   4.828   1.973   5.507
 6684SOL     OW20950   1.820   6.654   1.439
 6684SOL    HW120951   1.768   6.571   1.418
 6684SOL    HW220952   1.782   6.731   1.388
 6685SOL     OW20953   5.021   1.973   5.995
 6685SOL    HW120954   5.071   1.939   6.075
 6685SOL    HW220955   4.950   2.037   6.026
 6686SOL     OW20956   6.093   3.990   4.124
 6686SOL    HW120957   6.051   3.952   4.206
 6686SOL    HW220958   6.069   3.934   4.045
 6687SOL     OW20959   1.112   1.499   0.755
 6687SOL    HW120960   1.043   1.558   0.714
 6687SOL    HW220961   1.101   1.405   0.721
 6688SOL     OW20962   0.424   4.880   2.263
 6688SOL    HW120963   0.339   4.830   2.282
 6688SOL    HW220964   0.502   4.824   2.291
 6689SOL     OW20965   4.351   2.804   0.803
 6689SOL    HW120966   4.262   2.807   0.757
 6689SOL    HW220967   4.344   2.746   0.885
 6690SOL     OW20968   2.455   0.988   1.639
 6690SOL    HW120969   2.547   0.972   1.674
 6690SOL    HW220970   2.428   0.911   1.580
 6691SOL     OW20971   2.782   5.942   0.699
 6691SOL    HW120972   2.797   5.913   0.605
 6691SOL    HW220973   2.768   5.862   0.757
 6692SOL     OW20974   2.683   4.426   5.331
 6692SOL    HW120975   2.702   4.332   5.357
 6692SOL    HW220976   2.763   4.466   5.288
 6693SOL     OW20977   4.502   3.465   5.980
 6693SOL    HW120978   4.589   3.505   5.952
 6693SOL    HW220979   4.485   3.383   5.925
 6694SOL     OW20980   4.288   5.540   0.187
 6694SOL    HW120981   4.227   5.512   0.261
 6694SOL    HW220982   4.361   5.598   0.224
 6695SOL     OW20983   0.842   2.323   6.618
 6695SOL    HW120984   0.892   2.257   6.675
 6695SOL    HW220985   0.900   2.352   6.542
 6696SOL     OW20986   1.863   2.577   1.143
 6696SOL    HW120987   1.804   2.652   1.115
 6696SOL    HW220988   1.840   2.549   1.236
 6697SOL     OW20989   4.438   2.085   2.701
 6697SOL    HW120990   4.432   2.168   2.646
 6697SOL    HW220991   4.427   2.107   2.798
 6698SOL     OW20992   3.642   2.696   0.835
 6698SOL    HW120993   3.686   2.770   0.784
 6698SOL    HW220994   3.583   2.644   0.773
 6699SOL     OW20995   4.039   4.138   6.517
 6699SOL    HW120996   3.998   4.074   6.452
 6699SOL    HW220997   3.991   4.130   6.605
 6700SOL     OW20998   0.928   5.353   0.426
 6700SOL    HW120999   0.835   5.316   0.432
 6700SOL    HW221000   0.991   5.295   0.477
 6701SOL     OW21001   5.971   2.866   1.478
 6701SOL    HW121002   5.955   2.772   1.511
 6701SOL    HW221003   5.966   2.929   1.556
 6702SOL     OW21004   2.614   1.780   7.012
 6702SOL    HW121005   2.691   1.842   0.002
 6702SOL    HW221006   2.600   1.725   0.070
 6703SOL     OW21007   6.140   2.222   6.920
 6703SOL    HW121008   6.179   2.132   6.937
 6703SOL    HW221009   6.151   2.247   6.824
 6704SOL     OW21010   4.403   2.437   2.259
 6704SOL    HW121011   4.499   2.452   2.283
 6704SOL    HW221012   4.365   2.520   2.218
 6705SOL     OW21013   0.269   2.429   1.969
 6705SOL    HW121014   0.299   2.516   1.930
 6705SOL    HW221015   0.301   2.354   1.911
 6706SOL     OW21016   1.112   4.032   0.533
 6706SOL    HW121017   1.146   4.054   0.624
 6706SOL    HW221018   1.012   4.032   0.533
 6707SOL     OW21019   6.131   5.860   4.706
 6707SOL    HW121020   6.208   5.903   4.753
 6707SOL    HW221021   6.067   5.931   4.676
 6708SOL     OW21022   1.810   5.862   2.420
 6708SOL    HW121023   1.720   5.856   2.463
 6708SOL    HW221024   1.827   5.778   2.369
 6709SOL     OW21025   3.688   6.462   1.361
 6709SOL    HW121026   3.777   6.430   1.329
 6709SOL    HW221027   3.701   6.523   1.440
 6710SOL     OW21028   2.068   1.927   5.665
 6710SOL    HW121029   2.163   1.957   5.658
 6710SOL    HW221030   2.032   1.950   5.755
 6711SOL     OW21031   5.585   4.013   6.518
 6711SOL    HW121032   5.639   4.014   6.602
 6711SOL    HW221033   5.507   3.951   6.529
 6712SOL     OW21034   4.014   5.478   0.488
 6712SOL    HW121035   3.974   5.472   0.579
 6712SOL    HW221036   4.111   5.454   0.492
 6713SOL     OW21037   2.671   1.919   1.653
 6713SOL    HW121038   2.575   1.947   1.639
 6713SOL    HW221039   2.708   1.967   1.733
 6714SOL     OW21040   5.391   6.934   5.349
 6714SOL    HW121041   5.464   6.988   5.308
 6714SOL    HW221042   5.309   6.991   5.360
 6715SOL     OW21043   0.508   0.957   0.135
 6715SOL    HW121044   0.498   0.858   0.128
 6715SOL    HW221045   0.533   0.995   0.046
 6716SOL     OW21046   1.542   6.161   0.817
 6716SOL    HW121047   1.612   6.100   0.780
 6716SOL    HW221048   1.493   6.115   0.891
 6717SOL     OW21049   4.140   2.934   0.484
 6717SOL    HW121050   4.122   3.029   0.459
 6717SOL    HW221051   4.123   2.921   0.582
 6718SOL     OW21052   4.129   5.655   6.558
 6718SOL    HW121053   4.144   5.593   6.481
 6718SOL    HW221054   4.042   5.703   6.546
 6719SOL     OW21055   0.172   6.952   5.968
 6719SOL    HW121056   0.267   6.969   5.942
 6719SOL    HW221057   0.160   6.855   5.990
 6720SOL     OW21058   2.455   6.160   1.837
 6720SOL    HW121059   2.370   6.149   1.888
 6720SOL    HW221060   2.508   6.076   1.842
 6721SOL     OW21061   5.373   6.463   4.408
 6721SOL    HW121062   5.470   6.481   4.425
 6721SOL    HW221063   5.355   6.365   4.418
 6722SOL     OW21064   4.729   3.297   1.026
 6722SOL    HW121065   4.737   3.278   0.928
 6722SOL    HW221066   4.667   3.374   1.040
 6723SOL     OW21067   1.984   6.784   3.241
 6723SOL    HW121068   2.075   6.822   3.220
 6723SOL    HW221069   1.975   6.773   3.340
 6724SOL     OW21070   2.278   4.187   5.917
 6724SOL    HW121071   2.352   4.194   5.984
 6724SOL    HW221072   2.199   4.143   5.959
 6725SOL     OW21073   1.462   4.294   2.648
 6725SOL    HW121074   1.366   4.269   2.642
 6725SOL    HW221075   1.472   4.394   2.644
 6726SOL     OW21076   1.265   2.884   4.967
 6726SOL    HW121077   1.218   2.797   4.955
 6726SOL    HW221078   1.345   2.870   5.026
 6727SOL     OW21079   5.436   3.364   6.323
 6727SOL    HW121080   5.507   3.408   6.379
 6727SOL    HW221081   5.346   3.391   6.356
 6728SOL     OW21082   3.707   2.104   4.762
 6728SOL    HW121083   3.684   2.022   4.814
 6728SOL    HW221084   3.647   2.179   4.788
 6729SOL     OW21085   6.499   1.143   1.980
 6729SOL    HW121086   6.470   1.066   2.037
 6729SOL    HW221087   6.423   1.172   1.923
 6730SOL     OW21088   2.726   6.702   6.934
 6730SOL    HW121089   2.716   6.786   6.880
 6730SOL    HW221090   2.787   6.719   7.011
 6731SOL     OW21091   2.969   4.244   1.401
 6731SOL    HW121092   2.871   4.232   1.418
 6731SOL    HW221093   2.983   4.326   1.344
 6732SOL     OW21094   2.572   5.992   0.422
 6732SOL    HW121095   2.526   6.056   0.484
 6732SOL    HW221096   2.508   5.922   0.392
 6733SOL     OW21097   4.610   5.669   5.911
 6733SOL    HW121098   4.696   5.709   5.880
 6733SOL    HW221099   4.550   5.741   5.945
 6734SOL     OW21100   1.238   3.351   5.716
 6734SOL    HW121101   1.176   3.424   5.689
 6734SOL    HW221102   1.332   3.377   5.695
 6735SOL     OW21103   0.232   5.218   5.023
 6735SOL    HW121104   0.327   5.242   5.008
 6735SOL    HW221105   0.174   5.263   4.956
 6736SOL     OW21106   2.366   3.448   1.082
 6736SOL    HW121107   2.416   3.535   1.085
 6736SOL    HW221108   2.431   3.373   1.068
 6737SOL     OW21109   2.333   1.317   2.114
 6737SOL    HW121110   2.272   1.239   2.097
 6737SOL    HW221111   2.288   1.401   2.083
 6738SOL     OW21112   2.523   1.849   2.512
 6738SOL    HW121113   2.478   1.800   2.437
 6738SOL    HW221114   2.516   1.796   2.596
 6739SOL     OW21115   3.439   5.737   5.310
 6739SOL    HW121116   3.503   5.688   5.369
 6739SOL    HW221117   3.359   5.680   5.292
 6740SOL     OW21118   1.651   0.922   4.267
 6740SOL    HW121119   1.718   0.989   4.236
 6740SOL    HW221120   1.587   0.966   4.330
 6741SOL     OW21121   5.211   1.397   5.933
 6741SOL    HW121122   5.171   1.487   5.952
 6741SOL    HW221123   5.223   1.348   6.020
 6742SOL     OW21124   0.187   5.486   4.644
 6742SOL    HW121125   0.157   5.454   4.554
 6742SOL    HW221126   0.112   5.537   4.688
 6743SOL     OW21127   4.224   3.108   0.111
 6743SOL    HW121128   4.193   3.029   0.059
 6743SOL    HW221129   4.150   3.175   0.118
 6744SOL     OW21130   3.942   4.579   5.779
 6744SOL    HW121131   3.850   4.607   5.804
 6744SOL    HW221132   3.958   4.595   5.682
 6745SOL     OW21133   1.212   5.000   3.283
 6745SOL    HW121134   1.284   4.952   3.332
 6745SOL    HW221135   1.170   5.067   3.345
 6746SOL     OW21136   0.879   1.088   1.335
 6746SOL    HW121137   0.864   1.186   1.321
 6746SOL    HW221138   0.821   1.037   1.273
 6747SOL     OW21139   5.571   6.821   4.062
 6747SOL    HW121140   5.549   6.859   4.152
 6747SOL    HW221141   5.538   6.727   4.057
 6748SOL     OW21142   0.521   0.654   2.118
 6748SOL    HW121143   0.577   0.716   2.064
 6748SOL    HW221144   0.435   0.699   2.143
 6749SOL     OW21145   3.536   0.519   0.251
 6749SOL    HW121146   3.438   0.505   0.265
 6749SOL    HW221147   3.587   0.469   0.322
 6750SOL     OW21148   2.606   2.146   4.076
 6750SOL    HW121149   2.561   2.093   4.148
 6750SOL    HW221150   2.665   2.215   4.118
 6751SOL     OW21151   2.883   2.237   3.871
 6751SOL    HW121152   2.860   2.304   3.941
 6751SOL    HW221153   2.810   2.168   3.866
 6752SOL     OW21154   6.019   2.895   1.198
 6752SOL    HW121155   6.041   2.815   1.253
 6752SOL    HW221156   5.972   2.963   1.255
 6753SOL     OW21157   4.051   1.715   6.159
 6753SOL    HW121158   3.991   1.732   6.080
 6753SOL    HW221159   4.005   1.653   6.222
 6754SOL     OW21160   6.239   1.683   6.068
 6754SOL    HW121161   6.267   1.604   6.122
 6754SOL    HW221162   6.259   1.767   6.119
 6755SOL     OW21163   5.632   1.748   3.196
 6755SOL    HW121164   5.563   1.820   3.195
 6755SOL    HW221165   5.720   1.785   3.168
 6756SOL     OW21166   4.541   4.688   4.405
 6756SOL    HW121167   4.641   4.694   4.400
 6756SOL    HW221168   4.516   4.635   4.486
 6757SOL     OW21169   4.797   6.332   1.049
 6757SOL    HW121170   4.751   6.308   0.964
 6757SOL    HW221171   4.730   6.360   1.117
 6758SOL     OW21172   5.297   3.223   2.009
 6758SOL    HW121173   5.309   3.303   1.952
 6758SOL    HW221174   5.223   3.166   1.971
 6759SOL     OW21175   1.443   4.564   2.751
 6759SOL    HW121176   1.346   4.541   2.755
 6759SOL    HW221177   1.458   4.638   2.686
 6760SOL     OW21178   0.535   4.697   4.379
 6760SOL    HW121179   0.535   4.643   4.295
 6760SOL    HW221180   0.563   4.791   4.358
 6761SOL     OW21181   5.297   3.038   5.384
 6761SOL    HW121182   5.314   2.969   5.313
 6761SOL    HW221183   5.345   3.122   5.359
 6762SOL     OW21184   6.604   5.410   3.800
 6762SOL    HW121185   6.682   5.371   3.752
 6762SOL    HW221186   6.596   5.367   3.890
 6763SOL     OW21187   5.928   6.484   5.340
 6763SOL    HW121188   5.956   6.569   5.385
 6763SOL    HW221189   5.907   6.502   5.244
 6764SOL     OW21190   3.003   3.587   6.728
 6764SOL    HW121191   2.934   3.626   6.790
 6764SOL    HW221192   3.030   3.656   6.661
 6765SOL     OW21193   6.470   4.725   3.122
 6765SOL    HW121194   6.525   4.786   3.179
 6765SOL    HW221195   6.525   4.693   3.045
 6766SOL     OW21196   1.468   0.985   5.444
 6766SOL    HW121197   1.444   0.896   5.484
 6766SOL    HW221198   1.444   0.986   5.347
 6767SOL     OW21199   6.985   2.458   0.168
 6767SOL    HW121200   0.022   2.528   0.205
 6767SOL    HW221201   6.890   2.483   0.189
 6768SOL     OW21202   0.775   0.482   3.853
 6768SOL    HW121203   0.828   0.399   3.835
 6768SOL    HW221204   0.690   0.480   3.802
 6769SOL     OW21205   2.460   2.303   5.314
 6769SOL    HW121206   2.375   2.305   5.260
 6769SOL    HW221207   2.483   2.395   5.344
 6770SOL     OW21208   0.255   2.106   3.290
 6770SOL    HW121209   0.167   2.091   3.245
 6770SOL    HW221210   0.296   2.018   3.314
 6771SOL     OW21211   3.455   2.082   3.373
 6771SOL    HW121212   3.554   2.069   3.373
 6771SOL    HW221213   3.419   2.062   3.465
 6772SOL     OW21214   6.241   1.906   2.782
 6772SOL    HW121215   6.243   1.876   2.687
 6772SOL    HW221216   6.331   1.939   2.809
 6773SOL     OW21217   0.023   6.037   1.830
 6773SOL    HW121218   7.008   6.058   1.741
 6773SOL    HW221219   0.038   6.122   1.880
 6774SOL     OW21220   2.005   2.277   5.237
 6774SOL    HW121221   1.937   2.204   5.227
 6774SOL    HW221222   2.070   2.273   5.161
 6775SOL     OW21223   0.734   1.786   4.976
 6775SOL    HW121224   0.657   1.725   4.958
 6775SOL    HW221225   0.763   1.775   5.071
 6776SOL     OW21226   3.795   4.242   1.785
 6776SOL    HW121227   3.711   4.296   1.788
 6776SOL    HW221228   3.788   4.172   1.713
 6777SOL     OW21229   5.109   5.758   1.263
 6777SOL    HW121230   5.159   5.835   1.302
 6777SOL    HW221231   5.150   5.672   1.292
 6778SOL     OW21232   6.512   4.068   2.404
 6778SOL    HW121233   6.427   4.032   2.366
 6778SOL    HW221234   6.554   4.131   2.339
 6779SOL     OW21235   5.765   4.335   6.125
 6779SOL    HW121236   5.736   4.368   6.035
 6779SOL    HW221237   5.783   4.237   6.121
 6780SOL     OW21238   2.886   2.261   2.627
 6780SOL    HW121239   2.914   2.278   2.533
 6780SOL    HW221240   2.927   2.176   2.659
 6781SOL     OW21241   6.688   1.332   4.405
 6781SOL    HW121242   6.590   1.345   4.422
 6781SOL    HW221243   6.739   1.346   4.490
 6782SOL     OW21244   6.416   1.626   3.675
 6782SOL    HW121245   6.430   1.550   3.738
 6782SOL    HW221246   6.387   1.590   3.586
 6783SOL     OW21247   1.519   4.990   4.975
 6783SOL    HW121248   1.442   5.009   5.036
 6783SOL    HW221249   1.514   4.895   4.942
 6784SOL     OW21250   1.693   3.396   1.595
 6784SOL    HW121251   1.749   3.328   1.547
 6784SOL    HW221252   1.709   3.486   1.555
 6785SOL     OW21253   5.517   5.045   4.735
 6785SOL    HW121254   5.479   5.081   4.649
 6785SOL    HW221255   5.611   5.015   4.719
 6786SOL     OW21256   6.727   2.385   7.012
 6786SOL    HW121257   6.804   2.434   6.970
 6786SOL    HW221258   6.658   2.366   6.942
 6787SOL     OW21259   3.707   1.897   6.893
 6787SOL    HW121260   3.730   1.967   6.825
 6787SOL    HW221261   3.677   1.814   6.846
 6788SOL     OW21262   0.390   4.273   3.693
 6788SOL    HW121263   0.294   4.246   3.697
 6788SOL    HW221264   0.433   4.234   3.612
 6789SOL     OW21265   6.420   3.717   4.206
 6789SOL    HW121266   6.498   3.741   4.262
 6789SOL    HW221267   6.426   3.766   4.118
 6790SOL     OW21268   0.798   4.957   5.423
 6790SOL    HW121269   0.842   4.927   5.507
 6790SOL    HW221270   0.820   5.053   5.406
 6791SOL     OW21271   3.801   0.752   4.169
 6791SOL    HW121272   3.881   0.807   4.146
 6791SOL    HW221273   3.810   0.718   4.263
 6792SOL     OW21274   4.291   0.357   5.680
 6792SOL    HW121275   4.225   0.349   5.756
 6792SOL    HW221276   4.246   0.332   5.594
 6793SOL     OW21277   2.247   3.289   0.664
 6793SOL    HW121278   2.280   3.299   0.570
 6793SOL    HW221279   2.149   3.309   0.667
 6794SOL     OW21280   4.586   1.440   5.949
 6794SOL    HW121281   4.686   1.444   5.942
 6794SOL    HW221282   4.558   1.452   6.044
 6795SOL     OW21283   0.848   0.930   1.065
 6795SOL    HW121284   0.872   1.022   1.032
 6795SOL    HW221285   0.834   0.869   0.987
 6796SOL     OW21286   6.037   1.384   2.631
 6796SOL    HW121287   6.092   1.450   2.682
 6796SOL    HW221288   6.087   1.354   2.550
 6797SOL     OW21289   0.426   2.540   1.652
 6797SOL    HW121290   0.444   2.535   1.554
 6797SOL    HW221291   0.335   2.578   1.668
 6798SOL     OW21292   5.308   0.262   1.777
 6798SOL    HW121293   5.321   0.361   1.778
 6798SOL    HW221294   5.284   0.230   1.869
 6799SOL     OW21295   5.482   0.910   3.504
 6799SOL    HW121296   5.541   0.830   3.515
 6799SOL    HW221297   5.404   0.904   3.566
 6800SOL     OW21298   6.923   1.678   0.987
 6800SOL    HW121299   6.862   1.682   1.066
 6800SOL    HW221300   6.988   1.603   0.999
 6801SOL     OW21301   0.463   5.721   5.593
 6801SOL    HW121302   0.447   5.691   5.687
 6801SOL    HW221303   0.551   5.685   5.561
 6802SOL     OW21304   3.094   5.044   1.587
 6802SOL    HW121305   3.077   5.021   1.683
 6802SOL    HW221306   3.060   4.971   1.529
 6803SOL     OW21307   5.138   4.545   5.577
 6803SOL    HW121308   5.057   4.576   5.528
 6803SOL    HW221309   5.220   4.580   5.532
 6804SOL     OW21310   3.266   4.939   3.071
 6804SOL    HW121311   3.222   4.912   3.156
 6804SOL    HW221312   3.198   4.950   2.999
 6805SOL     OW21313   7.006   4.201   5.448
 6805SOL    HW121314   7.012   4.248   5.360
 6805SOL    HW221315   0.066   4.215   5.500
 6806SOL     OW21316   6.624   1.183   2.638
 6806SOL    HW121317   6.536   1.180   2.591
 6806SOL    HW221318   6.633   1.104   2.698
 6807SOL     OW21319   3.669   3.615   1.730
 6807SOL    HW121320   3.592   3.571   1.684
 6807SOL    HW221321   3.646   3.630   1.826
 6808SOL     OW21322   3.871   1.200   4.686
 6808SOL    HW121323   3.869   1.146   4.601
 6808SOL    HW221324   3.908   1.291   4.667
 6809SOL     OW21325   5.567   3.415   2.094
 6809SOL    HW121326   5.504   3.446   2.023
 6809SOL    HW221327   5.517   3.361   2.162
 6810SOL     OW21328   2.833   0.895   4.214
 6810SOL    HW121329   2.766   0.968   4.204
 6810SOL    HW221330   2.848   0.876   4.311
 6811SOL     OW21331   6.532   1.484   1.455
 6811SOL    HW121332   6.467   1.541   1.404
 6811SOL    HW221333   6.562   1.408   1.396
 6812SOL     OW21334   3.114   4.125   5.209
 6812SOL    HW121335   3.126   4.124   5.110
 6812SOL    HW221336   3.175   4.057   5.251
 6813SOL     OW21337   5.917   3.929   1.995
 6813SOL    HW121338   5.854   4.000   2.026
 6813SOL    HW221339   5.966   3.891   2.073
 6814SOL     OW21340   5.141   1.169   6.474
 6814SOL    HW121341   5.143   1.070   6.458
 6814SOL    HW221342   5.053   1.206   6.445
 6815SOL     OW21343   2.216   4.965   6.345
 6815SOL    HW121344   2.119   4.956   6.371
 6815SOL    HW221345   2.244   4.884   6.294
 6816SOL     OW21346   0.615   1.600   3.257
 6816SOL    HW121347   0.702   1.552   3.268
 6816SOL    HW221348   0.595   1.653   3.339
 6817SOL     OW21349   3.535   2.026   2.108
 6817SOL    HW121350   3.553   2.040   2.205
 6817SOL    HW221351   3.579   2.099   2.055
 6818SOL     OW21352   1.851   6.709   5.890
 6818SOL    HW121353   1.898   6.620   5.886
 6818SOL    HW221354   1.753   6.695   5.872
 6819SOL     OW21355   4.506   4.538   2.060
 6819SOL    HW121356   4.490   4.575   1.969
 6819SOL    HW221357   4.516   4.439   2.055
 6820SOL     OW21358   2.914   5.954   1.161
 6820SOL    HW121359   2.914   6.037   1.217
 6820SOL    HW221360   2.941   5.978   1.068
 6821SOL     OW21361   4.072   2.581   5.441
 6821SOL    HW121362   4.113   2.558   5.354
 6821SOL    HW221363   3.974   2.601   5.428
 6822SOL     OW21364   6.681   2.774   6.387
 6822SOL    HW121365   6.595   2.824   6.374
 6822SOL    HW221366   6.737   2.820   6.456
 6823SOL     OW21367   5.978   3.649   6.740
 6823SOL    HW121368   6.063   3.656   6.793
 6823SOL    HW221369   5.953   3.553   6.730
 6824SOL     OW21370   0.494   2.519   6.146
 6824SOL    HW121371   0.580   2.501   6.098
 6824SOL    HW221372   0.512   2.573   6.228
 6825SOL     OW21373   6.237   5.832   1.872
 6825SOL    HW121374   6.139   5.815   1.883
 6825SOL    HW221375   6.288   5.748   1.891
 6826SOL     OW21376   0.149   3.642   3.297
 6826SOL    HW121377   0.201   3.715   3.340
 6826SOL    HW221378   0.206   3.560   3.291
 6827SOL     OW21379   4.857   5.695   5.077
 6827SOL    HW121380   4.851   5.774   5.137
 6827SOL    HW221381   4.770   5.645   5.078
 6828SOL     OW21382   3.122   1.500   2.170
 6828SOL    HW121383   3.200   1.437   2.173
 6828SOL    HW221384   3.155   1.593   2.181
 6829SOL     OW21385   5.019   0.034   4.817
 6829SOL    HW121386   5.018   7.023   4.723
 6829SOL    HW221387   4.941   7.022   4.867
 6830SOL     OW21388   5.473   6.757   3.284
 6830SOL    HW121389   5.561   6.719   3.254
 6830SOL    HW221390   5.468   6.853   3.257
 6831SOL     OW21391   1.313   1.660   6.341
 6831SOL    HW121392   1.339   1.748   6.301
 6831SOL    HW221393   1.342   1.586   6.281
 6832SOL     OW21394   3.024   2.597   0.568
 6832SOL    HW121395   3.014   2.595   0.469
 6832SOL    HW221396   3.120   2.586   0.592
 6833SOL     OW21397   2.900   5.122   6.066
 6833SOL    HW121398   2.948   5.059   6.004
 6833SOL    HW221399   2.908   5.089   6.160
 6834SOL     OW21400   5.506   0.377   0.785
 6834SOL    HW121401   5.558   0.319   0.847
 6834SOL    HW221402   5.434   0.424   0.837
 6835SOL     OW21403   2.813   1.914   4.336
 6835SOL    HW121404   2.860   1.973   4.401
 6835SOL    HW221405   2.809   1.958   4.247
 6836SOL     OW21406   1.958   4.699   6.248
 6836SOL    HW121407   1.932   4.768   6.315
 6836SOL    HW221408   1.878   4.646   6.221
 6837SOL     OW21409   0.374   0.439   1.820
 6837SOL    HW121410   0.319   0.447   1.903
 6837SOL    HW221411   0.348   0.511   1.755
 6838SOL     OW21412   3.064   4.391   5.308
 6838SOL    HW121413   3.070   4.296   5.277
 6838SOL    HW221414   2.992   4.438   5.257
 6839SOL     OW21415   5.750   2.581   3.965
 6839SOL    HW121416   5.674   2.630   3.922
 6839SOL    HW221417   5.715   2.517   4.033
 6840SOL     OW21418   2.704   6.894   5.159
 6840SOL    HW121419   2.698   6.821   5.227
 6840SOL    HW221420   2.707   6.855   5.067
 6841SOL     OW21421   3.926   5.517   1.415
 6841SOL    HW121422   3.875   5.585   1.362
 6841SOL    HW221423   3.946   5.438   1.358
 6842SOL     OW21424   0.429   4.362   6.771
 6842SOL    HW121425   0.506   4.413   6.732
 6842SOL    HW221426   0.434   4.267   6.742
 6843SOL     OW21427   3.110   1.787   2.188
 6843SOL    HW121428   3.025   1.799   2.138
 6843SOL    HW221429   3.183   1.838   2.143
 6844SOL     OW21430   4.899   4.954   4.328
 6844SOL    HW121431   4.868   5.014   4.254
 6844SOL    HW221432   4.930   5.010   4.405
 6845SOL     OW21433   4.779   4.610   2.023
 6845SOL    HW121434   4.757   4.689   1.966
 6845SOL    HW221435   4.695   4.561   2.047
 6846SOL     OW21436   3.639   2.990   2.597
 6846SOL    HW121437   3.573   3.027   2.531
 6846SOL    HW221438   3.715   2.948   2.547
 6847SOL     OW21439   5.701   3.217   1.881
 6847SOL    HW121440   5.773   3.147   1.888
 6847SOL    HW221441   5.679   3.253   1.972
 6848SOL     OW21442   1.173   5.981   3.646
 6848SOL    HW121443   1.142   5.985   3.742
 6848SOL    HW221444   1.196   5.887   3.623
 6849SOL     OW21445   3.820   5.981   4.116
 6849SOL    HW121446   3.919   5.984   4.103
 6849SOL    HW221447   3.791   6.062   4.168
 6850SOL     OW21448   5.169   2.871   2.890
 6850SOL    HW121449   5.191   2.816   2.971
 6850SOL    HW221450   5.223   2.840   2.812
 6851SOL     OW21451   1.522   5.102   5.752
 6851SOL    HW121452   1.452   5.068   5.815
 6851SOL    HW221453   1.600   5.039   5.751
 6852SOL     OW21454   1.430   4.639   1.676
 6852SOL    HW121455   1.393   4.712   1.618
 6852SOL    HW221456   1.412   4.551   1.634
 6853SOL     OW21457   0.774   4.580   5.529
 6853SOL    HW121458   0.789   4.534   5.442
 6853SOL    HW221459   0.683   4.621   5.530
 6854SOL     OW21460   6.946   2.977   6.283
 6854SOL    HW121461   6.934   2.883   6.254
 6854SOL    HW221462   6.898   2.993   6.370
 6855SOL     OW21463   3.018   6.889   2.432
 6855SOL    HW121464   3.086   6.926   2.369
 6855SOL    HW221465   2.979   6.805   2.395
 6856SOL     OW21466   6.092   3.600   4.859
 6856SOL    HW121467   6.094   3.611   4.958
 6856SOL    HW221468   6.108   3.689   4.816
 6857SOL     OW21469   3.060   2.382   6.401
 6857SOL    HW121470   3.021   2.366   6.311
 6857SOL    HW221471   3.099   2.296   6.436
 6858SOL     OW21472   3.870   3.213   4.935
 6858SOL    HW121473   3.950   3.255   4.891
 6858SOL    HW221474   3.898   3.172   5.022
 6859SOL     OW21475   3.134   6.935   0.754
 6859SOL    HW121476   3.181   6.850   0.732
 6859SOL    HW221477   3.041   6.915   0.785
 6860SOL     OW21478   5.907   4.332   0.615
 6860SOL    HW121479   5.912   4.430   0.632
 6860SOL    HW221480   5.980   4.286   0.666
 6861SOL     OW21481   5.761   5.558   6.901
 6861SOL    HW121482   5.748   5.632   6.967
 6861SOL    HW221483   5.856   5.526   6.905
 6862SOL     OW21484   3.411   5.652   4.976
 6862SOL    HW121485   3.465   5.582   5.022
 6862SOL    HW221486   3.348   5.609   4.912
 6863SOL     OW21487   5.837   1.885   4.125
 6863SOL    HW121488   5.778   1.805   4.113
 6863SOL    HW221489   5.930   1.855   4.149
 6864SOL     OW21490   3.043   6.128   4.207
 6864SOL    HW121491   3.079   6.058   4.269
 6864SOL    HW221492   3.099   6.134   4.125
 6865SOL     OW21493   6.790   4.404   4.373
 6865SOL    HW121494   6.886   4.388   4.349
 6865SOL    HW221495   6.738   4.320   4.358
 6866SOL     OW21496   6.675   3.612   1.728
 6866SOL    HW121497   6.698   3.709   1.734
 6866SOL    HW221498   6.577   3.601   1.743
 6867SOL     OW21499   2.280   4.072   2.253
 6867SOL    HW121500   2.368   4.031   2.228
 6867SOL    HW221501   2.238   4.112   2.172
 6868SOL     OW21502   2.171   6.188   4.841
 6868SOL    HW121503   2.193   6.275   4.887
 6868SOL    HW221504   2.077   6.193   4.806
 6869SOL     OW21505   5.389   1.951   5.661
 6869SOL    HW121506   5.303   1.985   5.622
 6869SOL    HW221507   5.408   1.860   5.623
 6870SOL     OW21508   5.487   3.901   3.172
 6870SOL    HW121509   5.533   3.832   3.116
 6870SOL    HW221510   5.457   3.860   3.257
 6871SOL     OW21511   5.223   5.529   1.350
 6871SOL    HW121512   5.177   5.442   1.333
 6871SOL    HW221513   5.265   5.527   1.441
 6872SOL     OW21514   2.001   2.905   0.306
 6872SOL    HW121515   2.013   2.898   0.207
 6872SOL    HW221516   1.929   2.971   0.326
 6873SOL     OW21517   6.288   3.147   6.212
 6873SOL    HW121518   6.359   3.148   6.142
 6873SOL    HW221519   6.209   3.094   6.179
 6874SOL     OW21520   0.213   2.971   3.808
 6874SOL    HW121521   0.172   2.888   3.770
 6874SOL    HW221522   0.216   3.042   3.737
 6875SOL     OW21523   1.817   1.083   2.580
 6875SOL    HW121524   1.799   1.178   2.553
 6875SOL    HW221525   1.739   1.047   2.630
 6876SOL     OW21526   3.673   5.814   0.312
 6876SOL    HW121527   3.730   5.761   0.250
 6876SOL    HW221528   3.705   5.800   0.406
 6877SOL     OW21529   2.350   3.662   0.123
 6877SOL    HW121530   2.362   3.730   0.050
 6877SOL    HW221531   2.300   3.704   0.198
 6878SOL     OW21532   2.277   1.591   4.886
 6878SOL    HW121533   2.179   1.607   4.870
 6878SOL    HW221534   2.315   1.666   4.940
 6879SOL     OW21535   0.854   2.135   0.054
 6879SOL    HW121536   0.838   2.043   0.019
 6879SOL    HW221537   0.952   2.156   0.050
 6880SOL     OW21538   2.146   4.393   4.704
 6880SOL    HW121539   2.057   4.439   4.697
 6880SOL    HW221540   2.132   4.298   4.731
 6881SOL     OW21541   0.674   4.647   1.372
 6881SOL    HW121542   0.711   4.558   1.398
 6881SOL    HW221543   0.612   4.636   1.294
 6882SOL     OW21544   2.094   0.932   5.574
 6882SOL    HW121545   2.047   0.953   5.488
 6882SOL    HW221546   2.145   0.847   5.565
 6883SOL     OW21547   4.404   0.396   1.681
 6883SOL    HW121548   4.311   0.421   1.710
 6883SOL    HW221549   4.455   0.363   1.761
 6884SOL     OW21550   2.534   4.558   4.601
 6884SOL    HW121551   2.580   4.593   4.683
 6884SOL    HW221552   2.436   4.574   4.608
 6885SOL     OW21553   3.294   6.022   4.098
 6885SOL    HW121554   3.242   5.938   4.080
 6885SOL    HW221555   3.312   6.069   4.011
 6886SOL     OW21556   5.400   1.179   2.568
 6886SOL    HW121557   5.409   1.084   2.536
 6886SOL    HW221558   5.440   1.241   2.500
 6887SOL     OW21559   5.790   0.557   4.644
 6887SOL    HW121560   5.813   0.463   4.671
 6887SOL    HW221561   5.793   0.616   4.725
 6888SOL     OW21562   6.402   0.278   4.932
 6888SOL    HW121563   6.356   0.226   5.004
 6888SOL    HW221564   6.483   0.324   4.970
 6889SOL     OW21565   1.596   4.338   5.963
 6889SOL    HW121566   1.607   4.422   6.016
 6889SOL    HW221567   1.612   4.356   5.866
 6890SOL     OW21568   2.192   6.508   1.139
 6890SOL    HW121569   2.181   6.419   1.096
 6890SOL    HW221570   2.211   6.496   1.237
 6891SOL     OW21571   2.172   3.516   4.017
 6891SOL    HW121572   2.170   3.615   4.000
 6891SOL    HW221573   2.108   3.470   3.956
 6892SOL     OW21574   3.233   0.011   4.279
 6892SOL    HW121575   3.249   6.997   4.188
 6892SOL    HW221576   3.314   0.060   4.309
 6893SOL     OW21577   4.839   5.703   3.120
 6893SOL    HW121578   4.778   5.720   3.198
 6893SOL    HW221579   4.873   5.790   3.084
 6894SOL     OW21580   5.559   5.749   0.298
 6894SOL    HW121581   5.479   5.784   0.251
 6894SOL    HW221582   5.628   5.821   0.305
 6895SOL     OW21583   3.069   3.843   0.022
 6895SOL    HW121584   3.052   3.759   6.994
 6895SOL    HW221585   3.168   3.855   0.033
 6896SOL     OW21586   3.591   0.491   3.304
 6896SOL    HW121587   3.633   0.582   3.310
 6896SOL    HW221588   3.625   0.445   3.221
 6897SOL     OW21589   3.429   3.698   0.199
 6897SOL    HW121590   3.463   3.656   0.283
 6897SOL    HW221591   3.436   3.633   0.123
 6898SOL     OW21592   3.869   1.556   1.510
 6898SOL    HW121593   3.914   1.549   1.421
 6898SOL    HW221594   3.809   1.636   1.511
 6899SOL     OW21595   4.812   6.884   6.165
 6899SOL    HW121596   4.838   6.948   6.093
 6899SOL    HW221597   4.715   6.861   6.156
 6900SOL     OW21598   5.566   0.462   6.218
 6900SOL    HW121599   5.514   0.476   6.302
 6900SOL    HW221600   5.664   0.463   6.239
 6901SOL     OW21601   2.127   0.337   6.083
 6901SOL    HW121602   2.100   0.428   6.114
 6901SOL    HW221603   2.146   0.340   5.985
 6902SOL     OW21604   0.705   6.296   6.825
 6902SOL    HW121605   0.683   6.388   6.858
 6902SOL    HW221606   0.803   6.292   6.804
 6903SOL     OW21607   3.735   4.536   0.665
 6903SOL    HW121608   3.648   4.505   0.626
 6903SOL    HW221609   3.748   4.495   0.755
 6904SOL     OW21610   6.118   0.853   3.862
 6904SOL    HW121611   6.034   0.893   3.899
 6904SOL    HW221612   6.132   0.886   3.769
 6905SOL     OW21613   5.928   6.434   0.745
 6905SOL    HW121614   5.896   6.476   0.660
 6905SOL    HW221615   5.995   6.494   0.788
 6906SOL     OW21616   3.563   0.979   3.443
 6906SOL    HW121617   3.541   1.073   3.469
 6906SOL    HW221618   3.564   0.921   3.524
 6907SOL     OW21619   3.610   0.953   1.565
 6907SOL    HW121620   3.542   0.885   1.536
 6907SOL    HW221621   3.661   0.917   1.643
 6908SOL     OW21622   1.091   6.654   5.627
 6908SOL    HW121623   1.048   6.671   5.539
 6908SOL    HW221624   1.088   6.557   5.648
 6909SOL     OW21625   4.938   4.581   0.794
 6909SOL    HW121626   4.877   4.507   0.764
 6909SOL    HW221627   5.030   4.545   0.808
 6910SOL     OW21628   6.370   1.480   1.816
 6910SOL    HW121629   6.310   1.466   1.894
 6910SOL    HW221630   6.458   1.517   1.847
 6911SOL     OW21631   4.189   0.155   4.394
 6911SOL    HW121632   4.144   0.245   4.396
 6911SOL    HW221633   4.119   0.084   4.397
 6912SOL     OW21634   4.727   4.820   0.774
 6912SOL    HW121635   4.819   4.790   0.799
 6912SOL    HW221636   4.727   4.920   0.766
 6913SOL     OW21637   5.220   4.921   4.805
 6913SOL    HW121638   5.216   4.917   4.705
 6913SOL    HW221639   5.268   5.005   4.832
 6914SOL     OW21640   6.001   5.239   0.244
 6914SOL    HW121641   6.071   5.252   0.174
 6914SOL    HW221642   5.915   5.279   0.213
 6915SOL     OW21643   0.307   4.467   3.028
 6915SOL    HW121644   0.319   4.517   3.114
 6915SOL    HW221645   0.349   4.377   3.035
 6916SOL     OW21646   6.304   3.947   6.999
 6916SOL    HW121647   6.291   3.852   0.003
 6916SOL    HW221648   6.388   3.954   6.945
 6917SOL     OW21649   4.429   6.297   6.138
 6917SOL    HW121650   4.481   6.253   6.065
 6917SOL    HW221651   4.417   6.233   6.213
 6918SOL     OW21652   0.283   4.078   4.000
 6918SOL    HW121653   0.187   4.054   3.986
 6918SOL    HW221654   0.289   4.163   4.053
 6919SOL     OW21655   2.224   6.552   2.486
 6919SOL    HW121656   2.307   6.596   2.522
 6919SOL    HW221657   2.171   6.514   2.562
 6920SOL     OW21658   5.432   5.489   4.796
 6920SOL    HW121659   5.458   5.412   4.855
 6920SOL    HW221660   5.507   5.510   4.734
 6921SOL     OW21661   6.516   6.960   3.698
 6921SOL    HW121662   6.555   6.874   3.664
 6921SOL    HW221663   6.561   6.984   3.784
 6922SOL     OW21664   2.711   6.204   0.758
 6922SOL    HW121665   2.779   6.277   0.764
 6922SOL    HW221666   2.752   6.123   0.716
 6923SOL     OW21667   4.495   0.058   4.139
 6923SOL    HW121668   4.588   0.079   4.171
 6923SOL    HW221669   4.500   0.015   4.049
 6924SOL     OW21670   0.487   4.982   1.188
 6924SOL    HW121671   0.458   5.064   1.138
 6924SOL    HW221672   0.416   4.912   1.181
 6925SOL     OW21673   4.511   6.646   3.425
 6925SOL    HW121674   4.446   6.629   3.351
 6925SOL    HW221675   4.528   6.560   3.475
 6926SOL     OW21676   3.587   4.003   3.971
 6926SOL    HW121677   3.594   3.917   4.022
 6926SOL    HW221678   3.503   4.003   3.917
 6927SOL     OW21679   5.217   3.490   6.404
 6927SOL    HW121680   5.190   3.475   6.499
 6927SOL    HW221681   5.195   3.584   6.378
 6928SOL     OW21682   4.683   0.777   6.658
 6928SOL    HW121683   4.714   0.861   6.613
 6928SOL    HW221684   4.705   0.781   6.756
 6929SOL     OW21685   3.984   6.088   0.182
 6929SOL    HW121686   3.951   6.181   0.172
 6929SOL    HW221687   4.038   6.062   0.102
 6930SOL     OW21688   0.780   6.762   1.753
 6930SOL    HW121689   0.749   6.704   1.678
 6930SOL    HW221690   0.848   6.713   1.807
 6931SOL     OW21691   1.217   6.924   1.656
 6931SOL    HW121692   1.120   6.932   1.680
 6931SOL    HW221693   1.231   6.961   1.564
 6932SOL     OW21694   2.816   1.025   0.043
 6932SOL    HW121695   2.777   1.057   6.981
 6932SOL    HW221696   2.859   1.102   0.090
 6933SOL     OW21697   4.084   5.701   5.903
 6933SOL    HW121698   4.042   5.788   5.931
 6933SOL    HW221699   4.128   5.713   5.814
 6934SOL     OW21700   4.893   2.904   0.311
 6934SOL    HW121701   4.979   2.855   0.324
 6934SOL    HW221702   4.864   2.945   0.398
 6935SOL     OW21703   4.295   6.725   3.665
 6935SOL    HW121704   4.390   6.731   3.695
 6935SOL    HW221705   4.254   6.640   3.699
 6936SOL     OW21706   0.389   2.971   1.461
 6936SOL    HW121707   0.416   3.047   1.519
 6936SOL    HW221708   0.327   3.003   1.390
 6937SOL     OW21709   4.193   6.568   5.850
 6937SOL    HW121710   4.219   6.575   5.947
 6937SOL    HW221711   4.096   6.544   5.843
 6938SOL     OW21712   4.884   3.195   5.129
 6938SOL    HW121713   4.802   3.164   5.178
 6938SOL    HW221714   4.962   3.140   5.157
 6939SOL     OW21715   0.156   4.381   2.053
 6939SOL    HW121716   0.112   4.346   1.970
 6939SOL    HW221717   0.158   4.309   2.122
 6940SOL     OW21718   4.750   0.483   6.192
 6940SOL    HW121719   4.768   0.434   6.106
 6940SOL    HW221720   4.723   0.577   6.171
 6941SOL     OW21721   3.737   2.963   3.109
 6941SOL    HW121722   3.678   2.885   3.130
 6941SOL    HW221723   3.716   2.998   3.017
 6942SOL     OW21724   6.689   3.363   0.559
 6942SOL    HW121725   6.781   3.400   0.555
 6942SOL    HW221726   6.682   3.284   0.498
 6943SOL     OW21727   5.388   6.463   6.203
 6943SOL    HW121728   5.480   6.487   6.170
 6943SOL    HW221729   5.357   6.381   6.155
 6944SOL     OW21730   0.879   5.331   6.180
 6944SOL    HW121731   0.926   5.359   6.096
 6944SOL    HW221732   0.850   5.413   6.231
 6945SOL     OW21733   6.266   2.756   6.350
 6945SOL    HW121734   6.184   2.775   6.405
 6945SOL    HW221735   6.336   2.824   6.371
 6946SOL     OW21736   5.883   4.137   2.662
 6946SOL    HW121737   5.824   4.217   2.672
 6946SOL    HW221738   5.833   4.054   2.686
 6947SOL     OW21739   3.631   6.970   2.588
 6947SOL    HW121740   3.633   0.044   2.606
 6947SOL    HW221741   3.719   6.940   2.552
 6948SOL     OW21742   4.790   0.611   0.389
 6948SOL    HW121743   4.845   0.534   0.357
 6948SOL    HW221744   4.703   0.577   0.426
 6949SOL     OW21745   5.298   6.557   3.131
 6949SOL    HW121746   5.248   6.600   3.056
 6949SOL    HW221747   5.326   6.627   3.197
 6950SOL     OW21748   1.921   1.113   2.948
 6950SOL    HW121749   1.999   1.162   2.987
 6950SOL    HW221750   1.954   1.038   2.889
 6951SOL     OW21751   6.452   6.095   5.650
 6951SOL    HW121752   6.418   6.002   5.636
 6951SOL    HW221753   6.442   6.120   5.746
 6952SOL     OW21754   0.653   5.571   4.128
 6952SOL    HW121755   0.660   5.541   4.224
 6952SOL    HW221756   0.741   5.557   4.082
 6953SOL     OW21757   4.869   1.190   6.133
 6953SOL    HW121758   4.911   1.107   6.169
 6953SOL    HW221759   4.876   1.190   6.033
 6954SOL     OW21760   6.779   2.912   4.286
 6954SOL    HW121761   6.867   2.865   4.288
 6954SOL    HW221762   6.753   2.931   4.192
 6955SOL     OW21763   0.403   6.026   1.284
 6955SOL    HW121764   0.487   6.031   1.231
 6955SOL    HW221765   0.369   5.932   1.283
 6956SOL     OW21766   4.467   5.404   1.850
 6956SOL    HW121767   4.453   5.305   1.850
 6956SOL    HW221768   4.529   5.430   1.924
 6957SOL     OW21769   6.897   4.637   1.669
 6957SOL    HW121770   6.874   4.635   1.766
 6957SOL    HW221771   6.997   4.639   1.658
 6958SOL     OW21772   2.181   2.806   6.317
 6958SOL    HW121773   2.235   2.890   6.316
 6958SOL    HW221774   2.179   2.766   6.225
 6959SOL     OW21775   3.329   1.433   4.964
 6959SOL    HW121776   3.356   1.421   4.868
 6959SOL    HW221777   3.237   1.472   4.968
 6960SOL     OW21778   0.054   5.011   0.323
 6960SOL    HW121779   0.047   5.017   0.224
 6960SOL    HW221780   6.999   4.961   0.359
 6961SOL     OW21781   1.184   1.952   3.391
 6961SOL    HW121782   1.109   1.960   3.326
 6961SOL    HW221783   1.264   1.913   3.345
 6962SOL     OW21784   4.948   5.253   2.104
 6962SOL    HW121785   5.018   5.225   2.169
 6962SOL    HW221786   4.881   5.312   2.149
 6963SOL     OW21787   0.881   5.129   1.889
 6963SOL    HW121788   0.809   5.062   1.909
 6963SOL    HW221789   0.847   5.196   1.823
 6964SOL     OW21790   4.493   5.434   5.404
 6964SOL    HW121791   4.589   5.452   5.425
 6964SOL    HW221792   4.488   5.369   5.328
 6965SOL     OW21793   6.304   3.553   6.205
 6965SOL    HW121794   6.371   3.529   6.276
 6965SOL    HW221795   6.341   3.530   6.115
 6966SOL     OW21796   4.881   2.399   2.909
 6966SOL    HW121797   4.820   2.352   2.846
 6966SOL    HW221798   4.854   2.495   2.918
 6967SOL     OW21799   1.020   2.364   6.016
 6967SOL    HW121800   0.933   2.319   5.999
 6967SOL    HW221801   1.010   2.431   6.090
 6968SOL     OW21802   4.228   5.717   1.355
 6968SOL    HW121803   4.176   5.635   1.382
 6968SOL    HW221804   4.298   5.736   1.425
 6969SOL     OW21805   3.615   1.281   1.180
 6969SOL    HW121806   3.669   1.362   1.157
 6969SOL    HW221807   3.636   1.252   1.273
 6970SOL     OW21808   3.631   4.787   0.711
 6970SOL    HW121809   3.657   4.692   0.697
 6970SOL    HW221810   3.540   4.804   0.674
 6971SOL     OW21811   6.241   2.565   1.656
 6971SOL    HW121812   6.331   2.606   1.666
 6971SOL    HW221813   6.177   2.608   1.720
 6972SOL     OW21814   5.409   4.475   3.965
 6972SOL    HW121815   5.495   4.478   4.017
 6972SOL    HW221816   5.393   4.381   3.934
 6973SOL     OW21817   1.821   5.181   4.374
 6973SOL    HW121818   1.877   5.099   4.376
 6973SOL    HW221819   1.775   5.193   4.462
 6974SOL     OW21820   3.496   4.099   3.691
 6974SOL    HW121821   3.591   4.111   3.718
 6974SOL    HW221822   3.491   4.044   3.608
 6975SOL     OW21823   3.503   0.653   5.980
 6975SOL    HW121824   3.423   0.712   5.971
 6975SOL    HW221825   3.490   0.571   5.924
 6976SOL     OW21826   2.878   4.679   6.857
 6976SOL    HW121827   2.798   4.671   6.797
 6976SOL    HW221828   2.913   4.773   6.853
 6977SOL     OW21829   4.086   1.566   2.279
 6977SOL    HW121830   4.075   1.607   2.369
 6977SOL    HW221831   4.038   1.478   2.276
 6978SOL     OW21832   7.011   0.792   1.896
 6978SOL    HW121833   0.035   0.709   1.921
 6978SOL    HW221834   6.922   0.769   1.857
 6979SOL     OW21835   0.856   4.714   2.493
 6979SOL    HW121836   0.841   4.723   2.591
 6979SOL    HW221837   0.908   4.792   2.460
 6980SOL     OW21838   2.224   1.160   3.348
 6980SOL    HW121839   2.286   1.169   3.270
 6980SOL    HW221840   2.132   1.136   3.315
 6981SOL     OW21841   2.659   3.926   0.025
 6981SOL    HW121842   2.726   3.979   6.997
 6981SOL    HW221843   2.648   3.965   0.116
 6982SOL     OW21844   1.136   0.761   4.071
 6982SOL    HW121845   1.091   0.754   3.982
 6982SOL    HW221846   1.220   0.706   4.070
 6983SOL     OW21847   6.849   0.374   4.475
 6983SOL    HW121848   6.948   0.384   4.491
 6983SOL    HW221849   6.834   0.316   4.395
 6984SOL     OW21850   1.735   1.875   5.327
 6984SOL    HW121851   1.762   1.828   5.243
 6984SOL    HW221852   1.817   1.913   5.371
 6985SOL     OW21853   3.869   5.895   2.227
 6985SOL    HW121854   3.875   5.988   2.264
 6985SOL    HW221855   3.775   5.862   2.236
 6986SOL     OW21856   1.741   6.306   5.747
 6986SOL    HW121857   1.676   6.238   5.780
 6986SOL    HW221858   1.692   6.384   5.707
 6987SOL     OW21859   6.955   2.726   6.191
 6987SOL    HW121860   6.902   2.675   6.123
 6987SOL    HW221861   0.023   2.741   6.155
 6988SOL     OW21862   5.240   1.364   4.306
 6988SOL    HW121863   5.319   1.406   4.351
 6988SOL    HW221864   5.160   1.371   4.367
 6989SOL     OW21865   1.005   1.258   3.340
 6989SOL    HW121866   1.048   1.209   3.264
 6989SOL    HW221867   1.073   1.313   3.387
 6990SOL     OW21868   4.707   2.739   0.068
 6990SOL    HW121869   4.770   2.745   0.146
 6990SOL    HW221870   4.625   2.690   0.096
 6991SOL     OW21871   2.441   4.466   5.454
 6991SOL    HW121872   2.539   4.482   5.444
 6991SOL    HW221873   2.426   4.370   5.478
 6992SOL     OW21874   6.045   6.314   4.647
 6992SOL    HW121875   6.119   6.306   4.580
 6992SOL    HW221876   6.084   6.327   4.738
 6993SOL     OW21877   6.802   0.227   3.410
 6993SOL    HW121878   6.847   0.226   3.321
 6993SOL    HW221879   6.723   0.166   3.409
 6994SOL     OW21880   1.490   3.442   5.672
 6994SOL    HW121881   1.572   3.390   5.695
 6994SOL    HW221882   1.483   3.523   5.730
 6995SOL     OW21883   5.896   5.710   4.945
 6995SOL    HW121884   5.881   5.809   4.948
 6995SOL    HW221885   5.941   5.687   4.859
 6996SOL     OW21886   2.787   1.111   5.316
 6996SOL    HW121887   2.866   1.140   5.261
 6996SOL    HW221888   2.727   1.189   5.332
 6997SOL     OW21889   5.038   6.057   4.693
 6997SOL    HW121890   5.037   6.144   4.743
 6997SOL    HW221891   5.132   6.029   4.677
 6998SOL     OW21892   1.423   2.469   1.556
 6998SOL    HW121893   1.486   2.477   1.633
 6998SOL    HW221894   1.378   2.557   1.540
 6999SOL     OW21895   2.034   2.025   5.942
 6999SOL    HW121896   2.123   2.070   5.937
 6999SOL    HW221897   2.027   1.974   6.028
 7000SOL     OW21898   0.522   6.084   2.711
 7000SOL    HW121899   0.484   5.991   2.713
 7000SOL    HW221900   0.517   6.124   2.802
 7001SOL     OW21901   2.428   2.528   5.464
 7001SOL    HW121902   2.432   2.626   5.480
 7001SOL    HW221903   2.373   2.485   5.535
 7002SOL     OW21904   2.248   5.017   3.978
 7002SOL    HW121905   2.203   5.088   4.032
 7002SOL    HW221906   2.336   4.995   4.018
 7003SOL     OW21907   3.026   0.017   0.300
 7003SOL    HW121908   3.023   0.112   0.268
 7003SOL    HW221909   2.935   7.013   0.328
 7004SOL     OW21910   2.099   4.284   1.874
 7004SOL    HW121911   2.127   4.330   1.789
 7004SOL    HW221912   2.137   4.333   1.952
 7005SOL     OW21913   6.102   6.088   6.180
 7005SOL    HW121914   6.094   6.060   6.084
 7005SOL    HW221915   6.101   6.007   6.238
 7006SOL     OW21916   4.794   3.953   4.814
 7006SOL    HW121917   4.749   3.951   4.903
 7006SOL    HW221918   4.851   3.872   4.803
 7007SOL     OW21919   5.156   6.619   2.894
 7007SOL    HW121920   5.236   6.563   2.869
 7007SOL    HW221921   5.073   6.566   2.881
 7008SOL     OW21922   2.372   5.450   4.537
 7008SOL    HW121923   2.312   5.386   4.584
 7008SOL    HW221924   2.318   5.509   4.477
 7009SOL     OW21925   6.282   5.664   2.492
 7009SOL    HW121926   6.269   5.724   2.413
 7009SOL    HW221927   6.378   5.662   2.517
 7010SOL     OW21928   3.368   4.658   6.026
 7010SOL    HW121929   3.380   4.753   6.053
 7010SOL    HW221930   3.353   4.601   6.106
 7011SOL     OW21931   2.331   6.834   5.529
 7011SOL    HW121932   2.370   6.848   5.438
 7011SOL    HW221933   2.247   6.780   5.522
 7012SOL     OW21934   0.851   0.055   2.038
 7012SOL    HW121935   0.837   7.013   2.112
 7012SOL    HW221936   0.947   0.079   2.032
 7013SOL     OW21937   1.244   0.026   1.423
 7013SOL    HW121938   1.182   0.090   1.377
 7013SOL    HW221939   1.319   0.002   1.361
 7014SOL     OW21940   3.541   4.538   0.921
 7014SOL    HW121941   3.483   4.611   0.886
 7014SOL    HW221942   3.555   4.550   1.020
 7015SOL     OW21943   5.255   3.182   2.509
 7015SOL    HW121944   5.208   3.095   2.495
 7015SOL    HW221945   5.347   3.165   2.544
 7016SOL     OW21946   4.501   5.142   1.983
 7016SOL    HW121947   4.453   5.148   2.071
 7016SOL    HW221948   4.459   5.071   1.927
 7017SOL     OW21949   3.092   1.747   3.442
 7017SOL    HW121950   3.121   1.689   3.366
 7017SOL    HW221951   2.994   1.734   3.459
 7018SOL     OW21952   0.154   4.212   4.834
 7018SOL    HW121953   0.135   4.230   4.737
 7018SOL    HW221954   0.071   4.230   4.887
 7019SOL     OW21955   2.112   4.640   6.714
 7019SOL    HW121956   2.032   4.675   6.664
 7019SOL    HW221957   2.096   4.650   6.812
 7020SOL     OW21958   5.954   0.090   0.243
 7020SOL    HW121959   5.898   0.156   0.294
 7020SOL    HW221960   6.012   0.138   0.177
 7021SOL     OW21961   2.529   1.375   4.650
 7021SOL    HW121962   2.527   1.326   4.737
 7021SOL    HW221963   2.554   1.312   4.577
 7022SOL     OW21964   5.396   3.274   0.997
 7022SOL    HW121965   5.314   3.277   0.939
 7022SOL    HW221966   5.429   3.367   1.011
 7023SOL     OW21967   6.053   2.579   2.503
 7023SOL    HW121968   6.137   2.527   2.513
 7023SOL    HW221969   5.991   2.531   2.441
 7024SOL     OW21970   1.710   6.121   6.387
 7024SOL    HW121971   1.675   6.030   6.407
 7024SOL    HW221972   1.794   6.137   6.438
 7025SOL     OW21973   2.699   2.176   6.785
 7025SOL    HW121974   2.780   2.129   6.749
 7025SOL    HW221975   2.617   2.134   6.746
 7026SOL     OW21976   3.340   1.349   2.160
 7026SOL    HW121977   3.331   1.256   2.124
 7026SOL    HW221978   3.407   1.349   2.235
 7027SOL     OW21979   4.141   5.418   3.716
 7027SOL    HW121980   4.135   5.420   3.616
 7027SOL    HW221981   4.092   5.497   3.754
 7028SOL     OW21982   4.829   6.953   3.748
 7028SOL    HW121983   4.763   6.941   3.674
 7028SOL    HW221984   4.806   0.012   3.799
 7029SOL     OW21985   3.554   6.496   0.080
 7029SOL    HW121986   3.551   6.461   7.011
 7029SOL    HW221987   3.478   6.458   0.132
 7030SOL     OW21988   0.377   3.915   5.366
 7030SOL    HW121989   0.428   3.989   5.410
 7030SOL    HW221990   0.301   3.887   5.426
 7031SOL     OW21991   2.261   5.880   4.202
 7031SOL    HW121992   2.229   5.806   4.142
 7031SOL    HW221993   2.351   5.911   4.171
 7032SOL     OW21994   4.467   6.989   2.928
 7032SOL    HW121995   4.461   6.994   3.027
 7032SOL    HW221996   4.387   0.007   2.887
 7033SOL     OW21997   6.794   1.061   3.979
 7033SOL    HW121998   6.698   1.081   3.999
 7033SOL    HW221999   6.840   1.145   3.949
 7034SOL     OW22000   4.698   0.083   2.841
 7034SOL    HW122001   4.680   0.138   2.760
 7034SOL    HW222002   4.616   0.031   2.865
 7035SOL     OW22003   0.624   6.317   2.636
 7035SOL    HW122004   0.659   6.331   2.543
 7035SOL    HW222005   0.573   6.231   2.641
 7036SOL     OW22006   6.974   5.582   2.014
 7036SOL    HW122007   6.939   5.659   1.962
 7036SOL    HW222008   6.935   5.582   2.105
 7037SOL     OW22009   0.579   6.172   5.357
 7037SOL    HW122010   0.521   6.197   5.280
 7037SOL    HW222011   0.605   6.076   5.349
 7038SOL     OW22012   1.035   4.109   3.258
 7038SOL    HW122013   1.004   4.021   3.294
 7038SOL    HW222014   0.993   4.125   3.168
 7039SOL     OW22015   3.871   0.174   6.832
 7039SOL    HW122016   3.832   0.086   6.860
 7039SOL    HW222017   3.958   0.158   6.785
 7040SOL     OW22018   4.715   2.818   5.937
 7040SOL    HW122019   4.696   2.845   6.031
 7040SOL    HW222020   4.629   2.806   5.887
 7041SOL     OW22021   1.388   1.114   3.023
 7041SOL    HW122022   1.365   1.143   2.930
 7041SOL    HW222023   1.485   1.132   3.041
 7042SOL     OW22024   4.935   5.487   6.265
 7042SOL    HW122025   4.955   5.478   6.168
 7042SOL    HW222026   4.996   5.556   6.306
 7043SOL     OW22027   1.677   2.990   3.257
 7043SOL    HW122028   1.697   2.901   3.216
 7043SOL    HW222029   1.671   3.060   3.186
 7044SOL     OW22030   4.552   4.978   2.466
 7044SOL    HW122031   4.585   5.070   2.486
 7044SOL    HW222032   4.453   4.981   2.451
 7045SOL     OW22033   4.811   6.629   1.123
 7045SOL    HW122034   4.864   6.711   1.099
 7045SOL    HW222035   4.738   6.616   1.055
 7046SOL     OW22036   3.716   0.872   5.018
 7046SOL    HW122037   3.660   0.790   5.033
 7046SOL    HW222038   3.769   0.860   4.934
 7047SOL     OW22039   0.777   2.086   3.449
 7047SOL    HW122040   0.691   2.094   3.399
 7047SOL    HW222041   0.784   1.994   3.489
 7048SOL     OW22042   0.873   6.075   1.245
 7048SOL    HW122043   0.894   6.143   1.315
 7048SOL    HW222044   0.941   6.080   1.172
 7049SOL     OW22045   1.846   0.916   0.862
 7049SOL    HW122046   1.840   0.899   0.764
 7049SOL    HW222047   1.942   0.917   0.891
 7050SOL     OW22048   3.516   4.159   4.538
 7050SOL    HW122049   3.615   4.177   4.535
 7050SOL    HW222050   3.489   4.112   4.455
 7051SOL     OW22051   6.814   0.797   1.133
 7051SOL    HW122052   6.759   0.773   1.213
 7051SOL    HW222053   6.827   0.896   1.129
 7052SOL     OW22054   6.816   2.125   4.546
 7052SOL    HW122055   6.865   2.207   4.574
 7052SOL    HW222056   6.871   2.044   4.566
 7053SOL     OW22057   0.402   3.744   6.189
 7053SOL    HW122058   0.492   3.715   6.224
 7053SOL    HW222059   0.340   3.761   6.266
 7054SOL     OW22060   6.753   6.447   1.323
 7054SOL    HW122061   6.724   6.351   1.313
 7054SOL    HW222062   6.715   6.501   1.247
 7055SOL     OW22063   4.514   0.364   5.847
 7055SOL    HW122064   4.547   0.270   5.856
 7055SOL    HW222065   4.457   0.371   5.765
 7056SOL     OW22066   5.655   4.640   3.030
 7056SOL    HW122067   5.699   4.711   3.085
 7056SOL    HW222068   5.652   4.554   3.081
 7057SOL     OW22069   0.053   4.324   4.339
 7057SOL    HW122070   0.080   4.418   4.358
 7057SOL    HW222071   0.085   4.265   4.413
 7058SOL     OW22072   0.312   5.752   4.738
 7058SOL    HW122073   0.387   5.687   4.736
 7058SOL    HW222074   0.297   5.790   4.647
 7059SOL     OW22075   0.405   0.175   1.711
 7059SOL    HW122076   0.311   0.141   1.709
 7059SOL    HW222077   0.406   0.267   1.750
 7060SOL     OW22078   3.109   0.368   1.369
 7060SOL    HW122079   3.028   0.316   1.340
 7060SOL    HW222080   3.098   0.397   1.464
 7061SOL     OW22081   0.171   1.756   2.988
 7061SOL    HW122082   0.190   1.658   2.990
 7061SOL    HW222083   0.161   1.790   3.082
 7062SOL     OW22084   5.721   1.907   5.468
 7062SOL    HW122085   5.661   1.896   5.389
 7062SOL    HW222086   5.764   1.820   5.489
 7063SOL     OW22087   1.619   5.893   1.043
 7063SOL    HW122088   1.678   5.847   0.977
 7063SOL    HW222089   1.526   5.898   1.007
 7064SOL     OW22090   4.257   2.147   1.572
 7064SOL    HW122091   4.178   2.175   1.517
 7064SOL    HW222092   4.339   2.191   1.536
 7065SOL     OW22093   4.563   4.317   1.445
 7065SOL    HW122094   4.600   4.277   1.528
 7065SOL    HW222095   4.566   4.250   1.371
 7066SOL     OW22096   3.657   0.853   0.498
 7066SOL    HW122097   3.584   0.845   0.566
 7066SOL    HW222098   3.707   0.766   0.492
 7067SOL     OW22099   0.968   4.009   5.491
 7067SOL    HW122100   0.914   3.968   5.564
 7067SOL    HW222101   0.938   4.103   5.476
 7068SOL     OW22102   0.781   2.840   3.293
 7068SOL    HW122103   0.735   2.821   3.380
 7068SOL    HW222104   0.739   2.784   3.221
 7069SOL     OW22105   6.534   3.617   5.263
 7069SOL    HW122106   6.532   3.714   5.285
 7069SOL    HW222107   6.457   3.571   5.307
 7070SOL     OW22108   6.278   4.994   5.260
 7070SOL    HW122109   6.281   4.928   5.335
 7070SOL    HW222110   6.365   5.043   5.256
 7071SOL     OW22111   1.088   6.308   5.015
 7071SOL    HW122112   1.092   6.388   5.075
 7071SOL    HW222113   0.993   6.279   5.004
 7072SOL     OW22114   6.552   6.262   6.002
 7072SOL    HW122115   6.506   6.343   6.038
 7072SOL    HW222116   6.596   6.283   5.915
 7073SOL     OW22117   6.862   1.010   5.400
 7073SOL    HW122118   6.848   1.101   5.362
 7073SOL    HW222119   6.791   0.990   5.467
 7074SOL     OW22120   3.086   2.983   2.045
 7074SOL    HW122121   3.012   2.927   2.081
 7074SOL    HW222122   3.154   2.924   2.000
 7075SOL     OW22123   1.819   6.014   4.614
 7075SOL    HW122124   1.780   6.001   4.523
 7075SOL    HW222125   1.904   5.963   4.621
 7076SOL     OW22126   3.065   2.068   6.880
 7076SOL    HW122127   3.023   2.055   6.790
 7076SOL    HW222128   3.142   2.005   6.890
 7077SOL     OW22129   2.168   5.435   5.399
 7077SOL    HW122130   2.080   5.414   5.356
 7077SOL    HW222131   2.156   5.510   5.465
 7078SOL     OW22132   6.160   6.741   2.698
 7078SOL    HW122133   6.163   6.691   2.784
 7078SOL    HW222134   6.125   6.681   2.626
 7079SOL     OW22135   6.888   5.992   5.503
 7079SOL    HW122136   6.879   5.919   5.570
 7079SOL    HW222137   6.868   5.956   5.412
 7080SOL     OW22138   4.328   2.398   3.581
 7080SOL    HW122139   4.396   2.427   3.513
 7080SOL    HW222140   4.252   2.353   3.534
 7081SOL     OW22141   3.435   1.345   5.196
 7081SOL    HW122142   3.518   1.393   5.226
 7081SOL    HW222143   3.400   1.388   5.113
 7082SOL     OW22144   5.402   0.872   0.004
 7082SOL    HW122145   5.447   0.828   6.950
 7082SOL    HW222146   5.457   0.856   0.086
 7083SOL     OW22147   2.813   1.329   6.731
 7083SOL    HW122148   2.727   1.285   6.706
 7083SOL    HW222149   2.837   1.396   6.660
 7084SOL     OW22150   6.945   6.599   5.244
 7084SOL    HW122151   0.013   6.625   5.215
 7084SOL    HW222152   6.942   6.589   5.343
 7085SOL     OW22153   2.335   2.214   2.900
 7085SOL    HW122154   2.346   2.226   2.802
 7085SOL    HW222155   2.425   2.216   2.944
 7086SOL     OW22156   5.496   0.936   6.214
 7086SOL    HW122157   5.548   0.873   6.158
 7086SOL    HW222158   5.484   0.897   6.306
 7087SOL     OW22159   1.027   2.868   4.574
 7087SOL    HW122160   1.090   2.924   4.521
 7087SOL    HW222161   1.043   2.771   4.553
 7088SOL     OW22162   4.770   2.817   4.249
 7088SOL    HW122163   4.850   2.777   4.293
 7088SOL    HW222164   4.743   2.761   4.171
 7089SOL     OW22165   3.542   2.586   6.032
 7089SOL    HW122166   3.578   2.598   6.125
 7089SOL    HW222167   3.445   2.565   6.037
 7090SOL     OW22168   1.812   1.367   5.670
 7090SOL    HW122169   1.751   1.317   5.608
 7090SOL    HW222170   1.907   1.343   5.649
 7091SOL     OW22171   0.256   1.190   6.471
 7091SOL    HW122172   0.248   1.247   6.389
 7091SOL    HW222173   0.196   1.225   6.543
 7092SOL     OW22174   4.288   3.656   0.246
 7092SOL    HW122175   4.211   3.597   0.223
 7092SOL    HW222176   4.294   3.730   0.180
 7093SOL     OW22177   3.557   4.142   4.244
 7093SOL    HW122178   3.645   4.141   4.290
 7093SOL    HW222179   3.566   4.099   4.154
 7094SOL     OW22180   0.412   6.825   5.472
 7094SOL    HW122181   0.335   6.778   5.516
 7094SOL    HW222182   0.493   6.766   5.477
 7095SOL     OW22183   1.875   2.995   6.813
 7095SOL    HW122184   1.788   3.037   6.839
 7095SOL    HW222185   1.950   3.054   6.841
 7096SOL     OW22186   5.211   2.480   3.443
 7096SOL    HW122187   5.117   2.476   3.407
 7096SOL    HW222188   5.233   2.395   3.489
 7097SOL     OW22189   6.805   0.498   2.031
 7097SOL    HW122190   6.840   0.470   1.941
 7097SOL    HW222191   6.705   0.498   2.029
 7098SOL     OW22192   1.547   6.034   4.912
 7098SOL    HW122193   1.565   5.950   4.860
 7098SOL    HW222194   1.536   6.111   4.849
 7099SOL     OW22195   1.364   1.174   4.968
 7099SOL    HW122196   1.447   1.123   4.988
 7099SOL    HW222197   1.292   1.110   4.940
 7100SOL     OW22198   4.810   4.023   1.074
 7100SOL    HW122199   4.722   4.051   1.111
 7100SOL    HW222200   4.814   3.923   1.067
 7101SOL     OW22201   3.008   0.299   4.753
 7101SOL    HW122202   2.974   0.329   4.663
 7101SOL    HW222203   3.004   0.199   4.759
 7102SOL     OW22204   4.486   1.094   0.924
 7102SOL    HW122205   4.392   1.084   0.956
 7102SOL    HW222206   4.505   1.190   0.905
 7103SOL     OW22207   3.693   5.744   6.588
 7103SOL    HW122208   3.741   5.663   6.621
 7103SOL    HW222209   3.598   5.743   6.621
 7104SOL     OW22210   1.541   3.180   3.685
 7104SOL    HW122211   1.499   3.154   3.598
 7104SOL    HW222212   1.641   3.173   3.676
 7105SOL     OW22213   3.468   3.191   4.726
 7105SOL    HW122214   3.493   3.275   4.774
 7105SOL    HW222215   3.501   3.112   4.778
 7106SOL     OW22216   3.907   3.099   4.228
 7106SOL    HW122217   3.894   3.059   4.138
 7106SOL    HW222218   3.851   3.051   4.295
 7107SOL     OW22219   2.613   0.837   0.155
 7107SOL    HW122220   2.668   0.805   0.078
 7107SOL    HW222221   2.642   0.929   0.180
 7108SOL     OW22222   4.046   6.489   1.532
 7108SOL    HW122223   3.982   6.537   1.592
 7108SOL    HW222224   4.139   6.518   1.553
 7109SOL     OW22225   3.567   6.903   6.008
 7109SOL    HW122226   3.656   6.914   5.965
 7109SOL    HW222227   3.565   6.816   6.058
 7110SOL     OW22228   5.207   5.284   3.942
 7110SOL    HW122229   5.239   5.250   3.854
 7110SOL    HW222230   5.251   5.234   4.016
 7111SOL     OW22231   1.620   3.253   4.414
 7111SOL    HW122232   1.664   3.340   4.393
 7111SOL    HW222233   1.545   3.238   4.350
 7112SOL     OW22234   1.940   5.634   4.392
 7112SOL    HW122235   1.882   5.576   4.335
 7112SOL    HW222236   1.914   5.730   4.380
 7113SOL     OW22237   4.043   3.964   4.871
 7113SOL    HW122238   4.129   4.010   4.893
 7113SOL    HW222239   4.030   3.886   4.932
 7114SOL     OW22240   4.057   0.186   1.868
 7114SOL    HW122241   4.152   0.189   1.898
 7114SOL    HW222242   4.051   0.218   1.773
 7115SOL     OW22243   5.178   2.078   1.386
 7115SOL    HW122244   5.159   2.156   1.326
 7115SOL    HW222245   5.181   2.108   1.481
 7116SOL     OW22246   5.576   4.292   3.765
 7116SOL    HW122247   5.520   4.247   3.834
 7116SOL    HW222248   5.665   4.247   3.759
 7117SOL     OW22249   0.132   6.518   3.927
 7117SOL    HW122250   0.152   6.585   3.998
 7117SOL    HW222251   0.103   6.432   3.969
 7118SOL     OW22252   5.336   3.763   1.002
 7118SOL    HW122253   5.390   3.679   1.005
 7118SOL    HW222254   5.347   3.812   1.088
 7119SOL     OW22255   5.459   0.810   3.196
 7119SOL    HW122256   5.425   0.884   3.138
 7119SOL    HW222257   5.449   0.836   3.292
 7120SOL     OW22258   4.301   1.640   2.628
 7120SOL    HW122259   4.281   1.587   2.710
 7120SOL    HW222260   4.219   1.644   2.570
 7121SOL     OW22261   2.199   0.240   3.676
 7121SOL    HW122262   2.250   0.302   3.616
 7121SOL    HW222263   2.115   0.210   3.630
 7122SOL     OW22264   6.950   0.659   0.241
 7122SOL    HW122265   7.014   0.637   0.167
 7122SOL    HW222266   6.857   0.657   0.206
 7123SOL     OW22267   3.147   5.306   1.629
 7123SOL    HW122268   3.152   5.206   1.630
 7123SOL    HW222269   3.086   5.337   1.701
 7124SOL     OW22270   1.219   4.541   0.870
 7124SOL    HW122271   1.143   4.606   0.881
 7124SOL    HW222272   1.273   4.539   0.954
 7125SOL     OW22273   6.370   6.379   1.268
 7125SOL    HW122274   6.447   6.337   1.317
 7125SOL    HW222275   6.387   6.373   1.170
 7126SOL     OW22276   2.349   3.573   0.606
 7126SOL    HW122277   2.293   3.506   0.655
 7126SOL    HW222278   2.295   3.655   0.588
 7127SOL     OW22279   3.074   5.427   4.601
 7127SOL    HW122280   3.128   5.436   4.685
 7127SOL    HW222281   3.055   5.331   4.584
 7128SOL     OW22282   3.196   4.659   0.650
 7128SOL    HW122283   3.179   4.593   0.577
 7128SOL    HW222284   3.124   4.728   0.651
 7129SOL     OW22285   3.053   0.720   1.065
 7129SOL    HW122286   3.089   0.774   0.988
 7129SOL    HW222287   3.118   0.647   1.086
 7130SOL     OW22288   3.347   5.065   4.334
 7130SOL    HW122289   3.307   5.157   4.327
 7130SOL    HW222290   3.276   4.996   4.319
 7131SOL     OW22291   2.597   1.684   0.929
 7131SOL    HW122292   2.682   1.666   0.978
 7131SOL    HW222293   2.618   1.701   0.832
 7132SOL     OW22294   3.998   3.731   2.654
 7132SOL    HW122295   3.984   3.777   2.741
 7132SOL    HW222296   3.935   3.653   2.647
 7133SOL     OW22297   5.397   4.893   3.314
 7133SOL    HW122298   5.430   4.869   3.223
 7133SOL    HW222299   5.334   4.971   3.308
 7134SOL     OW22300   6.471   6.095   4.153
 7134SOL    HW122301   6.436   6.079   4.061
 7134SOL    HW222302   6.541   6.166   4.151
 7135SOL     OW22303   1.488   1.142   4.184
 7135SOL    HW122304   1.540   1.151   4.099
 7135SOL    HW222305   1.463   1.046   4.198
 7136SOL     OW22306   1.662   1.471   0.668
 7136SOL    HW122307   1.671   1.383   0.714
 7136SOL    HW222308   1.585   1.521   0.709
 7137SOL     OW22309   3.952   1.074   4.931
 7137SOL    HW122310   3.870   1.108   4.976
 7137SOL    HW222311   3.946   1.093   4.833
 7138SOL     OW22312   3.063   2.708   1.484
 7138SOL    HW122313   3.131   2.651   1.529
 7138SOL    HW222314   3.072   2.699   1.385
 7139SOL     OW22315   4.909   3.089   2.094
 7139SOL    HW122316   4.833   3.043   2.050
 7139SOL    HW222317   4.985   3.098   2.030
 7140SOL     OW22318   6.122   3.056   5.298
 7140SOL    HW122319   6.062   2.977   5.288
 7140SOL    HW222320   6.072   3.129   5.346
 7141SOL     OW22321   3.470   6.944   1.075
 7141SOL    HW122322   3.477   6.916   1.171
 7141SOL    HW222323   3.409   7.022   1.068
 7142SOL     OW22324   4.443   7.003   3.845
 7142SOL    HW122325   4.486   6.921   3.808
 7142SOL    HW222326   4.429   0.046   3.772
 7143SOL     OW22327   1.815   3.230   5.998
 7143SOL    HW122328   1.726   3.252   6.036
 7143SOL    HW222329   1.856   3.156   6.051
 7144SOL     OW22330   1.030   0.905   3.121
 7144SOL    HW122331   0.937   0.930   3.093
 7144SOL    HW222332   1.077   0.986   3.155
 7145SOL     OW22333   4.159   6.364   6.173
 7145SOL    HW122334   4.245   6.329   6.134
 7145SOL    HW222335   4.089   6.294   6.166
 7146SOL     OW22336   2.239   6.789   0.825
 7146SOL    HW122337   2.287   6.874   0.848
 7146SOL    HW222338   2.280   6.749   0.743
 7147SOL     OW22339   6.628   6.946   3.963
 7147SOL    HW122340   6.591   7.017   4.021
 7147SOL    HW222341   6.726   6.939   3.976
 7148SOL     OW22342   0.977   6.056   1.630
 7148SOL    HW122343   0.969   6.082   1.727
 7148SOL    HW222344   0.937   5.966   1.616
 7149SOL     OW22345   6.621   0.301   3.812
 7149SOL    HW122346   6.522   0.295   3.799
 7149SOL    HW222347   6.654   0.388   3.774
 7150SOL     OW22348   4.687   3.006   1.401
 7150SOL    HW122349   4.654   3.072   1.333
 7150SOL    HW222350   4.661   3.036   1.493
 7151SOL     OW22351   1.598   5.616   0.703
 7151SOL    HW122352   1.656   5.560   0.643
 7151SOL    HW222353   1.567   5.697   0.652
 7152SOL     OW22354   0.295   3.558   5.624
 7152SOL    HW122355   0.234   3.613   5.568
 7152SOL    HW222356   0.387   3.560   5.585
 7153SOL     OW22357   4.137   6.672   5.200
 7153SOL    HW122358   4.046   6.670   5.240
 7153SOL    HW222359   4.159   6.582   5.163
 7154SOL     OW22360   4.369   5.695   4.614
 7154SOL    HW122361   4.299   5.628   4.588
 7154SOL    HW222362   4.437   5.703   4.541
 7155SOL     OW22363   1.634   6.057   1.810
 7155SOL    HW122364   1.609   5.971   1.854
 7155SOL    HW222365   1.642   6.043   1.711
 7156SOL     OW22366   0.154   4.851   4.715
 7156SOL    HW122367   0.129   4.921   4.647
 7156SOL    HW222368   0.152   4.891   4.806
 7157SOL     OW22369   6.297   5.525   0.688
 7157SOL    HW122370   6.231   5.575   0.632
 7157SOL    HW222371   6.390   5.552   0.663
 7158SOL     OW22372   0.078   0.006   3.315
 7158SOL    HW122373   0.163   0.054   3.335
 7158SOL    HW222374   0.036   7.000   3.401
 7159SOL     OW22375   0.488   4.358   1.465
 7159SOL    HW122376   0.462   4.315   1.552
 7159SOL    HW222377   0.574   4.408   1.478
 7160SOL     OW22378   6.506   0.453   1.997
 7160SOL    HW122379   6.554   0.411   1.920
 7160SOL    HW222380   6.408   0.445   1.983
 7161SOL     OW22381   3.392   3.769   4.048
 7161SOL    HW122382   3.364   3.696   4.110
 7161SOL    HW222383   3.418   3.729   3.960
 7162SOL     OW22384   3.013   5.555   5.503
 7162SOL    HW122385   3.077   5.486   5.537
 7162SOL    HW222386   3.052   5.598   5.421
 7163SOL     OW22387   3.604   0.174   3.924
 7163SOL    HW122388   3.615   0.272   3.944
 7163SOL    HW222389   3.686   0.140   3.878
 7164SOL     OW22390   1.720   1.560   2.667
 7164SOL    HW122391   1.741   1.466   2.692
 7164SOL    HW222392   1.749   1.577   2.573
 7165SOL     OW22393   6.021   0.820   0.304
 7165SOL    HW122394   6.020   0.732   0.257
 7165SOL    HW222395   6.049   0.807   0.399
 7166SOL     OW22396   5.033   4.571   1.662
 7166SOL    HW122397   5.001   4.553   1.569
 7166SOL    HW222398   4.989   4.508   1.726
 7167SOL     OW22399   5.135   3.671   5.000
 7167SOL    HW122400   5.232   3.680   4.979
 7167SOL    HW222401   5.082   3.666   4.915
 7168SOL     OW22402   1.439   1.649   4.074
 7168SOL    HW122403   1.478   1.558   4.062
 7168SOL    HW222404   1.501   1.717   4.036
 7169SOL     OW22405   1.722   3.278   5.693
 7169SOL    HW122406   1.771   3.255   5.777
 7169SOL    HW222407   1.661   3.203   5.668
 7170SOL     OW22408   4.542   5.101   3.146
 7170SOL    HW122409   4.592   5.091   3.060
 7170SOL    HW222410   4.467   5.166   3.134
 7171SOL     OW22411   4.933   3.324   5.887
 7171SOL    HW122412   4.900   3.230   5.873
 7171SOL    HW222413   4.969   3.334   5.979
 7172SOL     OW22414   1.388   6.760   6.764
 7172SOL    HW122415   1.479   6.761   6.722
 7172SOL    HW222416   1.324   6.713   6.703
 7173SOL     OW22417   6.378   5.233   4.434
 7173SOL    HW122418   6.422   5.274   4.514
 7173SOL    HW222419   6.375   5.299   4.359
 7174SOL     OW22420   1.110   5.549   6.857
 7174SOL    HW122421   1.026   5.595   6.882
 7174SOL    HW222422   1.145   5.498   6.936
 7175SOL     OW22423   5.070   3.510   1.252
 7175SOL    HW122424   5.008   3.436   1.280
 7175SOL    HW222425   5.102   3.493   1.159
 7176SOL     OW22426   0.360   5.317   2.126
 7176SOL    HW122427   0.413   5.282   2.203
 7176SOL    HW222428   0.344   5.415   2.138
 7177SOL     OW22429   1.828   6.004   4.021
 7177SOL    HW122430   1.899   6.003   4.091
 7177SOL    HW222431   1.806   6.098   3.997
 7178SOL     OW22432   2.318   2.522   5.911
 7178SOL    HW122433   2.221   2.495   5.918
 7178SOL    HW222434   2.324   2.618   5.886
 7179SOL     OW22435   2.495   3.245   5.706
 7179SOL    HW122436   2.451   3.334   5.720
 7179SOL    HW222437   2.442   3.192   5.640
 7180SOL     OW22438   0.644   5.169   6.527
 7180SOL    HW122439   0.673   5.149   6.620
 7180SOL    HW222440   0.601   5.088   6.487
 7181SOL     OW22441   3.853   0.391   0.667
 7181SOL    HW122442   3.778   0.332   0.695
 7181SOL    HW222443   3.940   0.343   0.680
 7182SOL     OW22444   1.756   4.082   5.612
 7182SOL    HW122445   1.803   4.123   5.534
 7182SOL    HW222446   1.808   4.004   5.646
 7183SOL     OW22447   1.752   5.193   2.591
 7183SOL    HW122448   1.762   5.096   2.613
 7183SOL    HW222449   1.793   5.248   2.664
 7184SOL     OW22450   0.929   6.955   3.687
 7184SOL    HW122451   1.016   6.962   3.737
 7184SOL    HW222452   0.947   6.962   3.588
 7185SOL     OW22453   5.106   2.661   6.849
 7185SOL    HW122454   5.196   2.623   6.868
 7185SOL    HW222455   5.037   2.612   6.903
 7186SOL     OW22456   6.906   6.962   5.316
 7186SOL    HW122457   6.936   6.915   5.400
 7186SOL    HW222458   6.817   7.004   5.331
 7187SOL     OW22459   2.049   4.559   2.009
 7187SOL    HW122460   2.005   4.603   1.930
 7187SOL    HW222461   1.984   4.496   2.052
 7188SOL     OW22462   5.764   6.912   1.420
 7188SOL    HW122463   5.742   6.824   1.463
 7188SOL    HW222464   5.684   6.972   1.426
 7189SOL     OW22465   6.331   1.744   6.380
 7189SOL    HW122466   6.325   1.651   6.344
 7189SOL    HW222467   6.331   1.810   6.305
 7190SOL     OW22468   5.338   3.983   3.714
 7190SOL    HW122469   5.414   3.950   3.770
 7190SOL    HW222470   5.374   4.022   3.629
 7191SOL     OW22471   1.138   3.735   2.374
 7191SOL    HW122472   1.204   3.759   2.445
 7191SOL    HW222473   1.186   3.715   2.289
 7192SOL     OW22474   2.361   6.198   5.586
 7192SOL    HW122475   2.275   6.150   5.606
 7192SOL    HW222476   2.386   6.255   5.664
 7193SOL     OW22477   2.959   2.148   4.200
 7193SOL    HW122478   2.982   2.149   4.297
 7193SOL    HW222479   3.034   2.108   4.148
 7194SOL     OW22480   2.119   1.748   1.257
 7194SOL    HW122481   2.121   1.650   1.234
 7194SOL    HW222482   2.106   1.801   1.173
 7195SOL     OW22483   0.564   4.709   0.582
 7195SOL    HW122484   0.527   4.799   0.560
 7195SOL    HW222485   0.631   4.717   0.656
 7196SOL     OW22486   3.249   3.005   3.286
 7196SOL    HW122487   3.224   2.909   3.298
 7196SOL    HW222488   3.262   3.025   3.189
 7197SOL     OW22489   6.850   2.124   5.545
 7197SOL    HW122490   6.840   2.061   5.622
 7197SOL    HW222491   6.803   2.087   5.465
 7198SOL     OW22492   1.314   6.948   5.838
 7198SOL    HW122493   1.308   0.014   5.794
 7198SOL    HW222494   1.224   6.903   5.834
 7199SOL     OW22495   0.729   0.704   2.567
 7199SOL    HW122496   0.631   0.708   2.584
 7199SOL    HW222497   0.749   0.739   2.475
 7200SOL     OW22498   2.364   0.507   0.588
 7200SOL    HW122499   2.300   0.478   0.516
 7200SOL    HW222500   2.316   0.511   0.675
 7201SOL     OW22501   1.830   4.890   3.041
 7201SOL    HW122502   1.894   4.828   2.996
 7201SOL    HW222503   1.757   4.915   2.976
 7202SOL     OW22504   3.879   0.044   6.374
 7202SOL    HW122505   3.873   0.109   6.299
 7202SOL    HW222506   3.789   0.034   6.417
 7203SOL     OW22507   6.359   0.293   0.632
 7203SOL    HW122508   6.319   0.281   0.541
 7203SOL    HW222509   6.442   0.348   0.625
 7204SOL     OW22510   6.189   6.872   4.040
 7204SOL    HW122511   6.139   6.953   4.072
 7204SOL    HW222512   6.246   6.837   4.114
 7205SOL     OW22513   1.629   5.648   3.063
 7205SOL    HW122514   1.679   5.720   3.110
 7205SOL    HW222515   1.571   5.688   2.992
 7206SOL     OW22516   0.475   1.385   1.100
 7206SOL    HW122517   0.528   1.335   1.169
 7206SOL    HW222518   0.485   1.339   1.011
 7207SOL     OW22519   4.095   0.359   1.187
 7207SOL    HW122520   4.141   0.369   1.098
 7207SOL    HW222521   4.068   0.449   1.221
 7208SOL     OW22522   4.003   6.797   4.547
 7208SOL    HW122523   3.938   6.746   4.490
 7208SOL    HW222524   4.096   6.781   4.515
 7209SOL     OW22525   2.968   3.247   3.897
 7209SOL    HW122526   2.900   3.196   3.949
 7209SOL    HW222527   3.006   3.188   3.826
 7210SOL     OW22528   4.508   0.974   3.398
 7210SOL    HW122529   4.584   1.034   3.421
 7210SOL    HW222530   4.433   0.989   3.463
 7211SOL     OW22531   0.922   6.126   3.827
 7211SOL    HW122532   0.926   6.191   3.752
 7211SOL    HW222533   0.903   6.174   3.913
 7212SOL     OW22534   0.678   6.315   4.399
 7212SOL    HW122535   0.724   6.238   4.444
 7212SOL    HW222536   0.662   6.387   4.465
 7213SOL     OW22537   5.148   6.742   5.169
 7213SOL    HW122538   5.233   6.701   5.200
 7213SOL    HW222539   5.071   6.685   5.198
 7214SOL     OW22540   2.469   5.689   4.348
 7214SOL    HW122541   2.370   5.707   4.347
 7214SOL    HW222542   2.489   5.606   4.297
 7215SOL     OW22543   0.900   3.119   4.402
 7215SOL    HW122544   0.860   3.037   4.443
 7215SOL    HW222545   0.882   3.120   4.304
 7216SOL     OW22546   3.002   5.169   6.555
 7216SOL    HW122547   3.007   5.234   6.630
 7216SOL    HW222548   3.017   5.076   6.590
 7217SOL     OW22549   1.631   4.676   2.042
 7217SOL    HW122550   1.589   4.755   1.995
 7217SOL    HW222551   1.718   4.704   2.081
 7218SOL     OW22552   4.852   2.341   5.298
 7218SOL    HW122553   4.859   2.257   5.352
 7218SOL    HW222554   4.828   2.417   5.358
 7219SOL     OW22555   4.567   6.781   3.800
 7219SOL    HW122556   4.618   6.717   3.742
 7219SOL    HW222557   4.547   6.738   3.888
 7220SOL     OW22558   6.677   0.527   3.267
 7220SOL    HW122559   6.703   0.477   3.349
 7220SOL    HW222560   6.577   0.522   3.255
 7221SOL     OW22561   5.474   4.571   5.790
 7221SOL    HW122562   5.538   4.597   5.863
 7221SOL    HW222563   5.399   4.519   5.830
 7222SOL     OW22564   6.639   6.520   1.084
 7222SOL    HW122565   6.556   6.571   1.059
 7222SOL    HW222566   6.714   6.549   1.025
 7223SOL     OW22567   2.863   2.056   1.042
 7223SOL    HW122568   2.931   2.082   1.111
 7223SOL    HW222569   2.800   1.989   1.081
 7224SOL     OW22570   5.875   1.519   4.407
 7224SOL    HW122571   5.824   1.489   4.326
 7224SOL    HW222572   5.898   1.616   4.398
 7225SOL     OW22573   1.678   5.942   0.243
 7225SOL    HW122574   1.745   5.999   0.291
 7225SOL    HW222575   1.677   5.851   0.285
 7226SOL     OW22576   0.042   6.916   0.102
 7226SOL    HW122577   0.101   6.906   0.022
 7226SOL    HW222578   0.086   6.875   0.182
 7227SOL     OW22579   0.592   2.218   0.094
 7227SOL    HW122580   0.672   2.175   0.051
 7227SOL    HW222581   0.603   2.216   0.193
 7228SOL     OW22582   0.039   6.724   1.939
 7228SOL    HW122583   0.087   6.638   1.958
 7228SOL    HW222584   0.045   6.784   2.019
 7229SOL     OW22585   1.139   0.524   4.589
 7229SOL    HW122586   1.167   0.597   4.526
 7229SOL    HW222587   1.137   0.437   4.540
 7230SOL     OW22588   4.007   5.500   4.337
 7230SOL    HW122589   4.005   5.422   4.276
 7230SOL    HW222590   3.943   5.486   4.412
 7231SOL     OW22591   5.667   1.888   6.361
 7231SOL    HW122592   5.586   1.947   6.366
 7231SOL    HW222593   5.644   1.798   6.398
 7232SOL     OW22594   4.041   5.163   2.945
 7232SOL    HW122595   3.975   5.218   2.893
 7232SOL    HW222596   4.080   5.093   2.886
 7233SOL     OW22597   0.515   2.724   5.169
 7233SOL    HW122598   0.603   2.766   5.145
 7233SOL    HW222599   0.478   2.769   5.250
 7234SOL     OW22600   5.762   2.400   1.969
 7234SOL    HW122601   5.765   2.302   1.992
 7234SOL    HW222602   5.838   2.446   2.014
 7235SOL     OW22603   5.590   4.111   4.571
 7235SOL    HW122604   5.603   4.170   4.491
 7235SOL    HW222605   5.576   4.168   4.652
 7236SOL     OW22606   3.609   1.830   3.045
 7236SOL    HW122607   3.521   1.840   3.091
 7236SOL    HW222608   3.601   1.761   2.973
 7237SOL     OW22609   6.623   6.039   5.191
 7237SOL    HW122610   6.707   5.994   5.219
 7237SOL    HW222611   6.595   6.105   5.261
 7238SOL     OW22612   2.535   1.682   2.287
 7238SOL    HW122613   2.590   1.603   2.260
 7238SOL    HW222614   2.445   1.676   2.244
 7239SOL     OW22615   2.014   1.679   3.005
 7239SOL    HW122616   1.980   1.737   2.930
 7239SOL    HW222617   1.947   1.608   3.025
 7240SOL     OW22618   3.028   3.853   0.747
 7240SOL    HW122619   2.929   3.844   0.762
 7240SOL    HW222620   3.044   3.890   0.656
 7241SOL     OW22621   3.632   0.786   5.701
 7241SOL    HW122622   3.666   0.745   5.616
 7241SOL    HW222623   3.682   0.748   5.778
 7242SOL     OW22624   5.931   4.223   6.916
 7242SOL    HW122625   5.936   4.321   6.900
 7242SOL    HW222626   5.918   4.206   7.013
 7243SOL     OW22627   1.516   4.898   6.267
 7243SOL    HW122628   1.426   4.911   6.308
 7243SOL    HW222629   1.508   4.837   6.189
 7244SOL     OW22630   5.512   1.716   0.758
 7244SOL    HW122631   5.564   1.639   0.720
 7244SOL    HW222632   5.421   1.685   0.784
 7245SOL     OW22633   0.146   2.218   4.738
 7245SOL    HW122634   0.180   2.140   4.686
 7245SOL    HW222635   0.140   2.194   4.835
 7246SOL     OW22636   6.041   6.992   4.747
 7246SOL    HW122637   6.058   7.000   4.649
 7246SOL    HW222638   5.953   0.010   4.769
 7247SOL     OW22639   2.727   6.159   1.540
 7247SOL    HW122640   2.640   6.169   1.492
 7247SOL    HW222641   2.734   6.067   1.579
 7248SOL     OW22642   3.904   0.990   4.509
 7248SOL    HW122643   3.917   1.014   4.412
 7248SOL    HW222644   3.975   0.926   4.537
 7249SOL     OW22645   5.480   4.421   1.049
 7249SOL    HW122646   5.403   4.477   1.079
 7249SOL    HW222647   5.556   4.432   1.113
 7250SOL     OW22648   1.908   4.904   6.410
 7250SOL    HW122649   1.901   4.849   6.493
 7250SOL    HW222650   1.841   4.978   6.412
 7251SOL     OW22651   6.798   6.461   4.802
 7251SOL    HW122652   6.786   6.388   4.869
 7251SOL    HW222653   6.775   6.427   4.711
 7252SOL     OW22654   3.083   3.156   4.811
 7252SOL    HW122655   2.990   3.118   4.810
 7252SOL    HW222656   3.108   3.179   4.905
 7253SOL     OW22657   2.903   6.508   1.116
 7253SOL    HW122658   2.855   6.499   1.204
 7253SOL    HW222659   2.837   6.535   1.046
 7254SOL     OW22660   3.675   5.299   3.826
 7254SOL    HW122661   3.686   5.290   3.925
 7254SOL    HW222662   3.758   5.268   3.781
 7255SOL     OW22663   2.888   3.341   2.237
 7255SOL    HW122664   2.838   3.422   2.206
 7255SOL    HW222665   2.946   3.307   2.163
 7256SOL     OW22666   4.186   5.205   4.404
 7256SOL    HW122667   4.152   5.123   4.450
 7256SOL    HW222668   4.174   5.195   4.306
 7257SOL     OW22669   5.697   2.412   3.039
 7257SOL    HW122670   5.735   2.436   2.950
 7257SOL    HW222671   5.603   2.445   3.045
 7258SOL     OW22672   3.980   0.472   4.576
 7258SOL    HW122673   3.914   0.398   4.584
 7258SOL    HW222674   4.037   0.476   4.658
 7259SOL     OW22675   2.768   3.738   6.609
 7259SOL    HW122676   2.744   3.665   6.674
 7259SOL    HW222677   2.729   3.824   6.640
 7260SOL     OW22678   3.702   2.005   2.745
 7260SOL    HW122679   3.675   2.062   2.822
 7260SOL    HW222680   3.620   1.977   2.694
 7261SOL     OW22681   2.258   3.339   1.613
 7261SOL    HW122682   2.322   3.288   1.555
 7261SOL    HW222683   2.309   3.387   1.684
 7262SOL     OW22684   5.305   2.140   4.414
 7262SOL    HW122685   5.219   2.173   4.375
 7262SOL    HW222686   5.350   2.080   4.348
 7263SOL     OW22687   1.131   5.688   1.255
 7263SOL    HW122688   1.207   5.717   1.197
 7263SOL    HW222689   1.068   5.764   1.268
 7264SOL     OW22690   6.704   0.921   6.609
 7264SOL    HW122691   6.732   0.936   6.515
 7264SOL    HW222692   6.782   0.889   6.663
 7265SOL     OW22693   5.135   4.855   5.991
 7265SOL    HW122694   5.098   4.781   5.936
 7265SOL    HW222695   5.148   4.936   5.933
 7266SOL     OW22696   4.906   0.689   1.523
 7266SOL    HW122697   4.937   0.652   1.610
 7266SOL    HW222698   4.903   0.789   1.529
 7267SOL     OW22699   0.403   3.819   4.641
 7267SOL    HW122700   0.460   3.835   4.722
 7267SOL    HW222701   0.422   3.728   4.605
 7268SOL     OW22702   4.229   5.895   1.609
 7268SOL    HW122703   4.154   5.829   1.616
 7268SOL    HW222704   4.313   5.847   1.586
 7269SOL     OW22705   0.963   5.609   1.691
 7269SOL    HW122706   1.058   5.627   1.715
 7269SOL    HW222707   0.908   5.607   1.775
 7270SOL     OW22708   2.542   2.123   2.600
 7270SOL    HW122709   2.600   2.173   2.536
 7270SOL    HW222710   2.540   2.026   2.574
 7271SOL     OW22711   0.056   3.634   3.043
 7271SOL    HW122712   0.098   3.639   3.134
 7271SOL    HW222713   0.071   3.544   3.004
 7272SOL     OW22714   4.760   2.670   2.927
 7272SOL    HW122715   4.677   2.616   2.944
 7272SOL    HW222716   4.755   2.754   2.980
 7273SOL     OW22717   5.413   4.393   1.505
 7273SOL    HW122718   5.321   4.354   1.510
 7273SOL    HW222719   5.409   4.490   1.532
 7274SOL     OW22720   6.683   5.083   5.752
 7274SOL    HW122721   6.701   5.086   5.653
 7274SOL    HW222722   6.770   5.085   5.801
 7275SOL     OW22723   0.083   0.552   6.839
 7275SOL    HW122724   0.138   0.632   6.861
 7275SOL    HW222725   0.055   0.555   6.743
 7276SOL     OW22726   1.978   2.066   3.795
 7276SOL    HW122727   2.031   2.144   3.762
 7276SOL    HW222728   1.887   2.068   3.755
 7277SOL     OW22729   4.931   1.386   4.812
 7277SOL    HW122730   4.952   1.478   4.779
 7277SOL    HW222731   4.982   1.368   4.896
 7278SOL     OW22732   3.780   1.469   3.743
 7278SOL    HW122733   3.699   1.522   3.768
 7278SOL    HW222734   3.840   1.461   3.822
 7279SOL     OW22735   4.324   4.642   0.245
 7279SOL    HW122736   4.391   4.705   0.285
 7279SOL    HW222737   4.357   4.611   0.156
 7280SOL     OW22738   5.297   1.848   5.256
 7280SOL    HW122739   5.285   1.749   5.255
 7280SOL    HW222740   5.210   1.893   5.239
 7281SOL     OW22741   3.523   6.370   1.856
 7281SOL    HW122742   3.440   6.324   1.888
 7281SOL    HW222743   3.510   6.400   1.762
 7282SOL     OW22744   6.653   5.411   2.407
 7282SOL    HW122745   6.584   5.437   2.475
 7282SOL    HW222746   6.740   5.453   2.431
 7283SOL     OW22747   3.672   5.435   2.934
 7283SOL    HW122748   3.595   5.372   2.932
 7283SOL    HW222749   3.639   5.529   2.920
 7284SOL     OW22750   6.838   1.919   3.856
 7284SOL    HW122751   6.928   1.895   3.821
 7284SOL    HW222752   6.768   1.874   3.801
 7285SOL     OW22753   4.932   2.882   1.824
 7285SOL    HW122754   4.931   2.812   1.753
 7285SOL    HW222755   4.840   2.891   1.862
 7286SOL     OW22756   0.647   0.663   0.367
 7286SOL    HW122757   0.554   0.696   0.358
 7286SOL    HW222758   0.648   0.579   0.421
 7287SOL     OW22759   1.423   2.562   3.435
 7287SOL    HW122760   1.335   2.599   3.465
 7287SOL    HW222761   1.452   2.488   3.496
 7288SOL     OW22762   2.985   2.233   2.952
 7288SOL    HW122763   2.909   2.274   2.902
 7288SOL    HW222764   3.068   2.238   2.895
 7289SOL     OW22765   6.278   2.404   1.443
 7289SOL    HW122766   6.268   2.472   1.515
 7289SOL    HW222767   6.275   2.448   1.354
 7290SOL     OW22768   3.831   1.714   4.588
 7290SOL    HW122769   3.738   1.750   4.597
 7290SOL    HW222770   3.879   1.764   4.516
 7291SOL     OW22771   4.073   0.958   0.103
 7291SOL    HW122772   4.007   0.953   0.178
 7291SOL    HW222773   4.154   0.904   0.127
 7292SOL     OW22774   2.039   0.177   2.912
 7292SOL    HW122775   2.063   0.136   2.824
 7292SOL    HW222776   1.973   0.118   2.958
 7293SOL     OW22777   1.280   0.667   5.113
 7293SOL    HW122778   1.193   0.637   5.153
 7293SOL    HW222779   1.267   0.685   5.015
 7294SOL     OW22780   3.042   4.772   1.493
 7294SOL    HW122781   2.997   4.703   1.436
 7294SOL    HW222782   3.008   4.764   1.587
 7295SOL     OW22783   6.344   5.280   2.477
 7295SOL    HW122784   6.284   5.351   2.514
 7295SOL    HW222785   6.355   5.292   2.379
 7296SOL     OW22786   4.048   4.781   2.301
 7296SOL    HW122787   4.119   4.727   2.257
 7296SOL    HW222788   4.052   4.875   2.267
 7297SOL     OW22789   3.504   6.197   1.627
 7297SOL    HW122790   3.494   6.294   1.602
 7297SOL    HW222791   3.415   6.152   1.621
 7298SOL     OW22792   4.907   5.662   6.623
 7298SOL    HW122793   4.996   5.646   6.580
 7298SOL    HW222794   4.849   5.581   6.613
 7299SOL     OW22795   1.258   2.963   0.425
 7299SOL    HW122796   1.277   3.054   0.389
 7299SOL    HW222797   1.293   2.894   0.361
 7300SOL     OW22798   0.825   4.974   1.631
 7300SOL    HW122799   0.778   4.975   1.719
 7300SOL    HW222800   0.764   4.938   1.561
 7301SOL     OW22801   5.570   6.456   5.584
 7301SOL    HW122802   5.631   6.517   5.634
 7301SOL    HW222803   5.616   6.421   5.503
 7302SOL     OW22804   5.224   2.836   5.587
 7302SOL    HW122805   5.186   2.903   5.651
 7302SOL    HW222806   5.275   2.884   5.516
 7303SOL     OW22807   2.629   0.926   1.162
 7303SOL    HW122808   2.653   1.018   1.193
 7303SOL    HW222809   2.540   0.929   1.116
 7304SOL     OW22810   3.011   5.383   1.865
 7304SOL    HW122811   3.057   5.444   1.930
 7304SOL    HW222812   2.916   5.372   1.892
 7305SOL     OW22813   5.814   2.198   0.423
 7305SOL    HW122814   5.892   2.259   0.411
 7305SOL    HW222815   5.802   2.142   0.341
 7306SOL     OW22816   2.324   1.512   1.773
 7306SOL    HW122817   2.376   1.588   1.812
 7306SOL    HW222818   2.299   1.534   1.679
 7307SOL     OW22819   1.642   6.476   1.146
 7307SOL    HW122820   1.651   6.456   1.244
 7307SOL    HW222821   1.645   6.575   1.131
 7308SOL     OW22822   4.865   0.773   1.972
 7308SOL    HW122823   4.769   0.803   1.970
 7308SOL    HW222824   4.891   0.752   2.066
 7309SOL     OW22825   2.110   5.284   2.894
 7309SOL    HW122826   2.209   5.300   2.896
 7309SOL    HW222827   2.085   5.217   2.964
 7310SOL     OW22828   1.845   2.661   0.111
 7310SOL    HW122829   1.768   2.617   0.066
 7310SOL    HW222830   1.931   2.616   0.084
 7311SOL     OW22831   0.245   6.905   6.486
 7311SOL    HW122832   0.341   6.922   6.511
 7311SOL    HW222833   0.205   6.842   6.552
 7312SOL     OW22834   0.192   2.679   5.462
 7312SOL    HW122835   0.138   2.748   5.511
 7312SOL    HW222836   0.158   2.588   5.483
 7313SOL     OW22837   2.183   0.717   1.852
 7313SOL    HW122838   2.096   0.716   1.900
 7313SOL    HW222839   2.258   0.708   1.919
 7314SOL     OW22840   0.174   4.360   6.906
 7314SOL    HW122841   0.184   4.261   6.918
 7314SOL    HW222842   0.253   4.395   6.855
 7315SOL     OW22843   0.862   5.087   2.684
 7315SOL    HW122844   0.886   5.029   2.607
 7315SOL    HW222845   0.870   5.034   2.769
 7316SOL     OW22846   2.981   2.126   0.098
 7316SOL    HW122847   3.029   2.111   0.012
 7316SOL    HW222848   2.999   2.219   0.131
 7317SOL     OW22849   3.699   1.361   1.851
 7317SOL    HW122850   3.693   1.270   1.892
 7317SOL    HW222851   3.706   1.351   1.752
 7318SOL     OW22852   3.637   0.085   1.777
 7318SOL    HW122853   3.556   0.131   1.811
 7318SOL    HW222854   3.639   0.090   1.677
 7319SOL     OW22855   6.614   4.855   0.319
 7319SOL    HW122856   6.712   4.837   0.322
 7319SOL    HW222857   6.572   4.823   0.405
 7320SOL     OW22858   0.010   3.418   1.104
 7320SOL    HW122859   0.030   3.383   1.196
 7320SOL    HW222860   0.090   3.406   1.046
 7321SOL     OW22861   2.277   6.190   6.444
 7321SOL    HW122862   2.256   6.105   6.493
 7321SOL    HW222863   2.270   6.267   6.508
 7322SOL     OW22864   0.431   2.372   2.303
 7322SOL    HW122865   0.442   2.348   2.399
 7322SOL    HW222866   0.442   2.471   2.291
 7323SOL     OW22867   1.288   1.449   0.982
 7323SOL    HW122868   1.212   1.477   0.923
 7323SOL    HW222869   1.265   1.470   1.077
 7324SOL     OW22870   5.869   4.744   3.183
 7324SOL    HW122871   5.914   4.709   3.101
 7324SOL    HW222872   5.928   4.811   3.228
 7325SOL     OW22873   3.785   1.190   6.133
 7325SOL    HW122874   3.842   1.260   6.091
 7325SOL    HW222875   3.770   1.116   6.067
 7326SOL     OW22876   2.758   0.589   7.009
 7326SOL    HW122877   2.817   0.658   6.969
 7326SOL    HW222878   2.716   0.535   6.935
 7327SOL     OW22879   5.958   3.993   3.089
 7327SOL    HW122880   6.028   4.064   3.100
 7327SOL    HW222881   5.997   3.915   3.040
 7328SOL     OW22882   4.250   5.035   5.382
 7328SOL    HW122883   4.180   4.967   5.360
 7328SOL    HW222884   4.212   5.127   5.370
 7329SOL     OW22885   2.444   3.144   0.776
 7329SOL    HW122886   2.513   3.214   0.760
 7329SOL    HW222887   2.357   3.173   0.734
 7330SOL     OW22888   3.686   2.880   1.755
 7330SOL    HW122889   3.636   2.794   1.767
 7330SOL    HW222890   3.650   2.928   1.675
 7331SOL     OW22891   4.268   0.786   1.760
 7331SOL    HW122892   4.220   0.863   1.803
 7331SOL    HW222893   4.273   0.802   1.661
 7332SOL     OW22894   3.210   4.105   6.936
 7332SOL    HW122895   3.254   4.039   6.997
 7332SOL    HW222896   3.113   4.110   6.957
 7333SOL     OW22897   6.480   2.401   1.818
 7333SOL    HW122898   6.552   2.463   1.850
 7333SOL    HW222899   6.413   2.387   1.891
 7334SOL     OW22900   3.218   6.682   5.597
 7334SOL    HW122901   3.187   6.766   5.642
 7334SOL    HW222902   3.186   6.603   5.648
 7335SOL     OW22903   6.727   3.090   2.438
 7335SOL    HW122904   6.827   3.100   2.431
 7335SOL    HW222905   6.685   3.120   2.352
 7336SOL     OW22906   1.685   5.853   1.333
 7336SOL    HW122907   1.637   5.766   1.340
 7336SOL    HW222908   1.700   5.875   1.237
 7337SOL     OW22909   2.184   2.127   2.491
 7337SOL    HW122910   2.280   2.143   2.514
 7337SOL    HW222911   2.128   2.200   2.531
 7338SOL     OW22912   5.503   2.943   1.860
 7338SOL    HW122913   5.499   2.972   1.764
 7338SOL    HW222914   5.454   3.009   1.917
 7339SOL     OW22915   6.489   5.514   4.874
 7339SOL    HW122916   6.397   5.553   4.883
 7339SOL    HW222917   6.501   5.441   4.941
 7340SOL     OW22918   2.595   0.046   0.307
 7340SOL    HW122919   2.617   7.016   0.387
 7340SOL    HW222920   2.496   0.058   0.300
 7341SOL     OW22921   6.895   5.093   4.164
 7341SOL    HW122922   6.859   5.098   4.257
 7341SOL    HW222923   6.831   5.137   4.101
 7342SOL     OW22924   6.441   0.030   0.686
 7342SOL    HW122925   6.407   0.122   0.664
 7342SOL    HW222926   6.430   6.995   0.607
 7343SOL     OW22927   5.900   3.721   2.754
 7343SOL    HW122928   5.858   3.633   2.731
 7343SOL    HW222929   5.889   3.738   2.852
 7344SOL     OW22930   2.100   6.552   6.981
 7344SOL    HW122931   2.089   6.481   6.911
 7344SOL    HW222932   2.182   6.533   0.011
 7345SOL     OW22933   4.354   5.193   5.929
 7345SOL    HW122934   4.377   5.146   5.844
 7345SOL    HW222935   4.382   5.289   5.922
 7346SOL     OW22936   3.822   4.632   1.267
 7346SOL    HW122937   3.727   4.607   1.246
 7346SOL    HW222938   3.850   4.708   1.208
 7347SOL     OW22939   5.845   1.715   2.146
 7347SOL    HW122940   5.900   1.750   2.070
 7347SOL    HW222941   5.768   1.777   2.163
 7348SOL     OW22942   1.719   2.088   3.778
 7348SOL    HW122943   1.684   2.181   3.789
 7348SOL    HW222944   1.677   2.046   3.698
 7349SOL     OW22945   3.515   2.003   0.885
 7349SOL    HW122946   3.610   2.008   0.855
 7349SOL    HW222947   3.478   2.096   0.892
 7350SOL     OW22948   1.189   2.449   3.040
 7350SOL    HW122949   1.267   2.499   3.078
 7350SOL    HW222950   1.222   2.370   2.989
 7351SOL     OW22951   4.487   4.929   6.624
 7351SOL    HW122952   4.581   4.962   6.620
 7351SOL    HW222953   4.425   5.008   6.628
 7352SOL     OW22954   1.168   1.988   2.315
 7352SOL    HW122955   1.121   1.959   2.232
 7352SOL    HW222956   1.102   2.000   2.389
 7353SOL     OW22957   6.195   1.801   4.654
 7353SOL    HW122958   6.201   1.898   4.675
 7353SOL    HW222959   6.149   1.787   4.566
 7354SOL     OW22960   6.516   6.225   5.414
 7354SOL    HW122961   6.484   6.176   5.495
 7354SOL    HW222962   6.447   6.292   5.386
 7355SOL     OW22963   1.243   5.588   1.731
 7355SOL    HW122964   1.312   5.620   1.796
 7355SOL    HW222965   1.280   5.596   1.638
 7356SOL     OW22966   6.301   1.740   6.663
 7356SOL    HW122967   6.315   1.733   6.564
 7356SOL    HW222968   6.366   1.806   6.701
 7357SOL     OW22969   5.198   1.767   6.799
 7357SOL    HW122970   5.244   1.799   6.716
 7357SOL    HW222971   5.248   1.689   6.837
 7358SOL     OW22972   3.446   1.550   4.000
 7358SOL    HW122973   3.456   1.618   3.928
 7358SOL    HW222974   3.427   1.596   4.087
 7359SOL     OW22975   3.796   3.576   2.626
 7359SOL    HW122976   3.742   3.653   2.592
 7359SOL    HW222977   3.735   3.503   2.656
 7360SOL     OW22978   1.190   2.228   5.391
 7360SOL    HW122979   1.232   2.319   5.390
 7360SOL    HW222980   1.244   2.167   5.332
 7361SOL     OW22981   5.070   6.258   1.291
 7361SOL    HW122982   4.986   6.306   1.268
 7361SOL    HW222983   5.136   6.269   1.216
 7362SOL     OW22984   1.719   6.322   5.210
 7362SOL    HW122985   1.707   6.230   5.247
 7362SOL    HW222986   1.630   6.367   5.202
 7363SOL     OW22987   5.417   3.118   6.982
 7363SOL    HW122988   5.447   3.076   0.044
 7363SOL    HW222989   5.317   3.119   6.978
 7364SOL     OW22990   4.273   6.613   1.225
 7364SOL    HW122991   4.321   6.689   1.181
 7364SOL    HW222992   4.251   6.543   1.156
 7365SOL     OW22993   2.886   0.250   2.512
 7365SOL    HW122994   2.826   0.282   2.585
 7365SOL    HW222995   2.846   0.271   2.423
 7366SOL     OW22996   0.014   5.397   6.657
 7366SOL    HW122997   0.104   5.440   6.665
 7366SOL    HW222998   0.003   5.328   6.729
 7367SOL     OW22999   4.702   3.650   1.616
 7367SOL    HW123000   4.695   3.710   1.537
 7367SOL    HW223001   4.790   3.602   1.614
 7368SOL     OW23002   3.102   3.070   4.482
 7368SOL    HW123003   3.067   3.163   4.472
 7368SOL    HW223004   3.070   3.014   4.406
 7369SOL     OW23005   5.153   4.438   0.814
 7369SOL    HW123006   5.121   4.345   0.835
 7369SOL    HW223007   5.199   4.477   0.894
 7370SOL     OW23008   2.380   7.014   0.701
 7370SOL    HW123009   2.304   0.054   0.712
 7370SOL    HW223010   2.420   0.002   0.610
 7371SOL     OW23011   2.950   4.918   4.110
 7371SOL    HW123012   2.956   5.015   4.135
 7371SOL    HW223013   3.016   4.898   4.037
 7372SOL     OW23014   3.884   0.201   6.142
 7372SOL    HW123015   3.842   0.241   6.060
 7372SOL    HW223016   3.954   0.263   6.177
 7373SOL     OW23017   3.548   0.787   3.627
 7373SOL    HW123018   3.484   0.718   3.592
 7373SOL    HW223019   3.637   0.744   3.642
 7374SOL     OW23020   1.987   3.065   6.134
 7374SOL    HW123021   2.072   3.026   6.098
 7374SOL    HW223022   1.993   3.073   6.233
 7375SOL     OW23023   1.493   1.124   4.467
 7375SOL    HW123024   1.421   1.167   4.523
 7375SOL    HW223025   1.493   1.165   4.376
 7376SOL     OW23026   2.845   2.896   0.004
 7376SOL    HW123027   2.782   2.893   6.951
 7376SOL    HW223028   2.882   2.804   0.021
 7377SOL     OW23029   4.908   4.423   1.859
 7377SOL    HW123030   4.867   4.337   1.889
 7377SOL    HW223031   4.911   4.486   1.936
 7378SOL     OW23032   0.427   1.844   4.734
 7378SOL    HW123033   0.422   1.747   4.711
 7378SOL    HW223034   0.485   1.891   4.668
 7379SOL     OW23035   3.782   1.092   1.890
 7379SOL    HW123036   3.853   1.113   1.823
 7379SOL    HW223037   3.725   1.017   1.855
 7380SOL     OW23038   6.748   3.235   5.790
 7380SOL    HW123039   6.835   3.227   5.743
 7380SOL    HW223040   6.753   3.187   5.878
 7381SOL     OW23041   4.703   2.738   2.124
 7381SOL    HW123042   4.716   2.809   2.055
 7381SOL    HW223043   4.723   2.775   2.214
 7382SOL     OW23044   0.527   4.517   4.625
 7382SOL    HW123045   0.537   4.421   4.652
 7382SOL    HW223046   0.568   4.531   4.535
 7383SOL     OW23047   0.444   6.578   2.722
 7383SOL    HW123048   0.533   6.542   2.750
 7383SOL    HW223049   0.379   6.503   2.715
 7384SOL     OW23050   5.064   6.835   2.064
 7384SOL    HW123051   5.073   6.812   2.160
 7384SOL    HW223052   5.067   6.934   2.053
 7385SOL     OW23053   4.622   6.101   1.819
 7385SOL    HW123054   4.628   6.004   1.843
 7385SOL    HW223055   4.712   6.133   1.788
 7386SOL     OW23056   1.162   2.596   5.457
 7386SOL    HW123057   1.092   2.654   5.415
 7386SOL    HW223058   1.133   2.572   5.550
 7387SOL     OW23059   4.781   5.453   3.960
 7387SOL    HW123060   4.776   5.426   4.056
 7387SOL    HW223061   4.688   5.466   3.924
 7388SOL     OW23062   6.618   5.005   4.093
 7388SOL    HW123063   6.658   4.929   4.041
 7388SOL    HW223064   6.625   4.985   4.191
 7389SOL     OW23065   1.572   3.710   0.016
 7389SOL    HW123066   1.614   3.755   0.095
 7389SOL    HW223067   1.552   3.777   6.970
 7390SOL     OW23068   0.109   1.930   6.544
 7390SOL    HW123069   0.113   1.846   6.599
 7390SOL    HW223070   0.058   1.912   6.460
 7391SOL     OW23071   5.877   3.719   5.875
 7391SOL    HW123072   5.813   3.644   5.857
 7391SOL    HW223073   5.885   3.733   5.973
 7392SOL     OW23074   1.637   5.126   4.774
 7392SOL    HW123075   1.697   5.064   4.724
 7392SOL    HW223076   1.592   5.077   4.848
 7393SOL     OW23077   6.109   5.410   2.547
 7393SOL    HW123078   6.080   5.506   2.540
 7393SOL    HW223079   6.079   5.360   2.466
 7394SOL     OW23080   4.172   3.375   6.304
 7394SOL    HW123081   4.201   3.375   6.208
 7394SOL    HW223082   4.152   3.281   6.333
 7395SOL     OW23083   0.729   0.200   6.391
 7395SOL    HW123084   0.775   0.255   6.321
 7395SOL    HW223085   0.645   0.246   6.421
 7396SOL     OW23086   1.305   0.719   5.894
 7396SOL    HW123087   1.370   0.663   5.945
 7396SOL    HW223088   1.249   0.661   5.835
 7397SOL     OW23089   6.555   4.330   4.567
 7397SOL    HW123090   6.575   4.251   4.624
 7397SOL    HW223091   6.622   4.336   4.493
 7398SOL     OW23092   4.686   5.217   4.177
 7398SOL    HW123093   4.765   5.188   4.123
 7398SOL    HW223094   4.708   5.213   4.274
 7399SOL     OW23095   6.099   3.907   5.921
 7399SOL    HW123096   6.020   3.865   5.876
 7399SOL    HW223097   6.151   3.837   5.969
 7400SOL     OW23098   3.274   4.504   7.016
 7400SOL    HW123099   3.211   4.502   6.938
 7400SOL    HW223100   3.249   4.431   0.056
 7401SOL     OW23101   6.927   1.370   4.175
 7401SOL    HW123102   6.997   1.366   4.104
 7401SOL    HW223103   6.864   1.293   4.165
 7402SOL     OW23104   2.193   0.244   3.965
 7402SOL    HW123105   2.229   0.328   4.007
 7402SOL    HW223106   2.122   0.268   3.898
 7403SOL     OW23107   1.980   3.302   3.837
 7403SOL    HW123108   1.923   3.278   3.916
 7403SOL    HW223109   1.975   3.400   3.821
 7404SOL     OW23110   1.376   0.391   1.267
 7404SOL    HW123111   1.398   0.489   1.265
 7404SOL    HW223112   1.291   0.376   1.317
 7405SOL     OW23113   2.357   5.279   5.452
 7405SOL    HW123114   2.376   5.250   5.546
 7405SOL    HW223115   2.280   5.343   5.452
 7406SOL     OW23116   1.781   3.562   2.446
 7406SOL    HW123117   1.691   3.543   2.486
 7406SOL    HW223118   1.835   3.478   2.444
 7407SOL     OW23119   0.832   6.277   4.985
 7407SOL    HW123120   0.756   6.334   5.018
 7407SOL    HW223121   0.834   6.279   4.885
 7408SOL     OW23122   2.159   4.296   5.637
 7408SOL    HW123123   2.196   4.227   5.699
 7408SOL    HW223124   2.178   4.270   5.542
 7409SOL     OW23125   1.010   0.612   4.938
 7409SOL    HW123126   0.940   0.679   4.964
 7409SOL    HW223127   1.074   0.653   4.873
 7410SOL     OW23128   0.472   4.598   1.173
 7410SOL    HW123129   0.428   4.687   1.165
 7410SOL    HW223130   0.410   4.527   1.137
 7411SOL     OW23131   2.613   6.289   4.792
 7411SOL    HW123132   2.574   6.328   4.709
 7411SOL    HW223133   2.713   6.286   4.784
 7412SOL     OW23134   2.118   0.884   0.876
 7412SOL    HW123135   2.202   0.918   0.919
 7412SOL    HW223136   2.140   0.808   0.815
 7413SOL     OW23137   6.682   3.071   4.476
 7413SOL    HW123138   6.744   3.012   4.424
 7413SOL    HW223139   6.589   3.036   4.468
 7414SOL     OW23140   6.697   6.888   2.214
 7414SOL    HW123141   6.615   6.883   2.271
 7414SOL    HW223142   6.673   6.871   2.119
 7415SOL     OW23143   1.831   3.148   2.794
 7415SOL    HW123144   1.916   3.196   2.817
 7415SOL    HW223145   1.800   3.177   2.704
 7416SOL     OW23146   3.954   1.434   4.561
 7416SOL    HW123147   3.987   1.522   4.528
 7416SOL    HW223148   3.875   1.405   4.507
 7417SOL     OW23149   1.366   0.181   5.712
 7417SOL    HW123150   1.421   0.122   5.653
 7417SOL    HW223151   1.423   0.215   5.787
 7418SOL     OW23152   2.580   4.191   1.201
 7418SOL    HW123153   2.495   4.173   1.252
 7418SOL    HW223154   2.637   4.109   1.202
 7419SOL     OW23155   5.359   1.533   4.950
 7419SOL    HW123156   5.339   1.436   4.944
 7419SOL    HW223157   5.458   1.548   4.937
 7420SOL     OW23158   6.863   6.498   1.665
 7420SOL    HW123159   6.838   6.504   1.761
 7420SOL    HW223160   6.800   6.554   1.611
 7421SOL     OW23161   3.784   3.999   1.612
 7421SOL    HW123162   3.733   3.929   1.563
 7421SOL    HW223163   3.839   4.052   1.546
 7422SOL     OW23164   0.217   3.407   0.954
 7422SOL    HW123165   0.187   3.421   0.860
 7422SOL    HW223166   0.262   3.490   0.987
 7423SOL     OW23167   2.010   4.737   5.989
 7423SOL    HW123168   2.022   4.768   6.083
 7423SOL    HW223169   1.980   4.642   5.988
 7424SOL     OW23170   5.718   1.760   4.628
 7424SOL    HW123171   5.782   1.820   4.581
 7424SOL    HW223172   5.694   1.684   4.568
 7425SOL     OW23173   3.665   4.431   5.841
 7425SOL    HW123174   3.595   4.367   5.873
 7425SOL    HW223175   3.690   4.493   5.916
 7426SOL     OW23176   0.421   2.120   6.386
 7426SOL    HW123177   0.348   2.076   6.439
 7426SOL    HW223178   0.488   2.160   6.449
 7427SOL     OW23179   3.177   6.177   4.911
 7427SOL    HW123180   3.164   6.079   4.919
 7427SOL    HW223181   3.104   6.225   4.960
 7428SOL     OW23182   3.572   2.380   5.856
 7428SOL    HW123183   3.624   2.393   5.771
 7428SOL    HW223184   3.557   2.469   5.899
 7429SOL     OW23185   6.903   0.116   2.281
 7429SOL    HW123186   6.852   0.032   2.267
 7429SOL    HW223187   6.859   0.171   2.352
 7430SOL     OW23188   6.910   3.636   5.120
 7430SOL    HW123189   6.886   3.629   5.023
 7430SOL    HW223190   6.885   3.551   5.166
 7431SOL     OW23191   0.687   3.437   2.084
 7431SOL    HW123192   0.684   3.443   1.984
 7431SOL    HW223193   0.763   3.491   2.119
 7432SOL     OW23194   0.644   6.635   3.498
 7432SOL    HW123195   0.579   6.700   3.538
 7432SOL    HW223196   0.726   6.684   3.468
 7433SOL     OW23197   6.304   5.552   1.045
 7433SOL    HW123198   6.278   5.571   0.950
 7433SOL    HW223199   6.233   5.496   1.088
 7434SOL     OW23200   2.191   1.846   6.966
 7434SOL    HW123201   2.239   1.915   7.019
 7434SOL    HW223202   2.172   1.767   0.000
 7435SOL     OW23203   3.490   6.677   6.589
 7435SOL    HW123204   3.472   6.693   6.492
 7435SOL    HW223205   3.572   6.620   6.599
 7436SOL     OW23206   5.851   3.288   6.978
 7436SOL    HW123207   5.908   3.363   7.012
 7436SOL    HW223208   5.843   3.218   0.025
 7437SOL     OW23209   0.272   5.023   6.291
 7437SOL    HW123210   0.214   5.003   6.212
 7437SOL    HW223211   0.285   4.939   6.344
 7438SOL     OW23212   0.693   4.400   2.447
 7438SOL    HW123213   0.671   4.302   2.446
 7438SOL    HW223214   0.741   4.424   2.364
 7439SOL     OW23215   2.201   0.144   4.267
 7439SOL    HW123216   2.128   0.098   4.317
 7439SOL    HW223217   2.278   0.161   4.329
 7440SOL     OW23218   1.241   2.641   4.542
 7440SOL    HW123219   1.177   2.613   4.613
 7440SOL    HW223220   1.314   2.695   4.584
 7441SOL     OW23221   5.009   0.865   4.248
 7441SOL    HW123222   5.009   0.783   4.190
 7441SOL    HW223223   5.002   0.839   4.344
 7442SOL     OW23224   0.900   1.737   6.601
 7442SOL    HW123225   0.876   1.696   6.688
 7442SOL    HW223226   0.830   1.803   6.575
 7443SOL     OW23227   0.484   1.907   6.862
 7443SOL    HW123228   0.484   1.809   6.841
 7443SOL    HW223229   0.420   1.925   6.937
 7444SOL     OW23230   6.852   3.325   6.462
 7444SOL    HW123231   6.794   3.285   6.533
 7444SOL    HW223232   6.801   3.329   6.376
 7445SOL     OW23233   5.357   1.441   1.482
 7445SOL    HW123234   5.312   1.500   1.414
 7445SOL    HW223235   5.289   1.384   1.527
 7446SOL     OW23236   6.532   4.070   0.227
 7446SOL    HW123237   6.606   4.023   0.179
 7446SOL    HW223238   6.469   4.003   0.265
 7447SOL     OW23239   1.926   4.299   0.524
 7447SOL    HW123240   1.929   4.380   0.583
 7447SOL    HW223241   2.015   4.286   0.481
 7448SOL     OW23242   5.474   6.931   5.762
 7448SOL    HW123243   5.397   6.875   5.731
 7448SOL    HW223244   5.440   7.012   5.810
 7449SOL     OW23245   4.883   2.191   1.859
 7449SOL    HW123246   4.919   2.158   1.771
 7449SOL    HW223247   4.905   2.125   1.931
 7450SOL     OW23248   4.574   2.473   2.942
 7450SOL    HW123249   4.529   2.460   3.030
 7450SOL    HW223250   4.508   2.459   2.868
 7451SOL     OW23251   1.750   1.059   4.828
 7451SOL    HW123252   1.835   1.107   4.848
 7451SOL    HW223253   1.694   1.053   4.911
 7452SOL     OW23254   1.856   0.515   4.941
 7452SOL    HW123255   1.932   0.546   4.998
 7452SOL    HW223256   1.883   0.432   4.892
 7453SOL     OW23257   5.699   6.567   4.924
 7453SOL    HW123258   5.665   6.661   4.918
 7453SOL    HW223259   5.762   6.550   4.849
 7454SOL     OW23260   0.844   3.654   1.615
 7454SOL    HW123261   0.823   3.751   1.612
 7454SOL    HW223262   0.926   3.635   1.561
 7455SOL     OW23263   5.336   2.191   0.238
 7455SOL    HW123264   5.325   2.103   0.283
 7455SOL    HW223265   5.311   2.183   0.141
 7456SOL     OW23266   1.325   3.077   4.626
 7456SOL    HW123267   1.251   3.140   4.602
 7456SOL    HW223268   1.409   3.129   4.641
 7457SOL     OW23269   5.471   1.131   5.325
 7457SOL    HW123270   5.557   1.116   5.277
 7457SOL    HW223271   5.490   1.167   5.416
 7458SOL     OW23272   3.224   0.064   0.060
 7458SOL    HW123273   3.144   0.080   0.118
 7458SOL    HW223274   3.298   0.126   0.087
 7459SOL     OW23275   4.935   0.219   5.722
 7459SOL    HW123276   5.029   0.253   5.728
 7459SOL    HW223277   4.917   0.187   5.629
 7460SOL     OW23278   2.286   4.371   0.840
 7460SOL    HW123279   2.228   4.453   0.840
 7460SOL    HW223280   2.316   4.352   0.747
 7461SOL     OW23281   5.509   1.369   5.903
 7461SOL    HW123282   5.528   1.405   5.994
 7461SOL    HW223283   5.410   1.356   5.893
 7462SOL     OW23284   1.977   2.048   1.960
 7462SOL    HW123285   2.020   2.088   2.041
 7462SOL    HW223286   1.916   1.974   1.989
 7463SOL     OW23287   3.536   3.156   1.572
 7463SOL    HW123288   3.438   3.174   1.577
 7463SOL    HW223289   3.580   3.190   1.656
 7464SOL     OW23290   4.041   6.127   0.609
 7464SOL    HW123291   3.946   6.143   0.584
 7464SOL    HW223292   4.081   6.058   0.548
 7465SOL     OW23293   2.045   6.936   1.229
 7465SOL    HW123294   2.071   6.869   1.159
 7465SOL    HW223295   1.967   6.901   1.280
 7466SOL     OW23296   0.322   0.505   6.142
 7466SOL    HW123297   0.354   0.593   6.108
 7466SOL    HW223298   0.397   0.439   6.141
 7467SOL     OW23299   6.944   2.474   1.308
 7467SOL    HW123300   6.905   2.551   1.359
 7467SOL    HW223301   6.918   2.389   1.353
 7468SOL     OW23302   5.283   1.885   2.152
 7468SOL    HW123303   5.196   1.907   2.108
 7468SOL    HW223304   5.269   1.870   2.250
 7469SOL     OW23305   1.196   6.912   6.115
 7469SOL    HW123306   1.165   6.853   6.040
 7469SOL    HW223307   1.274   6.869   6.160
 7470SOL     OW23308   0.780   2.032   2.328
 7470SOL    HW123309   0.804   1.939   2.299
 7470SOL    HW223310   0.807   2.096   2.257
 7471SOL     OW23311   6.697   6.972   4.864
 7471SOL    HW123312   6.749   6.984   4.949
 7471SOL    HW223313   6.641   6.889   4.871
 7472SOL     OW23314   3.803   0.273   4.633
 7472SOL    HW123315   3.806   0.173   4.644
 7472SOL    HW223316   3.743   0.312   4.702
 7473SOL     OW23317   6.942   3.535   4.439
 7473SOL    HW123318   0.014   3.511   4.430
 7473SOL    HW223319   6.887   3.475   4.381
 7474SOL     OW23320   3.237   0.850   4.315
 7474SOL    HW123321   3.156   0.791   4.322
 7474SOL    HW223322   3.312   0.798   4.275
 7475SOL     OW23323   4.363   0.420   2.053
 7475SOL    HW123324   4.387   0.331   2.014
 7475SOL    HW223325   4.401   0.492   1.995
 7476SOL     OW23326   4.618   6.226   4.498
 7476SOL    HW123327   4.607   6.164   4.420
 7476SOL    HW223328   4.529   6.244   4.540
 7477SOL     OW23329   4.077   1.364   4.197
 7477SOL    HW123330   4.136   1.303   4.250
 7477SOL    HW223331   4.100   1.459   4.219
 7478SOL     OW23332   2.953   3.416   6.537
 7478SOL    HW123333   2.882   3.442   6.472
 7478SOL    HW223334   2.967   3.490   6.602
 7479SOL     OW23335   4.097   1.468   0.222
 7479SOL    HW123336   4.083   1.456   0.320
 7479SOL    HW223337   4.037   1.405   0.172
 7480SOL     OW23338   5.424   5.930   1.470
 7480SOL    HW123339   5.406   6.008   1.530
 7480SOL    HW223340   5.442   5.962   1.377
 7481SOL     OW23341   5.015   5.257   0.792
 7481SOL    HW123342   4.950   5.201   0.742
 7481SOL    HW223343   5.006   5.353   0.762
 7482SOL     OW23344   3.893   0.922   2.061
 7482SOL    HW123345   3.853   0.907   2.152
 7482SOL    HW223346   3.836   0.986   2.009
 7483SOL     OW23347   3.601   2.057   4.154
 7483SOL    HW123348   3.652   1.982   4.196
 7483SOL    HW223349   3.504   2.049   4.177
 7484SOL     OW23350   1.619   6.474   1.410
 7484SOL    HW123351   1.526   6.449   1.382
 7484SOL    HW223352   1.659   6.398   1.462
 7485SOL     OW23353   3.120   6.252   6.028
 7485SOL    HW123354   3.193   6.212   6.084
 7485SOL    HW223355   3.113   6.350   6.048
 7486SOL     OW23356   3.309   6.666   5.331
 7486SOL    HW123357   3.256   6.726   5.271
 7486SOL    HW223358   3.283   6.683   5.426
 7487SOL     OW23359   2.742   6.642   3.352
 7487SOL    HW123360   2.651   6.601   3.362
 7487SOL    HW223361   2.762   6.657   3.255
 7488SOL     OW23362   3.233   6.848   5.868
 7488SOL    HW123363   3.267   6.932   5.826
 7488SOL    HW223364   3.144   6.865   5.912
 7489SOL     OW23365   4.614   2.141   4.366
 7489SOL    HW123366   4.537   2.172   4.422
 7489SOL    HW223367   4.626   2.043   4.377
 7490SOL     OW23368   0.367   0.658   0.697
 7490SOL    HW123369   0.451   0.672   0.750
 7490SOL    HW223370   0.386   0.595   0.622
 7491SOL     OW23371   0.083   5.516   6.019
 7491SOL    HW123372   0.046   5.430   6.053
 7491SOL    HW223373   0.162   5.543   6.075
 7492SOL     OW23374   1.584   2.275   5.285
 7492SOL    HW123375   1.552   2.316   5.371
 7492SOL    HW223376   1.541   2.321   5.208
 7493SOL     OW23377   6.026   4.491   6.348
 7493SOL    HW123378   5.939   4.502   6.397
 7493SOL    HW223379   6.100   4.531   6.401
 7494SOL     OW23380   5.809   0.967   2.265
 7494SOL    HW123381   5.772   0.970   2.358
 7494SOL    HW223382   5.781   0.882   2.221
 7495SOL     OW23383   1.913   1.431   0.947
 7495SOL    HW123384   1.950   1.351   0.901
 7495SOL    HW223385   1.876   1.495   0.880
 7496SOL     OW23386   1.361   5.051   5.970
 7496SOL    HW123387   1.294   4.978   5.978
 7496SOL    HW223388   1.320   5.128   5.921
 7497SOL     OW23389   2.455   5.172   2.125
 7497SOL    HW123390   2.440   5.080   2.090
 7497SOL    HW223391   2.413   5.182   2.215
 7498SOL     OW23392   2.932   0.889   4.745
 7498SOL    HW123393   3.018   0.917   4.787
 7498SOL    HW223394   2.858   0.893   4.812
 7499SOL     OW23395   5.706   6.531   3.739
 7499SOL    HW123396   5.645   6.505   3.664
 7499SOL    HW223397   5.794   6.484   3.728
 7500SOL     OW23398   4.226   5.871   2.713
 7500SOL    HW123399   4.207   5.784   2.758
 7500SOL    HW223400   4.324   5.890   2.718
 7501SOL     OW23401   0.751   3.151   4.173
 7501SOL    HW123402   0.698   3.066   4.176
 7501SOL    HW223403   0.693   3.225   4.139
 7502SOL     OW23404   2.061   1.130   5.256
 7502SOL    HW123405   2.114   1.076   5.190
 7502SOL    HW223406   1.985   1.075   5.291
 7503SOL     OW23407   2.653   0.835   6.295
 7503SOL    HW123408   2.717   0.885   6.237
 7503SOL    HW223409   2.661   0.866   6.389
 7504SOL     OW23410   4.097   6.273   3.880
 7504SOL    HW123411   4.041   6.332   3.939
 7504SOL    HW223412   4.148   6.329   3.815
 7505SOL     OW23413   2.455   1.078   5.150
 7505SOL    HW123414   2.416   1.168   5.130
 7505SOL    HW223415   2.495   1.078   5.241
 7506SOL     OW23416   3.706   0.988   2.584
 7506SOL    HW123417   3.757   1.002   2.499
 7506SOL    HW223418   3.703   1.074   2.635
 7507SOL     OW23419   0.607   6.391   6.071
 7507SOL    HW123420   0.682   6.325   6.065
 7507SOL    HW223421   0.644   6.484   6.071
 7508SOL     OW23422   5.414   6.488   2.826
 7508SOL    HW123423   5.413   6.436   2.740
 7508SOL    HW223424   5.502   6.533   2.837
 7509SOL     OW23425   5.473   4.496   0.015
 7509SOL    HW123426   5.409   4.551   0.068
 7509SOL    HW223427   5.442   4.401   0.015
 7510SOL     OW23428   3.023   3.943   4.595
 7510SOL    HW123429   3.114   3.982   4.578
 7510SOL    HW223430   3.014   3.922   4.692
 7511SOL     OW23431   1.281   0.341   2.483
 7511SOL    HW123432   1.242   0.257   2.446
 7511SOL    HW223433   1.368   0.360   2.436
 7512SOL     OW23434   2.631   3.535   1.342
 7512SOL    HW123435   2.659   3.456   1.397
 7512SOL    HW223436   2.709   3.596   1.329
 7513SOL     OW23437   1.410   2.697   6.426
 7513SOL    HW123438   1.407   2.610   6.376
 7513SOL    HW223439   1.480   2.756   6.387
 7514SOL     OW23440   3.127   6.065   1.762
 7514SOL    HW123441   3.180   6.140   1.802
 7514SOL    HW223442   3.114   5.993   1.830
 7515SOL     OW23443   0.327   0.143   2.796
 7515SOL    HW123444   0.318   0.240   2.821
 7515SOL    HW223445   0.287   0.087   2.868
 7516SOL     OW23446   6.786   6.651   4.075
 7516SOL    HW123447   6.849   6.635   4.151
 7516SOL    HW223448   6.760   6.564   4.034
 7517SOL     OW23449   6.810   3.809   1.463
 7517SOL    HW123450   6.716   3.806   1.427
 7517SOL    HW223451   6.839   3.716   1.486
 7518SOL     OW23452   4.242   5.732   3.408
 7518SOL    HW123453   4.245   5.832   3.408
 7518SOL    HW223454   4.147   5.702   3.412
 7519SOL     OW23455   1.295   6.814   4.648
 7519SOL    HW123456   1.326   6.865   4.567
 7519SOL    HW223457   1.251   6.877   4.711
 7520SOL     OW23458   1.651   6.679   2.733
 7520SOL    HW123459   1.671   6.770   2.769
 7520SOL    HW223460   1.560   6.679   2.692
 7521SOL     OW23461   4.503   4.568   5.394
 7521SOL    HW123462   4.473   4.473   5.408
 7521SOL    HW223463   4.522   4.610   5.482
 7522SOL     OW23464   2.439   1.064   0.046
 7522SOL    HW123465   2.506   1.056   6.996
 7522SOL    HW223466   2.419   0.973   0.082
 7523SOL     OW23467   6.251   6.708   5.281
 7523SOL    HW123468   6.249   6.736   5.185
 7523SOL    HW223469   6.164   6.731   5.325
 7524SOL     OW23470   0.073   1.900   5.769
 7524SOL    HW123471   0.122   1.890   5.683
 7524SOL    HW223472   0.136   1.933   5.840
 7525SOL     OW23473   2.002   0.145   0.442
 7525SOL    HW123474   2.034   0.227   0.489
 7525SOL    HW223475   1.972   0.168   0.350
 7526SOL     OW23476   3.552   3.239   4.417
 7526SOL    HW123477   3.533   3.294   4.499
 7526SOL    HW223478   3.477   3.250   4.352
 7527SOL     OW23479   5.072   4.120   2.362
 7527SOL    HW123480   5.067   4.210   2.405
 7527SOL    HW223481   5.129   4.126   2.280
 7528SOL     OW23482   4.600   2.653   0.762
 7528SOL    HW123483   4.632   2.621   0.851
 7528SOL    HW223484   4.507   2.688   0.771
 7529SOL     OW23485   4.185   0.897   4.326
 7529SOL    HW123486   4.151   0.890   4.233
 7529SOL    HW223487   4.271   0.847   4.335
 7530SOL     OW23488   0.076   3.407   2.473
 7530SOL    HW123489   0.115   3.315   2.470
 7530SOL    HW223490   0.150   3.474   2.479
 7531SOL     OW23491   4.334   1.874   3.780
 7531SOL    HW123492   4.390   1.791   3.781
 7531SOL    HW223493   4.339   1.916   3.689
 7532SOL     OW23494   5.260   5.801   1.953
 7532SOL    HW123495   5.170   5.772   1.923
 7532SOL    HW223496   5.272   5.899   1.933
 7533SOL     OW23497   2.432   1.394   3.632
 7533SOL    HW123498   2.447   1.296   3.619
 7533SOL    HW223499   2.482   1.425   3.713
 7534SOL     OW23500   4.057   6.199   5.231
 7534SOL    HW123501   4.063   6.221   5.328
 7534SOL    HW223502   3.984   6.132   5.217
 7535SOL     OW23503   2.402   1.961   5.164
 7535SOL    HW123504   2.493   1.997   5.145
 7535SOL    HW223505   2.340   1.986   5.090
 7536SOL     OW23506   5.009   4.841   5.218
 7536SOL    HW123507   4.950   4.764   5.239
 7536SOL    HW223508   5.080   4.812   5.154
 7537SOL     OW23509   2.255   4.643   4.664
 7537SOL    HW123510   2.235   4.546   4.669
 7537SOL    HW223511   2.247   4.684   4.755
 7538SOL     OW23512   3.345   3.328   3.075
 7538SOL    HW123513   3.445   3.339   3.080
 7538SOL    HW223514   3.303   3.376   3.151
 7539SOL     OW23515   1.954   2.758   5.344
 7539SOL    HW123516   1.892   2.782   5.269
 7539SOL    HW223517   1.973   2.660   5.341
 7540SOL     OW23518   2.904   0.797   6.927
 7540SOL    HW123519   3.004   0.795   6.925
 7540SOL    HW223520   2.872   0.892   6.923
 7541SOL     OW23521   6.318   3.023   5.561
 7541SOL    HW123522   6.339   3.116   5.529
 7541SOL    HW223523   6.224   3.021   5.597
 7542SOL     OW23524   0.922   0.066   5.556
 7542SOL    HW123525   0.917   6.997   5.521
 7542SOL    HW223526   0.837   0.114   5.535
 7543SOL     OW23527   4.180   2.466   0.529
 7543SOL    HW123528   4.198   2.546   0.471
 7543SOL    HW223529   4.222   2.480   0.619
 7544SOL     OW23530   0.347   2.234   2.868
 7544SOL    HW123531   0.374   2.140   2.891
 7544SOL    HW223532   0.428   2.285   2.841
 7545SOL     OW23533   4.503   6.696   2.806
 7545SOL    HW123534   4.465   6.774   2.856
 7545SOL    HW223535   4.485   6.708   2.708
 7546SOL     OW23536   4.961   1.048   6.942
 7546SOL    HW123537   5.005   1.133   6.913
 7546SOL    HW223538   5.021   0.999   7.005
 7547SOL     OW23539   4.224   0.470   0.246
 7547SOL    HW123540   4.217   0.371   0.233
 7547SOL    HW223541   4.313   0.492   0.286
 7548SOL     OW23542   2.143   1.774   0.895
 7548SOL    HW123543   2.046   1.749   0.895
 7548SOL    HW223544   2.154   1.865   0.937
 7549SOL     OW23545   5.767   1.842   2.511
 7549SOL    HW123546   5.723   1.843   2.421
 7549SOL    HW223547   5.803   1.751   2.530
 7550SOL     OW23548   2.053   5.960   2.503
 7550SOL    HW123549   1.961   5.921   2.506
 7550SOL    HW223550   2.102   5.923   2.424
 7551SOL     OW23551   4.576   3.668   0.064
 7551SOL    HW123552   4.618   3.752   0.098
 7551SOL    HW223553   4.491   3.651   0.113
 7552SOL     OW23554   2.605   5.669   4.594
 7552SOL    HW123555   2.557   5.719   4.665
 7552SOL    HW223556   2.542   5.649   4.518
 7553SOL     OW23557   4.157   4.662   6.186
 7553SOL    HW123558   4.206   4.650   6.271
 7553SOL    HW223559   4.067   4.619   6.193
 7554SOL     OW23560   4.929   2.205   0.796
 7554SOL    HW123561   4.874   2.225   0.877
 7554SOL    HW223562   5.015   2.255   0.800
 7555SOL     OW23563   0.779   5.581   5.233
 7555SOL    HW123564   0.853   5.636   5.194
 7555SOL    HW223565   0.694   5.599   5.182
 7556SOL     OW23566   0.544   3.301   5.459
 7556SOL    HW123567   0.482   3.241   5.407
 7556SOL    HW223568   0.539   3.277   5.556
 7557SOL     OW23569   5.395   3.987   6.264
 7557SOL    HW123570   5.403   3.888   6.267
 7557SOL    HW223571   5.320   4.017   6.324
 7558SOL     OW23572   2.189   2.174   3.615
 7558SOL    HW123573   2.220   2.261   3.653
 7558SOL    HW223574   2.119   2.192   3.545
 7559SOL     OW23575   6.389   5.286   1.090
 7559SOL    HW123576   6.452   5.350   1.134
 7559SOL    HW223577   6.405   5.285   0.992
 7560SOL     OW23578   4.759   0.120   0.143
 7560SOL    HW123579   4.726   0.038   0.095
 7560SOL    HW223580   4.809   0.092   0.225
 7561SOL     OW23581   0.687   3.871   0.979
 7561SOL    HW123582   0.721   3.776   0.978
 7561SOL    HW223583   0.752   3.930   0.930
 7562SOL     OW23584   5.597   5.883   4.670
 7562SOL    HW123585   5.594   5.885   4.770
 7562SOL    HW223586   5.614   5.976   4.635
 7563SOL     OW23587   2.568   0.393   1.602
 7563SOL    HW123588   2.537   0.391   1.697
 7563SOL    HW223589   2.491   0.377   1.541
 7564SOL     OW23590   5.456   0.003   3.224
 7564SOL    HW123591   5.531   0.042   3.170
 7564SOL    HW223592   5.381   0.069   3.229
 7565SOL     OW23593   4.959   5.059   6.544
 7565SOL    HW123594   4.925   5.142   6.500
 7565SOL    HW223595   4.965   4.985   6.476
 7566SOL     OW23596   0.078   4.944   4.096
 7566SOL    HW123597   0.158   5.003   4.111
 7566SOL    HW223598   7.019   4.996   4.114
 7567SOL     OW23599   2.596   4.235   6.019
 7567SOL    HW123600   2.539   4.316   6.033
 7567SOL    HW223601   2.605   4.216   5.921
 7568SOL     OW23602   5.788   5.438   4.003
 7568SOL    HW123603   5.753   5.379   3.931
 7568SOL    HW223604   5.722   5.442   4.078
 7569SOL     OW23605   4.254   6.079   6.742
 7569SOL    HW123606   4.255   6.157   6.680
 7569SOL    HW223607   4.304   6.002   6.700
 7570SOL     OW23608   5.532   4.247   4.815
 7570SOL    HW123609   5.560   4.255   4.911
 7570SOL    HW223610   5.440   4.284   4.805
 7571SOL     OW23611   5.370   3.643   2.177
 7571SOL    HW123612   5.296   3.589   2.138
 7571SOL    HW223613   5.339   3.738   2.189
 7572SOL     OW23614   5.295   0.425   3.947
 7572SOL    HW123615   5.226   0.374   3.895
 7572SOL    HW223616   5.323   0.505   3.895
 7573SOL     OW23617   6.913   6.003   4.350
 7573SOL    HW123618   6.938   5.911   4.381
 7573SOL    HW223619   6.814   6.010   4.344
 7574SOL     OW23620   5.929   1.381   3.900
 7574SOL    HW123621   5.929   1.284   3.873
 7574SOL    HW223622   5.973   1.435   3.829
 7575SOL     OW23623   4.372   0.946   6.273
 7575SOL    HW123624   4.456   0.942   6.220
 7575SOL    HW223625   4.375   1.025   6.335
 7576SOL     OW23626   5.647   5.198   0.324
 7576SOL    HW123627   5.617   5.166   0.414
 7576SOL    HW223628   5.654   5.120   0.262
 7577SOL     OW23629   6.468   0.146   4.571
 7577SOL    HW123630   6.537   0.211   4.602
 7577SOL    HW223631   6.419   0.109   4.649
 7578SOL     OW23632   1.969   6.671   4.204
 7578SOL    HW123633   1.949   6.573   4.213
 7578SOL    HW223634   2.063   6.689   4.233
 7579SOL     OW23635   4.249   2.208   2.318
 7579SOL    HW123636   4.190   2.183   2.242
 7579SOL    HW223637   4.302   2.290   2.293
 7580SOL     OW23638   1.416   3.693   2.795
 7580SOL    HW123639   1.514   3.699   2.816
 7580SOL    HW223640   1.386   3.780   2.756
 7581SOL     OW23641   5.243   2.379   0.420
 7581SOL    HW123642   5.281   2.338   0.337
 7581SOL    HW223643   5.148   2.407   0.402
 7582SOL     OW23644   3.750   1.588   0.617
 7582SOL    HW123645   3.667   1.557   0.662
 7582SOL    HW223646   3.727   1.645   0.538
 7583SOL     OW23647   5.946   4.390   2.193
 7583SOL    HW123648   5.875   4.345   2.246
 7583SOL    HW223649   6.026   4.330   2.186
 7584SOL     OW23650   2.415   6.689   1.315
 7584SOL    HW123651   2.467   6.618   1.362
 7584SOL    HW223652   2.476   6.739   1.253
 7585SOL     OW23653   1.042   4.109   6.324
 7585SOL    HW123654   1.031   4.155   6.412
 7585SOL    HW223655   1.116   4.042   6.330
 7586SOL     OW23656   2.629   0.393   2.426
 7586SOL    HW123657   2.605   0.490   2.424
 7586SOL    HW223658   2.570   0.345   2.491
 7587SOL     OW23659   2.091   1.631   6.652
 7587SOL    HW123660   2.099   1.700   6.580
 7587SOL    HW223661   2.125   1.670   6.738
 7588SOL     OW23662   0.835   4.931   2.202
 7588SOL    HW123663   0.768   5.004   2.189
 7588SOL    HW223664   0.874   4.936   2.294
 7589SOL     OW23665   5.906   5.908   0.489
 7589SOL    HW123666   5.978   5.888   0.556
 7589SOL    HW223667   5.843   5.975   0.527
 7590SOL     OW23668   2.686   1.752   5.569
 7590SOL    HW123669   2.682   1.811   5.488
 7590SOL    HW223670   2.782   1.740   5.596
 7591SOL     OW23671   0.445   4.951   0.556
 7591SOL    HW123672   0.401   5.020   0.613
 7591SOL    HW223673   0.483   4.995   0.475
 7592SOL     OW23674   6.892   4.957   0.125
 7592SOL    HW123675   6.966   4.990   0.066
 7592SOL    HW223676   6.805   4.997   0.095
 7593SOL     OW23677   5.375   2.715   0.038
 7593SOL    HW123678   5.410   2.758   0.121
 7593SOL    HW223679   5.397   2.772   6.983
 7594SOL     OW23680   0.894   4.744   3.078
 7594SOL    HW123681   0.864   4.650   3.059
 7594SOL    HW223682   0.986   4.742   3.116
 7595SOL     OW23683   0.279   3.241   6.365
 7595SOL    HW123684   0.259   3.293   6.282
 7595SOL    HW223685   0.373   3.207   6.362
 7596SOL     OW23686   5.065   5.019   2.478
 7596SOL    HW123687   5.080   5.055   2.570
 7596SOL    HW223688   5.014   4.934   2.482
 7597SOL     OW23689   3.175   5.905   2.123
 7597SOL    HW123690   3.262   5.953   2.123
 7597SOL    HW223691   3.181   5.824   2.180
 7598SOL     OW23692   6.555   0.448   2.925
 7598SOL    HW123693   6.616   0.385   2.974
 7598SOL    HW223694   6.489   0.487   2.988
 7599SOL     OW23695   5.443   1.492   3.627
 7599SOL    HW123696   5.364   1.529   3.580
 7599SOL    HW223697   5.462   1.546   3.709
 7600SOL     OW23698   1.287   0.555   2.292
 7600SOL    HW123699   1.318   0.599   2.377
 7600SOL    HW223700   1.310   0.613   2.214
 7601SOL     OW23701   1.826   5.313   3.583
 7601SOL    HW123702   1.817   5.411   3.570
 7601SOL    HW223703   1.782   5.265   3.506
 7602SOL     OW23704   2.369   4.512   4.938
 7602SOL    HW123705   2.447   4.561   4.899
 7602SOL    HW223706   2.295   4.508   4.871
 7603SOL     OW23707   1.299   6.449   6.409
 7603SOL    HW123708   1.234   6.373   6.412
 7603SOL    HW223709   1.392   6.412   6.408
 7604SOL     OW23710   3.284   6.101   3.811
 7604SOL    HW123711   3.282   6.015   3.760
 7604SOL    HW223712   3.353   6.161   3.771
 7605SOL     OW23713   1.400   5.812   0.099
 7605SOL    HW123714   1.311   5.857   0.092
 7605SOL    HW223715   1.468   5.863   0.047
 7606SOL     OW23716   0.348   2.965   2.030
 7606SOL    HW123717   0.318   2.874   2.004
 7606SOL    HW223718   0.444   2.963   2.056
 7607SOL     OW23719   4.342   0.164   0.071
 7607SOL    HW123720   4.404   0.222   0.124
 7607SOL    HW223721   4.302   0.094   0.131
 7608SOL     OW23722   3.249   4.101   3.808
 7608SOL    HW123723   3.337   4.143   3.784
 7608SOL    HW223724   3.256   4.062   3.900
 7609SOL     OW23725   6.712   3.743   3.703
 7609SOL    HW123726   6.728   3.738   3.604
 7609SOL    HW223727   6.647   3.818   3.722
 7610SOL     OW23728   5.873   0.560   1.250
 7610SOL    HW123729   5.940   0.620   1.206
 7610SOL    HW223730   5.803   0.535   1.183
 7611SOL     OW23731   0.968   1.966   0.311
 7611SOL    HW123732   0.925   2.024   0.241
 7611SOL    HW223733   1.065   1.954   0.288
 7612SOL     OW23734   3.694   1.826   4.293
 7612SOL    HW123735   3.779   1.835   4.345
 7612SOL    HW223736   3.630   1.769   4.344
 7613SOL     OW23737   4.797   1.928   1.452
 7613SOL    HW123738   4.715   1.928   1.395
 7613SOL    HW223739   4.794   1.850   1.515
 7614SOL     OW23740   3.874   2.522   1.688
 7614SOL    HW123741   3.953   2.466   1.711
 7614SOL    HW223742   3.798   2.500   1.750
 7615SOL     OW23743   5.188   4.703   6.799
 7615SOL    HW123744   5.205   4.739   6.890
 7615SOL    HW223745   5.251   4.627   6.782
 7616SOL     OW23746   0.719   4.232   4.182
 7616SOL    HW123747   0.634   4.193   4.217
 7616SOL    HW223748   0.781   4.249   4.259
 7617SOL     OW23749   2.956   5.855   3.924
 7617SOL    HW123750   3.007   5.904   3.854
 7617SOL    HW223751   2.986   5.759   3.926
 7618SOL     OW23752   1.210   2.266   6.212
 7618SOL    HW123753   1.162   2.190   6.256
 7618SOL    HW223754   1.154   2.303   6.138
 7619SOL     OW23755   5.587   3.584   5.801
 7619SOL    HW123756   5.528   3.638   5.741
 7619SOL    HW223757   5.546   3.580   5.892
 7620SOL     OW23758   3.768   0.072   1.205
 7620SOL    HW123759   3.803   0.115   1.122
 7620SOL    HW223760   3.767   6.997   1.193
 7621SOL     OW23761   1.018   0.605   0.288
 7621SOL    HW123762   0.935   0.549   0.282
 7621SOL    HW223763   1.099   0.547   0.280
 7622SOL     OW23764   5.239   2.723   1.877
 7622SOL    HW123765   5.175   2.786   1.834
 7622SOL    HW223766   5.265   2.757   1.967
 7623SOL     OW23767   4.690   5.669   6.377
 7623SOL    HW123768   4.688   5.619   6.464
 7623SOL    HW223769   4.738   5.614   6.308
 7624SOL     OW23770   0.535   2.149   3.764
 7624SOL    HW123771   0.572   2.241   3.752
 7624SOL    HW223772   0.606   2.089   3.801
 7625SOL     OW23773   5.235   1.196   0.240
 7625SOL    HW123774   5.227   1.282   0.189
 7625SOL    HW223775   5.251   1.217   0.337
 7626SOL     OW23776   0.040   6.548   4.791
 7626SOL    HW123777   6.975   6.566   4.750
 7626SOL    HW223778   0.039   6.457   4.833
 7627SOL     OW23779   6.164   3.383   0.567
 7627SOL    HW123780   6.114   3.349   0.647
 7627SOL    HW223781   6.104   3.377   0.486
 7628SOL     OW23782   3.117   0.894   1.293
 7628SOL    HW123783   3.059   0.973   1.314
 7628SOL    HW223784   3.075   0.840   1.220
 7629SOL     OW23785   6.459   6.289   2.862
 7629SOL    HW123786   6.454   6.389   2.863
 7629SOL    HW223787   6.554   6.260   2.872
 7630SOL     OW23788   6.200   6.498   2.242
 7630SOL    HW123789   6.221   6.460   2.151
 7630SOL    HW223790   6.155   6.428   2.298
 7631SOL     OW23791   1.049   1.909   5.263
 7631SOL    HW123792   1.120   1.909   5.194
 7631SOL    HW223793   1.090   1.906   5.354
 7632SOL     OW23794   3.886   2.202   1.222
 7632SOL    HW123795   3.819   2.138   1.260
 7632SOL    HW223796   3.863   2.222   1.127
 7633SOL     OW23797   5.588   3.190   0.437
 7633SOL    HW123798   5.527   3.234   0.503
 7633SOL    HW223799   5.636   3.114   0.480
 7634SOL     OW23800   1.114   1.252   2.299
 7634SOL    HW123801   1.166   1.287   2.221
 7634SOL    HW223802   1.033   1.309   2.313
 7635SOL     OW23803   2.592   5.651   5.333
 7635SOL    HW123804   2.653   5.663   5.255
 7635SOL    HW223805   2.637   5.593   5.401
 7636SOL     OW23806   1.173   1.361   3.671
 7636SOL    HW123807   1.266   1.343   3.703
 7636SOL    HW223808   1.125   1.274   3.657
 7637SOL     OW23809   1.685   6.814   3.765
 7637SOL    HW123810   1.666   6.732   3.818
 7637SOL    HW223811   1.778   6.809   3.726
 7638SOL     OW23812   5.565   5.769   1.634
 7638SOL    HW123813   5.572   5.678   1.595
 7638SOL    HW223814   5.508   5.827   1.576
 7639SOL     OW23815   1.455   2.055   6.615
 7639SOL    HW123816   1.426   1.961   6.632
 7639SOL    HW223817   1.540   2.055   6.562
 7640SOL     OW23818   2.077   1.888   0.243
 7640SOL    HW123819   2.143   1.813   0.256
 7640SOL    HW223820   2.067   1.939   0.328
 7641SOL     OW23821   0.781   4.687   2.075
 7641SOL    HW123822   0.690   4.696   2.034
 7641SOL    HW223823   0.806   4.773   2.119
 7642SOL     OW23824   2.856   1.801   2.843
 7642SOL    HW123825   2.917   1.796   2.923
 7642SOL    HW223826   2.782   1.865   2.861
 7643SOL     OW23827   4.931   2.533   3.447
 7643SOL    HW123828   4.869   2.460   3.419
 7643SOL    HW223829   4.934   2.538   3.547
 7644SOL     OW23830   6.220   2.231   2.468
 7644SOL    HW123831   6.273   2.296   2.414
 7644SOL    HW223832   6.122   2.245   2.451
 7645SOL     OW23833   4.887   5.058   6.099
 7645SOL    HW123834   4.957   5.125   6.073
 7645SOL    HW223835   4.929   4.967   6.104
 7646SOL     OW23836   1.797   2.101   2.608
 7646SOL    HW123837   1.846   2.069   2.689
 7646SOL    HW223838   1.710   2.053   2.601
 7647SOL     OW23839   0.830   3.492   1.823
 7647SOL    HW123840   0.928   3.480   1.843
 7647SOL    HW223841   0.820   3.547   1.741
 7648SOL     OW23842   4.567   2.163   3.503
 7648SOL    HW123843   4.555   2.261   3.486
 7648SOL    HW223844   4.596   2.150   3.598
 7649SOL     OW23845   0.476   0.481   2.423
 7649SOL    HW123846   0.506   0.488   2.328
 7649SOL    HW223847   0.415   0.402   2.433
 7650SOL     OW23848   6.118   3.117   2.271
 7650SOL    HW123849   6.163   3.035   2.237
 7650SOL    HW223850   6.044   3.143   2.208
 7651SOL     OW23851   2.178   6.956   6.867
 7651SOL    HW123852   2.242   6.892   6.909
 7651SOL    HW223853   2.203   0.025   6.890
 7652SOL     OW23854   6.623   3.849   4.334
 7652SOL    HW123855   6.674   3.820   4.415
 7652SOL    HW223856   6.687   3.859   4.257
 7653SOL     OW23857   2.019   1.201   0.760
 7653SOL    HW123858   1.965   1.118   0.776
 7653SOL    HW223859   2.024   1.219   0.662
 7654SOL     OW23860   4.800   2.431   3.188
 7654SOL    HW123861   4.758   2.509   3.233
 7654SOL    HW223862   4.761   2.421   3.096
 7655SOL     OW23863   3.912   0.277   3.928
 7655SOL    HW123864   3.850   0.329   3.870
 7655SOL    HW223865   3.965   0.213   3.872
 7656SOL     OW23866   0.658   5.928   6.092
 7656SOL    HW123867   0.723   5.854   6.077
 7656SOL    HW223868   0.572   5.907   6.047
 7657SOL     OW23869   3.190   2.154   2.722
 7657SOL    HW123870   3.101   2.130   2.683
 7657SOL    HW223871   3.252   2.182   2.648
 7658SOL     OW23872   4.570   0.119   5.987
 7658SOL    HW123873   4.542   0.155   6.076
 7658SOL    HW223874   4.496   0.064   5.948
 7659SOL     OW23875   5.647   6.787   0.142
 7659SOL    HW123876   5.598   6.795   0.229
 7659SOL    HW223877   5.683   6.694   0.131
 7660SOL     OW23878   5.923   5.636   3.865
 7660SOL    HW123879   5.915   5.542   3.898
 7660SOL    HW223880   6.018   5.666   3.873
 7661SOL     OW23881   6.113   2.044   4.724
 7661SOL    HW123882   6.037   2.079   4.670
 7661SOL    HW223883   6.086   2.040   4.821
 7662SOL     OW23884   1.648   2.453   1.728
 7662SOL    HW123885   1.735   2.496   1.706
 7662SOL    HW223886   1.659   2.399   1.812
 7663SOL     OW23887   6.968   5.625   6.368
 7663SOL    HW123888   6.938   5.681   6.291
 7663SOL    HW223889   6.907   5.546   6.377
 7664SOL     OW23890   3.270   6.737   2.916
 7664SOL    HW123891   3.256   6.751   2.818
 7664SOL    HW223892   3.283   6.826   2.960
 7665SOL     OW23893   3.396   6.891   3.549
 7665SOL    HW123894   3.329   6.961   3.571
 7665SOL    HW223895   3.465   6.888   3.622
 7666SOL     OW23896   7.007   0.011   1.181
 7666SOL    HW123897   6.944   0.021   1.105
 7666SOL    HW223898   0.052   6.966   1.158
 7667SOL     OW23899   5.291   5.723   0.510
 7667SOL    HW123900   5.389   5.702   0.509
 7667SOL    HW223901   5.246   5.679   0.432
 7668SOL     OW23902   3.375   3.895   1.655
 7668SOL    HW123903   3.465   3.873   1.618
 7668SOL    HW223904   3.324   3.811   1.671
 7669SOL     OW23905   5.160   1.183   4.644
 7669SOL    HW123906   5.142   1.241   4.565
 7669SOL    HW223907   5.208   1.236   4.714
 7670SOL     OW23908   1.330   6.057   6.373
 7670SOL    HW123909   1.260   6.127   6.391
 7670SOL    HW223910   1.341   5.999   6.454
 7671SOL     OW23911   4.479   1.210   4.213
 7671SOL    HW123912   4.566   1.162   4.222
 7671SOL    HW223913   4.492   1.307   4.234
 7672SOL     OW23914   6.074   6.968   3.545
 7672SOL    HW123915   6.131   6.954   3.463
 7672SOL    HW223916   6.108   6.910   3.619
 7673SOL     OW23917   2.168   5.134   0.683
 7673SOL    HW123918   2.211   5.063   0.628
 7673SOL    HW223919   2.216   5.220   0.669
 7674SOL     OW23920   6.730   2.009   4.227
 7674SOL    HW123921   6.712   1.924   4.277
 7674SOL    HW223922   6.805   2.058   4.271
 7675SOL     OW23923   5.056   0.487   2.112
 7675SOL    HW123924   5.122   0.547   2.066
 7675SOL    HW223925   4.981   0.543   2.148
 7676SOL     OW23926   0.474   2.129   6.686
 7676SOL    HW123927   0.467   2.073   6.769
 7676SOL    HW223928   0.500   2.223   6.711
 7677SOL     OW23929   1.568   2.768   1.794
 7677SOL    HW123930   1.469   2.782   1.792
 7677SOL    HW223931   1.588   2.676   1.827
 7678SOL     OW23932   1.420   1.118   6.164
 7678SOL    HW123933   1.429   1.118   6.064
 7678SOL    HW223934   1.438   1.026   6.199
 7679SOL     OW23935   1.278   5.971   4.997
 7679SOL    HW123936   1.371   6.007   4.990
 7679SOL    HW223937   1.264   5.931   5.087
 7680SOL     OW23938   2.360   3.070   6.843
 7680SOL    HW123939   2.429   3.085   6.772
 7680SOL    HW223940   2.352   2.972   6.862
 7681SOL     OW23941   3.404   0.260   0.148
 7681SOL    HW123942   3.359   0.331   0.202
 7681SOL    HW223943   3.483   0.225   0.198
 7682SOL     OW23944   2.002   6.811   1.578
 7682SOL    HW123945   1.929   6.793   1.511
 7682SOL    HW223946   2.064   6.733   1.580
 7683SOL     OW23947   6.708   2.752   3.215
 7683SOL    HW123948   6.708   2.846   3.248
 7683SOL    HW223949   6.785   2.739   3.152
 7684SOL     OW23950   5.748   2.523   6.697
 7684SOL    HW123951   5.787   2.530   6.605
 7684SOL    HW223952   5.755   2.428   6.728
 7685SOL     OW23953   3.731   2.345   7.004
 7685SOL    HW123954   3.760   2.262   0.027
 7685SOL    HW223955   3.639   2.331   6.966
 7686SOL     OW23956   4.212   0.543   3.146
 7686SOL    HW123957   4.224   0.449   3.115
 7686SOL    HW223958   4.296   0.594   3.128
 7687SOL     OW23959   5.474   5.999   5.967
 7687SOL    HW123960   5.493   6.097   5.962
 7687SOL    HW223961   5.549   5.948   5.925
 7688SOL     OW23962   6.769   6.855   6.380
 7688SOL    HW123963   6.840   6.850   6.450
 7688SOL    HW223964   6.807   6.831   6.291
 7689SOL     OW23965   4.910   5.875   3.849
 7689SOL    HW123966   5.003   5.839   3.844
 7689SOL    HW223967   4.861   5.853   3.765
 7690SOL     OW23968   5.798   5.589   2.578
 7690SOL    HW123969   5.876   5.604   2.517
 7690SOL    HW223970   5.766   5.494   2.570
 7691SOL     OW23971   4.832   3.054   4.087
 7691SOL    HW123972   4.793   3.009   4.007
 7691SOL    HW223973   4.784   3.023   4.169
 7692SOL     OW23974   0.878   0.070   1.115
 7692SOL    HW123975   0.953   0.009   1.088
 7692SOL    HW223976   0.855   0.054   1.211
 7693SOL     OW23977   4.485   1.076   6.928
 7693SOL    HW123978   4.490   0.991   6.979
 7693SOL    HW223979   4.412   1.134   6.965
 7694SOL     OW23980   0.917   4.392   3.690
 7694SOL    HW123981   0.971   4.382   3.773
 7694SOL    HW223982   0.830   4.437   3.712
 7695SOL     OW23983   4.212   0.457   0.965
 7695SOL    HW123984   4.269   0.517   1.021
 7695SOL    HW223985   4.189   0.503   0.879
 7696SOL     OW23986   6.916   2.277   4.151
 7696SOL    HW123987   6.967   2.196   4.182
 7696SOL    HW223988   6.973   2.330   4.089
 7697SOL     OW23989   2.477   1.024   2.884
 7697SOL    HW123990   2.569   1.062   2.886
 7697SOL    HW223991   2.449   1.008   2.789
 7698SOL     OW23992   0.193   3.183   4.315
 7698SOL    HW123993   0.190   3.245   4.237
 7698SOL    HW223994   0.225   3.232   4.396
 7699SOL     OW23995   2.554   5.759   6.702
 7699SOL    HW123996   2.642   5.793   6.735
 7699SOL    HW223997   2.546   5.775   6.604
 7700SOL     OW23998   4.536   6.579   5.441
 7700SOL    HW123999   4.482   6.654   5.481
 7700SOL    HW224000   4.633   6.606   5.441
 7701SOL     OW24001   6.307   1.497   6.243
 7701SOL    HW124002   6.223   1.442   6.240
 7701SOL    HW224003   6.383   1.440   6.276
 7702SOL     OW24004   3.946   6.153   6.217
 7702SOL    HW124005   3.968   6.233   6.274
 7702SOL    HW224006   3.847   6.144   6.209
 7703SOL     OW24007   6.400   1.471   5.201
 7703SOL    HW124008   6.368   1.564   5.221
 7703SOL    HW224009   6.424   1.464   5.105
 7704SOL     OW24010   4.117   4.889   5.954
 7704SOL    HW124011   4.199   4.867   6.006
 7704SOL    HW224012   4.045   4.823   5.976
 7705SOL     OW24013   3.654   4.687   5.376
 7705SOL    HW124014   3.592   4.750   5.423
 7705SOL    HW224015   3.672   4.721   5.283
 7706SOL     OW24016   5.781   0.972   5.626
 7706SOL    HW124017   5.853   0.981   5.694
 7706SOL    HW224018   5.697   1.014   5.661
 7707SOL     OW24019   0.271   5.480   6.236
 7707SOL    HW124020   0.326   5.541   6.293
 7707SOL    HW224021   0.239   5.403   6.291
 7708SOL     OW24022   5.027   5.958   5.126
 7708SOL    HW124023   5.018   6.056   5.111
 7708SOL    HW224024   4.968   5.930   5.202
 7709SOL     OW24025   5.149   2.949   2.538
 7709SOL    HW124026   5.066   2.956   2.593
 7709SOL    HW224027   5.145   2.866   2.482
 7710SOL     OW24028   2.120   0.150   0.841
 7710SOL    HW124029   2.164   0.099   0.914
 7710SOL    HW224030   2.038   0.195   0.877
 7711SOL     OW24031   6.323   6.425   5.315
 7711SOL    HW124032   6.290   6.519   5.313
 7711SOL    HW224033   6.375   6.406   5.232
 7712SOL     OW24034   6.819   5.418   1.339
 7712SOL    HW124035   6.745   5.485   1.340
 7712SOL    HW224036   6.879   5.434   1.261
 7713SOL     OW24037   2.325   4.094   0.743
 7713SOL    HW124038   2.227   4.115   0.753
 7713SOL    HW224039   2.365   4.156   0.676
 7714SOL     OW24040   6.425   4.965   4.535
 7714SOL    HW124041   6.409   4.965   4.633
 7714SOL    HW224042   6.401   5.054   4.497
 7715SOL     OW24043   5.319   0.973   0.987
 7715SOL    HW124044   5.318   0.962   1.087
 7715SOL    HW224045   5.225   0.985   0.954
 7716SOL     OW24046   4.762   2.862   3.130
 7716SOL    HW124047   4.692   2.919   3.173
 7716SOL    HW224048   4.812   2.915   3.062
 7717SOL     OW24049   2.782   1.632   5.016
 7717SOL    HW124050   2.758   1.679   4.931
 7717SOL    HW224051   2.699   1.609   5.066
 7718SOL     OW24052   1.908   1.776   3.231
 7718SOL    HW124053   1.932   1.716   3.307
 7718SOL    HW224054   1.960   1.750   3.150
 7719SOL     OW24055   6.913   3.223   3.818
 7719SOL    HW124056   6.917   3.268   3.728
 7719SOL    HW224057   6.824   3.241   3.860
 7720SOL     OW24058   6.706   6.397   0.708
 7720SOL    HW124059   6.606   6.389   0.699
 7720SOL    HW224060   6.748   6.394   0.618
 7721SOL     OW24061   2.012   4.699   2.959
 7721SOL    HW124062   2.014   4.677   2.861
 7721SOL    HW224063   2.002   4.615   3.011
 7722SOL     OW24064   0.400   5.391   2.755
 7722SOL    HW124065   0.490   5.357   2.726
 7722SOL    HW224066   0.411   5.447   2.837
 7723SOL     OW24067   6.714   3.774   0.654
 7723SOL    HW124068   6.792   3.805   0.708
 7723SOL    HW224069   6.742   3.762   0.559
 7724SOL     OW24070   2.181   4.584   2.235
 7724SOL    HW124071   2.261   4.528   2.214
 7724SOL    HW224072   2.121   4.586   2.155
 7725SOL     OW24073   5.076   2.202   2.806
 7725SOL    HW124074   5.031   2.124   2.764
 7725SOL    HW224075   5.007   2.267   2.838
 7726SOL     OW24076   0.276   4.446   3.894
 7726SOL    HW124077   0.317   4.383   3.828
 7726SOL    HW224078   0.305   4.539   3.875
 7727SOL     OW24079   6.145   1.893   4.054
 7727SOL    HW124080   6.207   1.971   4.062
 7727SOL    HW224081   6.196   1.810   4.035
 7728SOL     OW24082   1.082   3.063   2.922
 7728SOL    HW124083   1.007   3.002   2.898
 7728SOL    HW224084   1.082   3.142   2.862
 7729SOL     OW24085   6.111   2.527   1.199
 7729SOL    HW124086   6.034   2.465   1.215
 7729SOL    HW224087   6.117   2.593   1.273
 7730SOL     OW24088   5.712   5.844   2.281
 7730SOL    HW124089   5.691   5.748   2.262
 7730SOL    HW224090   5.671   5.902   2.212
 7731SOL     OW24091   6.369   1.044   0.772
 7731SOL    HW124092   6.353   0.958   0.819
 7731SOL    HW224093   6.289   1.068   0.717
 7732SOL     OW24094   4.582   5.829   0.841
 7732SOL    HW124095   4.483   5.820   0.850
 7732SOL    HW224096   4.623   5.844   0.931
 7733SOL     OW24097   4.083   6.955   1.561
 7733SOL    HW124098   4.095   0.030   1.559
 7733SOL    HW224099   4.148   6.912   1.499
 7734SOL     OW24100   1.540   3.366   3.340
 7734SOL    HW124101   1.612   3.381   3.272
 7734SOL    HW224102   1.507   3.455   3.372
 7735SOL     OW24103   4.740   4.550   6.700
 7735SOL    HW124104   4.675   4.512   6.766
 7735SOL    HW224105   4.694   4.566   6.613
 7736SOL     OW24106   5.262   4.516   0.562
 7736SOL    HW124107   5.264   4.500   0.661
 7736SOL    HW224108   5.309   4.601   0.541
 7737SOL     OW24109   4.359   1.836   0.817
 7737SOL    HW124110   4.301   1.917   0.817
 7737SOL    HW224111   4.420   1.838   0.738
 7738SOL     OW24112   2.510   6.039   0.892
 7738SOL    HW124113   2.585   6.088   0.848
 7738SOL    HW224114   2.457   6.102   0.948
 7739SOL     OW24115   0.674   2.454   1.017
 7739SOL    HW124116   0.594   2.477   1.073
 7739SOL    HW224117   0.660   2.488   0.924
 7740SOL     OW24118   0.077   6.880   2.774
 7740SOL    HW124119   0.063   6.967   2.726
 7740SOL    HW224120   0.168   6.879   2.816
 7741SOL     OW24121   1.651   5.635   4.657
 7741SOL    HW124122   1.750   5.638   4.670
 7741SOL    HW224123   1.607   5.617   4.745
 7742SOL     OW24124   6.525   1.852   3.107
 7742SOL    HW124125   6.466   1.869   3.028
 7742SOL    HW224126   6.566   1.938   3.138
 7743SOL     OW24127   4.505   3.075   5.767
 7743SOL    HW124128   4.456   3.139   5.707
 7743SOL    HW224129   4.453   2.989   5.773
 7744SOL     OW24130   0.044   6.264   3.961
 7744SOL    HW124131   0.084   6.231   3.875
 7744SOL    HW224132   0.073   6.205   4.036
 7745SOL     OW24133   3.831   2.077   6.462
 7745SOL    HW124134   3.829   2.088   6.561
 7745SOL    HW224135   3.906   2.132   6.423
 7746SOL     OW24136   1.956   6.873   0.083
 7746SOL    HW124137   1.886   6.850   0.015
 7746SOL    HW224138   1.969   6.972   0.086
 7747SOL     OW24139   4.817   6.536   0.790
 7747SOL    HW124140   4.880   6.470   0.751
 7747SOL    HW224141   4.734   6.489   0.820
 7748SOL     OW24142   3.207   3.714   5.809
 7748SOL    HW124143   3.149   3.633   5.814
 7748SOL    HW224144   3.278   3.700   5.739
 7749SOL     OW24145   4.978   3.137   5.567
 7749SOL    HW124146   5.014   3.164   5.477
 7749SOL    HW224147   4.879   3.120   5.559
 7750SOL     OW24148   0.730   6.295   1.744
 7750SOL    HW124149   0.812   6.317   1.796
 7750SOL    HW224150   0.652   6.347   1.780
 7751SOL     OW24151   1.031   1.585   2.102
 7751SOL    HW124152   1.130   1.578   2.111
 7751SOL    HW224153   1.008   1.623   2.013
 7752SOL     OW24154   4.905   0.435   4.483
 7752SOL    HW124155   4.880   0.393   4.570
 7752SOL    HW224156   4.893   0.369   4.409
 7753SOL     OW24157   1.801   1.419   4.177
 7753SOL    HW124158   1.773   1.492   4.240
 7753SOL    HW224159   1.888   1.445   4.134
 7754SOL     OW24160   3.668   6.149   2.065
 7754SOL    HW124161   3.767   6.152   2.053
 7754SOL    HW224162   3.629   6.239   2.046
 7755SOL     OW24163   1.792   4.063   6.655
 7755SOL    HW124164   1.830   3.984   6.705
 7755SOL    HW224165   1.806   4.146   6.708
 7756SOL     OW24166   2.283   5.940   1.358
 7756SOL    HW124167   2.377   5.975   1.360
 7756SOL    HW224168   2.267   5.895   1.270
 7757SOL     OW24169   0.300   4.607   1.956
 7757SOL    HW124170   0.238   4.660   1.899
 7757SOL    HW224171   0.249   4.535   2.003
 7758SOL     OW24172   1.621   0.891   5.923
 7758SOL    HW124173   1.531   0.932   5.909
 7758SOL    HW224174   1.690   0.941   5.871
 7759SOL     OW24175   2.545   2.381   6.204
 7759SOL    HW124176   2.589   2.439   6.136
 7759SOL    HW224177   2.608   2.308   6.231
 7760SOL     OW24178   4.241   2.080   1.833
 7760SOL    HW124179   4.195   1.994   1.855
 7760SOL    HW224180   4.230   2.099   1.735
 7761SOL     OW24181   5.379   5.373   4.356
 7761SOL    HW124182   5.324   5.455   4.366
 7761SOL    HW224183   5.362   5.311   4.433
 7762SOL     OW24184   0.226   0.172   3.914
 7762SOL    HW124185   0.127   0.157   3.917
 7762SOL    HW224186   0.247   0.242   3.846
 7763SOL     OW24187   2.682   0.573   5.230
 7763SOL    HW124188   2.657   0.667   5.207
 7763SOL    HW224189   2.608   0.531   5.284
 7764SOL     OW24190   3.275   3.780   5.441
 7764SOL    HW124191   3.287   3.843   5.364
 7764SOL    HW224192   3.275   3.831   5.526
 7765SOL     OW24193   7.024   3.257   4.063
 7765SOL    HW124194   6.963   3.312   4.120
 7765SOL    HW224195   6.993   3.260   3.968
 7766SOL     OW24196   0.786   4.754   0.304
 7766SOL    HW124197   0.689   4.732   0.297
 7766SOL    HW224198   0.832   4.683   0.357
 7767SOL     OW24199   3.402   0.499   2.606
 7767SOL    HW124200   3.490   0.490   2.654
 7767SOL    HW224201   3.391   0.422   2.543
 7768SOL     OW24202   4.405   4.931   2.896
 7768SOL    HW124203   4.328   4.911   2.835
 7768SOL    HW224204   4.438   4.847   2.937
 7769SOL     OW24205   3.781   2.102   5.540
 7769SOL    HW124206   3.858   2.140   5.591
 7769SOL    HW224207   3.777   2.142   5.449
 7770SOL     OW24208   1.131   3.269   4.584
 7770SOL    HW124209   1.050   3.303   4.534
 7770SOL    HW224210   1.101   3.210   4.659
 7771SOL     OW24211   2.991   2.781   5.727
 7771SOL    HW124212   3.059   2.762   5.656
 7771SOL    HW224213   3.024   2.747   5.815
 7772SOL     OW24214   5.323   0.920   1.249
 7772SOL    HW124215   5.397   0.878   1.302
 7772SOL    HW224216   5.266   0.975   1.309
 7773SOL     OW24217   3.226   5.776   0.461
 7773SOL    HW124218   3.310   5.742   0.418
 7773SOL    HW224219   3.172   5.699   0.495
 7774SOL     OW24220   5.087   1.591   2.575
 7774SOL    HW124221   5.068   1.683   2.608
 7774SOL    HW224222   5.050   1.524   2.639
 7775SOL     OW24223   3.559   0.918   6.848
 7775SOL    HW124224   3.603   0.838   6.889
 7775SOL    HW224225   3.627   0.968   6.794
 7776SOL     OW24226   1.091   6.556   5.177
 7776SOL    HW124227   1.143   6.537   5.260
 7776SOL    HW224228   0.994   6.565   5.200
 7777SOL     OW24229   5.726   4.937   4.056
 7777SOL    HW124230   5.704   4.898   4.145
 7777SOL    HW224231   5.745   4.863   3.991
 7778SOL     OW24232   6.232   4.264   2.988
 7778SOL    HW124233   6.171   4.211   2.928
 7778SOL    HW224234   6.322   4.273   2.944
 7779SOL     OW24235   3.264   6.252   1.939
 7779SOL    HW124236   3.167   6.273   1.929
 7779SOL    HW224237   3.288   6.246   2.035
 7780SOL     OW24238   6.535   5.690   5.439
 7780SOL    HW124239   6.613   5.650   5.486
 7780SOL    HW224240   6.462   5.622   5.431
 7781SOL     OW24241   1.814   2.760   0.619
 7781SOL    HW124242   1.904   2.804   0.627
 7781SOL    HW224243   1.816   2.691   0.547
 7782SOL     OW24244   6.295   5.006   3.447
 7782SOL    HW124245   6.261   4.973   3.359
 7782SOL    HW224246   6.394   4.991   3.451
 7783SOL     OW24247   0.868   7.020   5.175
 7783SOL    HW124248   0.910   0.082   5.203
 7783SOL    HW224249   0.813   0.010   5.093
 7784SOL     OW24250   2.539   2.331   2.163
 7784SOL    HW124251   2.591   2.359   2.081
 7784SOL    HW224252   2.443   2.357   2.152
 7785SOL     OW24253   1.504   6.263   2.594
 7785SOL    HW124254   1.546   6.344   2.553
 7785SOL    HW224255   1.505   6.188   2.528
 7786SOL     OW24256   4.377   0.605   6.691
 7786SOL    HW124257   4.428   0.554   6.760
 7786SOL    HW224258   4.442   0.647   6.627
 7787SOL     OW24259   2.569   3.223   1.139
 7787SOL    HW124260   2.656   3.185   1.168
 7787SOL    HW224261   2.507   3.149   1.111
 7788SOL     OW24262   1.461   4.745   1.350
 7788SOL    HW124263   1.363   4.760   1.340
 7788SOL    HW224264   1.505   4.830   1.380
 7789SOL     OW24265   3.344   0.611   6.733
 7789SOL    HW124266   3.302   0.570   6.653
 7789SOL    HW224267   3.441   0.586   6.736
 7790SOL     OW24268   5.783   5.041   2.197
 7790SOL    HW124269   5.714   4.972   2.173
 7790SOL    HW224270   5.868   5.021   2.149
 7791SOL     OW24271   2.168   5.842   1.610
 7791SOL    HW124272   2.190   5.745   1.610
 7791SOL    HW224273   2.201   5.884   1.525
 7792SOL     OW24274   0.733   1.543   2.850
 7792SOL    HW124275   0.755   1.559   2.753
 7792SOL    HW224276   0.760   1.451   2.876
 7793SOL     OW24277   4.101   1.767   0.321
 7793SOL    HW124278   4.185   1.799   0.276
 7793SOL    HW224279   4.075   1.678   0.283
 7794SOL     OW24280   0.989   5.515   3.066
 7794SOL    HW124281   1.011   5.612   3.051
 7794SOL    HW224282   1.060   5.458   3.025
 7795SOL     OW24283   2.699   5.424   5.958
 7795SOL    HW124284   2.631   5.406   6.029
 7795SOL    HW224285   2.671   5.378   5.873
 7796SOL     OW24286   3.852   3.016   6.155
 7796SOL    HW124287   3.943   3.002   6.195
 7796SOL    HW224288   3.785   2.961   6.206
 7797SOL     OW24289   0.593   5.516   3.458
 7797SOL    HW124290   0.498   5.484   3.457
 7797SOL    HW224291   0.594   5.615   3.446
 7798SOL     OW24292   0.370   1.977   1.513
 7798SOL    HW124293   0.438   2.022   1.570
 7798SOL    HW224294   0.413   1.902   1.462
 7799SOL     OW24295   2.814   6.373   3.376
 7799SOL    HW124296   2.796   6.472   3.382
 7799SOL    HW224297   2.734   6.323   3.408
 7800SOL     OW24298   0.617   6.127   1.149
 7800SOL    HW124299   0.567   6.198   1.199
 7800SOL    HW224300   0.703   6.107   1.195
 7801SOL     OW24301   1.136   2.566   2.520
 7801SOL    HW124302   1.115   2.480   2.568
 7801SOL    HW224303   1.139   2.641   2.585
 7802SOL     OW24304   6.595   4.113   5.831
 7802SOL    HW124305   6.551   4.184   5.886
 7802SOL    HW224306   6.526   4.054   5.790
 7803SOL     OW24307   5.060   2.333   5.530
 7803SOL    HW124308   4.987   2.296   5.587
 7803SOL    HW224309   5.062   2.433   5.539
 7804SOL     OW24310   2.514   2.102   4.699
 7804SOL    HW124311   2.546   2.016   4.660
 7804SOL    HW224312   2.414   2.106   4.694
 7805SOL     OW24313   5.500   2.327   1.400
 7805SOL    HW124314   5.563   2.386   1.350
 7805SOL    HW224315   5.538   2.308   1.491
 7806SOL     OW24316   6.378   2.108   5.180
 7806SOL    HW124317   6.379   2.026   5.123
 7806SOL    HW224318   6.471   2.142   5.192
 7807SOL     OW24319   2.307   4.749   5.905
 7807SOL    HW124320   2.352   4.680   5.848
 7807SOL    HW224321   2.210   4.727   5.915
 7808SOL     OW24322   5.201   4.315   2.734
 7808SOL    HW124323   5.282   4.302   2.792
 7808SOL    HW224324   5.166   4.407   2.746
 7809SOL     OW24325   5.111   4.756   3.519
 7809SOL    HW124326   5.205   4.726   3.505
 7809SOL    HW224327   5.087   4.747   3.616
 7810SOL     OW24328   4.224   6.141   5.029
 7810SOL    HW124329   4.214   6.047   4.995
 7810SOL    HW224330   4.154   6.158   5.098
 7811SOL     OW24331   1.209   5.482   2.154
 7811SOL    HW124332   1.291   5.540   2.147
 7811SOL    HW224333   1.131   5.539   2.180
 7812SOL     OW24334   2.491   2.797   5.560
 7812SOL    HW124335   2.575   2.842   5.589
 7812SOL    HW224336   2.412   2.847   5.597
 7813SOL     OW24337   5.844   2.242   1.196
 7813SOL    HW124338   5.791   2.325   1.178
 7813SOL    HW224339   5.904   2.257   1.275
 7814SOL     OW24340   6.516   3.257   1.937
 7814SOL    HW124341   6.506   3.319   1.859
 7814SOL    HW224342   6.458   3.288   2.012
 7815SOL     OW24343   6.118   2.715   5.524
 7815SOL    HW124344   6.093   2.727   5.427
 7815SOL    HW224345   6.059   2.773   5.580
 7816SOL     OW24346   0.589   1.851   5.283
 7816SOL    HW124347   0.512   1.898   5.327
 7816SOL    HW224348   0.588   1.870   5.185
 7817SOL     OW24349   3.297   2.839   6.474
 7817SOL    HW124350   3.231   2.804   6.541
 7817SOL    HW224351   3.268   2.930   6.444
 7818SOL     OW24352   5.515   1.347   2.325
 7818SOL    HW124353   5.589   1.372   2.263
 7818SOL    HW224354   5.500   1.421   2.391
 7819SOL     OW24355   0.977   3.840   4.073
 7819SOL    HW124356   1.017   3.768   4.130
 7819SOL    HW224357   0.976   3.926   4.123
 7820SOL     OW24358   1.376   0.743   5.507
 7820SOL    HW124359   1.290   0.793   5.521
 7820SOL    HW224360   1.365   0.648   5.536
 7821SOL     OW24361   6.310   5.813   0.159
 7821SOL    HW124362   6.235   5.748   0.169
 7821SOL    HW224363   6.389   5.767   0.118
 7822SOL     OW24364   1.305   1.203   4.651
 7822SOL    HW124365   1.241   1.143   4.603
 7822SOL    HW224366   1.303   1.183   4.749
 7823SOL     OW24367   1.531   3.929   6.871
 7823SOL    HW124368   1.534   3.974   6.782
 7823SOL    HW224369   1.542   3.997   6.943
 7824SOL     OW24370   5.218   2.431   2.428
 7824SOL    HW124371   5.155   2.456   2.502
 7824SOL    HW224372   5.277   2.357   2.458
 7825SOL     OW24373   2.824   3.110   1.549
 7825SOL    HW124374   2.748   3.057   1.513
 7825SOL    HW224375   2.860   3.064   1.631
 7826SOL     OW24376   6.230   1.068   0.307
 7826SOL    HW124377   6.225   1.160   0.346
 7826SOL    HW224378   6.314   1.060   0.253
 7827SOL     OW24379   4.782   5.129   1.671
 7827SOL    HW124380   4.770   5.140   1.769
 7827SOL    HW224381   4.706   5.075   1.634
 7828SOL     OW24382   0.781   6.415   0.615
 7828SOL    HW124383   0.720   6.479   0.568
 7828SOL    HW224384   0.876   6.444   0.604
 7829SOL     OW24385   2.930   2.979   1.774
 7829SOL    HW124386   2.936   2.881   1.758
 7829SOL    HW224387   3.023   3.017   1.783
 7830SOL     OW24388   6.186   3.414   6.572
 7830SOL    HW124389   6.219   3.380   6.660
 7830SOL    HW224390   6.102   3.366   6.547
 7831SOL     OW24391   1.297   3.331   0.624
 7831SOL    HW124392   1.308   3.299   0.718
 7831SOL    HW224393   1.207   3.375   0.614
 7832SOL     OW24394   2.680   1.877   5.328
 7832SOL    HW124395   2.662   1.974   5.318
 7832SOL    HW224396   2.762   1.853   5.275
 7833SOL     OW24397   0.684   6.586   0.440
 7833SOL    HW124398   0.734   6.538   0.368
 7833SOL    HW224399   0.617   6.648   0.398
 7834SOL     OW24400   0.593   0.761   1.844
 7834SOL    HW124401   0.526   0.811   1.789
 7834SOL    HW224402   0.633   0.823   1.912
 7835SOL     OW24403   2.226   2.998   4.832
 7835SOL    HW124404   2.132   3.020   4.858
 7835SOL    HW224405   2.287   3.012   4.910
 7836SOL     OW24406   3.296   6.609   6.761
 7836SOL    HW124407   3.371   6.658   6.716
 7836SOL    HW224408   3.333   6.531   6.811
 7837SOL     OW24409   6.165   6.230   2.389
 7837SOL    HW124410   6.166   6.163   2.315
 7837SOL    HW224411   6.252   6.226   2.438
 7838SOL     OW24412   4.220   6.984   4.750
 7838SOL    HW124413   4.231   7.001   4.848
 7838SOL    HW224414   4.126   6.957   4.731
 7839SOL     OW24415   5.974   4.590   4.789
 7839SOL    HW124416   5.980   4.642   4.704
 7839SOL    HW224417   5.878   4.584   4.818
 7840SOL     OW24418   5.085   2.794   4.217
 7840SOL    HW124419   5.053   2.865   4.280
 7840SOL    HW224420   5.142   2.729   4.267
 7841SOL     OW24421   0.073   2.309   6.792
 7841SOL    HW124422   0.086   2.256   6.876
 7841SOL    HW224423   0.135   2.276   6.721
 7842SOL     OW24424   2.254   1.614   2.882
 7842SOL    HW124425   2.174   1.648   2.930
 7842SOL    HW224426   2.241   1.625   2.783
 7843SOL     OW24427   5.812   4.422   1.362
 7843SOL    HW124428   5.861   4.388   1.443
 7843SOL    HW224429   5.878   4.441   1.289
 7844SOL     OW24430   4.268   0.768   3.535
 7844SOL    HW124431   4.276   0.861   3.501
 7844SOL    HW224432   4.174   0.736   3.523
 7845SOL     OW24433   6.551   1.061   4.369
 7845SOL    HW124434   6.632   1.118   4.357
 7845SOL    HW224435   6.578   0.964   4.366
 7846SOL     OW24436   2.196   0.550   1.582
 7846SOL    HW124437   2.158   0.543   1.675
 7846SOL    HW224438   2.231   0.642   1.567
 7847SOL     OW24439   0.327   0.467   0.519
 7847SOL    HW124440   0.236   0.471   0.560
 7847SOL    HW224441   0.355   0.371   0.509
 7848SOL     OW24442   4.016   3.871   1.398
 7848SOL    HW124443   3.966   3.805   1.454
 7848SOL    HW224444   4.001   3.963   1.434
 7849SOL     OW24445   4.952   2.984   4.478
 7849SOL    HW124446   4.906   3.059   4.431
 7849SOL    HW224447   4.886   2.911   4.497
 7850SOL     OW24448   6.835   1.027   5.120
 7850SOL    HW124449   6.846   0.961   5.194
 7850SOL    HW224450   6.762   0.996   5.058
 7851SOL     OW24451   5.964   0.391   0.203
 7851SOL    HW124452   5.866   0.402   0.219
 7851SOL    HW224453   5.979   0.370   0.107
 7852SOL     OW24454   3.197   6.348   0.009
 7852SOL    HW124455   3.245   6.279   6.980
 7852SOL    HW224456   3.128   6.392   6.977
 7853SOL     OW24457   2.759   2.125   0.808
 7853SOL    HW124458   2.808   2.127   0.895
 7853SOL    HW224459   2.820   2.156   0.735
 7854SOL     OW24460   3.429   4.047   2.112
 7854SOL    HW124461   3.528   4.033   2.103
 7854SOL    HW224462   3.410   4.102   2.193
 7855SOL     OW24463   4.245   5.105   6.545
 7855SOL    HW124464   4.288   5.116   6.456
 7855SOL    HW224465   4.149   5.079   6.533
 7856SOL     OW24466   5.782   3.613   5.321
 7856SOL    HW124467   5.782   3.641   5.225
 7856SOL    HW224468   5.787   3.513   5.327
 7857SOL     OW24469   6.162   1.808   5.842
 7857SOL    HW124470   6.082   1.764   5.801
 7857SOL    HW224471   6.193   1.755   5.920
 7858SOL     OW24472   6.480   4.165   3.973
 7858SOL    HW124473   6.396   4.196   4.018
 7858SOL    HW224474   6.506   4.230   3.902
 7859SOL     OW24475   1.140   4.886   5.894
 7859SOL    HW124476   1.058   4.940   5.877
 7859SOL    HW224477   1.150   4.816   5.823
 7860SOL     OW24478   4.021   6.908   1.827
 7860SOL    HW124479   4.028   6.932   1.731
 7860SOL    HW224480   3.994   6.988   1.880
 7861SOL     OW24481   4.002   5.299   1.240
 7861SOL    HW124482   3.989   5.208   1.278
 7861SOL    HW224483   4.036   5.292   1.146
 7862SOL     OW24484   3.007   4.122   1.845
 7862SOL    HW124485   2.948   4.060   1.793
 7862SOL    HW224486   2.960   4.209   1.859
 7863SOL     OW24487   6.552   6.345   2.136
 7863SOL    HW124488   6.516   6.347   2.230
 7863SOL    HW224489   6.652   6.347   2.139
 7864SOL     OW24490   0.543   5.716   5.055
 7864SOL    HW124491   0.490   5.720   5.140
 7864SOL    HW224492   0.576   5.807   5.032
 7865SOL     OW24493   3.632   6.311   3.347
 7865SOL    HW124494   3.715   6.270   3.385
 7865SOL    HW224495   3.647   6.408   3.331
 7866SOL     OW24496   2.728   1.784   3.150
 7866SOL    HW124497   2.677   1.771   3.235
 7866SOL    HW224498   2.757   1.879   3.142
 7867SOL     OW24499   6.509   5.865   2.174
 7867SOL    HW124500   6.545   5.922   2.100
 7867SOL    HW224501   6.554   5.776   2.172
 7868SOL     OW24502   5.074   6.379   1.005
 7868SOL    HW124503   5.075   6.361   0.907
 7868SOL    HW224504   4.979   6.384   1.036
 7869SOL     OW24505   6.933   3.113   2.083
 7869SOL    HW124506   6.865   3.127   2.010
 7869SOL    HW224507   6.901   3.042   2.145
 7870SOL     OW24508   0.087   5.412   4.035
 7870SOL    HW124509   7.011   5.412   4.030
 7870SOL    HW224510   0.125   5.407   3.943
 7871SOL     OW24511   5.852   2.894   3.064
 7871SOL    HW124512   5.942   2.852   3.072
 7871SOL    HW224513   5.843   2.938   2.975
 7872SOL     OW24514   0.328   3.486   3.079
 7872SOL    HW124515   0.407   3.439   3.117
 7872SOL    HW224516   0.283   3.427   3.011
 7873SOL     OW24517   6.967   6.250   6.108
 7873SOL    HW124518   6.936   6.159   6.083
 7873SOL    HW224519   6.956   6.264   6.206
 7874SOL     OW24520   5.814   1.713   0.039
 7874SOL    HW124521   5.739   1.767   0.078
 7874SOL    HW224522   5.872   1.773   7.008
 7875SOL     OW24523   5.182   3.992   6.455
 7875SOL    HW124524   5.093   4.035   6.472
 7875SOL    HW224525   5.245   4.016   6.529
 7876SOL     OW24526   6.746   0.221   4.287
 7876SOL    HW124527   6.673   0.229   4.219
 7876SOL    HW224528   6.751   0.126   4.319
 7877SOL     OW24529   6.589   2.927   2.909
 7877SOL    HW124530   6.630   2.945   2.820
 7877SOL    HW224531   6.645   2.862   2.959
 7878SOL     OW24532   4.694   4.627   2.325
 7878SOL    HW124533   4.703   4.706   2.264
 7878SOL    HW224534   4.698   4.658   2.420
 7879SOL     OW24535   4.985   6.434   3.374
 7879SOL    HW124536   5.043   6.356   3.397
 7879SOL    HW224537   4.948   6.473   3.458
 7880SOL     OW24538   0.432   6.298   6.668
 7880SOL    HW124539   0.410   6.234   6.594
 7880SOL    HW224540   0.529   6.321   6.665
 7881SOL     OW24541   0.241   4.338   5.520
 7881SOL    HW124542   0.210   4.427   5.555
 7881SOL    HW224543   0.268   4.348   5.424
 7882SOL     OW24544   0.607   3.074   2.524
 7882SOL    HW124545   0.614   3.130   2.607
 7882SOL    HW224546   0.697   3.068   2.480
 7883SOL     OW24547   2.797   1.340   2.947
 7883SOL    HW124548   2.734   1.397   3.000
 7883SOL    HW224549   2.779   1.351   2.849
 7884SOL     OW24550   1.694   4.766   3.887
 7884SOL    HW124551   1.750   4.744   3.807
 7884SOL    HW224552   1.598   4.770   3.859
 7885SOL     OW24553   5.938   5.614   2.912
 7885SOL    HW124554   5.842   5.588   2.923
 7885SOL    HW224555   5.994   5.561   2.975
 7886SOL     OW24556   4.880   3.168   1.702
 7886SOL    HW124557   4.905   3.076   1.731
 7886SOL    HW224558   4.790   3.166   1.658
 7887SOL     OW24559   3.982   3.154   6.730
 7887SOL    HW124560   3.932   3.233   6.765
 7887SOL    HW224561   3.919   3.078   6.715
 7888SOL     OW24562   6.182   1.704   4.293
 7888SOL    HW124563   6.208   1.796   4.263
 7888SOL    HW224564   6.263   1.645   4.295
 7889SOL     OW24565   6.020   5.150   0.493
 7889SOL    HW124566   6.022   5.174   0.397
 7889SOL    HW224567   6.030   5.232   0.549
 7890SOL     OW24568   1.157   2.761   4.309
 7890SOL    HW124569   1.223   2.835   4.318
 7890SOL    HW224570   1.165   2.698   4.386
 7891SOL     OW24571   0.131   2.409   4.021
 7891SOL    HW124572   0.157   2.453   4.107
 7891SOL    HW224573   0.183   2.450   3.946
 7892SOL     OW24574   1.739   2.996   5.383
 7892SOL    HW124575   1.838   3.002   5.391
 7892SOL    HW224576   1.705   3.074   5.330
 7893SOL     OW24577   6.242   0.399   1.931
 7893SOL    HW124578   6.179   0.469   1.965
 7893SOL    HW224579   6.197   0.310   1.932
 7894SOL     OW24580   2.303   1.456   5.890
 7894SOL    HW124581   2.271   1.502   5.808
 7894SOL    HW224582   2.349   1.370   5.865
 7895SOL     OW24583   3.651   6.183   3.776
 7895SOL    HW124584   3.652   6.095   3.823
 7895SOL    HW224585   3.615   6.170   3.683
 7896SOL     OW24586   4.100   2.383   1.739
 7896SOL    HW124587   4.146   2.295   1.755
 7896SOL    HW224588   4.159   2.442   1.684
 7897SOL     OW24589   3.941   3.673   6.391
 7897SOL    HW124590   3.993   3.637   6.469
 7897SOL    HW224591   3.913   3.597   6.332
 7898SOL     OW24592   5.116   0.296   4.570
 7898SOL    HW124593   5.041   0.360   4.560
 7898SOL    HW224594   5.203   0.342   4.552
 7899SOL     OW24595   5.119   5.256   1.733
 7899SOL    HW124596   5.125   5.234   1.635
 7899SOL    HW224597   5.122   5.171   1.786
 7900SOL     OW24598   0.514   4.147   0.848
 7900SOL    HW124599   0.433   4.162   0.904
 7900SOL    HW224600   0.503   4.064   0.793
 7901SOL     OW24601   5.595   1.152   6.378
 7901SOL    HW124602   5.529   1.178   6.448
 7901SOL    HW224603   5.560   1.073   6.327
 7902SOL     OW24604   6.849   5.821   2.840
 7902SOL    HW124605   6.885   5.733   2.870
 7902SOL    HW224606   6.891   5.895   2.893
 7903SOL     OW24607   2.691   1.660   4.285
 7903SOL    HW124608   2.744   1.741   4.308
 7903SOL    HW224609   2.612   1.686   4.230
 7904SOL     OW24610   6.091   0.929   2.297
 7904SOL    HW124611   5.999   0.925   2.259
 7904SOL    HW224612   6.154   0.962   2.227
 7905SOL     OW24613   5.692   1.014   0.721
 7905SOL    HW124614   5.755   1.074   0.671
 7905SOL    HW224615   5.632   0.968   0.656
 7906SOL     OW24616   1.717   4.992   0.978
 7906SOL    HW124617   1.712   5.067   0.911
 7906SOL    HW224618   1.757   4.911   0.934
 7907SOL     OW24619   5.986   0.530   2.546
 7907SOL    HW124620   6.060   0.597   2.538
 7907SOL    HW224621   5.905   0.575   2.584
 7908SOL     OW24622   0.468   1.132   6.076
 7908SOL    HW124623   0.411   1.162   5.999
 7908SOL    HW224624   0.556   1.179   6.072
 7909SOL     OW24625   5.310   4.192   2.513
 7909SOL    HW124626   5.253   4.236   2.583
 7909SOL    HW224627   5.362   4.118   2.554
 7910SOL     OW24628   2.122   3.467   0.948
 7910SOL    HW124629   2.057   3.474   1.024
 7910SOL    HW224630   2.215   3.466   0.985
 7911SOL     OW24631   0.944   3.965   0.838
 7911SOL    HW124632   1.037   3.999   0.826
 7911SOL    HW224633   0.892   3.980   0.754
 7912SOL     OW24634   4.935   5.176   0.408
 7912SOL    HW124635   4.942   5.081   0.379
 7912SOL    HW224636   5.019   5.225   0.384
 7913SOL     OW24637   0.837   4.003   0.565
 7913SOL    HW124638   0.773   3.931   0.592
 7913SOL    HW224639   0.787   4.082   0.531
 7914SOL     OW24640   6.683   5.114   5.482
 7914SOL    HW124641   6.739   5.129   5.400
 7914SOL    HW224642   6.651   5.020   5.484
 7915SOL     OW24643   3.721   0.349   3.087
 7915SOL    HW124644   3.793   0.414   3.108
 7915SOL    HW224645   3.726   0.322   2.991
 7916SOL     OW24646   0.787   0.025   4.597
 7916SOL    HW124647   0.835   6.982   4.541
 7916SOL    HW224648   0.852   0.069   4.659
 7917SOL     OW24649   3.971   2.630   0.173
 7917SOL    HW124650   3.955   2.622   0.075
 7917SOL    HW224651   3.897   2.586   0.223
 7918SOL     OW24652   2.106   0.988   5.020
 7918SOL    HW124653   2.057   0.912   4.976
 7918SOL    HW224654   2.065   1.074   4.992
 7919SOL     OW24655   1.517   4.991   3.173
 7919SOL    HW124656   1.534   5.006   3.076
 7919SOL    HW224657   1.597   5.020   3.226
 7920SOL     OW24658   4.930   0.774   1.214
 7920SOL    HW124659   4.921   0.874   1.213
 7920SOL    HW224660   4.924   0.742   1.309
 7921SOL     OW24661   5.130   1.838   1.717
 7921SOL    HW124662   5.051   1.779   1.702
 7921SOL    HW224663   5.213   1.791   1.686
 7922SOL     OW24664   0.974   6.367   6.834
 7922SOL    HW124665   1.033   6.288   6.814
 7922SOL    HW224666   0.987   6.436   6.763
 7923SOL     OW24667   4.144   1.825   6.699
 7923SOL    HW124668   4.175   1.733   6.675
 7923SOL    HW224669   4.096   1.866   6.621
 7924SOL     OW24670   5.993   6.527   1.457
 7924SOL    HW124671   5.988   6.505   1.554
 7924SOL    HW224672   6.034   6.617   1.444
 7925SOL     OW24673   3.021   6.243   0.443
 7925SOL    HW124674   2.995   6.226   0.347
 7925SOL    HW224675   3.051   6.338   0.452
 7926SOL     OW24676   5.787   0.545   6.674
 7926SOL    HW124677   5.824   0.495   6.753
 7926SOL    HW224678   5.731   0.484   6.619
 7927SOL     OW24679   4.886   0.073   2.303
 7927SOL    HW124680   4.934   0.160   2.291
 7927SOL    HW224681   4.933   0.019   2.374
 7928SOL     OW24682   6.748   0.787   3.400
 7928SOL    HW124683   6.834   0.802   3.448
 7928SOL    HW224684   6.736   0.690   3.381
 7929SOL     OW24685   4.686   3.625   6.376
 7929SOL    HW124686   4.695   3.690   6.452
 7929SOL    HW224687   4.592   3.623   6.344
 7930SOL     OW24688   3.753   5.711   5.695
 7930SOL    HW124689   3.830   5.748   5.643
 7930SOL    HW224690   3.759   5.611   5.698
 7931SOL     OW24691   2.507   2.049   0.134
 7931SOL    HW124692   2.595   2.033   0.090
 7931SOL    HW224693   2.485   1.973   0.195
 7932SOL     OW24694   0.006   5.639   0.888
 7932SOL    HW124695   0.092   5.598   0.918
 7932SOL    HW224696   0.020   5.736   0.871
 7933SOL     OW24697   6.343   0.832   5.396
 7933SOL    HW124698   6.298   0.749   5.360
 7933SOL    HW224699   6.441   0.828   5.376
 7934SOL     OW24700   1.588   4.323   0.756
 7934SOL    HW124701   1.609   4.365   0.668
 7934SOL    HW224702   1.671   4.318   0.812
 7935SOL     OW24703   5.509   3.944   2.896
 7935SOL    HW124704   5.606   3.919   2.901
 7935SOL    HW224705   5.464   3.920   2.982
 7936SOL     OW24706   3.898   6.679   3.808
 7936SOL    HW124707   3.908   6.750   3.878
 7936SOL    HW224708   3.857   6.598   3.850
 7937SOL     OW24709   2.448   6.155   5.327
 7937SOL    HW124710   2.421   6.063   5.300
 7937SOL    HW224711   2.420   6.172   5.422
 7938SOL     OW24712   5.174   0.054   5.353
 7938SOL    HW124713   5.099   0.103   5.398
 7938SOL    HW224714   5.146   0.029   5.260
 7939SOL     OW24715   1.003   1.579   5.053
 7939SOL    HW124716   0.940   1.597   5.128
 7939SOL    HW224717   1.088   1.540   5.090
 7940SOL     OW24718   4.259   1.912   2.573
 7940SOL    HW124719   4.286   1.826   2.615
 7940SOL    HW224720   4.319   1.932   2.496
 7941SOL     OW24721   4.445   6.659   2.541
 7941SOL    HW124722   4.444   6.570   2.495
 7941SOL    HW224723   4.518   6.716   2.502
 7942SOL     OW24724   0.717   2.739   2.035
 7942SOL    HW124725   0.672   2.693   1.958
 7942SOL    HW224726   0.654   2.806   2.075
 7943SOL     OW24727   2.217   5.000   5.848
 7943SOL    HW124728   2.204   5.051   5.933
 7943SOL    HW224729   2.262   4.913   5.868
 7944SOL     OW24730   0.610   2.883   0.990
 7944SOL    HW124731   0.572   2.955   1.048
 7944SOL    HW224732   0.542   2.854   0.924
 7945SOL     OW24733   6.076   5.217   3.050
 7945SOL    HW124734   6.073   5.262   2.961
 7945SOL    HW224735   6.145   5.260   3.108
 7946SOL     OW24736   4.104   0.350   5.868
 7946SOL    HW124737   4.104   0.330   5.965
 7946SOL    HW224738   4.018   0.394   5.843
 7947SOL     OW24739   1.808   2.670   5.676
 7947SOL    HW124740   1.812   2.770   5.682
 7947SOL    HW224741   1.746   2.636   5.747
 7948SOL     OW24742   1.487   4.837   2.259
 7948SOL    HW124743   1.510   4.754   2.309
 7948SOL    HW224744   1.514   4.828   2.164
 7949SOL     OW24745   4.712   4.844   5.976
 7949SOL    HW124746   4.713   4.753   5.933
 7949SOL    HW224747   4.698   4.833   6.074
 7950SOL     OW24748   5.749   5.647   5.609
 7950SOL    HW124749   5.675   5.712   5.631
 7950SOL    HW224750   5.808   5.636   5.689
 7951SOL     OW24751   2.881   5.931   2.319
 7951SOL    HW124752   2.935   6.004   2.279
 7951SOL    HW224753   2.937   5.849   2.328
 7952SOL     OW24754   5.889   3.752   0.155
 7952SOL    HW124755   5.974   3.778   0.202
 7952SOL    HW224756   5.889   3.791   0.063
 7953SOL     OW24757   3.770   1.981   0.825
 7953SOL    HW124758   3.804   2.055   0.884
 7953SOL    HW224759   3.843   1.913   0.813
 7954SOL     OW24760   4.055   3.490   6.563
 7954SOL    HW124761   4.117   3.477   6.640
 7954SOL    HW224762   4.091   3.442   6.483
 7955SOL     OW24763   1.857   1.252   6.662
 7955SOL    HW124764   1.877   1.266   6.759
 7955SOL    HW224765   1.763   1.279   6.644
 7956SOL     OW24766   6.317   1.301   1.582
 7956SOL    HW124767   6.226   1.303   1.541
 7956SOL    HW224768   6.336   1.388   1.627
 7957SOL     OW24769   4.512   0.783   5.643
 7957SOL    HW124770   4.470   0.848   5.580
 7957SOL    HW224771   4.501   0.690   5.607
 7958SOL     OW24772   5.671   3.448   6.445
 7958SOL    HW124773   5.711   3.376   6.501
 7958SOL    HW224774   5.737   3.478   6.376
 7959SOL     OW24775   5.048   0.977   6.204
 7959SOL    HW124776   5.098   0.891   6.201
 7959SOL    HW224777   5.113   1.053   6.211
 7960SOL     OW24778   6.765   0.520   6.471
 7960SOL    HW124779   6.691   0.517   6.404
 7960SOL    HW224780   6.853   0.522   6.423
 7961SOL     OW24781   6.476   6.641   6.788
 7961SOL    HW124782   6.510   6.625   6.695
 7961SOL    HW224783   6.455   6.739   6.799
 7962SOL     OW24784   6.672   6.456   6.320
 7962SOL    HW124785   6.613   6.504   6.384
 7962SOL    HW224786   6.630   6.454   6.229
 7963SOL     OW24787   5.976   4.465   4.436
 7963SOL    HW124788   6.062   4.448   4.483
 7963SOL    HW224789   5.939   4.378   4.403
 7964SOL     OW24790   7.015   3.339   1.682
 7964SOL    HW124791   0.055   3.381   1.746
 7964SOL    HW224792   0.028   3.251   1.651
 7965SOL     OW24793   4.700   2.221   0.130
 7965SOL    HW124794   4.694   2.132   0.175
 7965SOL    HW224795   4.664   2.291   0.192
 7966SOL     OW24796   4.126   4.285   5.355
 7966SOL    HW124797   4.030   4.292   5.383
 7966SOL    HW224798   4.140   4.341   5.273
 7967SOL     OW24799   1.798   5.165   2.188
 7967SOL    HW124800   1.791   5.173   2.088
 7967SOL    HW224801   1.893   5.180   2.216
 7968SOL     OW24802   6.598   2.070   4.687
 7968SOL    HW124803   6.522   2.118   4.644
 7968SOL    HW224804   6.685   2.103   4.649
 7969SOL     OW24805   4.685   5.727   0.032
 7969SOL    HW124806   4.772   5.749   7.012
 7969SOL    HW224807   4.701   5.661   0.105
 7970SOL     OW24808   6.356   3.096   2.797
 7970SOL    HW124809   6.453   3.119   2.799
 7970SOL    HW224810   6.344   2.998   2.813
 7971SOL     OW24811   3.349   1.278   1.126
 7971SOL    HW124812   3.446   1.255   1.132
 7971SOL    HW224813   3.338   1.361   1.072
 7972SOL     OW24814   4.090   3.393   2.352
 7972SOL    HW124815   4.128   3.368   2.263
 7972SOL    HW224816   4.067   3.310   2.403
 7973SOL     OW24817   6.313   4.056   3.740
 7973SOL    HW124818   6.300   4.098   3.830
 7973SOL    HW224819   6.240   4.084   3.678
 7974SOL     OW24820   6.078   1.650   5.238
 7974SOL    HW124821   6.022   1.684   5.314
 7974SOL    HW224822   6.020   1.634   5.159
 7975SOL     OW24823   4.316   1.714   0.480
 7975SOL    HW124824   4.385   1.691   0.411
 7975SOL    HW224825   4.225   1.690   0.445
 7976SOL     OW24826   1.910   7.001   6.403
 7976SOL    HW124827   1.920   6.918   6.459
 7976SOL    HW224828   1.814   0.005   6.404
 7977SOL     OW24829   5.727   6.123   2.989
 7977SOL    HW124830   5.797   6.157   2.927
 7977SOL    HW224831   5.638   6.122   2.942
 7978SOL     OW24832   0.315   4.128   1.059
 7978SOL    HW124833   0.220   4.101   1.039
 7978SOL    HW224834   0.315   4.197   1.131
 7979SOL     OW24835   2.151   3.649   4.706
 7979SOL    HW124836   2.130   3.702   4.788
 7979SOL    HW224837   2.173   3.555   4.733
 7980SOL     OW24838   3.586   4.747   5.792
 7980SOL    HW124839   3.564   4.656   5.757
 7980SOL    HW224840   3.546   4.759   5.882
 7981SOL     OW24841   1.943   5.124   3.733
 7981SOL    HW124842   1.876   5.176   3.681
 7981SOL    HW224843   1.927   5.137   3.831
 7982SOL     OW24844   1.215   1.570   5.986
 7982SOL    HW124845   1.314   1.563   5.997
 7982SOL    HW224846   1.194   1.640   5.919
 7983SOL     OW24847   5.141   1.195   1.229
 7983SOL    HW124848   5.102   1.280   1.195
 7983SOL    HW224849   5.224   1.215   1.281
 7984SOL     OW24850   0.582   1.912   1.091
 7984SOL    HW124851   0.537   1.990   1.134
 7984SOL    HW224852   0.637   1.944   1.013
 7985SOL     OW24853   2.255   2.228   5.481
 7985SOL    HW124854   2.332   2.263   5.429
 7985SOL    HW224855   2.170   2.267   5.446
 7986SOL     OW24856   3.486   1.776   4.479
 7986SOL    HW124857   3.463   1.869   4.451
 7986SOL    HW224858   3.402   1.721   4.485
 7987SOL     OW24859   1.424   3.621   0.982
 7987SOL    HW124860   1.506   3.638   0.927
 7987SOL    HW224861   1.403   3.523   0.980
 7988SOL     OW24862   6.416   0.922   1.455
 7988SOL    HW124863   6.344   0.937   1.524
 7988SOL    HW224864   6.376   0.927   1.364
 7989SOL     OW24865   1.622   3.956   0.610
 7989SOL    HW124866   1.602   4.027   0.542
 7989SOL    HW224867   1.550   3.886   0.608
 7990SOL     OW24868   2.418   6.389   5.186
 7990SOL    HW124869   2.410   6.446   5.268
 7990SOL    HW224870   2.408   6.293   5.211
 7991SOL     OW24871   5.544   1.453   4.717
 7991SOL    HW124872   5.588   1.521   4.776
 7991SOL    HW224873   5.547   1.364   4.762
 7992SOL     OW24874   2.226   0.421   0.812
 7992SOL    HW124875   2.221   0.447   0.908
 7992SOL    HW224876   2.222   0.322   0.804
 7993SOL     OW24877   6.875   0.207   1.543
 7993SOL    HW124878   6.926   0.122   1.558
 7993SOL    HW224879   6.851   0.214   1.446
 7994SOL     OW24880   5.037   0.537   3.231
 7994SOL    HW124881   4.955   0.541   3.174
 7994SOL    HW224882   5.018   0.483   3.314
 7995SOL     OW24883   6.421   4.763   2.109
 7995SOL    HW124884   6.510   4.728   2.080
 7995SOL    HW224885   6.379   4.699   2.173
 7996SOL     OW24886   4.243   0.170   3.265
 7996SOL    HW124887   4.221   0.215   3.352
 7996SOL    HW224888   4.256   0.072   3.280
 7997SOL     OW24889   0.785   1.896   6.959
 7997SOL    HW124890   0.827   1.811   6.991
 7997SOL    HW224891   0.724   1.877   6.882
 7998SOL     OW24892   2.715   0.205   0.097
 7998SOL    HW124893   2.795   0.261   0.121
 7998SOL    HW224894   2.672   0.171   0.180
 7999SOL     OW24895   1.202   1.936   5.504
 7999SOL    HW124896   1.209   2.035   5.519
 7999SOL    HW224897   1.279   1.889   5.548
 8000SOL     OW24898   5.894   6.634   6.071
 8000SOL    HW124899   5.952   6.708   6.104
 8000SOL    HW224900   5.949   6.566   6.022
 8001SOL     OW24901   5.201   0.236   0.839
 8001SOL    HW124902   5.146   0.317   0.858
 8001SOL    HW224903   5.244   0.245   0.749
 8002SOL     OW24904   0.588   0.858   5.709
 8002SOL    HW124905   0.489   0.874   5.707
 8002SOL    HW224906   0.618   0.843   5.803
 8003SOL     OW24907   2.085   6.814   2.686
 8003SOL    HW124908   2.029   6.747   2.734
 8003SOL    HW224909   2.065   6.811   2.588
 8004SOL     OW24910   1.823   2.863   3.628
 8004SOL    HW124911   1.863   2.911   3.550
 8004SOL    HW224912   1.739   2.817   3.599
 8005SOL     OW24913   2.707   0.061   4.368
 8005SOL    HW124914   2.673   7.002   4.412
 8005SOL    HW224915   2.804   0.049   4.346
 8006SOL     OW24916   3.752   5.398   4.888
 8006SOL    HW124917   3.784   5.493   4.885
 8006SOL    HW224918   3.797   5.350   4.963
 8007SOL     OW24919   6.287   1.934   6.154
 8007SOL    HW124920   6.363   1.999   6.149
 8007SOL    HW224921   6.202   1.980   6.132
 8008SOL     OW24922   3.817   6.609   0.206
 8008SOL    HW124923   3.880   6.610   0.129
 8008SOL    HW224924   3.724   6.623   0.173
 8009SOL     OW24925   4.903   1.867   1.198
 8009SOL    HW124926   4.823   1.816   1.167
 8009SOL    HW224927   4.898   1.881   1.297
 8010SOL     OW24928   2.725   2.610   5.483
 8010SOL    HW124929   2.732   2.709   5.479
 8010SOL    HW224930   2.629   2.583   5.491
 8011SOL     OW24931   3.593   2.062   1.764
 8011SOL    HW124932   3.615   2.121   1.842
 8011SOL    HW224933   3.635   1.972   1.778
 8012SOL     OW24934   1.201   3.014   5.641
 8012SOL    HW124935   1.232   2.953   5.568
 8012SOL    HW224936   1.242   3.104   5.630
 8013SOL     OW24937   1.103   2.509   3.335
 8013SOL    HW124938   1.099   2.601   3.294
 8013SOL    HW224939   1.027   2.454   3.300
 8014SOL     OW24940   1.780   0.429   3.164
 8014SOL    HW124941   1.756   0.512   3.215
 8014SOL    HW224942   1.843   0.452   3.090
 8015SOL     OW24943   1.300   0.420   5.985
 8015SOL    HW124944   1.373   0.352   5.989
 8015SOL    HW224945   1.217   0.378   5.948
 8016SOL     OW24946   3.936   1.587   5.283
 8016SOL    HW124947   3.971   1.614   5.373
 8016SOL    HW224948   3.841   1.617   5.275
 8017SOL     OW24949   6.692   6.932   0.633
 8017SOL    HW124950   6.609   6.973   0.670
 8017SOL    HW224951   6.763   7.001   0.626
 8018SOL     OW24952   3.981   1.954   0.148
 8018SOL    HW124953   3.994   1.884   0.078
 8018SOL    HW224954   4.032   1.929   0.230
 8019SOL     OW24955   3.118   3.239   0.824
 8019SOL    HW124956   3.206   3.281   0.848
 8019SOL    HW224957   3.056   3.245   0.901
 8020SOL     OW24958   6.169   7.004   5.215
 8020SOL    HW124959   6.263   0.005   5.195
 8020SOL    HW224960   6.136   6.940   5.146
 8021SOL     OW24961   2.236   1.951   2.270
 8021SOL    HW124962   2.218   2.012   2.347
 8021SOL    HW224963   2.272   2.004   2.193
 8022SOL     OW24964   5.806   0.541   1.912
 8022SOL    HW124965   5.732   0.524   1.847
 8022SOL    HW224966   5.808   0.468   1.980
 8023SOL     OW24967   5.653   5.765   3.276
 8023SOL    HW124968   5.564   5.730   3.247
 8023SOL    HW224969   5.688   5.829   3.207
 8024SOL     OW24970   1.550   6.015   6.174
 8024SOL    HW124971   1.625   6.046   6.232
 8024SOL    HW224972   1.465   6.018   6.226
 8025SOL     OW24973   1.715   4.704   1.694
 8025SOL    HW124974   1.763   4.668   1.614
 8025SOL    HW224975   1.617   4.683   1.687
 8026SOL     OW24976   0.258   4.448   0.519
 8026SOL    HW124977   0.340   4.392   0.515
 8026SOL    HW224978   0.251   4.492   0.609
 8027SOL     OW24979   4.209   6.662   5.568
 8027SOL    HW124980   4.191   6.635   5.663
 8027SOL    HW224981   4.123   6.679   5.521
 8028SOL     OW24982   3.456   5.674   4.517
 8028SOL    HW124983   3.510   5.681   4.601
 8028SOL    HW224984   3.359   5.664   4.540
 8029SOL     OW24985   5.435   1.686   1.925
 8029SOL    HW124986   5.379   1.631   1.988
 8029SOL    HW224987   5.451   1.776   1.965
 8030SOL     OW24988   5.954   4.955   1.068
 8030SOL    HW124989   6.042   4.984   1.030
 8030SOL    HW224990   5.965   4.866   1.112
 8031SOL     OW24991   5.577   0.437   3.375
 8031SOL    HW124992   5.542   0.452   3.283
 8031SOL    HW224993   5.614   0.345   3.383
 8032SOL     OW24994   5.195   3.135   1.656
 8032SOL    HW124995   5.163   3.146   1.561
 8032SOL    HW224996   5.291   3.160   1.661
 8033SOL     OW24997   3.953   3.803   0.527
 8033SOL    HW124998   3.990   3.719   0.567
 8033SOL    HW224999   4.020   3.842   0.462
 8034SOL     OW25000   5.539   0.111   5.196
 8034SOL    HW125001   5.512   0.193   5.248
 8034SOL    HW225002   5.520   0.126   5.099
 8035SOL     OW25003   4.429   0.841   2.536
 8035SOL    HW125004   4.359   0.879   2.475
 8035SOL    HW225005   4.453   0.749   2.505
 8036SOL     OW25006   6.591   2.889   3.685
 8036SOL    HW125007   6.667   2.932   3.636
 8036SOL    HW225008   6.619   2.798   3.716
 8037SOL     OW25009   1.340   3.184   6.806
 8037SOL    HW125010   1.336   3.124   6.886
 8037SOL    HW225011   1.252   3.181   6.758
 8038SOL     OW25012   5.884   6.401   2.279
 8038SOL    HW125013   5.927   6.368   2.194
 8038SOL    HW225014   5.818   6.472   2.258
 8039SOL     OW25015   0.310   2.489   5.147
 8039SOL    HW125016   0.400   2.445   5.154
 8039SOL    HW225017   0.322   2.588   5.151
 8040SOL     OW25018   1.446   5.879   5.804
 8040SOL    HW125019   1.473   5.939   5.880
 8040SOL    HW225020   1.440   5.933   5.720
 8041SOL     OW25021   3.182   1.607   3.187
 8041SOL    HW125022   3.158   1.524   3.137
 8041SOL    HW225023   3.271   1.595   3.230
 8042SOL     OW25024   4.400   4.007   6.040
 8042SOL    HW125025   4.365   4.096   6.069
 8042SOL    HW225026   4.387   3.996   5.941
 8043SOL     OW25027   4.834   4.983   1.433
 8043SOL    HW125028   4.793   4.895   1.459
 8043SOL    HW225029   4.868   5.029   1.515
 8044SOL     OW25030   3.948   3.756   1.163
 8044SOL    HW125031   3.978   3.824   1.229
 8044SOL    HW225032   3.938   3.799   1.073
 8045SOL     OW25033   0.223   1.480   2.944
 8045SOL    HW125034   0.308   1.446   2.904
 8045SOL    HW225035   0.197   1.422   3.022
 8046SOL     OW25036   0.213   5.070   2.214
 8046SOL    HW125037   0.295   5.012   2.215
 8046SOL    HW225038   0.230   5.150   2.156
 8047SOL     OW25039   3.967   6.672   6.348
 8047SOL    HW125040   3.943   6.673   6.250
 8047SOL    HW225041   3.885   6.695   6.401
 8048SOL     OW25042   3.821   3.459   0.444
 8048SOL    HW125043   3.793   3.553   0.462
 8048SOL    HW225044   3.835   3.411   0.530
 8049SOL     OW25045   1.359   6.641   0.469
 8049SOL    HW125046   1.433   6.701   0.439
 8049SOL    HW225047   1.281   6.651   0.406
 8050SOL     OW25048   1.602   4.160   4.506
 8050SOL    HW125049   1.558   4.225   4.444
 8050SOL    HW225050   1.671   4.107   4.456
 8051SOL     OW25051   4.930   5.972   4.287
 8051SOL    HW125052   5.022   5.933   4.290
 8051SOL    HW225053   4.877   5.940   4.365
 8052SOL     OW25054   2.544   1.287   2.255
 8052SOL    HW125055   2.612   1.358   2.240
 8052SOL    HW225056   2.462   1.307   2.201
 8053SOL     OW25057   3.122   3.205   6.104
 8053SOL    HW125058   3.112   3.281   6.169
 8053SOL    HW225059   3.052   3.213   6.034
 8054SOL     OW25060   5.838   4.200   5.279
 8054SOL    HW125061   5.887   4.199   5.192
 8054SOL    HW225062   5.886   4.141   5.344
 8055SOL     OW25063   0.396   0.672   5.094
 8055SOL    HW125064   0.343   0.747   5.055
 8055SOL    HW225065   0.452   0.706   5.169
 8056SOL     OW25066   2.599   6.799   4.057
 8056SOL    HW125067   2.657   6.768   4.132
 8056SOL    HW225068   2.601   6.899   4.053
 8057SOL     OW25069   2.198   2.109   1.780
 8057SOL    HW125070   2.200   2.202   1.817
 8057SOL    HW225071   2.129   2.055   1.828
 8058SOL     OW25072   3.276   6.410   3.440
 8058SOL    HW125073   3.334   6.391   3.360
 8058SOL    HW225074   3.210   6.481   3.417
 8059SOL     OW25075   2.881   2.102   5.716
 8059SOL    HW125076   2.829   2.040   5.776
 8059SOL    HW225077   2.976   2.105   5.747
 8060SOL     OW25078   0.008   0.484   6.344
 8060SOL    HW125079   0.053   0.532   6.269
 8060SOL    HW225080   6.987   0.402   6.309
 8061SOL     OW25081   0.406   0.980   2.157
 8061SOL    HW125082   0.371   1.059   2.107
 8061SOL    HW225083   0.336   0.908   2.160
 8062SOL     OW25084   4.136   5.461   4.885
 8062SOL    HW125085   4.085   5.414   4.812
 8062SOL    HW225086   4.231   5.474   4.856
 8063SOL     OW25087   3.428   0.629   2.901
 8063SOL    HW125088   3.461   0.688   2.975
 8063SOL    HW225089   3.506   0.595   2.848
 8064SOL     OW25090   6.416   3.498   0.279
 8064SOL    HW125091   6.512   3.480   0.255
 8064SOL    HW225092   6.412   3.545   0.367
 8065SOL     OW25093   3.457   0.058   4.592
 8065SOL    HW125094   3.553   0.085   4.604
 8065SOL    HW225095   3.426   0.009   4.673
 8066SOL     OW25096   6.517   1.333   4.647
 8066SOL    HW125097   6.527   1.238   4.676
 8066SOL    HW225098   6.598   1.385   4.673
 8067SOL     OW25099   5.122   3.354   3.601
 8067SOL    HW125100   5.138   3.286   3.530
 8067SOL    HW225101   5.209   3.394   3.630
 8068SOL     OW25102   0.480   5.076   1.536
 8068SOL    HW125103   0.385   5.062   1.509
 8068SOL    HW225104   0.539   5.018   1.480
 8069SOL     OW25105   3.054   5.416   2.327
 8069SOL    HW125106   3.071   5.323   2.296
 8069SOL    HW225107   2.992   5.414   2.406
 8070SOL     OW25108   4.046   4.230   0.844
 8070SOL    HW125109   3.982   4.282   0.787
 8070SOL    HW225110   4.124   4.288   0.867
 8071SOL     OW25111   4.304   6.856   5.297
 8071SOL    HW125112   4.337   6.827   5.386
 8071SOL    HW225113   4.237   6.790   5.262
 8072SOL     OW25114   2.648   2.366   0.653
 8072SOL    HW125115   2.724   2.326   0.704
 8072SOL    HW225116   2.573   2.385   0.716
 8073SOL     OW25117   3.007   6.898   5.982
 8073SOL    HW125118   2.967   6.989   5.997
 8073SOL    HW225119   2.934   6.831   5.970
 8074SOL     OW25120   1.825   0.953   0.289
 8074SOL    HW125121   1.734   0.991   0.304
 8074SOL    HW225122   1.886   1.023   0.254
 8075SOL     OW25123   0.716   6.568   6.859
 8075SOL    HW125124   0.720   6.659   6.899
 8075SOL    HW225125   0.752   6.571   6.766
 8076SOL     OW25126   6.905   6.981   6.619
 8076SOL    HW125127   6.817   7.007   6.658
 8076SOL    HW225128   6.967   0.035   6.623
 8077SOL     OW25129   3.923   5.951   1.828
 8077SOL    HW125130   3.849   6.007   1.790
 8077SOL    HW225131   3.983   5.921   1.754
 8078SOL     OW25132   1.318   1.347   0.544
 8078SOL    HW125133   1.387   1.280   0.570
 8078SOL    HW225134   1.227   1.314   0.571
 8079SOL     OW25135   0.476   1.412   4.540
 8079SOL    HW125136   0.483   1.425   4.441
 8079SOL    HW225137   0.564   1.431   4.582
 8080SOL     OW25138   1.218   3.014   2.263
 8080SOL    HW125139   1.297   2.953   2.270
 8080SOL    HW225140   1.191   3.044   2.355
 8081SOL     OW25141   5.823   4.588   5.910
 8081SOL    HW125142   5.900   4.612   5.969
 8081SOL    HW225143   5.757   4.534   5.961
 8082SOL     OW25144   2.744   0.936   2.168
 8082SOL    HW125145   2.805   0.994   2.222
 8082SOL    HW225146   2.650   0.970   2.175
 8083SOL     OW25147   5.507   2.891   4.068
 8083SOL    HW125148   5.557   2.806   4.049
 8083SOL    HW225149   5.480   2.934   3.982
 8084SOL     OW25150   2.414   0.553   5.728
 8084SOL    HW125151   2.343   0.591   5.786
 8084SOL    HW225152   2.502   0.558   5.775
 8085SOL     OW25153   6.915   5.881   3.183
 8085SOL    HW125154   6.968   5.818   3.127
 8085SOL    HW225155   6.819   5.853   3.183
 8086SOL     OW25156   0.189   1.256   1.363
 8086SOL    HW125157   0.092   1.269   1.384
 8086SOL    HW225158   0.226   1.338   1.319
 8087SOL     OW25159   1.260   0.537   6.519
 8087SOL    HW125160   1.188   0.469   6.528
 8087SOL    HW225161   1.324   0.510   6.447
 8088SOL     OW25162   5.320   6.667   6.403
 8088SOL    HW125163   5.283   6.687   6.312
 8088SOL    HW225164   5.370   6.580   6.400
 8089SOL     OW25165   5.561   2.842   6.275
 8089SOL    HW125166   5.652   2.862   6.238
 8089SOL    HW225167   5.539   2.909   6.346
 8090SOL     OW25168   4.169   1.360   6.607
 8090SOL    HW125169   4.166   1.261   6.620
 8090SOL    HW225170   4.082   1.391   6.568
 8091SOL     OW25171   1.456   4.509   4.649
 8091SOL    HW125172   1.540   4.501   4.702
 8091SOL    HW225173   1.396   4.432   4.669
 8092SOL     OW25174   4.548   1.871   5.294
 8092SOL    HW125175   4.630   1.865   5.237
 8092SOL    HW225176   4.501   1.783   5.294
 8093SOL     OW25177   3.199   6.014   2.813
 8093SOL    HW125178   3.232   5.964   2.733
 8093SOL    HW225179   3.101   5.997   2.825
 8094SOL     OW25180   0.827   4.430   5.302
 8094SOL    HW125181   0.901   4.362   5.299
 8094SOL    HW225182   0.833   4.488   5.220
 8095SOL     OW25183   1.194   4.936   4.863
 8095SOL    HW125184   1.112   4.927   4.806
 8095SOL    HW225185   1.192   4.866   4.935
 8096SOL     OW25186   0.807   0.390   2.248
 8096SOL    HW125187   0.906   0.396   2.240
 8096SOL    HW225188   0.766   0.393   2.156
 8097SOL     OW25189   4.295   0.255   4.973
 8097SOL    HW125190   4.272   0.288   4.881
 8097SOL    HW225191   4.212   0.248   5.028
 8098SOL     OW25192   1.297   6.168   4.053
 8098SOL    HW125193   1.244   6.102   3.999
 8098SOL    HW225194   1.297   6.256   4.006
 8099SOL     OW25195   4.357   6.186   4.575
 8099SOL    HW125196   4.357   6.161   4.478
 8099SOL    HW225197   4.332   6.107   4.630
 8100SOL     OW25198   5.781   1.160   6.054
 8100SOL    HW125199   5.863   1.196   6.009
 8100SOL    HW225200   5.714   1.233   6.066
 8101SOL     OW25201   2.273   5.403   0.700
 8101SOL    HW125202   2.359   5.372   0.738
 8101SOL    HW225203   2.290   5.468   0.625
 8102SOL     OW25204   0.935   3.379   4.393
 8102SOL    HW125205   0.873   3.429   4.334
 8102SOL    HW225206   0.904   3.284   4.402
 8103SOL     OW25207   3.646   0.835   1.837
 8103SOL    HW125208   3.589   0.847   1.919
 8103SOL    HW225209   3.678   0.740   1.833
 8104SOL     OW25210   1.845   6.967   5.844
 8104SOL    HW125211   1.895   6.996   5.925
 8104SOL    HW225212   1.833   6.867   5.846
 8105SOL     OW25213   0.071   2.133   2.892
 8105SOL    HW125214   0.163   2.173   2.899
 8105SOL    HW225215   0.066   2.076   2.811
 8106SOL     OW25216   2.496   6.625   3.544
 8106SOL    HW125217   2.539   6.566   3.612
 8106SOL    HW225218   2.530   6.719   3.554
 8107SOL     OW25219   1.294   5.783   4.797
 8107SOL    HW125220   1.244   5.834   4.867
 8107SOL    HW225221   1.234   5.715   4.755
 8108SOL     OW25222   6.621   1.562   6.724
 8108SOL    HW125223   6.537   1.519   6.693
 8108SOL    HW225224   6.637   1.539   6.821
 8109SOL     OW25225   0.113   4.100   6.169
 8109SOL    HW125226   0.178   4.074   6.239
 8109SOL    HW225227   0.126   4.042   6.088
 8110SOL     OW25228   4.179   4.718   1.681
 8110SOL    HW125229   4.109   4.670   1.628
 8110SOL    HW225230   4.261   4.730   1.625
 8111SOL     OW25231   5.237   0.869   3.943
 8111SOL    HW125232   5.161   0.818   3.983
 8111SOL    HW225233   5.310   0.878   4.010
 8112SOL     OW25234   0.824   3.231   4.741
 8112SOL    HW125235   0.901   3.169   4.759
 8112SOL    HW225236   0.739   3.179   4.743
 8113SOL     OW25237   6.223   3.441   1.462
 8113SOL    HW125238   6.268   3.507   1.522
 8113SOL    HW225239   6.141   3.405   1.508
 8114SOL     OW25240   1.449   4.135   2.112
 8114SOL    HW125241   1.426   4.229   2.086
 8114SOL    HW225242   1.378   4.073   2.081
 8115SOL     OW25243   3.106   6.535   6.029
 8115SOL    HW125244   3.121   6.624   5.985
 8115SOL    HW225245   3.102   6.547   6.128
 8116SOL     OW25246   4.112   5.126   0.441
 8116SOL    HW125247   4.021   5.100   0.474
 8116SOL    HW225248   4.181   5.093   0.506
 8117SOL     OW25249   1.958   6.939   2.980
 8117SOL    HW125250   2.039   6.896   2.940
 8117SOL    HW225251   1.902   6.870   3.025
 8118SOL     OW25252   6.733   4.173   6.724
 8118SOL    HW125253   6.808   4.237   6.739
 8118SOL    HW225254   6.754   4.116   6.644
 8119SOL     OW25255   4.909   6.548   6.191
 8119SOL    HW125256   4.905   6.509   6.099
 8119SOL    HW225257   4.823   6.595   6.211
 8120SOL     OW25258   2.595   5.067   0.579
 8120SOL    HW125259   2.651   5.115   0.512
 8120SOL    HW225260   2.635   5.077   0.670
 8121SOL     OW25261   1.150   4.198   2.618
 8121SOL    HW125262   1.179   4.159   2.530
 8121SOL    HW225263   1.120   4.292   2.604
 8122SOL     OW25264   1.181   4.496   2.766
 8122SOL    HW125265   1.167   4.435   2.844
 8122SOL    HW225266   1.143   4.587   2.787
 8123SOL     OW25267   0.385   1.294   6.966
 8123SOL    HW125268   0.459   1.230   6.947
 8123SOL    HW225269   0.315   1.250   7.022
 8124SOL     OW25270   5.582   6.281   3.566
 8124SOL    HW125271   5.545   6.372   3.547
 8124SOL    HW225272   5.626   6.245   3.484
 8125SOL     OW25273   1.042   1.120   2.674
 8125SOL    HW125274   1.021   1.025   2.699
 8125SOL    HW225275   0.979   1.149   2.602
 8126SOL     OW25276   4.699   4.858   3.692
 8126SOL    HW125277   4.620   4.841   3.633
 8126SOL    HW225278   4.695   4.952   3.726
 8127SOL     OW25279   2.919   2.919   6.717
 8127SOL    HW125280   2.824   2.918   6.748
 8127SOL    HW225281   2.945   3.012   6.693
 8128SOL     OW25282   2.925   2.258   1.699
 8128SOL    HW125283   2.918   2.322   1.775
 8128SOL    HW225284   2.966   2.304   1.620
 8129SOL     OW25285   1.992   1.942   6.818
 8129SOL    HW125286   2.065   1.907   6.877
 8129SOL    HW225287   1.922   1.987   6.874
 8130SOL     OW25288   1.829   6.633   6.994
 8130SOL    HW125289   1.795   6.547   6.956
 8130SOL    HW225290   1.927   6.626   7.012
 8131SOL     OW25291   2.563   2.680   0.974
 8131SOL    HW125292   2.563   2.663   1.073
 8131SOL    HW225293   2.531   2.773   0.956
 8132SOL     OW25294   6.175   6.653   4.426
 8132SOL    HW125295   6.240   6.729   4.432
 8132SOL    HW225296   6.082   6.688   4.436
 8133SOL     OW25297   3.784   5.298   2.505
 8133SOL    HW125298   3.782   5.236   2.427
 8133SOL    HW225299   3.775   5.392   2.472
 8134SOL     OW25300   6.446   1.229   6.228
 8134SOL    HW125301   6.401   1.208   6.142
 8134SOL    HW225302   6.544   1.245   6.211
 8135SOL     OW25303   1.640   0.510   1.633
 8135SOL    HW125304   1.567   0.464   1.685
 8135SOL    HW225305   1.641   0.607   1.657
 8136SOL     OW25306   5.419   5.269   2.324
 8136SOL    HW125307   5.378   5.305   2.407
 8136SOL    HW225308   5.517   5.293   2.321
 8137SOL     OW25309   2.957   1.203   5.125
 8137SOL    HW125310   2.924   1.140   5.054
 8137SOL    HW225311   2.938   1.297   5.097
 8138SOL     OW25312   5.514   1.165   1.700
 8138SOL    HW125313   5.551   1.219   1.624
 8138SOL    HW225314   5.544   1.204   1.787
 8139SOL     OW25315   0.737   1.181   1.998
 8139SOL    HW125316   0.694   1.091   2.005
 8139SOL    HW225317   0.675   1.251   2.033
 8140SOL     OW25318   4.736   1.110   4.267
 8140SOL    HW125319   4.759   1.038   4.332
 8140SOL    HW225320   4.807   1.116   4.197
 8141SOL     OW25321   4.051   5.261   5.942
 8141SOL    HW125322   4.019   5.300   5.856
 8141SOL    HW225323   4.121   5.191   5.923
 8142SOL     OW25324   6.175   5.245   0.046
 8142SOL    HW125325   6.267   5.273   0.073
 8142SOL    HW225326   6.180   5.161   7.017
 8143SOL     OW25327   6.416   4.928   6.890
 8143SOL    HW125328   6.414   4.843   6.838
 8143SOL    HW225329   6.459   4.912   6.979
 8144SOL     OW25330   5.577   0.221   6.994
 8144SOL    HW125331   5.595   0.123   6.989
 8144SOL    HW225332   5.483   0.236   0.000
 8145SOL     OW25333   5.726   6.029   2.489
 8145SOL    HW125334   5.752   5.983   2.404
 8145SOL    HW225335   5.729   5.963   2.565
 8146SOL     OW25336   3.378   1.500   5.778
 8146SOL    HW125337   3.389   1.552   5.863
 8146SOL    HW225338   3.314   1.547   5.718
 8147SOL     OW25339   5.290   1.802   2.972
 8147SOL    HW125340   5.200   1.837   2.944
 8147SOL    HW225341   5.278   1.725   3.034
 8148SOL     OW25342   5.592   3.464   2.535
 8148SOL    HW125343   5.596   3.521   2.453
 8148SOL    HW225344   5.508   3.483   2.585
 8149SOL     OW25345   2.661   6.098   3.184
 8149SOL    HW125346   2.621   6.179   3.227
 8149SOL    HW225347   2.735   6.063   3.242
 8150SOL     OW25348   0.356   4.812   0.868
 8150SOL    HW125349   0.435   4.761   0.834
 8150SOL    HW225350   0.276   4.790   0.813
 8151SOL     OW25351   1.184   2.115   3.036
 8151SOL    HW125352   1.209   2.179   3.109
 8151SOL    HW225353   1.228   2.143   2.951
 8152SOL     OW25354   1.584   1.379   3.100
 8152SOL    HW125355   1.546   1.340   3.183
 8152SOL    HW225356   1.601   1.306   3.033
 8153SOL     OW25357   2.947   0.003   2.649
 8153SOL    HW125358   2.912   0.094   2.629
 8153SOL    HW225359   2.960   6.977   2.563
 8154SOL     OW25360   2.243   5.959   4.471
 8154SOL    HW125361   2.241   5.941   4.373
 8154SOL    HW225362   2.317   5.906   4.513
 8155SOL     OW25363   3.042   3.062   2.685
 8155SOL    HW125364   3.137   3.043   2.661
 8155SOL    HW225365   2.999   3.113   2.610
 8156SOL     OW25366   5.899   0.305   5.182
 8156SOL    HW125367   5.941   0.388   5.218
 8156SOL    HW225368   5.867   0.248   5.258
 8157SOL     OW25369   5.639   5.320   6.884
 8157SOL    HW125370   5.679   5.407   6.912
 8157SOL    HW225371   5.566   5.336   6.817
 8158SOL     OW25372   1.134   5.931   0.831
 8158SOL    HW125373   1.046   5.971   0.805
 8158SOL    HW225374   1.120   5.836   0.858
 8159SOL     OW25375   2.340   5.550   2.035
 8159SOL    HW125376   2.318   5.599   1.950
 8159SOL    HW225377   2.439   5.536   2.041
 8160SOL     OW25378   4.515   1.807   1.053
 8160SOL    HW125379   4.494   1.812   0.955
 8160SOL    HW225380   4.519   1.900   1.091
 8161SOL     OW25381   4.989   1.292   0.768
 8161SOL    HW125382   4.982   1.388   0.794
 8161SOL    HW225383   5.085   1.269   0.751
 8162SOL     OW25384   6.147   6.632   0.398
 8162SOL    HW125385   6.212   6.606   0.327
 8162SOL    HW225386   6.171   6.723   0.434
 8163SOL     OW25387   2.722   4.149   5.425
 8163SOL    HW125388   2.803   4.153   5.484
 8163SOL    HW225389   2.719   4.061   5.379
 8164SOL     OW25390   5.483   3.020   1.589
 8164SOL    HW125391   5.439   2.996   1.503
 8164SOL    HW225392   5.485   3.119   1.600
 8165SOL     OW25393   2.111   4.421   1.585
 8165SOL    HW125394   2.014   4.444   1.582
 8165SOL    HW225395   2.163   4.498   1.623
 8166SOL     OW25396   1.934   0.732   1.978
 8166SOL    HW125397   1.948   0.678   2.061
 8166SOL    HW225398   1.865   0.688   1.921
 8167SOL     OW25399   6.055   2.596   3.941
 8167SOL    HW125400   6.077   2.519   4.002
 8167SOL    HW225401   5.955   2.604   3.933
 8168SOL     OW25402   3.546   1.621   2.869
 8168SOL    HW125403   3.470   1.557   2.885
 8168SOL    HW225404   3.522   1.683   2.794
 8169SOL     OW25405   4.373   4.006   1.034
 8169SOL    HW125406   4.323   3.920   1.040
 8169SOL    HW225407   4.381   4.033   0.938
 8170SOL     OW25408   1.492   6.101   3.754
 8170SOL    HW125409   1.464   6.197   3.741
 8170SOL    HW225410   1.412   6.042   3.746
 8171SOL     OW25411   0.621   2.352   6.442
 8171SOL    HW125412   0.530   2.394   6.447
 8171SOL    HW225413   0.656   2.339   6.535
 8172SOL     OW25414   0.233   0.137   0.664
 8172SOL    HW125415   0.159   0.200   0.690
 8172SOL    HW225416   0.200   0.074   0.594
 8173SOL     OW25417   3.775   2.597   6.952
 8173SOL    HW125418   3.771   2.497   6.954
 8173SOL    HW225419   3.683   2.635   6.957
 8174SOL     OW25420   5.881   1.888   1.010
 8174SOL    HW125421   5.866   1.922   0.917
 8174SOL    HW225422   5.824   1.941   1.073
 8175SOL     OW25423   6.872   2.342   6.459
 8175SOL    HW125424   6.856   2.392   6.374
 8175SOL    HW225425   6.961   2.368   6.497
 8176SOL     OW25426   2.666   5.865   2.160
 8176SOL    HW125427   2.676   5.766   2.149
 8176SOL    HW225428   2.738   5.899   2.221
 8177SOL     OW25429   1.512   6.072   4.196
 8177SOL    HW125430   1.535   5.995   4.136
 8177SOL    HW225431   1.429   6.116   4.163
 8178SOL     OW25432   2.425   6.911   6.292
 8178SOL    HW125433   2.351   6.964   6.333
 8178SOL    HW225434   2.511   6.930   6.340
 8179SOL     OW25435   3.113   2.750   0.231
 8179SOL    HW125436   3.167   2.762   0.147
 8179SOL    HW225437   3.048   2.676   0.218
 8180SOL     OW25438   0.155   6.988   4.554
 8180SOL    HW125439   0.127   0.060   4.561
 8180SOL    HW225440   0.090   6.931   4.604
 8181SOL     OW25441   2.694   2.368   2.793
 8181SOL    HW125442   2.663   2.457   2.757
 8181SOL    HW225443   2.772   2.336   2.740
 8182SOL     OW25444   3.098   2.504   5.890
 8182SOL    HW125445   3.038   2.508   5.810
 8182SOL    HW225446   3.175   2.443   5.870
 8183SOL     OW25447   0.749   3.712   5.129
 8183SOL    HW125448   0.706   3.708   5.039
 8183SOL    HW225449   0.730   3.628   5.179
 8184SOL     OW25450   6.741   0.464   5.674
 8184SOL    HW125451   6.716   0.457   5.578
 8184SOL    HW225452   6.664   0.435   5.731
 8185SOL     OW25453   2.768   0.701   1.063
 8185SOL    HW125454   2.862   0.710   1.096
 8185SOL    HW225455   2.713   0.775   1.100
 8186SOL     OW25456   3.407   6.191   5.887
 8186SOL    HW125457   3.352   6.142   5.955
 8186SOL    HW225458   3.358   6.194   5.800
 8187SOL     OW25459   1.550   1.602   5.171
 8187SOL    HW125460   1.456   1.625   5.199
 8187SOL    HW225461   1.577   1.515   5.214
 8188SOL     OW25462   5.257   1.778   2.412
 8188SOL    HW125463   5.193   1.711   2.448
 8188SOL    HW225464   5.346   1.767   2.457
 8189SOL     OW25465   5.628   4.621   2.133
 8189SOL    HW125466   5.598   4.715   2.117
 8189SOL    HW225467   5.548   4.561   2.135
 8190SOL     OW25468   5.217   3.748   4.195
 8190SOL    HW125469   5.216   3.753   4.295
 8190SOL    HW225470   5.312   3.750   4.163
 8191SOL     OW25471   0.631   5.455   3.802
 8191SOL    HW125472   0.556   5.513   3.833
 8191SOL    HW225473   0.676   5.413   3.882
 8192SOL     OW25474   2.825   5.500   1.458
 8192SOL    HW125475   2.849   5.519   1.363
 8192SOL    HW225476   2.841   5.581   1.513
 8193SOL     OW25477   5.214   6.432   5.196
 8193SOL    HW125478   5.256   6.488   5.124
 8193SOL    HW225479   5.283   6.403   5.262
 8194SOL     OW25480   6.367   1.459   6.646
 8194SOL    HW125481   6.328   1.551   6.654
 8194SOL    HW225482   6.310   1.395   6.698
 8195SOL     OW25483   6.752   0.064   0.305
 8195SOL    HW125484   6.802   7.006   0.279
 8195SOL    HW225485   6.791   0.143   0.258
 8196SOL     OW25486   3.729   6.335   6.186
 8196SOL    HW125487   3.683   6.416   6.223
 8196SOL    HW225488   3.711   6.327   6.088
 8197SOL     OW25489   6.806   0.997   6.022
 8197SOL    HW125490   6.732   0.931   6.024
 8197SOL    HW225491   6.889   0.957   6.061
 8198SOL     OW25492   2.775   6.665   3.075
 8198SOL    HW125493   2.749   6.756   3.043
 8198SOL    HW225494   2.865   6.642   3.039
 8199SOL     OW25495   0.655   4.174   0.443
 8199SOL    HW125496   0.701   4.162   0.355
 8199SOL    HW225497   0.648   4.271   0.464
 8200SOL     OW25498   4.541   4.028   1.672
 8200SOL    HW125499   4.591   4.107   1.707
 8200SOL    HW225500   4.443   4.048   1.675
 8201SOL     OW25501   5.318   0.331   4.244
 8201SOL    HW125502   5.329   0.313   4.146
 8201SOL    HW225503   5.294   0.246   4.291
 8202SOL     OW25504   2.000   4.848   3.778
 8202SOL    HW125505   2.042   4.775   3.723
 8202SOL    HW225506   1.987   4.929   3.722
 8203SOL     OW25507   4.658   3.783   1.338
 8203SOL    HW125508   4.736   3.768   1.278
 8203SOL    HW225509   4.584   3.721   1.312
 8204SOL     OW25510   3.279   6.865   2.334
 8204SOL    HW125511   3.264   6.790   2.269
 8204SOL    HW225512   3.331   6.831   2.412
 8205SOL     OW25513   5.658   5.589   2.180
 8205SOL    HW125514   5.573   5.562   2.225
 8205SOL    HW225515   5.637   5.625   2.089
 8206SOL     OW25516   3.973   2.278   5.629
 8206SOL    HW125517   3.990   2.230   5.715
 8206SOL    HW225518   4.043   2.348   5.615
 8207SOL     OW25519   3.260   4.983   5.748
 8207SOL    HW125520   3.300   4.896   5.719
 8207SOL    HW225521   3.333   5.049   5.765
 8208SOL     OW25522   2.044   5.178   1.661
 8208SOL    HW125523   2.121   5.140   1.711
 8208SOL    HW225524   2.055   5.277   1.652
 8209SOL     OW25525   1.518   0.816   5.125
 8209SOL    HW125526   1.440   0.754   5.141
 8209SOL    HW225527   1.603   0.765   5.137
 8210SOL     OW25528   2.217   1.027   0.340
 8210SOL    HW125529   2.267   0.954   0.386
 8210SOL    HW225530   2.224   1.111   0.394
 8211SOL     OW25531   2.979   3.681   3.988
 8211SOL    HW125532   2.953   3.604   3.931
 8211SOL    HW225533   2.994   3.762   3.931
 8212SOL     OW25534   2.130   0.060   1.488
 8212SOL    HW125535   2.108   0.030   1.396
 8212SOL    HW225536   2.155   7.005   1.544
 8213SOL     OW25537   4.412   4.547   1.796
 8213SOL    HW125538   4.338   4.572   1.733
 8213SOL    HW225539   4.400   4.452   1.825
 8214SOL     OW25540   3.141   5.520   4.360
 8214SOL    HW125541   3.135   5.514   4.459
 8214SOL    HW225542   3.237   5.525   4.333
 8215SOL     OW25543   3.960   6.364   6.888
 8215SOL    HW125544   3.940   6.391   6.982
 8215SOL    HW225545   3.898   6.290   6.861
 8216SOL     OW25546   4.616   6.292   2.614
 8216SOL    HW125547   4.621   6.195   2.590
 8216SOL    HW225548   4.668   6.308   2.699
 8217SOL     OW25549   2.589   5.033   3.384
 8217SOL    HW125550   2.533   5.086   3.320
 8217SOL    HW225551   2.624   4.952   3.338
 8218SOL     OW25552   2.006   0.291   4.792
 8218SOL    HW125553   1.928   0.236   4.820
 8218SOL    HW225554   2.091   0.239   4.806
 8219SOL     OW25555   4.215   3.431   0.827
 8219SOL    HW125556   4.228   3.353   0.766
 8219SOL    HW225557   4.161   3.403   0.906
 8220SOL     OW25558   3.786   4.057   4.854
 8220SOL    HW125559   3.810   4.119   4.779
 8220SOL    HW225560   3.868   4.017   4.892
 8221SOL     OW25561   5.830   3.287   3.633
 8221SOL    HW125562   5.841   3.329   3.543
 8221SOL    HW225563   5.914   3.237   3.656
 8222SOL     OW25564   6.004   2.344   1.405
 8222SOL    HW125565   6.098   2.346   1.438
 8222SOL    HW225566   5.942   2.336   1.482
 8223SOL     OW25567   6.793   5.587   5.464
 8223SOL    HW125568   6.869   5.570   5.401
 8223SOL    HW225569   6.747   5.501   5.486
 8224SOL     OW25570   4.846   1.959   0.082
 8224SOL    HW125571   4.899   1.955   7.021
 8224SOL    HW225572   4.748   1.966   0.060
 8225SOL     OW25573   4.501   1.656   0.249
 8225SOL    HW125574   4.529   1.713   0.172
 8225SOL    HW225575   4.475   1.565   0.215
 8226SOL     OW25576   3.387   0.866   0.243
 8226SOL    HW125577   3.344   0.956   0.235
 8226SOL    HW225578   3.479   0.869   0.205
 8227SOL     OW25579   5.544   1.690   2.910
 8227SOL    HW125580   5.450   1.711   2.937
 8227SOL    HW225581   5.606   1.714   2.985
 8228SOL     OW25582   0.779   0.782   5.525
 8228SOL    HW125583   0.795   0.838   5.443
 8228SOL    HW225584   0.708   0.826   5.581
 8229SOL     OW25585   4.215   4.904   1.329
 8229SOL    HW125586   4.262   4.825   1.368
 8229SOL    HW225587   4.283   4.971   1.298
 8230SOL     OW25588   4.243   0.681   6.118
 8230SOL    HW125589   4.305   0.741   6.169
 8230SOL    HW225590   4.170   0.650   6.179
 8231SOL     OW25591   3.256   1.465   1.835
 8231SOL    HW125592   3.345   1.496   1.869
 8231SOL    HW225593   3.244   1.368   1.856
 8232SOL     OW25594   4.274   0.202   2.495
 8232SOL    HW125595   4.210   0.147   2.442
 8232SOL    HW225596   4.332   0.255   2.434
 8233SOL     OW25597   0.553   0.765   5.314
 8233SOL    HW125598   0.550   0.853   5.266
 8233SOL    HW225599   0.631   0.765   5.377
 8234SOL     OW25600   2.473   2.534   0.003
 8234SOL    HW125601   2.553   2.487   6.992
 8234SOL    HW225602   2.498   2.586   0.085
 8235SOL     OW25603   0.102   5.284   0.419
 8235SOL    HW125604   0.102   5.294   0.519
 8235SOL    HW225605   0.102   5.187   0.395
 8236SOL     OW25606   1.050   6.517   5.911
 8236SOL    HW125607   1.075   6.470   5.827
 8236SOL    HW225608   1.107   6.598   5.923
 8237SOL     OW25609   4.682   5.335   6.080
 8237SOL    HW125610   4.775   5.369   6.065
 8237SOL    HW225611   4.623   5.365   6.005
 8238SOL     OW25612   2.102   4.696   0.835
 8238SOL    HW125613   2.202   4.701   0.826
 8238SOL    HW225614   2.064   4.788   0.826
 8239SOL     OW25615   0.458   2.128   5.457
 8239SOL    HW125616   0.490   2.150   5.364
 8239SOL    HW225617   0.367   2.088   5.451
 8240SOL     OW25618   3.571   3.861   4.815
 8240SOL    HW125619   3.622   3.946   4.828
 8240SOL    HW225620   3.629   3.783   4.835
 8241SOL     OW25621   1.686   3.713   6.618
 8241SOL    HW125622   1.738   3.763   6.688
 8241SOL    HW225623   1.699   3.615   6.631
 8242SOL     OW25624   1.009   4.244   4.354
 8242SOL    HW125625   1.018   4.197   4.442
 8242SOL    HW225626   1.041   4.185   4.281
 8243SOL     OW25627   0.574   4.573   5.148
 8243SOL    HW125628   0.622   4.652   5.185
 8243SOL    HW225629   0.535   4.597   5.059
 8244SOL     OW25630   1.920   0.273   3.855
 8244SOL    HW125631   1.891   0.292   3.761
 8244SOL    HW225632   1.839   0.262   3.913
 8245SOL     OW25633   5.319   1.081   4.236
 8245SOL    HW125634   5.296   1.178   4.244
 8245SOL    HW225635   5.345   1.060   4.142
 8246SOL     OW25636   1.451   4.391   6.859
 8246SOL    HW125637   1.447   4.296   6.828
 8246SOL    HW225638   1.432   4.452   6.781
 8247SOL     OW25639   2.760   5.456   3.323
 8247SOL    HW125640   2.689   5.462   3.392
 8247SOL    HW225641   2.835   5.399   3.357
 8248SOL     OW25642   0.891   5.015   2.969
 8248SOL    HW125643   0.885   4.944   3.039
 8248SOL    HW225644   0.801   5.058   2.957
 8249SOL     OW25645   2.481   2.080   6.116
 8249SOL    HW125646   2.468   1.993   6.164
 8249SOL    HW225647   2.424   2.150   6.159
 8250SOL     OW25648   1.593   1.646   6.545
 8250SOL    HW125649   1.597   1.688   6.454
 8250SOL    HW225650   1.666   1.683   6.602
 8251SOL     OW25651   6.947   2.738   4.933
 8251SOL    HW125652   7.013   2.732   4.858
 8251SOL    HW225653   6.861   2.696   4.904
 8252SOL     OW25654   1.750   2.360   6.511
 8252SOL    HW125655   1.823   2.398   6.568
 8252SOL    HW225656   1.743   2.414   6.426
 8253SOL     OW25657   4.012   5.705   0.336
 8253SOL    HW125658   4.024   5.621   0.390
 8253SOL    HW225659   3.926   5.699   0.284
 8254SOL     OW25660   5.740   5.411   0.683
 8254SOL    HW125661   5.725   5.353   0.764
 8254SOL    HW225662   5.827   5.386   0.641
 8255SOL     OW25663   0.487   6.753   5.814
 8255SOL    HW125664   0.469   6.656   5.829
 8255SOL    HW225665   0.571   6.764   5.761
 8256SOL     OW25666   1.961   6.143   2.827
 8256SOL    HW125667   2.027   6.076   2.793
 8256SOL    HW225668   1.874   6.130   2.779
 8257SOL     OW25669   4.839   4.039   4.030
 8257SOL    HW125670   4.868   3.944   4.041
 8257SOL    HW225671   4.840   4.064   3.933
 8258SOL     OW25672   6.364   3.625   1.904
 8258SOL    HW125673   6.366   3.725   1.903
 8258SOL    HW225674   6.374   3.593   1.998
 8259SOL     OW25675   4.653   1.978   4.088
 8259SOL    HW125676   4.583   1.955   4.155
 8259SOL    HW225677   4.698   1.895   4.056
 8260SOL     OW25678   2.789   0.587   0.827
 8260SOL    HW125679   2.742   0.634   0.753
 8260SOL    HW225680   2.767   0.632   0.914
 8261SOL     OW25681   5.330   0.519   3.602
 8261SOL    HW125682   5.332   0.544   3.506
 8261SOL    HW225683   5.381   0.433   3.615
 8262SOL     OW25684   6.842   3.879   1.726
 8262SOL    HW125685   6.934   3.873   1.765
 8262SOL    HW225686   6.847   3.858   1.628
 8263SOL     OW25687   0.067   2.518   6.607
 8263SOL    HW125688   0.043   2.476   6.694
 8263SOL    HW225689   0.038   2.614   6.606
 8264SOL     OW25690   1.956   6.471   3.541
 8264SOL    HW125691   2.051   6.500   3.547
 8264SOL    HW225692   1.898   6.550   3.521
 8265SOL     OW25693   5.342   0.562   0.919
 8265SOL    HW125694   5.412   0.599   0.980
 8265SOL    HW225695   5.313   0.633   0.855
 8266SOL     OW25696   2.410   0.061   4.073
 8266SOL    HW125697   2.494   0.111   4.095
 8266SOL    HW225698   2.333   0.101   4.121
 8267SOL     OW25699   1.522   3.680   3.107
 8267SOL    HW125700   1.455   3.716   3.171
 8267SOL    HW225701   1.552   3.752   3.045
 8268SOL     OW25702   3.435   4.334   6.362
 8268SOL    HW125703   3.342   4.355   6.394
 8268SOL    HW225704   3.432   4.257   6.299
 8269SOL     OW25705   4.483   2.146   3.197
 8269SOL    HW125706   4.504   2.049   3.184
 8269SOL    HW225707   4.537   2.181   3.273
 8270SOL     OW25708   3.889   6.976   6.004
 8270SOL    HW125709   3.898   0.011   5.924
 8270SOL    HW225710   3.907   0.005   6.087
 8271SOL     OW25711   4.682   6.409   5.271
 8271SOL    HW125712   4.644   6.439   5.358
 8271SOL    HW225713   4.746   6.477   5.236
 8272SOL     OW25714   0.437   6.924   1.720
 8272SOL    HW125715   0.522   6.882   1.752
 8272SOL    HW225716   0.441   7.023   1.739
 8273SOL     OW25717   2.985   6.516   6.935
 8273SOL    HW125718   2.978   6.561   6.845
 8273SOL    HW225719   3.025   6.580   7.001
 8274SOL     OW25720   4.991   6.384   6.573
 8274SOL    HW125721   4.945   6.472   6.562
 8274SOL    HW225722   4.980   6.353   6.667
 8275SOL     OW25723   5.997   0.866   4.830
 8275SOL    HW125724   5.972   0.962   4.812
 8275SOL    HW225725   6.084   0.845   4.786
 8276SOL     OW25726   6.699   3.246   6.652
 8276SOL    HW125727   6.659   3.163   6.690
 8276SOL    HW225728   6.669   3.325   6.706
 8277SOL     OW25729   0.954   5.400   5.931
 8277SOL    HW125730   0.988   5.333   5.865
 8277SOL    HW225731   1.027   5.464   5.955
 8278SOL     OW25732   3.339   1.488   0.136
 8278SOL    HW125733   3.383   1.569   0.097
 8278SOL    HW225734   3.334   1.497   0.236
 8279SOL     OW25735   4.720   6.113   6.154
 8279SOL    HW125736   4.679   6.108   6.063
 8279SOL    HW225737   4.723   6.208   6.185
 8280SOL     OW25738   5.374   2.834   0.338
 8280SOL    HW125739   5.391   2.819   0.435
 8280SOL    HW225740   5.282   2.802   0.315
 8281SOL     OW25741   2.133   4.684   6.992
 8281SOL    HW125742   2.163   4.648   0.056
 8281SOL    HW225743   2.036   4.662   6.979
 8282SOL     OW25744   3.043   2.912   0.905
 8282SOL    HW125745   3.023   2.926   0.808
 8282SOL    HW225746   2.981   2.843   0.943
 8283SOL     OW25747   0.095   4.601   3.243
 8283SOL    HW125748   0.089   4.697   3.216
 8283SOL    HW225749   0.185   4.582   3.282
 8284SOL     OW25750   2.037   2.206   2.189
 8284SOL    HW125751   1.960   2.196   2.252
 8284SOL    HW225752   2.120   2.227   2.241
 8285SOL     OW25753   3.419   4.307   5.858
 8285SOL    HW125754   3.405   4.393   5.809
 8285SOL    HW225755   3.367   4.309   5.943
 8286SOL     OW25756   5.442   0.924   4.693
 8286SOL    HW125757   5.427   0.888   4.600
 8286SOL    HW225758   5.391   0.869   4.758
 8287SOL     OW25759   1.870   0.363   3.585
 8287SOL    HW125760   1.800   0.430   3.608
 8287SOL    HW225761   1.933   0.402   3.519
 8288SOL     OW25762   1.513   1.326   2.551
 8288SOL    HW125763   1.503   1.269   2.633
 8288SOL    HW225764   1.423   1.347   2.514
 8289SOL     OW25765   6.381   1.442   5.481
 8289SOL    HW125766   6.322   1.508   5.529
 8289SOL    HW225767   6.356   1.440   5.384
 8290SOL     OW25768   3.541   2.645   1.790
 8290SOL    HW125769   3.520   2.665   1.885
 8290SOL    HW225770   3.597   2.563   1.784
 8291SOL     OW25771   5.866   5.825   6.114
 8291SOL    HW125772   5.935   5.826   6.187
 8291SOL    HW225773   5.866   5.735   6.070
 8292SOL     OW25774   1.450   3.904   4.799
 8292SOL    HW125775   1.397   3.859   4.727
 8292SOL    HW225776   1.432   3.860   4.887
 8293SOL     OW25777   2.533   5.449   3.144
 8293SOL    HW125778   2.530   5.484   3.050
 8293SOL    HW225779   2.626   5.458   3.180
 8294SOL     OW25780   6.377   3.861   6.220
 8294SOL    HW125781   6.416   3.885   6.131
 8294SOL    HW225782   6.412   3.772   6.249
 8295SOL     OW25783   4.656   4.356   2.286
 8295SOL    HW125784   4.661   4.455   2.291
 8295SOL    HW225785   4.613   4.328   2.200
 8296SOL     OW25786   3.546   6.754   1.286
 8296SOL    HW125787   3.571   6.747   1.382
 8296SOL    HW225788   3.627   6.737   1.229
 8297SOL     OW25789   6.393   4.493   2.772
 8297SOL    HW125790   6.429   4.413   2.820
 8297SOL    HW225791   6.422   4.490   2.676
 8298SOL     OW25792   6.513   0.176   6.360
 8298SOL    HW125793   6.581   0.190   6.288
 8298SOL    HW225794   6.473   0.085   6.351
 8299SOL     OW25795   0.887   4.069   1.706
 8299SOL    HW125796   0.862   4.036   1.797
 8299SOL    HW225797   0.805   4.078   1.650
 8300SOL     OW25798   5.834   5.325   3.088
 8300SOL    HW125799   5.917   5.275   3.062
 8300SOL    HW225800   5.860   5.408   3.138
 8301SOL     OW25801   4.172   6.604   0.676
 8301SOL    HW125802   4.077   6.615   0.706
 8301SOL    HW225803   4.189   6.661   0.596
 8302SOL     OW25804   3.623   6.659   5.231
 8302SOL    HW125805   3.569   6.709   5.162
 8302SOL    HW225806   3.608   6.561   5.220
 8303SOL     OW25807   6.671   6.663   2.782
 8303SOL    HW125808   6.720   6.575   2.782
 8303SOL    HW225809   6.736   6.737   2.764
 8304SOL     OW25810   5.901   4.038   3.427
 8304SOL    HW125811   5.807   4.055   3.396
 8304SOL    HW225812   5.953   3.995   3.354
 8305SOL     OW25813   5.041   5.631   4.566
 8305SOL    HW125814   5.116   5.643   4.631
 8305SOL    HW225815   5.020   5.534   4.556
 8306SOL     OW25816   6.158   1.373   2.391
 8306SOL    HW125817   6.179   1.278   2.365
 8306SOL    HW225818   6.143   1.427   2.308
 8307SOL     OW25819   2.317   4.794   2.286
 8307SOL    HW125820   2.281   4.860   2.351
 8307SOL    HW225821   2.252   4.719   2.274
 8308SOL     OW25822   1.142   5.146   6.835
 8308SOL    HW125823   1.187   5.209   6.899
 8308SOL    HW225824   1.184   5.056   6.843
 8309SOL     OW25825   5.994   4.235   4.192
 8309SOL    HW125826   6.036   4.151   4.159
 8309SOL    HW225827   5.914   4.257   4.135
 8310SOL     OW25828   0.778   6.464   0.231
 8310SOL    HW125829   0.720   6.440   0.153
 8310SOL    HW225830   0.872   6.478   0.200
 8311SOL     OW25831   5.483   6.931   4.312
 8311SOL    HW125832   5.491   6.848   4.367
 8311SOL    HW225833   5.556   6.995   4.338
 8312SOL     OW25834   5.519   0.934   6.570
 8312SOL    HW125835   5.549   0.863   6.506
 8312SOL    HW225836   5.452   0.896   6.633
 8313SOL     OW25837   4.653   1.422   4.751
 8313SOL    HW125838   4.744   1.411   4.791
 8313SOL    HW225839   4.618   1.513   4.773
 8314SOL     OW25840   4.969   6.501   5.933
 8314SOL    HW125841   5.062   6.471   5.911
 8314SOL    HW225842   4.910   6.490   5.853
 8315SOL     OW25843   3.708   3.621   4.825
 8315SOL    HW125844   3.679   3.533   4.863
 8315SOL    HW225845   3.807   3.623   4.814
 8316SOL     OW25846   1.550   2.732   6.838
 8316SOL    HW125847   1.634   2.750   6.786
 8316SOL    HW225848   1.561   2.648   6.891
 8317SOL     OW25849   1.325   1.543   3.452
 8317SOL    HW125850   1.401   1.598   3.487
 8317SOL    HW225851   1.249   1.547   3.518
 8318SOL     OW25852   4.082   6.848   6.653
 8318SOL    HW125853   4.093   6.749   6.652
 8318SOL    HW225854   4.128   6.888   6.573
 8319SOL     OW25855   2.249   0.291   6.419
 8319SOL    HW125856   2.166   0.338   6.391
 8319SOL    HW225857   2.317   0.297   6.346
 8320SOL     OW25858   2.966   3.497   4.781
 8320SOL    HW125859   2.987   3.445   4.864
 8320SOL    HW225860   3.050   3.533   4.742
 8321SOL     OW25861   6.487   6.571   0.556
 8321SOL    HW125862   6.528   6.650   0.509
 8321SOL    HW225863   6.436   6.602   0.636
 8322SOL     OW25864   0.245   0.746   6.947
 8322SOL    HW125865   0.255   0.840   6.916
 8322SOL    HW225866   0.324   0.719   7.001
 8323SOL     OW25867   4.434   4.670   1.222
 8323SOL    HW125868   4.342   4.634   1.236
 8323SOL    HW225869   4.494   4.596   1.191
 8324SOL     OW25870   5.629   6.412   6.432
 8324SOL    HW125871   5.621   6.328   6.378
 8324SOL    HW225872   5.670   6.484   6.376
 8325SOL     OW25873   0.992   5.650   5.530
 8325SOL    HW125874   1.006   5.746   5.506
 8325SOL    HW225875   0.895   5.628   5.528
 8326SOL     OW25876   1.921   3.988   2.096
 8326SOL    HW125877   2.017   3.967   2.075
 8326SOL    HW225878   1.888   3.924   2.165
 8327SOL     OW25879   1.127   0.248   4.466
 8327SOL    HW125880   1.143   0.156   4.429
 8327SOL    HW225881   1.041   0.284   4.430
 8328SOL     OW25882   1.803   0.259   6.164
 8328SOL    HW125883   1.827   0.343   6.116
 8328SOL    HW225884   1.779   0.189   6.097
 8329SOL     OW25885   1.212   2.621   5.031
 8329SOL    HW125886   1.181   2.535   4.991
 8329SOL    HW225887   1.305   2.611   5.066
 8330SOL     OW25888   2.952   1.103   6.741
 8330SOL    HW125889   2.885   1.175   6.720
 8330SOL    HW225890   3.024   1.142   6.798
 8331SOL     OW25891   1.756   2.052   6.969
 8331SOL    HW125892   1.663   2.056   6.934
 8331SOL    HW225893   1.757   1.999   0.030
 8332SOL     OW25894   5.923   4.944   1.909
 8332SOL    HW125895   5.889   5.037   1.894
 8332SOL    HW225896   5.878   4.882   1.845
 8333SOL     OW25897   2.717   4.595   1.375
 8333SOL    HW125898   2.647   4.541   1.422
 8333SOL    HW225899   2.807   4.572   1.411
 8334SOL     OW25900   3.684   1.706   6.689
 8334SOL    HW125901   3.753   1.704   6.616
 8334SOL    HW225902   3.593   1.709   6.648
 8335SOL     OW25903   5.078   3.394   5.653
 8335SOL    HW125904   5.022   3.386   5.736
 8335SOL    HW225905   5.024   3.362   5.575
 8336SOL     OW25906   1.178   3.321   3.225
 8336SOL    HW125907   1.125   3.405   3.237
 8336SOL    HW225908   1.271   3.345   3.196
 8337SOL     OW25909   0.399   1.295   4.104
 8337SOL    HW125910   0.471   1.229   4.080
 8337SOL    HW225911   0.437   1.388   4.099
 8338SOL     OW25912   4.184   5.353   2.726
 8338SOL    HW125913   4.276   5.331   2.760
 8338SOL    HW225914   4.121   5.281   2.754
 8339SOL     OW25915   6.746   0.298   0.627
 8339SOL    HW125916   6.682   0.262   0.559
 8339SOL    HW225917   6.696   0.329   0.708
 8340SOL     OW25918   5.659   2.768   0.300
 8340SOL    HW125919   5.644   2.716   0.384
 8340SOL    HW225920   5.588   2.838   0.290
 8341SOL     OW25921   3.338   1.020   6.963
 8341SOL    HW125922   3.418   0.982   6.916
 8341SOL    HW225923   3.364   1.105   7.009
 8342SOL     OW25924   4.574   0.298   0.209
 8342SOL    HW125925   4.573   0.347   0.296
 8342SOL    HW225926   4.658   0.244   0.202
 8343SOL     OW25927   6.457   3.882   4.018
 8343SOL    HW125928   6.444   3.980   4.002
 8343SOL    HW225929   6.450   3.833   3.931
 8344SOL     OW25930   1.264   5.800   5.230
 8344SOL    HW125931   1.362   5.789   5.220
 8344SOL    HW225932   1.238   5.788   5.326
 8345SOL     OW25933   4.576   0.716   2.197
 8345SOL    HW125934   4.537   0.692   2.285
 8345SOL    HW225935   4.514   0.778   2.148
 8346SOL     OW25936   4.674   3.109   5.326
 8346SOL    HW125937   4.664   3.209   5.333
 8346SOL    HW225938   4.585   3.068   5.306
 8347SOL     OW25939   2.485   0.336   6.240
 8347SOL    HW125940   2.562   0.275   6.255
 8347SOL    HW225941   2.516   0.419   6.193
 8348SOL     OW25942   3.662   6.727   2.033
 8348SOL    HW125943   3.736   6.779   2.074
 8348SOL    HW225944   3.604   6.787   1.979
 8349SOL     OW25945   1.387   6.390   2.018
 8349SOL    HW125946   1.420   6.351   2.103
 8349SOL    HW225947   1.459   6.383   1.948
 8350SOL     OW25948   2.658   6.966   6.815
 8350SOL    HW125949   2.582   7.018   6.774
 8350SOL    HW225950   2.713   0.002   6.872
 8351SOL     OW25951   0.099   4.249   3.687
 8351SOL    HW125952   0.065   4.340   3.707
 8351SOL    HW225953   0.023   4.183   3.693
 8352SOL     OW25954   2.843   5.217   1.494
 8352SOL    HW125955   2.808   5.309   1.481
 8352SOL    HW225956   2.933   5.220   1.538
 8353SOL     OW25957   1.627   3.879   2.921
 8353SOL    HW125958   1.715   3.903   2.879
 8353SOL    HW225959   1.603   3.950   2.988
 8354SOL     OW25960   3.166   0.147   3.868
 8354SOL    HW125961   3.166   0.096   3.782
 8354SOL    HW225962   3.226   0.101   3.934
 8355SOL     OW25963   2.096   6.251   5.685
 8355SOL    HW125964   2.080   6.309   5.765
 8355SOL    HW225965   2.080   6.156   5.709
 8356SOL     OW25966   1.485   5.283   1.060
 8356SOL    HW125967   1.543   5.362   1.039
 8356SOL    HW225968   1.473   5.277   1.160
 8357SOL     OW25969   4.254   6.005   6.043
 8357SOL    HW125970   4.249   6.071   5.968
 8357SOL    HW225971   4.166   5.958   6.052
 8358SOL     OW25972   1.176   2.358   4.947
 8358SOL    HW125973   1.092   2.326   4.992
 8358SOL    HW225974   1.232   2.279   4.924
 8359SOL     OW25975   3.087   2.170   5.316
 8359SOL    HW125976   3.007   2.226   5.337
 8359SOL    HW225977   3.148   2.220   5.255
 8360SOL     OW25978   4.902   6.937   0.523
 8360SOL    HW125979   4.974   6.876   0.489
 8360SOL    HW225980   4.833   6.884   0.571
 8361SOL     OW25981   3.408   0.260   0.539
 8361SOL    HW125982   3.439   0.167   0.516
 8361SOL    HW225983   3.344   0.292   0.469
 8362SOL     OW25984   6.562   3.833   1.361
 8362SOL    HW125985   6.535   3.763   1.295
 8362SOL    HW225986   6.482   3.865   1.412
 8363SOL     OW25987   2.873   2.585   7.008
 8363SOL    HW125988   2.801   2.523   6.976
 8363SOL    HW225989   2.946   2.589   6.939
 8364SOL     OW25990   0.144   2.611   3.747
 8364SOL    HW125991   0.162   2.522   3.706
 8364SOL    HW225992   0.198   2.621   3.830
 8365SOL     OW25993   1.961   2.581   2.915
 8365SOL    HW125994   1.976   2.620   3.006
 8365SOL    HW225995   2.008   2.492   2.910
 8366SOL     OW25996   4.999   5.880   1.055
 8366SOL    HW125997   5.051   5.835   1.126
 8366SOL    HW225998   4.903   5.884   1.082
 8367SOL     OW25999   4.337   5.188   4.662
 8367SOL    HW126000   4.296   5.265   4.612
 8367SOL    HW226001   4.407   5.145   4.605
 8368SOL     OW26002   0.935   6.236   0.276
 8368SOL    HW126003   0.941   6.182   0.192
 8368SOL    HW226004   0.874   6.314   0.262
 8369SOL     OW26005   1.249   1.441   6.910
 8369SOL    HW126006   1.160   1.455   6.953
 8369SOL    HW226007   1.247   1.479   6.817
 8370SOL     OW26008   3.223   2.372   0.358
 8370SOL    HW126009   3.235   2.300   0.427
 8370SOL    HW226010   3.166   2.338   0.283
 8371SOL     OW26011   1.884   4.496   5.948
 8371SOL    HW126012   1.818   4.515   6.021
 8371SOL    HW226013   1.837   4.498   5.860
 8372SOL     OW26014   1.712   6.247   2.417
 8372SOL    HW126015   1.766   6.177   2.370
 8372SOL    HW226016   1.758   6.272   2.502
 8373SOL     OW26017   0.089   1.044   4.204
 8373SOL    HW126018   0.178   1.005   4.228
 8373SOL    HW226019   0.084   1.138   4.236
 8374SOL     OW26020   1.914   0.840   4.893
 8374SOL    HW126021   1.879   0.748   4.913
 8374SOL    HW226022   1.841   0.895   4.851
 8375SOL     OW26023   4.217   1.454   4.865
 8375SOL    HW126024   4.157   1.509   4.923
 8375SOL    HW226025   4.253   1.376   4.917
 8376SOL     OW26026   1.899   0.804   3.102
 8376SOL    HW126027   1.916   0.832   3.007
 8376SOL    HW226028   1.910   0.704   3.109
 8377SOL     OW26029   5.193   5.532   6.516
 8377SOL    HW126030   5.191   5.445   6.468
 8377SOL    HW226031   5.198   5.516   6.615
 8378SOL     OW26032   6.577   5.926   3.675
 8378SOL    HW126033   6.489   5.890   3.645
 8378SOL    HW226034   6.598   5.893   3.767
 8379SOL     OW26035   5.734   1.465   2.206
 8379SOL    HW126036   5.781   1.548   2.175
 8379SOL    HW226037   5.796   1.387   2.198
 8380SOL     OW26038   6.551   5.548   0.627
 8380SOL    HW126039   6.647   5.522   0.633
 8380SOL    HW226040   6.529   5.572   0.532
 8381SOL     OW26041   0.117   1.829   2.715
 8381SOL    HW126042   0.022   1.809   2.691
 8381SOL    HW226043   0.139   1.785   2.802
 8382SOL     OW26044   2.669   0.273   0.447
 8382SOL    HW126045   2.632   0.192   0.401
 8382SOL    HW226046   2.683   0.346   0.379
 8383SOL     OW26047   3.095   6.478   4.821
 8383SOL    HW126048   3.063   6.504   4.912
 8383SOL    HW226049   3.016   6.459   4.763
 8384SOL     OW26050   0.080   2.726   0.761
 8384SOL    HW126051   7.008   2.711   0.785
 8384SOL    HW226052   0.136   2.655   0.803
 8385SOL     OW26053   4.694   3.483   0.786
 8385SOL    HW126054   4.759   3.540   0.736
 8385SOL    HW226055   4.723   3.387   0.781
 8386SOL     OW26056   1.783   5.601   1.865
 8386SOL    HW126057   1.868   5.584   1.916
 8386SOL    HW226058   1.791   5.689   1.817
 8387SOL     OW26059   2.051   1.377   1.513
 8387SOL    HW126060   2.076   1.460   1.463
 8387SOL    HW226061   2.106   1.300   1.479
 8388SOL     OW26062   3.150   6.487   0.491
 8388SOL    HW126063   3.181   6.470   0.584
 8388SOL    HW226064   3.176   6.580   0.463
 8389SOL     OW26065   1.298   2.407   4.693
 8389SOL    HW126066   1.285   2.450   4.782
 8389SOL    HW226067   1.395   2.397   4.673
 8390SOL     OW26068   1.893   0.529   5.856
 8390SOL    HW126069   1.933   0.531   5.948
 8390SOL    HW226070   1.795   0.544   5.862
 8391SOL     OW26071   5.029   5.695   1.877
 8391SOL    HW126072   5.010   5.686   1.779
 8391SOL    HW226073   5.065   5.608   1.911
 8392SOL     OW26074   5.988   6.012   5.149
 8392SOL    HW126075   5.954   6.001   5.242
 8392SOL    HW226076   5.911   6.015   5.085
 8393SOL     OW26077   6.998   6.239   3.151
 8393SOL    HW126078   6.990   6.337   3.170
 8393SOL    HW226079   7.018   6.189   3.236
 8394SOL     OW26080   0.806   1.810   3.425
 8394SOL    HW126081   0.840   1.725   3.384
 8394SOL    HW226082   0.846   1.888   3.376
 8395SOL     OW26083   0.076   6.636   4.459
 8395SOL    HW126084   0.155   6.689   4.428
 8395SOL    HW226085   0.108   6.557   4.511
 8396SOL     OW26086   4.649   4.339   2.648
 8396SOL    HW126087   4.561   4.385   2.654
 8396SOL    HW226088   4.668   4.315   2.553
 8397SOL     OW26089   1.810   6.306   2.661
 8397SOL    HW126090   1.853   6.392   2.633
 8397SOL    HW226091   1.823   6.292   2.759
 8398SOL     OW26092   4.214   1.639   6.974
 8398SOL    HW126093   4.259   1.657   0.037
 8398SOL    HW226094   4.135   1.700   6.963
 8399SOL     OW26095   5.720   6.280   0.235
 8399SOL    HW126096   5.805   6.227   0.233
 8399SOL    HW226097   5.672   6.262   0.321
 8400SOL     OW26098   0.242   7.013   3.002
 8400SOL    HW126099   0.291   6.937   2.958
 8400SOL    HW226100   0.170   6.976   3.061
 8401SOL     OW26101   3.650   3.745   6.446
 8401SOL    HW126102   3.712   3.673   6.477
 8401SOL    HW226103   3.610   3.718   6.358
 8402SOL     OW26104   3.837   1.798   6.485
 8402SOL    HW126105   3.776   1.757   6.418
 8402SOL    HW226106   3.801   1.887   6.512
 8403SOL     OW26107   1.554   1.410   4.065
 8403SOL    HW126108   1.651   1.395   4.082
 8403SOL    HW226109   1.501   1.336   4.107
 8404SOL     OW26110   4.604   6.112   5.898
 8404SOL    HW126111   4.631   6.208   5.905
 8404SOL    HW226112   4.586   6.089   5.803
 8405SOL     OW26113   0.525   2.621   6.395
 8405SOL    HW126114   0.551   2.668   6.479
 8405SOL    HW226115   0.458   2.550   6.416
 8406SOL     OW26116   4.877   2.166   1.251
 8406SOL    HW126117   4.880   2.071   1.221
 8406SOL    HW226118   4.866   2.169   1.350
 8407SOL     OW26119   5.691   4.520   4.047
 8407SOL    HW126120   5.704   4.424   4.072
 8407SOL    HW226121   5.707   4.531   3.949
 8408SOL     OW26122   4.878   1.227   3.885
 8408SOL    HW126123   4.849   1.132   3.869
 8408SOL    HW226124   4.911   1.236   3.979
 8409SOL     OW26125   1.209   1.491   4.059
 8409SOL    HW126126   1.113   1.508   4.037
 8409SOL    HW226127   1.256   1.578   4.073
 8410SOL     OW26128   4.559   6.718   1.668
 8410SOL    HW126129   4.639   6.684   1.619
 8410SOL    HW226130   4.551   6.817   1.655
 8411SOL     OW26131   1.490   4.335   4.272
 8411SOL    HW126132   1.406   4.367   4.228
 8411SOL    HW226133   1.553   4.300   4.202
 8412SOL     OW26134   4.643   2.533   1.834
 8412SOL    HW126135   4.570   2.589   1.794
 8412SOL    HW226136   4.661   2.564   1.927
 8413SOL     OW26137   3.480   4.943   0.409
 8413SOL    HW126138   3.570   4.970   0.374
 8413SOL    HW226139   3.470   4.844   0.399
 8414SOL     OW26140   3.900   5.906   3.541
 8414SOL    HW126141   3.930   5.903   3.637
 8414SOL    HW226142   3.861   5.996   3.522
 8415SOL     OW26143   6.980   4.132   3.355
 8415SOL    HW126144   7.006   4.156   3.261
 8415SOL    HW226145   0.009   4.186   3.419
 8416SOL     OW26146   5.089   4.060   2.648
 8416SOL    HW126147   5.091   4.061   2.548
 8416SOL    HW226148   5.115   4.149   2.683
 8417SOL     OW26149   2.094   6.138   6.262
 8417SOL    HW126150   2.145   6.159   6.345
 8417SOL    HW226151   2.157   6.098   6.194
 8418SOL     OW26152   6.282   5.938   2.747
 8418SOL    HW126153   6.244   5.846   2.744
 8418SOL    HW226154   6.380   5.934   2.769
 8419SOL     OW26155   4.444   0.386   2.331
 8419SOL    HW126156   4.509   0.316   2.299
 8419SOL    HW226157   4.402   0.431   2.252
 8420SOL     OW26158   3.817   0.711   6.905
 8420SOL    HW126159   3.886   0.640   6.889
 8420SOL    HW226160   3.798   0.717   7.003
 8421SOL     OW26161   1.655   6.941   2.315
 8421SOL    HW126162   1.643   6.869   2.383
 8421SOL    HW226163   1.688   7.024   2.359
 8422SOL     OW26164   5.025   6.662   0.417
 8422SOL    HW126165   4.954   6.594   0.437
 8422SOL    HW226166   5.035   6.673   0.319
 8423SOL     OW26167   3.679   4.822   0.087
 8423SOL    HW126168   3.742   4.744   0.083
 8423SOL    HW226169   3.592   4.796   0.046
 8424SOL     OW26170   3.387   1.822   2.382
 8424SOL    HW126171   3.366   1.843   2.287
 8424SOL    HW226172   3.369   1.725   2.399
 8425SOL     OW26173   6.340   5.346   1.601
 8425SOL    HW126174   6.390   5.321   1.684
 8425SOL    HW226175   6.378   5.431   1.564
 8426SOL     OW26176   3.823   3.594   3.734
 8426SOL    HW126177   3.742   3.586   3.675
 8426SOL    HW226178   3.814   3.532   3.812
 8427SOL     OW26179   1.883   3.825   6.780
 8427SOL    HW126180   1.872   3.791   6.874
 8427SOL    HW226181   1.954   3.773   6.733
 8428SOL     OW26182   0.533   4.421   2.182
 8428SOL    HW126183   0.503   4.486   2.112
 8428SOL    HW226184   0.500   4.450   2.271
 8429SOL     OW26185   2.354   5.358   4.002
 8429SOL    HW126186   2.283   5.383   3.936
 8429SOL    HW226187   2.311   5.324   4.086
 8430SOL     OW26188   4.721   4.627   2.877
 8430SOL    HW126189   4.758   4.538   2.853
 8430SOL    HW226190   4.792   4.682   2.922
 8431SOL     OW26191   3.548   4.854   1.258
 8431SOL    HW126192   3.452   4.881   1.266
 8431SOL    HW226193   3.563   4.815   1.167
 8432SOL     OW26194   4.362   5.450   6.312
 8432SOL    HW126195   4.272   5.447   6.355
 8432SOL    HW226196   4.362   5.521   6.241
 8433SOL     OW26197   0.992   2.759   6.496
 8433SOL    HW126198   1.012   2.804   6.409
 8433SOL    HW226199   1.065   2.696   6.519
 8434SOL     OW26200   4.470   6.547   5.811
 8434SOL    HW126201   4.489   6.642   5.835
 8434SOL    HW226202   4.371   6.532   5.808
 8435SOL     OW26203   4.275   2.086   1.175
 8435SOL    HW126204   4.372   2.108   1.165
 8435SOL    HW226205   4.262   2.028   1.255
 8436SOL     OW26206   4.082   4.752   2.577
 8436SOL    HW126207   4.006   4.776   2.638
 8436SOL    HW226208   4.048   4.744   2.483
 8437SOL     OW26209   0.413   0.793   1.075
 8437SOL    HW126210   0.489   0.771   1.014
 8437SOL    HW226211   0.335   0.825   1.022
 8438SOL     OW26212   2.842   4.816   2.441
 8438SOL    HW126213   2.755   4.769   2.425
 8438SOL    HW226214   2.893   4.822   2.356
 8439SOL     OW26215   7.008   5.306   2.137
 8439SOL    HW126216   6.913   5.281   2.155
 8439SOL    HW226217   0.016   5.368   2.208
 8440SOL     OW26218   6.847   0.768   1.516
 8440SOL    HW126219   6.815   0.752   1.609
 8440SOL    HW226220   6.947   0.774   1.516
 8441SOL     OW26221   5.285   5.721   6.858
 8441SOL    HW126222   5.235   5.706   6.943
 8441SOL    HW226223   5.341   5.803   6.867
 8442SOL     OW26224   2.632   4.415   0.160
 8442SOL    HW126225   2.642   4.366   0.073
 8442SOL    HW226226   2.659   4.511   0.147
 8443SOL     OW26227   0.904   0.644   3.520
 8443SOL    HW126228   0.953   0.712   3.467
 8443SOL    HW226229   0.959   0.560   3.526
 8444SOL     OW26230   3.968   6.386   4.089
 8444SOL    HW126231   4.009   6.470   4.123
 8444SOL    HW226232   3.880   6.407   4.047
 8445SOL     OW26233   3.461   5.428   3.245
 8445SOL    HW126234   3.416   5.516   3.252
 8445SOL    HW226235   3.436   5.383   3.159
 8446SOL     OW26236   5.372   5.476   3.080
 8446SOL    HW126237   5.273   5.493   3.083
 8446SOL    HW226238   5.398   5.449   2.988
 8447SOL     OW26239   5.242   2.439   1.487
 8447SOL    HW126240   5.315   2.472   1.426
 8447SOL    HW226241   5.183   2.515   1.512
 8448SOL     OW26242   0.263   3.883   5.990
 8448SOL    HW126243   0.191   3.827   5.949
 8448SOL    HW226244   0.309   3.831   6.062
 8449SOL     OW26245   0.360   3.383   4.779
 8449SOL    HW126246   0.358   3.464   4.838
 8449SOL    HW226247   0.418   3.313   4.822
 8450SOL     OW26248   1.677   6.157   2.977
 8450SOL    HW126249   1.700   6.105   2.895
 8450SOL    HW226250   1.754   6.154   3.041
 8451SOL     OW26251   3.687   3.027   1.157
 8451SOL    HW126252   3.644   3.011   1.246
 8451SOL    HW226253   3.745   3.109   1.162
 8452SOL     OW26254   6.757   0.619   0.927
 8452SOL    HW126255   6.769   0.683   1.003
 8452SOL    HW226256   6.681   0.557   0.947
 8453SOL     OW26257   6.466   4.925   6.436
 8453SOL    HW126258   6.392   4.902   6.372
 8453SOL    HW226259   6.427   4.964   6.519
 8454SOL     OW26260   1.421   6.624   2.938
 8454SOL    HW126261   1.433   6.647   2.841
 8454SOL    HW226262   1.478   6.545   2.961
 8455SOL     OW26263   4.905   1.507   1.402
 8455SOL    HW126264   4.830   1.555   1.447
 8455SOL    HW226265   4.992   1.545   1.433
 8456SOL     OW26266   5.460   5.134   3.980
 8456SOL    HW126267   5.423   5.057   3.928
 8456SOL    HW226268   5.521   5.187   3.921
 8457SOL     OW26269   6.666   0.106   5.427
 8457SOL    HW126270   6.652   0.077   5.522
 8457SOL    HW226271   6.724   0.188   5.425
 8458SOL     OW26272   2.151   1.577   0.015
 8458SOL    HW126273   2.093   1.535   6.970
 8458SOL    HW226274   2.247   1.559   7.019
 8459SOL     OW26275   3.870   5.933   2.571
 8459SOL    HW126276   3.919   5.991   2.506
 8459SOL    HW226277   3.830   5.990   2.643
 8460SOL     OW26278   4.558   2.670   6.864
 8460SOL    HW126279   4.460   2.687   6.870
 8460SOL    HW226280   4.608   2.735   6.921
 8461SOL     OW26281   0.476   3.906   1.811
 8461SOL    HW126282   0.386   3.913   1.768
 8461SOL    HW226283   0.468   3.928   1.908
 8462SOL     OW26284   3.707   3.621   0.128
 8462SOL    HW126285   3.641   3.630   0.054
 8462SOL    HW226286   3.685   3.540   0.184
 8463SOL     OW26287   6.857   2.118   0.082
 8463SOL    HW126288   6.817   2.088   0.169
 8463SOL    HW226289   6.815   2.204   0.053
 8464SOL     OW26290   0.044   3.487   6.319
 8464SOL    HW126291   0.006   3.521   6.233
 8464SOL    HW226292   6.999   3.435   6.369
 8465SOL     OW26293   3.281   2.595   0.709
 8465SOL    HW126294   3.289   2.688   0.747
 8465SOL    HW226295   3.229   2.538   0.773
 8466SOL     OW26296   5.600   0.475   5.453
 8466SOL    HW126297   5.528   0.436   5.396
 8466SOL    HW226298   5.642   0.552   5.406
 8467SOL     OW26299   3.365   0.667   0.427
 8467SOL    HW126300   3.370   0.734   0.353
 8467SOL    HW226301   3.447   0.673   0.483
 8468SOL     OW26302   6.155   3.680   6.518
 8468SOL    HW126303   6.164   3.581   6.503
 8468SOL    HW226304   6.077   3.697   6.579
 8469SOL     OW26305   4.107   2.778   5.978
 8469SOL    HW126306   4.100   2.754   6.075
 8469SOL    HW226307   4.016   2.783   5.938
 8470SOL     OW26308   0.911   4.700   1.226
 8470SOL    HW126309   0.921   4.641   1.146
 8470SOL    HW226310   0.848   4.658   1.291
 8471SOL     OW26311   3.063   0.579   4.800
 8471SOL    HW126312   3.092   0.488   4.829
 8471SOL    HW226313   2.980   0.605   4.849
 8472SOL     OW26314   5.539   1.371   6.205
 8472SOL    HW126315   5.619   1.423   6.236
 8472SOL    HW226316   5.551   1.275   6.227
 8473SOL     OW26317   4.501   4.671   7.023
 8473SOL    HW126318   4.568   4.743   7.007
 8473SOL    HW226319   4.511   4.600   6.953
 8474SOL     OW26320   2.917   3.256   3.153
 8474SOL    HW126321   2.997   3.233   3.098
 8474SOL    HW226322   2.846   3.186   3.139
 8475SOL     OW26323   0.118   3.685   1.461
 8475SOL    HW126324   0.147   3.755   1.396
 8475SOL    HW226325   0.189   3.672   1.530
 8476SOL     OW26326   6.335   0.478   1.294
 8476SOL    HW126327   6.287   0.431   1.219
 8476SOL    HW226328   6.400   0.414   1.336
 8477SOL     OW26329   5.161   6.454   1.477
 8477SOL    HW126330   5.088   6.413   1.421
 8477SOL    HW226331   5.199   6.533   1.429
 8478SOL     OW26332   1.002   0.723   5.682
 8478SOL    HW126333   0.923   0.766   5.639
 8478SOL    HW226334   0.972   0.648   5.741
 8479SOL     OW26335   1.902   2.104   0.933
 8479SOL    HW126336   1.849   2.028   0.894
 8479SOL    HW226337   1.840   2.174   0.967
 8480SOL     OW26338   4.611   2.936   0.258
 8480SOL    HW126339   4.708   2.927   0.282
 8480SOL    HW226340   4.600   3.012   0.194
 8481SOL     OW26341   3.800   2.088   4.512
 8481SOL    HW126342   3.862   2.163   4.491
 8481SOL    HW226343   3.773   2.092   4.608
 8482SOL     OW26344   4.247   1.168   0.028
 8482SOL    HW126345   4.205   1.247   7.009
 8482SOL    HW226346   4.177   1.100   0.048
 8483SOL     OW26347   3.424   6.191   3.579
 8483SOL    HW126348   3.424   6.100   3.538
 8483SOL    HW226349   3.350   6.245   3.538
 8484SOL     OW26350   6.430   5.877   5.270
 8484SOL    HW126351   6.502   5.936   5.233
 8484SOL    HW226352   6.469   5.811   5.333
 8485SOL     OW26353   3.582   2.233   0.247
 8485SOL    HW126354   3.558   2.184   0.331
 8485SOL    HW226355   3.637   2.174   0.188
 8486SOL     OW26356   2.028   1.448   2.355
 8486SOL    HW126357   2.126   1.434   2.372
 8486SOL    HW226358   2.006   1.418   2.262
 8487SOL     OW26359   5.100   1.827   6.208
 8487SOL    HW126360   5.130   1.732   6.200
 8487SOL    HW226361   5.066   1.843   6.301
 8488SOL     OW26362   5.728   5.220   2.734
 8488SOL    HW126363   5.718   5.173   2.646
 8488SOL    HW226364   5.699   5.159   2.808
 8489SOL     OW26365   5.558   0.912   1.650
 8489SOL    HW126366   5.550   0.867   1.740
 8489SOL    HW226367   5.542   1.010   1.661
 8490SOL     OW26368   2.678   6.996   6.413
 8490SOL    HW126369   2.676   0.038   6.339
 8490SOL    HW226370   2.723   0.012   6.493
 8491SOL     OW26371   2.160   6.306   2.892
 8491SOL    HW126372   2.151   6.308   2.992
 8491SOL    HW226373   2.093   6.242   2.854
 8492SOL     OW26374   6.015   3.883   4.365
 8492SOL    HW126375   6.102   3.856   4.405
 8492SOL    HW226376   5.971   3.803   4.322
 8493SOL     OW26377   2.747   1.252   0.354
 8493SOL    HW126378   2.736   1.180   0.422
 8493SOL    HW226379   2.675   1.320   0.366
 8494SOL     OW26380   5.626   4.893   1.800
 8494SOL    HW126381   5.659   4.987   1.786
 8494SOL    HW226382   5.542   4.880   1.748
 8495SOL     OW26383   6.347   5.970   0.784
 8495SOL    HW126384   6.404   5.955   0.864
 8495SOL    HW226385   6.393   6.034   0.722
 8496SOL     OW26386   5.428   1.282   2.082
 8496SOL    HW126387   5.460   1.286   2.177
 8496SOL    HW226388   5.328   1.273   2.081
 8497SOL     OW26389   0.177   0.396   3.412
 8497SOL    HW126390   0.211   0.307   3.382
 8497SOL    HW226391   0.179   0.400   3.512
 8498SOL     OW26392   5.228   6.736   3.619
 8498SOL    HW126393   5.189   6.765   3.706
 8498SOL    HW226394   5.231   6.813   3.556
 8499SOL     OW26395   0.830   5.508   0.615
 8499SOL    HW126396   0.874   5.595   0.594
 8499SOL    HW226397   0.859   5.439   0.549
 8500SOL     OW26398   1.627   0.620   5.858
 8500SOL    HW126399   1.637   0.717   5.877
 8500SOL    HW226400   1.566   0.607   5.779
 8501SOL     OW26401   0.315   2.449   0.015
 8501SOL    HW126402   0.354   2.428   0.105
 8501SOL    HW226403   0.226   2.406   0.006
 8502SOL     OW26404   0.485   3.087   7.022
 8502SOL    HW126405   0.484   3.101   0.097
 8502SOL    HW226406   0.579   3.078   6.991
 8503SOL     OW26407   6.520   6.164   4.577
 8503SOL    HW126408   6.462   6.193   4.501
 8503SOL    HW226409   6.558   6.073   4.557
 8504SOL     OW26410   2.324   5.168   2.390
 8504SOL    HW126411   2.371   5.227   2.455
 8504SOL    HW226412   2.268   5.101   2.439
 8505SOL     OW26413   5.352   3.613   2.707
 8505SOL    HW126414   5.322   3.593   2.614
 8505SOL    HW226415   5.298   3.689   2.744
 8506SOL     OW26416   1.599   0.776   6.486
 8506SOL    HW126417   1.685   0.724   6.485
 8506SOL    HW226418   1.555   0.765   6.575
 8507SOL     OW26419   4.590   0.092   5.295
 8507SOL    HW126420   4.524   0.165   5.277
 8507SOL    HW226421   4.662   0.094   5.226
 8508SOL     OW26422   4.093   1.927   6.438
 8508SOL    HW126423   4.016   1.884   6.391
 8508SOL    HW226424   4.101   2.022   6.408
 8509SOL     OW26425   5.646   0.166   3.416
 8509SOL    HW126426   5.623   0.093   3.351
 8509SOL    HW226427   5.710   0.130   3.484
 8510SOL     OW26428   5.277   2.665   4.341
 8510SOL    HW126429   5.313   2.715   4.419
 8510SOL    HW226430   5.340   2.675   4.263
 8511SOL     OW26431   5.825   3.300   2.418
 8511SOL    HW126432   5.884   3.257   2.487
 8511SOL    HW226433   5.762   3.363   2.463
 8512SOL     OW26434   2.407   0.398   3.521
 8512SOL    HW126435   2.410   0.449   3.607
 8512SOL    HW226436   2.403   0.463   3.444
 8513SOL     OW26437   5.909   5.853   0.199
 8513SOL    HW126438   5.999   5.816   0.177
 8513SOL    HW226439   5.914   5.904   0.285
 8514SOL     OW26440   3.383   6.272   3.244
 8514SOL    HW126441   3.466   6.265   3.298
 8514SOL    HW226442   3.404   6.319   3.158
 8515SOL     OW26443   5.503   2.479   0.936
 8515SOL    HW126444   5.459   2.403   0.888
 8515SOL    HW226445   5.591   2.499   0.892
 8516SOL     OW26446   6.693   2.331   2.336
 8516SOL    HW126447   6.691   2.388   2.418
 8516SOL    HW226448   6.640   2.248   2.352
 8517SOL     OW26449   1.081   2.345   6.837
 8517SOL    HW126450   1.060   2.254   6.802
 8517SOL    HW226451   1.021   2.367   6.914
 8518SOL     OW26452   3.658   5.320   0.369
 8518SOL    HW126453   3.577   5.336   0.314
 8518SOL    HW226454   3.739   5.320   0.311
 8519SOL     OW26455   1.853   6.040   2.235
 8519SOL    HW126456   1.776   6.081   2.187
 8519SOL    HW226457   1.820   5.977   2.305
 8520SOL     OW26458   3.932   1.272   0.159
 8520SOL    HW126459   3.974   1.181   0.151
 8520SOL    HW226460   3.839   1.268   0.122
 8521SOL     OW26461   0.137   6.640   5.967
 8521SOL    HW126462   0.069   6.571   5.943
 8521SOL    HW226463   0.227   6.612   5.934
 8522SOL     OW26464   1.075   6.693   3.563
 8522SOL    HW126465   1.116   6.742   3.639
 8522SOL    HW226466   1.002   6.748   3.522
 8523SOL     OW26467   2.661   6.657   6.146
 8523SOL    HW126468   2.636   6.731   6.083
 8523SOL    HW226469   2.704   6.584   6.094
 8524SOL     OW26470   0.978   3.393   5.134
 8524SOL    HW126471   0.956   3.396   5.231
 8524SOL    HW226472   0.898   3.361   5.083
 8525SOL     OW26473   5.668   3.326   3.159
 8525SOL    HW126474   5.580   3.311   3.113
 8525SOL    HW226475   5.696   3.242   3.205
 8526SOL     OW26476   2.351   2.870   1.717
 8526SOL    HW126477   2.261   2.874   1.673
 8526SOL    HW226478   2.388   2.962   1.727
 8527SOL     OW26479   4.524   0.335   4.308
 8527SOL    HW126480   4.545   0.314   4.403
 8527SOL    HW226481   4.544   0.256   4.251
 8528SOL     OW26482   4.797   3.159   6.216
 8528SOL    HW126483   4.768   3.064   6.208
 8528SOL    HW226484   4.837   3.175   6.306
 8529SOL     OW26485   1.659   4.949   0.152
 8529SOL    HW126486   1.735   4.953   0.087
 8529SOL    HW226487   1.656   5.033   0.205
 8530SOL     OW26488   1.467   4.316   5.548
 8530SOL    HW126489   1.472   4.218   5.567
 8530SOL    HW226490   1.371   4.345   5.549
 8531SOL     OW26491   5.139   4.568   2.795
 8531SOL    HW126492   5.127   4.564   2.895
 8531SOL    HW226493   5.180   4.655   2.770
 8532SOL     OW26494   3.486   5.367   5.310
 8532SOL    HW126495   3.566   5.309   5.326
 8532SOL    HW226496   3.513   5.448   5.258
 8533SOL     OW26497   3.389   1.387   4.316
 8533SOL    HW126498   3.427   1.425   4.400
 8533SOL    HW226499   3.298   1.426   4.301
 8534SOL     OW26500   1.375   3.444   3.037
 8534SOL    HW126501   1.436   3.511   3.079
 8534SOL    HW226502   1.313   3.490   2.973
 8535SOL     OW26503   0.551   1.975   4.539
 8535SOL    HW126504   0.599   1.927   4.465
 8535SOL    HW226505   0.617   2.031   4.590
 8536SOL     OW26506   6.961   1.686   5.713
 8536SOL    HW126507   7.023   1.755   5.751
 8536SOL    HW226508   6.967   1.603   5.768
 8537SOL     OW26509   5.680   0.891   1.172
 8537SOL    HW126510   5.694   0.940   1.086
 8537SOL    HW226511   5.763   0.894   1.228
 8538SOL     OW26512   6.904   0.676   4.660
 8538SOL    HW126513   6.811   0.661   4.627
 8538SOL    HW226514   6.904   0.684   4.759
 8539SOL     OW26515   0.384   2.696   1.876
 8539SOL    HW126516   0.358   2.758   1.803
 8539SOL    HW226517   0.480   2.669   1.864
 8540SOL     OW26518   3.139   0.795   0.592
 8540SOL    HW126519   3.065   0.729   0.581
 8540SOL    HW226520   3.202   0.788   0.515
 8541SOL     OW26521   3.136   1.391   4.762
 8541SOL    HW126522   3.080   1.443   4.697
 8541SOL    HW226523   3.174   1.311   4.717
 8542SOL     OW26524   1.863   4.290   6.795
 8542SOL    HW126525   1.859   4.335   6.885
 8542SOL    HW226526   1.956   4.297   6.759
 8543SOL     OW26527   2.533   2.499   5.045
 8543SOL    HW126528   2.551   2.442   4.965
 8543SOL    HW226529   2.614   2.502   5.102
 8544SOL     OW26530   4.984   3.891   5.223
 8544SOL    HW126531   5.045   3.913   5.300
 8544SOL    HW226532   4.991   3.962   5.154
 8545SOL     OW26533   3.668   6.610   5.691
 8545SOL    HW126534   3.722   6.549   5.633
 8545SOL    HW226535   3.635   6.687   5.636
 8546SOL     OW26536   5.401   0.534   1.782
 8546SOL    HW126537   5.365   0.625   1.801
 8546SOL    HW226538   5.497   0.542   1.754
 8547SOL     OW26539   6.730   6.347   5.767
 8547SOL    HW126540   6.656   6.415   5.770
 8547SOL    HW226541   6.740   6.313   5.673
 8548SOL     OW26542   0.630   3.087   5.985
 8548SOL    HW126543   0.712   3.125   6.026
 8548SOL    HW226544   0.645   2.990   5.965
 8549SOL     OW26545   2.114   0.773   3.272
 8549SOL    HW126546   2.181   0.734   3.209
 8549SOL    HW226547   2.034   0.804   3.220
 8550SOL     OW26548   0.840   4.471   6.943
 8550SOL    HW126549   0.854   4.549   7.004
 8550SOL    HW226550   0.784   4.403   6.989
 8551SOL     OW26551   2.026   2.052   6.348
 8551SOL    HW126552   2.081   2.003   6.280
 8551SOL    HW226553   1.929   2.036   6.332
 8552SOL     OW26554   2.667   1.487   2.725
 8552SOL    HW126555   2.701   1.552   2.658
 8552SOL    HW226556   2.676   1.525   2.817
 8553SOL     OW26557   4.766   2.889   1.027
 8553SOL    HW126558   4.753   2.950   1.106
 8553SOL    HW226559   4.713   2.924   0.949
 8554SOL     OW26560   0.692   6.539   1.062
 8554SOL    HW126561   0.734   6.520   0.974
 8554SOL    HW226562   0.594   6.555   1.050
 8555SOL     OW26563   4.490   1.366   3.771
 8555SOL    HW126564   4.570   1.314   3.800
 8555SOL    HW226565   4.409   1.307   3.772
 8556SOL     OW26566   2.106   6.089   0.074
 8556SOL    HW126567   2.036   6.019   0.088
 8556SOL    HW226568   2.077   6.174   0.117
 8557SOL     OW26569   6.738   0.622   6.743
 8557SOL    HW126570   6.813   0.686   6.762
 8557SOL    HW226571   6.740   0.596   6.646
 8558SOL     OW26572   3.092   4.904   3.258
 8558SOL    HW126573   3.087   4.947   3.348
 8558SOL    HW226574   3.030   4.825   3.255
 8559SOL     OW26575   1.034   5.338   2.718
 8559SOL    HW126576   0.969   5.262   2.724
 8559SOL    HW226577   1.079   5.351   2.806
 8560SOL     OW26578   2.482   4.733   1.196
 8560SOL    HW126579   2.481   4.635   1.216
 8560SOL    HW226580   2.576   4.767   1.199
 8561SOL     OW26581   3.331   0.174   2.734
 8561SOL    HW126582   3.250   0.116   2.735
 8561SOL    HW226583   3.316   0.253   2.794
 8562SOL     OW26584   3.869   1.313   6.793
 8562SOL    HW126585   3.943   1.342   6.854
 8562SOL    HW226586   3.790   1.373   6.805
 8563SOL     OW26587   1.672   5.641   3.425
 8563SOL    HW126588   1.696   5.713   3.359
 8563SOL    HW226589   1.574   5.623   3.420
 8564SOL     OW26590   4.022   6.623   0.006
 8564SOL    HW126591   3.956   6.641   6.957
 8564SOL    HW226592   4.106   6.586   6.991
 8565SOL     OW26593   3.090   5.296   1.185
 8565SOL    HW126594   3.094   5.362   1.260
 8565SOL    HW226595   3.181   5.257   1.171
 8566SOL     OW26596   3.106   1.111   3.056
 8566SOL    HW126597   3.136   1.194   3.010
 8566SOL    HW226598   3.163   1.034   3.028
 8567SOL     OW26599   1.768   1.882   1.360
 8567SOL    HW126600   1.804   1.792   1.336
 8567SOL    HW226601   1.750   1.885   1.459
 8568SOL     OW26602   0.103   1.593   0.027
 8568SOL    HW126603   0.040   1.525   0.063
 8568SOL    HW226604   0.071   1.685   0.051
 8569SOL     OW26605   5.281   2.454   6.305
 8569SOL    HW126606   5.289   2.490   6.212
 8569SOL    HW226607   5.238   2.523   6.363
 8570SOL     OW26608   0.791   2.138   4.621
 8570SOL    HW126609   0.838   2.074   4.560
 8570SOL    HW226610   0.820   2.121   4.715
 8571SOL     OW26611   2.094   0.634   4.159
 8571SOL    HW126612   2.084   0.733   4.154
 8571SOL    HW226613   2.054   0.600   4.244
 8572SOL     OW26614   3.335   4.111   5.701
 8572SOL    HW126615   3.386   4.174   5.760
 8572SOL    HW226616   3.330   4.149   5.608
 8573SOL     OW26617   3.647   5.961   1.184
 8573SOL    HW126618   3.711   6.009   1.244
 8573SOL    HW226619   3.564   6.016   1.172
 8574SOL     OW26620   6.909   6.519   5.504
 8574SOL    HW126621   6.878   6.428   5.533
 8574SOL    HW226622   6.841   6.587   5.529
 8575SOL     OW26623   3.177   6.795   2.654
 8575SOL    HW126624   3.264   6.794   2.604
 8575SOL    HW226625   3.105   6.829   2.593
 8576SOL     OW26626   0.528   3.827   4.227
 8576SOL    HW126627   0.463   3.835   4.302
 8576SOL    HW226628   0.622   3.830   4.263
 8577SOL     OW26629   1.462   1.488   6.162
 8577SOL    HW126630   1.496   1.417   6.224
 8577SOL    HW226631   1.503   1.576   6.187
 8578SOL     OW26632   6.101   6.793   5.062
 8578SOL    HW126633   6.041   6.715   5.081
 8578SOL    HW226634   6.116   6.800   4.963
 8579SOL     OW26635   2.593   6.188   2.647
 8579SOL    HW126636   2.637   6.110   2.602
 8579SOL    HW226637   2.586   6.264   2.583
 8580SOL     OW26638   1.119   6.482   1.158
 8580SOL    HW126639   1.023   6.457   1.173
 8580SOL    HW226640   1.124   6.564   1.101
 8581SOL     OW26641   3.722   4.965   1.413
 8581SOL    HW126642   3.671   5.018   1.480
 8581SOL    HW226643   3.659   4.927   1.345
 8582SOL     OW26644   4.212   4.746   5.618
 8582SOL    HW126645   4.138   4.706   5.565
 8582SOL    HW226646   4.194   4.843   5.634
 8583SOL     OW26647   4.006   0.465   2.725
 8583SOL    HW126648   4.022   0.372   2.693
 8583SOL    HW226649   3.917   0.497   2.692
 8584SOL     OW26650   6.294   1.228   4.442
 8584SOL    HW126651   6.377   1.172   4.446
 8584SOL    HW226652   6.241   1.215   4.526
 8585SOL     OW26653   6.142   2.179   1.182
 8585SOL    HW126654   6.117   2.085   1.157
 8585SOL    HW226655   6.093   2.206   1.265
 8586SOL     OW26656   5.489   6.373   1.467
 8586SOL    HW126657   5.428   6.379   1.388
 8586SOL    HW226658   5.559   6.445   1.461
 8587SOL     OW26659   1.046   1.413   5.736
 8587SOL    HW126660   0.981   1.471   5.784
 8587SOL    HW226661   1.001   1.370   5.658
 8588SOL     OW26662   2.987   1.732   6.912
 8588SOL    HW126663   3.053   1.741   6.837
 8588SOL    HW226664   2.928   1.813   6.914
 8589SOL     OW26665   0.396   3.438   5.838
 8589SOL    HW126666   0.369   3.502   5.766
 8589SOL    HW226667   0.354   3.465   5.924
 8590SOL     OW26668   0.129   2.058   2.561
 8590SOL    HW126669   0.053   2.010   2.518
 8590SOL    HW226670   0.198   1.991   2.590
 8591SOL     OW26671   6.828   5.321   0.395
 8591SOL    HW126672   6.918   5.291   0.364
 8591SOL    HW226673   6.809   5.283   0.485
 8592SOL     OW26674   0.714   2.530   6.854
 8592SOL    HW126675   0.789   2.539   6.788
 8592SOL    HW226676   0.697   2.619   6.897
 8593SOL     OW26677   2.939   0.347   6.312
 8593SOL    HW126678   2.930   0.382   6.405
 8593SOL    HW226679   3.004   0.271   6.312
 8594SOL     OW26680   6.097   2.598   6.170
 8594SOL    HW126681   6.173   2.638   6.222
 8594SOL    HW226682   6.122   2.595   6.073
 8595SOL     OW26683   5.058   6.683   2.332
 8595SOL    HW126684   5.122   6.677   2.409
 8595SOL    HW226685   4.971   6.640   2.358
 8596SOL     OW26686   1.313   3.359   3.582
 8596SOL    HW126687   1.408   3.359   3.614
 8596SOL    HW226688   1.258   3.301   3.641
 8597SOL     OW26689   6.248   3.616   1.260
 8597SOL    HW126690   6.234   3.542   1.326
 8597SOL    HW226691   6.344   3.619   1.233
 8598SOL     OW26692   5.472   0.712   4.904
 8598SOL    HW126693   5.550   0.724   4.843
 8598SOL    HW226694   5.456   0.796   4.955
 8599SOL     OW26695   1.632   2.752   3.461
 8599SOL    HW126696   1.558   2.688   3.439
 8599SOL    HW226697   1.624   2.832   3.402
 8600SOL     OW26698   4.457   3.573   0.866
 8600SOL    HW126699   4.379   3.513   0.851
 8600SOL    HW226700   4.542   3.523   0.845
 8601SOL     OW26701   1.044   0.717   3.754
 8601SOL    HW126702   1.097   0.635   3.734
 8601SOL    HW226703   0.952   0.707   3.716
 8602SOL     OW26704   2.612   6.902   4.549
 8602SOL    HW126705   2.543   6.832   4.532
 8602SOL    HW226706   2.591   6.951   4.633
 8603SOL     OW26707   6.882   0.252   0.119
 8603SOL    HW126708   6.893   0.293   0.029
 8603SOL    HW226709   6.940   0.300   0.185
 8604SOL     OW26710   1.047   4.392   5.937
 8604SOL    HW126711   0.979   4.416   5.869
 8604SOL    HW226712   1.138   4.414   5.903
 8605SOL     OW26713   6.978   4.640   4.669
 8605SOL    HW126714   0.021   4.713   4.678
 8605SOL    HW226715   6.887   4.675   4.691
 8606SOL     OW26716   2.099   2.106   6.629
 8606SOL    HW126717   2.061   2.073   6.543
 8606SOL    HW226718   2.073   2.044   6.703
 8607SOL     OW26719   2.283   4.696   1.436
 8607SOL    HW126720   2.206   4.727   1.381
 8607SOL    HW226721   2.362   4.756   1.421
 8608SOL     OW26722   2.683   4.595   3.084
 8608SOL    HW126723   2.633   4.515   3.053
 8608SOL    HW226724   2.660   4.673   3.026
 8609SOL     OW26725   5.027   1.430   3.450
 8609SOL    HW126726   5.061   1.385   3.368
 8609SOL    HW226727   5.026   1.365   3.526
 8610SOL     OW26728   7.004   6.527   3.249
 8610SOL    HW126729   0.077   6.520   3.270
 8610SOL    HW226730   6.951   6.529   3.334
 8611SOL     OW26731   3.120   1.140   3.531
 8611SOL    HW126732   3.041   1.106   3.582
 8611SOL    HW226733   3.173   1.063   3.497
 8612SOL     OW26734   4.062   3.422   3.190
 8612SOL    HW126735   4.069   3.408   3.289
 8612SOL    HW226736   4.065   3.334   3.144
 8613SOL     OW26737   2.852   2.539   1.393
 8613SOL    HW126738   2.931   2.480   1.407
 8613SOL    HW226739   2.778   2.487   1.350
 8614SOL     OW26740   1.227   2.309   1.465
 8614SOL    HW126741   1.137   2.352   1.456
 8614SOL    HW226742   1.286   2.366   1.521
 8615SOL     OW26743   4.658   2.104   3.744
 8615SOL    HW126744   4.739   2.122   3.801
 8615SOL    HW226745   4.639   2.006   3.742
 8616SOL     OW26746   4.259   4.953   2.490
 8616SOL    HW126747   4.190   5.021   2.467
 8616SOL    HW226748   4.217   4.862   2.493
 8617SOL     OW26749   5.194   6.695   3.930
 8617SOL    HW126750   5.268   6.760   3.913
 8617SOL    HW226751   5.169   6.698   4.027
 8618SOL     OW26752   5.984   3.961   1.533
 8618SOL    HW126753   6.007   4.019   1.455
 8618SOL    HW226754   5.889   3.978   1.561
 8619SOL     OW26755   5.380   5.033   2.167
 8619SOL    HW126756   5.349   4.967   2.235
 8619SOL    HW226757   5.393   5.122   2.211
 8620SOL     OW26758   2.357   0.932   4.928
 8620SOL    HW126759   2.261   0.955   4.939
 8620SOL    HW226760   2.412   0.982   4.995
 8621SOL     OW26761   4.885   2.557   1.729
 8621SOL    HW126762   4.799   2.533   1.773
 8621SOL    HW226763   4.867   2.611   1.647
 8622SOL     OW26764   6.548   5.168   2.691
 8622SOL    HW126765   6.483   5.243   2.702
 8622SOL    HW226766   6.538   5.103   2.766
 8623SOL     OW26767   6.649   3.485   4.742
 8623SOL    HW126768   6.685   3.408   4.689
 8623SOL    HW226769   6.723   3.529   4.792
 8624SOL     OW26770   3.386   3.492   5.995
 8624SOL    HW126771   3.479   3.507   5.959
 8624SOL    HW226772   3.333   3.440   5.928
 8625SOL     OW26773   3.246   1.718   5.269
 8625SOL    HW126774   3.320   1.700   5.334
 8625SOL    HW226775   3.210   1.810   5.285
 8626SOL     OW26776   4.790   3.207   0.748
 8626SOL    HW126777   4.781   3.224   0.650
 8626SOL    HW226778   4.881   3.170   0.767
 8627SOL     OW26779   1.861   1.341   2.783
 8627SOL    HW126780   1.831   1.254   2.822
 8627SOL    HW226781   1.952   1.330   2.743
 8628SOL     OW26782   0.188   6.525   0.035
 8628SOL    HW126783   0.193   6.495   0.130
 8628SOL    HW226784   0.249   6.469   7.003
 8629SOL     OW26785   0.839   0.153   4.162
 8629SOL    HW126786   0.849   0.209   4.244
 8629SOL    HW226787   0.745   0.157   4.130
 8630SOL     OW26788   4.882   3.211   3.445
 8630SOL    HW126789   4.929   3.192   3.359
 8630SOL    HW226790   4.862   3.309   3.452
 8631SOL     OW26791   2.581   5.721   0.173
 8631SOL    HW126792   2.571   5.727   0.074
 8631SOL    HW226793   2.503   5.764   0.218
 8632SOL     OW26794   4.394   4.831   5.263
 8632SOL    HW126795   4.401   4.922   5.302
 8632SOL    HW226796   4.307   4.789   5.288
 8633SOL     OW26797   5.322   4.122   5.711
 8633SOL    HW126798   5.290   4.184   5.783
 8633SOL    HW226799   5.401   4.163   5.665
 8634SOL     OW26800   5.700   5.272   0.942
 8634SOL    HW126801   5.707   5.203   1.014
 8634SOL    HW226802   5.782   5.330   0.944
 8635SOL     OW26803   6.191   2.938   6.829
 8635SOL    HW126804   6.156   2.868   6.891
 8635SOL    HW226805   6.148   3.025   6.849
 8636SOL     OW26806   4.314   5.973   1.147
 8636SOL    HW126807   4.261   5.989   1.063
 8636SOL    HW226808   4.254   5.984   1.226
 8637SOL     OW26809   1.614   1.354   6.586
 8637SOL    HW126810   1.592   1.335   6.491
 8637SOL    HW226811   1.634   1.451   6.597
 8638SOL     OW26812   4.096   2.877   5.556
 8638SOL    HW126813   4.173   2.938   5.575
 8638SOL    HW226814   4.123   2.811   5.487
 8639SOL     OW26815   4.838   3.135   6.862
 8639SOL    HW126816   4.795   3.059   6.814
 8639SOL    HW226817   4.894   3.100   6.937
 8640SOL     OW26818   3.392   3.198   1.198
 8640SOL    HW126819   3.387   3.288   1.242
 8640SOL    HW226820   3.446   3.136   1.255
 8641SOL     OW26821   4.716   5.230   2.940
 8641SOL    HW126822   4.712   5.255   2.843
 8641SOL    HW226823   4.685   5.307   2.996
 8642SOL     OW26824   1.043   6.477   4.087
 8642SOL    HW126825   0.978   6.419   4.038
 8642SOL    HW226826   1.032   6.462   4.186
 8643SOL     OW26827   3.313   6.720   0.732
 8643SOL    HW126828   3.281   6.628   0.754
 8643SOL    HW226829   3.385   6.746   0.796
 8644SOL     OW26830   6.156   2.126   6.407
 8644SOL    HW126831   6.248   2.106   6.442
 8644SOL    HW226832   6.164   2.180   6.323
 8645SOL     OW26833   5.766   4.293   1.882
 8645SOL    HW126834   5.734   4.259   1.794
 8645SOL    HW226835   5.723   4.381   1.902
 8646SOL     OW26836   0.457   2.565   5.480
 8646SOL    HW126837   0.439   2.551   5.578
 8646SOL    HW226838   0.386   2.624   5.441
 8647SOL     OW26839   2.743   4.862   1.241
 8647SOL    HW126840   2.769   4.769   1.266
 8647SOL    HW226841   2.823   4.922   1.249
 8648SOL     OW26842   5.772   6.356   0.967
 8648SOL    HW126843   5.780   6.431   0.901
 8648SOL    HW226844   5.863   6.333   1.001
 8649SOL     OW26845   4.606   6.967   0.366
 8649SOL    HW126846   4.589   6.888   0.425
 8649SOL    HW226847   4.673   6.943   0.296
 8650SOL     OW26848   2.235   0.484   4.898
 8650SOL    HW126849   2.219   0.394   4.858
 8650SOL    HW226850   2.291   0.474   4.981
 8651SOL     OW26851   2.721   1.317   0.851
 8651SOL    HW126852   2.799   1.351   0.904
 8651SOL    HW226853   2.643   1.303   0.912
 8652SOL     OW26854   1.257   4.444   4.128
 8652SOL    HW126855   1.184   4.480   4.187
 8652SOL    HW226856   1.244   4.478   4.035
 8653SOL     OW26857   0.187   2.211   6.247
 8653SOL    HW126858   0.182   2.302   6.204
 8653SOL    HW226859   0.280   2.193   6.276
 8654SOL     OW26860   1.047   4.600   2.155
 8654SOL    HW126861   1.106   4.670   2.113
 8654SOL    HW226862   0.952   4.617   2.128
 8655SOL     OW26863   6.588   1.630   5.462
 8655SOL    HW126864   6.554   1.723   5.449
 8655SOL    HW226865   6.517   1.565   5.436
 8656SOL     OW26866   4.841   6.920   1.700
 8656SOL    HW126867   4.913   6.989   1.694
 8656SOL    HW226868   4.879   6.834   1.736
 8657SOL     OW26869   5.660   0.318   2.344
 8657SOL    HW126870   5.594   0.364   2.403
 8657SOL    HW226871   5.739   0.288   2.398
 8658SOL     OW26872   6.402   5.047   1.643
 8658SOL    HW126873   6.359   5.080   1.727
 8658SOL    HW226874   6.337   4.988   1.594
 8659SOL     OW26875   4.835   1.742   2.650
 8659SOL    HW126876   4.744   1.761   2.686
 8659SOL    HW226877   4.877   1.827   2.618
 8660SOL     OW26878   0.738   2.772   1.215
 8660SOL    HW126879   0.691   2.811   1.136
 8660SOL    HW226880   0.810   2.709   1.184
 8661SOL     OW26881   6.137   3.116   3.130
 8661SOL    HW126882   6.056   3.157   3.089
 8661SOL    HW226883   6.136   3.017   3.115
 8662SOL     OW26884   3.244   5.832   2.586
 8662SOL    HW126885   3.327   5.777   2.585
 8662SOL    HW226886   3.165   5.772   2.576
 8663SOL     OW26887   3.312   5.651   3.249
 8663SOL    HW126888   3.383   5.700   3.299
 8663SOL    HW226889   3.273   5.710   3.178
 8664SOL     OW26890   2.403   5.814   3.469
 8664SOL    HW126891   2.404   5.910   3.442
 8664SOL    HW226892   2.332   5.765   3.418
 8665SOL     OW26893   6.095   4.859   5.830
 8665SOL    HW126894   6.164   4.802   5.874
 8665SOL    HW226895   6.044   4.910   5.899
 8666SOL     OW26896   5.684   0.445   3.755
 8666SOL    HW126897   5.705   0.353   3.790
 8666SOL    HW226898   5.749   0.510   3.793
 8667SOL     OW26899   4.864   1.411   4.148
 8667SOL    HW126900   4.870   1.511   4.154
 8667SOL    HW226901   4.835   1.373   4.235
 8668SOL     OW26902   5.647   2.554   5.261
 8668SOL    HW126903   5.550   2.531   5.261
 8668SOL    HW226904   5.701   2.474   5.235
 8669SOL     OW26905   6.242   6.336   6.160
 8669SOL    HW126906   6.197   6.371   6.078
 8669SOL    HW226907   6.198   6.251   6.189
 8670SOL     OW26908   5.605   5.069   6.003
 8670SOL    HW126909   5.690   5.017   5.994
 8670SOL    HW226910   5.578   5.072   6.099
 8671SOL     OW26911   0.383   2.455   2.577
 8671SOL    HW126912   0.479   2.429   2.570
 8671SOL    HW226913   0.370   2.520   2.652
 8672SOL     OW26914   6.918   0.457   3.458
 8672SOL    HW126915   7.000   0.454   3.401
 8672SOL    HW226916   6.875   0.367   3.458
 8673SOL     OW26917   0.565   1.087   6.908
 8673SOL    HW126918   0.606   0.996   6.911
 8673SOL    HW226919   0.565   1.121   6.814
 8674SOL     OW26920   0.733   3.950   3.154
 8674SOL    HW126921   0.810   3.945   3.090
 8674SOL    HW226922   0.748   4.025   3.218
 8675SOL     OW26923   3.171   1.451   6.029
 8675SOL    HW126924   3.247   1.504   6.065
 8675SOL    HW226925   3.202   1.398   5.950
 8676SOL     OW26926   5.723   1.343   1.008
 8676SOL    HW126927   5.675   1.257   0.993
 8676SOL    HW226928   5.815   1.338   0.969
 8677SOL     OW26929   1.479   6.626   5.928
 8677SOL    HW126930   1.388   6.660   5.948
 8677SOL    HW226931   1.472   6.538   5.881
 8678SOL     OW26932   1.384   0.014   0.425
 8678SOL    HW126933   1.297   7.002   0.461
 8678SOL    HW226934   1.431   0.064   0.497
 8679SOL     OW26935   2.326   1.073   3.975
 8679SOL    HW126936   2.235   1.039   3.949
 8679SOL    HW226937   2.396   1.019   3.928
 8680SOL     OW26938   6.416   2.534   6.215
 8680SOL    HW126939   6.360   2.592   6.275
 8680SOL    HW226940   6.469   2.591   6.153
 8681SOL     OW26941   5.229   6.105   0.824
 8681SOL    HW126942   5.142   6.101   0.872
 8681SOL    HW226943   5.228   6.040   0.748
 8682SOL     OW26944   6.915   0.390   0.942
 8682SOL    HW126945   6.973   0.393   1.023
 8682SOL    HW226946   6.875   0.480   0.926
 8683SOL     OW26947   1.661   3.585   4.931
 8683SOL    HW126948   1.594   3.634   4.988
 8683SOL    HW226949   1.726   3.651   4.893
 8684SOL     OW26950   0.633   4.113   5.024
 8684SOL    HW126951   0.595   4.058   5.098
 8684SOL    HW226952   0.608   4.073   4.936
 8685SOL     OW26953   4.836   2.502   5.850
 8685SOL    HW126954   4.893   2.582   5.833
 8685SOL    HW226955   4.890   2.419   5.837
 8686SOL     OW26956   6.460   6.367   2.380
 8686SOL    HW126957   6.387   6.426   2.345
 8686SOL    HW226958   6.426   6.316   2.460
 8687SOL     OW26959   6.188   3.181   3.457
 8687SOL    HW126960   6.263   3.209   3.397
 8687SOL    HW226961   6.101   3.205   3.414
 8688SOL     OW26962   1.496   4.100   6.380
 8688SOL    HW126963   1.492   4.108   6.280
 8688SOL    HW226964   1.455   4.181   6.422
 8689SOL     OW26965   4.386   3.018   0.629
 8689SOL    HW126966   4.412   2.962   0.707
 8689SOL    HW226967   4.318   2.969   0.574
 8690SOL     OW26968   1.218   1.782   2.788
 8690SOL    HW126969   1.253   1.875   2.803
 8690SOL    HW226970   1.280   1.716   2.831
 8691SOL     OW26971   2.959   1.936   4.782
 8691SOL    HW126972   3.029   1.865   4.786
 8691SOL    HW226973   2.991   2.012   4.726
 8692SOL     OW26974   4.402   2.162   5.967
 8692SOL    HW126975   4.324   2.225   5.976
 8692SOL    HW226976   4.486   2.215   5.959
 8693SOL     OW26977   6.502   1.005   6.793
 8693SOL    HW126978   6.569   0.975   6.724
 8693SOL    HW226979   6.433   1.063   6.749
 8694SOL     OW26980   5.678   3.447   3.818
 8694SOL    HW126981   5.617   3.384   3.868
 8694SOL    HW226982   5.750   3.394   3.772
 8695SOL     OW26983   4.209   3.550   6.794
 8695SOL    HW126984   4.145   3.624   6.772
 8695SOL    HW226985   4.298   3.570   6.754
 8696SOL     OW26986   2.813   5.657   5.895
 8696SOL    HW126987   2.842   5.696   5.982
 8696SOL    HW226988   2.753   5.579   5.912
 8697SOL     OW26989   1.909   4.252   5.797
 8697SOL    HW126990   1.822   4.203   5.800
 8697SOL    HW226991   1.905   4.322   5.726
 8698SOL     OW26992   5.151   6.106   5.899
 8698SOL    HW126993   5.057   6.085   5.870
 8698SOL    HW226994   5.203   6.021   5.908
 8699SOL     OW26995   2.720   2.488   6.651
 8699SOL    HW126996   2.653   2.418   6.628
 8699SOL    HW226997   2.698   2.573   6.603
 8700SOL     OW26998   0.733   0.470   5.257
 8700SOL    HW126999   0.719   0.521   5.173
 8700SOL    HW227000   0.698   0.377   5.246
 8701SOL     OW27001   0.708   1.908   6.676
 8701SOL    HW127002   0.637   1.951   6.732
 8701SOL    HW227003   0.670   1.884   6.586
 8702SOL     OW27004   5.362   4.803   1.764
 8702SOL    HW127005   5.294   4.803   1.691
 8702SOL    HW227006   5.347   4.882   1.824
 8703SOL     OW27007   2.527   4.605   0.369
 8703SOL    HW127008   2.541   4.547   0.289
 8703SOL    HW227009   2.559   4.558   0.451
 8704SOL     OW27010   0.733   2.102   4.266
 8704SOL    HW127011   0.817   2.145   4.236
 8704SOL    HW227012   0.676   2.168   4.315
 8705SOL     OW27013   4.317   2.708   7.014
 8705SOL    HW127014   4.316   2.666   0.081
 8705SOL    HW227015   4.271   2.797   7.017
 8706SOL     OW27016   5.514   3.021   0.196
 8706SOL    HW127017   5.445   2.960   0.236
 8706SOL    HW227018   5.549   3.083   0.266
 8707SOL     OW27019   1.443   1.513   4.385
 8707SOL    HW127020   1.419   1.443   4.318
 8707SOL    HW227021   1.421   1.603   4.349
 8708SOL     OW27022   5.456   2.023   2.954
 8708SOL    HW127023   5.421   1.932   2.975
 8708SOL    HW227024   5.408   2.060   2.874
 8709SOL     OW27025   6.507   6.907   6.285
 8709SOL    HW127026   6.599   6.887   6.319
 8709SOL    HW227027   6.505   6.894   6.186
 8710SOL     OW27028   2.365   1.196   3.089
 8710SOL    HW127029   2.265   1.201   3.088
 8710SOL    HW227030   2.395   1.142   3.010
 8711SOL     OW27031   1.362   0.870   2.043
 8711SOL    HW127032   1.305   0.879   2.125
 8711SOL    HW227033   1.312   0.904   1.964
 8712SOL     OW27034   2.298   2.592   5.158
 8712SOL    HW127035   2.330   2.683   5.186
 8712SOL    HW227036   2.374   2.541   5.119
 8713SOL     OW27037   1.096   4.309   2.066
 8713SOL    HW127038   1.094   4.409   2.073
 8713SOL    HW227039   1.109   4.283   1.970
 8714SOL     OW27040   0.164   6.195   6.674
 8714SOL    HW127041   0.200   6.179   6.583
 8714SOL    HW227042   0.074   6.239   6.667
 8715SOL     OW27043   2.738   1.874   0.426
 8715SOL    HW127044   2.828   1.890   0.385
 8715SOL    HW227045   2.672   1.855   0.355
 8716SOL     OW27046   6.959   6.582   1.399
 8716SOL    HW127047   6.935   6.679   1.398
 8716SOL    HW227048   6.877   6.528   1.420
 8717SOL     OW27049   2.342   4.226   6.915
 8717SOL    HW127050   2.419   4.217   6.978
 8717SOL    HW227051   2.260   4.184   6.955
 8718SOL     OW27052   1.811   3.995   6.343
 8718SOL    HW127053   1.878   4.065   6.319
 8718SOL    HW227054   1.769   4.018   6.431
 8719SOL     OW27055   3.362   0.992   6.256
 8719SOL    HW127056   3.265   0.983   6.276
 8719SOL    HW227057   3.379   0.971   6.160
 8720SOL     OW27058   6.235   4.424   5.226
 8720SOL    HW127059   6.309   4.414   5.292
 8720SOL    HW227060   6.197   4.516   5.231
 8721SOL     OW27061   0.147   6.733   6.693
 8721SOL    HW127062   0.177   6.638   6.678
 8721SOL    HW227063   0.056   6.732   6.735
 8722SOL     OW27064   3.826   0.739   1.123
 8722SOL    HW127065   3.736   0.781   1.136
 8722SOL    HW227066   3.891   0.810   1.093
 8723SOL     OW27067   5.196   0.240   2.033
 8723SOL    HW127068   5.178   0.187   2.115
 8723SOL    HW227069   5.138   0.322   2.032
 8724SOL     OW27070   4.092   0.412   4.330
 8724SOL    HW127071   4.051   0.430   4.419
 8724SOL    HW227072   4.167   0.476   4.313
 8725SOL     OW27073   0.428   6.335   4.620
 8725SOL    HW127074   0.450   6.433   4.624
 8725SOL    HW227075   0.332   6.323   4.598
 8726SOL     OW27076   0.795   0.863   0.281
 8726SOL    HW127077   0.836   0.823   0.199
 8726SOL    HW227078   0.727   0.800   0.318
 8727SOL     OW27079   5.528   6.078   6.580
 8727SOL    HW127080   5.454   6.144   6.566
 8727SOL    HW227081   5.597   6.088   6.508
 8728SOL     OW27082   5.729   0.784   3.119
 8728SOL    HW127083   5.630   0.787   3.121
 8728SOL    HW227084   5.766   0.808   3.209
 8729SOL     OW27085   3.647   5.249   6.130
 8729SOL    HW127086   3.589   5.266   6.209
 8729SOL    HW227087   3.685   5.335   6.096
 8730SOL     OW27088   5.541   4.467   2.825
 8730SOL    HW127089   5.566   4.538   2.890
 8730SOL    HW227090   5.475   4.405   2.866
 8731SOL     OW27091   0.565   2.137   3.302
 8731SOL    HW127092   0.575   2.094   3.213
 8731SOL    HW227093   0.498   2.211   3.297
 8732SOL     OW27094   5.000   5.624   0.921
 8732SOL    HW127095   4.949   5.564   0.982
 8732SOL    HW227096   4.981   5.719   0.943
 8733SOL     OW27097   0.652   4.920   1.411
 8733SOL    HW127098   0.608   4.942   1.324
 8733SOL    HW227099   0.688   4.827   1.408
 8734SOL     OW27100   6.729   3.813   2.037
 8734SOL    HW127101   6.730   3.714   2.026
 8734SOL    HW227102   6.804   3.853   1.984
 8735SOL     OW27103   2.151   4.231   5.318
 8735SOL    HW127104   2.204   4.148   5.338
 8735SOL    HW227105   2.166   4.258   5.223
 8736SOL     OW27106   0.734   5.542   2.254
 8736SOL    HW127107   0.689   5.509   2.337
 8736SOL    HW227108   0.678   5.613   2.211
 8737SOL     OW27109   1.196   5.469   6.602
 8737SOL    HW127110   1.233   5.557   6.632
 8737SOL    HW227111   1.124   5.440   6.665
 8738SOL     OW27112   0.933   3.742   3.797
 8738SOL    HW127113   0.930   3.772   3.892
 8738SOL    HW227114   0.841   3.713   3.768
 8739SOL     OW27115   5.573   4.052   5.391
 8739SOL    HW127116   5.664   4.068   5.352
 8739SOL    HW227117   5.528   3.979   5.340
 8740SOL     OW27118   3.709   1.774   3.516
 8740SOL    HW127119   3.735   1.772   3.613
 8740SOL    HW227120   3.699   1.869   3.487
 8741SOL     OW27121   1.230   6.973   2.799
 8741SOL    HW127122   1.154   6.919   2.763
 8741SOL    HW227123   1.294   6.993   2.724
 8742SOL     OW27124   3.601   1.255   2.605
 8742SOL    HW127125   3.662   1.234   2.681
 8742SOL    HW227126   3.511   1.214   2.622
 8743SOL     OW27127   1.679   0.793   1.693
 8743SOL    HW127128   1.701   0.886   1.666
 8743SOL    HW227129   1.655   0.791   1.790
 8744SOL     OW27130   4.122   3.594   0.068
 8744SOL    HW127131   4.035   3.631   0.036
 8744SOL    HW227132   4.188   3.594   7.018
 8745SOL     OW27133   6.654   1.748   6.506
 8745SOL    HW127134   6.634   1.713   6.598
 8745SOL    HW227135   6.568   1.763   6.457
 8746SOL     OW27136   5.049   5.513   3.967
 8746SOL    HW127137   4.954   5.486   3.983
 8746SOL    HW227138   5.104   5.432   3.949
 8747SOL     OW27139   6.350   0.937   2.102
 8747SOL    HW127140   6.416   0.872   2.065
 8747SOL    HW227141   6.264   0.928   2.052
 8748SOL     OW27142   0.431   1.843   3.992
 8748SOL    HW127143   0.471   1.860   4.082
 8748SOL    HW227144   0.388   1.927   3.958
 8749SOL     OW27145   2.733   1.151   5.768
 8749SOL    HW127146   2.789   1.144   5.851
 8749SOL    HW227147   2.646   1.196   5.791
 8750SOL     OW27148   4.427   2.577   5.771
 8750SOL    HW127149   4.513   2.593   5.722
 8750SOL    HW227150   4.446   2.560   5.867
 8751SOL     OW27151   0.154   6.439   1.402
 8751SOL    HW127152   0.240   6.488   1.385
 8751SOL    HW227153   0.078   6.501   1.386
 8752SOL     OW27154   4.659   3.176   0.489
 8752SOL    HW127155   4.572   3.141   0.524
 8752SOL    HW227156   4.658   3.173   0.389
 8753SOL     OW27157   1.658   2.886   0.163
 8753SOL    HW127158   1.703   2.936   0.237
 8753SOL    HW227159   1.713   2.805   0.139
 8754SOL     OW27160   2.685   4.612   6.425
 8754SOL    HW127161   2.673   4.711   6.439
 8754SOL    HW227162   2.599   4.573   6.391
 8755SOL     OW27163   0.756   1.517   1.755
 8755SOL    HW127164   0.770   1.418   1.760
 8755SOL    HW227165   0.716   1.541   1.666
 8756SOL     OW27166   2.530   2.557   3.776
 8756SOL    HW127167   2.599   2.485   3.769
 8756SOL    HW227168   2.528   2.593   3.869
 8757SOL     OW27169   5.072   6.564   5.520
 8757SOL    HW127170   5.104   6.657   5.540
 8757SOL    HW227171   5.148   6.500   5.528
 8758SOL     OW27172   3.341   6.602   3.686
 8758SOL    HW127173   3.420   6.543   3.668
 8758SOL    HW227174   3.272   6.588   3.615
 8759SOL     OW27175   6.359   0.656   6.791
 8759SOL    HW127176   6.389   0.583   6.852
 8759SOL    HW227177   6.391   0.744   6.826
 8760SOL     OW27178   2.203   1.734   4.125
 8760SOL    HW127179   2.270   1.689   4.065
 8760SOL    HW227180   2.172   1.818   4.082
 8761SOL     OW27181   4.808   1.151   1.995
 8761SOL    HW127182   4.812   1.249   2.016
 8761SOL    HW227183   4.849   1.099   2.069
 8762SOL     OW27184   1.761   4.968   4.031
 8762SOL    HW127185   1.740   4.892   3.969
 8762SOL    HW227186   1.852   4.955   4.070
 8763SOL     OW27187   0.171   1.153   5.553
 8763SOL    HW127188   0.082   1.186   5.524
 8763SOL    HW227189   0.208   1.089   5.485
 8764SOL     OW27190   4.265   5.128   5.644
 8764SOL    HW127191   4.194   5.061   5.666
 8764SOL    HW227192   4.295   5.115   5.550
 8765SOL     OW27193   5.272   0.609   5.324
 8765SOL    HW127194   5.295   0.705   5.340
 8765SOL    HW227195   5.191   0.585   5.378
 8766SOL     OW27196   4.781   4.396   6.064
 8766SOL    HW127197   4.830   4.357   6.142
 8766SOL    HW227198   4.699   4.443   6.097
 8767SOL     OW27199   2.805   0.481   3.923
 8767SOL    HW127200   2.794   0.525   4.012
 8767SOL    HW227201   2.722   0.430   3.901
 8768SOL     OW27202   6.555   3.042   0.176
 8768SOL    HW127203   6.504   2.963   0.143
 8768SOL    HW227204   6.494   3.121   0.180
 8769SOL     OW27205   6.511   1.205   1.410
 8769SOL    HW127206   6.454   1.252   1.476
 8769SOL    HW227207   6.470   1.210   1.319
 8770SOL     OW27208   5.369   3.247   2.255
 8770SOL    HW127209   5.340   3.228   2.161
 8770SOL    HW227210   5.313   3.194   2.318
 8771SOL     OW27211   0.672   3.645   6.281
 8771SOL    HW127212   0.689   3.716   6.349
 8771SOL    HW227213   0.748   3.644   6.215
 8772SOL     OW27214   5.487   0.260   4.683
 8772SOL    HW127215   5.528   0.253   4.592
 8772SOL    HW227216   5.415   0.191   4.692
 8773SOL     OW27217   0.020   2.045   4.246
 8773SOL    HW127218   0.038   1.973   4.179
 8773SOL    HW227219   0.062   2.020   4.334
 8774SOL     OW27220   1.307   7.007   6.825
 8774SOL    HW127221   1.365   0.005   6.903
 8774SOL    HW227222   1.314   6.909   6.806
 8775SOL     OW27223   5.462   2.021   4.190
 8775SOL    HW127224   5.427   2.093   4.131
 8775SOL    HW227225   5.419   1.934   4.166
 8776SOL     OW27226   4.972   2.559   0.667
 8776SOL    HW127227   5.044   2.496   0.638
 8776SOL    HW227228   4.884   2.527   0.631
 8777SOL     OW27229   1.142   2.729   2.931
 8777SOL    HW127230   1.184   2.819   2.946
 8777SOL    HW227231   1.200   2.659   2.972
 8778SOL     OW27232   4.679   4.479   5.637
 8778SOL    HW127233   4.693   4.381   5.625
 8778SOL    HW227234   4.711   4.507   5.728
 8779SOL     OW27235   3.286   5.166   2.801
 8779SOL    HW127236   3.210   5.230   2.792
 8779SOL    HW227237   3.251   5.073   2.814
 8780SOL     OW27238   0.330   5.569   2.235
 8780SOL    HW127239   0.243   5.572   2.186
 8780SOL    HW227240   0.318   5.602   2.328
 8781SOL     OW27241   3.782   6.467   2.228
 8781SOL    HW127242   3.829   6.556   2.231
 8781SOL    HW227243   3.775   6.436   2.133
 8782SOL     OW27244   4.865   0.978   1.567
 8782SOL    HW127245   4.913   0.951   1.651
 8782SOL    HW227246   4.832   1.072   1.577
 8783SOL     OW27247   4.891   3.395   4.644
 8783SOL    HW127248   4.895   3.400   4.744
 8783SOL    HW227249   4.834   3.470   4.609
 8784SOL     OW27250   5.609   6.834   0.670
 8784SOL    HW127251   5.660   6.753   0.702
 8784SOL    HW227252   5.537   6.856   0.736
 8785SOL     OW27253   0.179   5.739   6.492
 8785SOL    HW127254   0.111   5.701   6.429
 8785SOL    HW227255   0.192   5.676   6.568
 8786SOL     OW27256   4.132   2.225   2.062
 8786SOL    HW127257   4.071   2.285   2.010
 8786SOL    HW227258   4.193   2.177   1.999
 8787SOL     OW27259   3.455   0.729   1.480
 8787SOL    HW127260   3.475   0.635   1.453
 8787SOL    HW227261   3.357   0.738   1.498
 8788SOL     OW27262   0.287   0.429   4.946
 8788SOL    HW127263   0.273   0.366   5.022
 8788SOL    HW227264   0.325   0.515   4.980
 8789SOL     OW27265   0.312   4.161   5.040
 8789SOL    HW127266   0.340   4.249   5.079
 8789SOL    HW227267   0.258   4.178   4.957
 8790SOL     OW27268   5.882   2.644   6.891
 8790SOL    HW127269   5.835   2.606   6.970
 8790SOL    HW227270   5.835   2.616   6.807
 8791SOL     OW27271   4.816   5.797   5.555
 8791SOL    HW127272   4.859   5.786   5.645
 8791SOL    HW227273   4.778   5.709   5.525
 8792SOL     OW27274   4.416   5.311   1.451
 8792SOL    HW127275   4.330   5.357   1.474
 8792SOL    HW227276   4.489   5.380   1.447
 8793SOL     OW27277   0.773   5.127   4.104
 8793SOL    HW127278   0.742   5.208   4.153
 8793SOL    HW227279   0.846   5.082   4.155
 8794SOL     OW27280   0.044   0.562   2.181
 8794SOL    HW127281   0.029   0.549   2.279
 8794SOL    HW227282   6.999   0.512   2.130
 8795SOL     OW27283   1.624   5.013   5.429
 8795SOL    HW127284   1.573   5.098   5.445
 8795SOL    HW227285   1.706   5.012   5.486
 8796SOL     OW27286   6.536   3.373   3.622
 8796SOL    HW127287   6.625   3.409   3.596
 8796SOL    HW227288   6.471   3.390   3.547
 8797SOL     OW27289   6.449   0.179   3.241
 8797SOL    HW127290   6.498   0.139   3.318
 8797SOL    HW227291   6.414   0.269   3.267
 8798SOL     OW27292   4.508   6.828   5.109
 8798SOL    HW127293   4.473   6.905   5.056
 8798SOL    HW227294   4.477   6.835   5.204
 8799SOL     OW27295   2.353   4.900   2.041
 8799SOL    HW127296   2.341   4.870   2.136
 8799SOL    HW227297   2.357   4.820   1.981
 8800SOL     OW27298   0.067   5.778   5.194
 8800SOL    HW127299   0.088   5.827   5.278
 8800SOL    HW227300   0.049   5.844   5.121
 8801SOL     OW27301   6.154   1.892   4.960
 8801SOL    HW127302   6.245   1.926   4.937
 8801SOL    HW227303   6.148   1.794   4.939
 8802SOL     OW27304   0.783   5.783   5.820
 8802SOL    HW127305   0.810   5.726   5.898
 8802SOL    HW227306   0.715   5.733   5.766
 8803SOL     OW27307   6.414   0.507   6.565
 8803SOL    HW127308   6.405   0.575   6.638
 8803SOL    HW227309   6.419   0.416   6.606
 8804SOL     OW27310   1.819   5.866   1.938
 8804SOL    HW127311   1.902   5.848   1.990
 8804SOL    HW227312   1.837   5.933   1.867
 8805SOL     OW27313   4.497   5.758   2.399
 8805SOL    HW127314   4.529   5.785   2.308
 8805SOL    HW227315   4.399   5.738   2.396
 8806SOL     OW27316   2.195   6.027   0.406
 8806SOL    HW127317   2.247   6.097   0.358
 8806SOL    HW227318   2.222   6.025   0.502
 8807SOL     OW27319   5.106   1.836   0.951
 8807SOL    HW127320   5.095   1.844   1.050
 8807SOL    HW227321   5.022   1.866   0.906
 8808SOL     OW27322   2.488   2.316   0.266
 8808SOL    HW127323   2.393   2.343   0.246
 8808SOL    HW227324   2.504   2.224   0.231
 8809SOL     OW27325   2.105   3.791   3.978
 8809SOL    HW127326   2.139   3.863   3.917
 8809SOL    HW227327   2.116   3.820   4.073
 8810SOL     OW27328   6.846   1.996   5.777
 8810SOL    HW127329   6.940   1.962   5.777
 8810SOL    HW227330   6.787   1.933   5.827
 8811SOL     OW27331   4.408   6.453   2.359
 8811SOL    HW127332   4.322   6.465   2.309
 8811SOL    HW227333   4.411   6.361   2.398
 8812SOL     OW27334   3.189   1.678   6.749
 8812SOL    HW127335   3.266   1.684   6.685
 8812SOL    HW227336   3.192   1.589   6.796
 8813SOL     OW27337   2.053   4.459   3.442
 8813SOL    HW127338   2.143   4.446   3.484
 8813SOL    HW227339   2.051   4.417   3.352
 8814SOL     OW27340   5.908   6.900   0.097
 8814SOL    HW127341   5.924   6.979   0.156
 8814SOL    HW227342   5.811   6.875   0.101
 8815SOL     OW27343   5.445   1.362   0.703
 8815SOL    HW127344   5.424   1.376   0.800
 8815SOL    HW227345   5.387   1.421   0.647
 8816SOL     OW27346   0.171   6.467   5.537
 8816SOL    HW127347   0.203   6.560   5.557
 8816SOL    HW227348   0.076   6.470   5.506
 8817SOL     OW27349   0.855   3.498   4.643
 8817SOL    HW127350   0.831   3.412   4.690
 8817SOL    HW227351   0.895   3.477   4.554
 8818SOL     OW27352   2.331   6.724   4.087
 8818SOL    HW127353   2.292   6.801   4.037
 8818SOL    HW227354   2.430   6.735   4.093
 8819SOL     OW27355   5.062   4.341   5.911
 8819SOL    HW127356   4.984   4.294   5.951
 8819SOL    HW227357   5.048   4.352   5.812
 8820SOL     OW27358   3.328   0.924   4.608
 8820SOL    HW127359   3.353   0.903   4.513
 8820SOL    HW227360   3.371   0.859   4.669
 8821SOL     OW27361   1.678   5.075   0.703
 8821SOL    HW127362   1.724   5.153   0.660
 8821SOL    HW227363   1.672   5.000   0.638
 8822SOL     OW27364   6.475   6.692   3.912
 8822SOL    HW127365   6.533   6.767   3.943
 8822SOL    HW227366   6.384   6.727   3.888
 8823SOL     OW27367   3.454   1.590   3.282
 8823SOL    HW127368   3.551   1.576   3.301
 8823SOL    HW227369   3.437   1.686   3.259
 8824SOL     OW27370   1.627   0.483   0.781
 8824SOL    HW127371   1.622   0.516   0.876
 8824SOL    HW227372   1.539   0.498   0.736
 8825SOL     OW27373   0.248   6.992   0.450
 8825SOL    HW127374   0.331   0.001   0.403
 8825SOL    HW227375   0.168   7.014   0.394
 8826SOL     OW27376   1.125   3.550   1.080
 8826SOL    HW127377   1.031   3.517   1.089
 8826SOL    HW227378   1.124   3.642   1.042
 8827SOL     OW27379   3.978   0.194   2.670
 8827SOL    HW127380   3.949   0.176   2.576
 8827SOL    HW227381   4.020   0.112   2.709
 8828SOL     OW27382   4.469   3.640   6.184
 8828SOL    HW127383   4.379   3.639   6.228
 8828SOL    HW227384   4.476   3.561   6.123
 8829SOL     OW27385   0.317   1.789   2.244
 8829SOL    HW127386   0.290   1.707   2.193
 8829SOL    HW227387   0.329   1.866   2.181
 8830SOL     OW27388   2.486   1.946   3.022
 8830SOL    HW127389   2.523   1.987   2.939
 8830SOL    HW227390   2.539   1.976   3.101
 8831SOL     OW27391   0.809   1.750   2.316
 8831SOL    HW127392   0.854   1.778   2.401
 8831SOL    HW227393   0.871   1.692   2.263
 8832SOL     OW27394   6.897   6.925   4.010
 8832SOL    HW127395   6.845   6.870   4.076
 8832SOL    HW227396   6.947   6.865   3.948
 8833SOL     OW27397   3.644   2.618   1.255
 8833SOL    HW127398   3.680   2.633   1.163
 8833SOL    HW227399   3.715   2.575   1.311
 8834SOL     OW27400   5.725   3.932   5.708
 8834SOL    HW127401   5.668   3.866   5.659
 8834SOL    HW227402   5.762   3.890   5.791
 8835SOL     OW27403   6.333   0.565   5.617
 8835SOL    HW127404   6.294   0.656   5.631
 8835SOL    HW227405   6.401   0.547   5.688
 8836SOL     OW27406   5.215   2.555   6.568
 8836SOL    HW127407   5.312   2.539   6.587
 8836SOL    HW227408   5.180   2.624   6.630
 8837SOL     OW27409   6.211   6.908   2.025
 8837SOL    HW127410   6.139   6.868   1.967
 8837SOL    HW227411   6.299   6.900   1.978
 8838SOL     OW27412   0.148   4.263   2.730
 8838SOL    HW127413   0.248   4.255   2.731
 8838SOL    HW227414   0.123   4.360   2.725
 8839SOL     OW27415   5.454   5.902   2.711
 8839SOL    HW127416   5.446   5.963   2.790
 8839SOL    HW227417   5.548   5.870   2.703
 8840SOL     OW27418   0.254   0.964   1.328
 8840SOL    HW127419   0.288   0.972   1.235
 8840SOL    HW227420   0.248   1.055   1.370
 8841SOL     OW27421   3.927   1.332   2.324
 8841SOL    HW127422   3.943   1.235   2.340
 8841SOL    HW227423   3.892   1.345   2.231
 8842SOL     OW27424   3.161   3.613   3.713
 8842SOL    HW127425   3.123   3.683   3.774
 8842SOL    HW227426   3.092   3.587   3.646
 8843SOL     OW27427   1.822   3.639   5.385
 8843SOL    HW127428   1.824   3.610   5.289
 8843SOL    HW227429   1.852   3.564   5.443
 8844SOL     OW27430   5.558   1.908   5.236
 8844SOL    HW127431   5.460   1.897   5.217
 8844SOL    HW227432   5.610   1.863   5.164
 8845SOL     OW27433   1.805   5.114   1.267
 8845SOL    HW127434   1.773   5.081   1.178
 8845SOL    HW227435   1.728   5.155   1.317
 8846SOL     OW27436   5.172   4.327   3.702
 8846SOL    HW127437   5.191   4.276   3.785
 8846SOL    HW227438   5.136   4.417   3.725
 8847SOL     OW27439   2.521   2.569   2.965
 8847SOL    HW127440   2.564   2.650   2.926
 8847SOL    HW227441   2.436   2.549   2.916
 8848SOL     OW27442   3.006   1.648   1.235
 8848SOL    HW127443   3.095   1.617   1.203
 8848SOL    HW227444   2.952   1.681   1.158
 8849SOL     OW27445   3.706   6.069   4.775
 8849SOL    HW127446   3.647   5.989   4.789
 8849SOL    HW227447   3.769   6.079   4.852
 8850SOL     OW27448   2.775   1.854   0.723
 8850SOL    HW127449   2.767   1.949   0.754
 8850SOL    HW227450   2.794   1.853   0.625
 8851SOL     OW27451   1.429   4.251   3.363
 8851SOL    HW127452   1.495   4.274   3.291
 8851SOL    HW227453   1.467   4.276   3.452
 8852SOL     OW27454   5.371   3.071   5.846
 8852SOL    HW127455   5.415   2.994   5.800
 8852SOL    HW227456   5.272   3.061   5.840
 8853SOL     OW27457   4.029   1.875   5.306
 8853SOL    HW127458   4.128   1.859   5.310
 8853SOL    HW227459   3.987   1.847   5.392
 8854SOL     OW27460   1.093   1.257   5.969
 8854SOL    HW127461   1.087   1.302   6.058
 8854SOL    HW227462   1.087   1.326   5.896
 8855SOL     OW27463   6.229   6.043   6.807
 8855SOL    HW127464   6.259   6.075   6.716
 8855SOL    HW227465   6.203   5.947   6.801
 8856SOL     OW27466   6.191   0.649   5.284
 8856SOL    HW127467   6.098   0.672   5.257
 8856SOL    HW227468   6.199   0.550   5.297
 8857SOL     OW27469   6.695   2.063   3.133
 8857SOL    HW127470   6.773   2.030   3.187
 8857SOL    HW227471   6.721   2.068   3.037
 8858SOL     OW27472   0.677   3.844   5.673
 8858SOL    HW127473   0.611   3.903   5.626
 8858SOL    HW227474   0.666   3.853   5.772
 8859SOL     OW27475   1.239   6.619   4.965
 8859SOL    HW127476   1.187   6.685   4.912
 8859SOL    HW227477   1.186   6.591   5.045
 8860SOL     OW27478   1.372   2.653   2.747
 8860SOL    HW127479   1.389   2.734   2.803
 8860SOL    HW227480   1.404   2.572   2.796
 8861SOL     OW27481   3.726   2.859   0.110
 8861SOL    HW127482   3.795   2.882   0.179
 8861SOL    HW227483   3.747   2.907   0.025
 8862SOL     OW27484   5.933   1.546   5.030
 8862SOL    HW127485   5.945   1.546   4.931
 8862SOL    HW227486   5.945   1.452   5.064
 8863SOL     OW27487   2.195   5.986   5.044
 8863SOL    HW127488   2.294   5.985   5.054
 8863SOL    HW227489   2.168   6.049   4.972
 8864SOL     OW27490   2.344   3.450   6.619
 8864SOL    HW127491   2.281   3.427   6.545
 8864SOL    HW227492   2.411   3.517   6.586
 8865SOL     OW27493   2.900   1.809   5.197
 8865SOL    HW127494   2.950   1.874   5.140
 8865SOL    HW227495   2.869   1.732   5.141
 8866SOL     OW27496   3.735   6.562   3.300
 8866SOL    HW127497   3.725   6.601   3.392
 8866SOL    HW227498   3.814   6.603   3.255
 8867SOL     OW27499   5.715   2.005   2.982
 8867SOL    HW127500   5.616   2.004   2.976
 8867SOL    HW227501   5.754   1.999   2.890
 8868SOL     OW27502   4.822   3.819   0.615
 8868SOL    HW127503   4.875   3.902   0.629
 8868SOL    HW227504   4.726   3.836   0.638
 8869SOL     OW27505   5.120   3.895   3.346
 8869SOL    HW127506   5.083   3.909   3.254
 8869SOL    HW227507   5.110   3.979   3.399
 8870SOL     OW27508   3.616   1.182   0.757
 8870SOL    HW127509   3.532   1.129   0.743
 8870SOL    HW227510   3.593   1.267   0.805
 8871SOL     OW27511   1.820   0.839   3.794
 8871SOL    HW127512   1.786   0.922   3.750
 8871SOL    HW227513   1.917   0.827   3.772
 8872SOL     OW27514   2.088   4.176   4.043
 8872SOL    HW127515   2.025   4.244   4.083
 8872SOL    HW227516   2.130   4.123   4.117
 8873SOL     OW27517   0.464   5.846   3.697
 8873SOL    HW127518   0.549   5.881   3.738
 8873SOL    HW227519   0.438   5.762   3.744
 8874SOL     OW27520   2.468   0.142   1.305
 8874SOL    HW127521   2.423   0.132   1.394
 8874SOL    HW227522   2.405   0.187   1.241
 8875SOL     OW27523   1.598   2.574   4.280
 8875SOL    HW127524   1.596   2.657   4.224
 8875SOL    HW227525   1.552   2.590   4.367
 8876SOL     OW27526   0.088   1.387   4.623
 8876SOL    HW127527   0.024   1.407   4.698
 8876SOL    HW227528   0.156   1.460   4.618
 8877SOL     OW27529   3.144   0.609   4.111
 8877SOL    HW127530   3.238   0.584   4.133
 8877SOL    HW227531   3.118   0.567   4.024
 8878SOL     OW27532   0.198   4.536   0.786
 8878SOL    HW127533   0.147   4.622   0.784
 8878SOL    HW227534   0.137   4.460   0.809
 8879SOL     OW27535   4.970   5.879   0.539
 8879SOL    HW127536   4.996   5.785   0.561
 8879SOL    HW227537   4.984   5.937   0.619
 8880SOL     OW27538   6.451   5.435   4.248
 8880SOL    HW127539   6.357   5.467   4.263
 8880SOL    HW227540   6.514   5.487   4.305
 8881SOL     OW27541   6.711   1.244   2.361
 8881SOL    HW127542   6.662   1.157   2.347
 8881SOL    HW227543   6.713   1.265   2.459
 8882SOL     OW27544   5.491   1.611   6.796
 8882SOL    HW127545   5.420   1.569   6.739
 8882SOL    HW227546   5.557   1.541   6.823
 8883SOL     OW27547   6.790   0.946   6.302
 8883SOL    HW127548   6.811   1.012   6.231
 8883SOL    HW227549   6.700   0.906   6.286
 8884SOL     OW27550   5.558   6.837   6.296
 8884SOL    HW127551   5.466   6.816   6.328
 8884SOL    HW227552   5.555   6.864   6.200
 8885SOL     OW27553   6.037   4.220   1.824
 8885SOL    HW127554   6.036   4.126   1.858
 8885SOL    HW227555   5.952   4.267   1.850
 8886SOL     OW27556   2.792   6.449   6.052
 8886SOL    HW127557   2.851   6.497   5.987
 8886SOL    HW227558   2.756   6.366   6.009
 8887SOL     OW27559   2.620   1.450   1.517
 8887SOL    HW127560   2.560   1.371   1.529
 8887SOL    HW227561   2.565   1.534   1.511
 8888SOL     OW27562   1.235   1.150   1.133
 8888SOL    HW127563   1.252   1.151   1.035
 8888SOL    HW227564   1.221   1.243   1.166
 8889SOL     OW27565   4.971   0.270   4.947
 8889SOL    HW127566   4.985   0.193   4.885
 8889SOL    HW227567   4.963   0.236   5.040
 8890SOL     OW27568   6.930   5.731   4.423
 8890SOL    HW127569   6.987   5.681   4.357
 8890SOL    HW227570   6.935   5.686   4.512
 8891SOL     OW27571   5.721   3.144   6.519
 8891SOL    HW127572   5.747   3.149   6.423
 8891SOL    HW227573   5.623   3.125   6.526
 8892SOL     OW27574   2.117   0.013   3.466
 8892SOL    HW127575   2.032   0.059   3.491
 8892SOL    HW227576   2.168   0.069   3.402
 8893SOL     OW27577   6.970   1.048   1.335
 8893SOL    HW127578   7.005   0.980   1.400
 8893SOL    HW227579   6.907   1.110   1.381
 8894SOL     OW27580   4.163   2.323   6.051
 8894SOL    HW127581   4.188   2.372   6.134
 8894SOL    HW227582   4.097   2.378   5.999
 8895SOL     OW27583   0.197   6.525   1.068
 8895SOL    HW127584   0.152   6.499   1.153
 8895SOL    HW227585   0.131   6.568   1.006
 8896SOL     OW27586   1.782   4.009   5.137
 8896SOL    HW127587   1.735   3.980   5.054
 8896SOL    HW227588   1.881   4.003   5.124
 8897SOL     OW27589   1.448   1.364   1.738
 8897SOL    HW127590   1.354   1.338   1.762
 8897SOL    HW227591   1.512   1.310   1.793
 8898SOL     OW27592   6.027   3.598   4.582
 8898SOL    HW127593   6.109   3.647   4.553
 8898SOL    HW227594   6.028   3.589   4.682
 8899SOL     OW27595   2.158   4.013   6.795
 8899SOL    HW127596   2.135   4.108   6.770
 8899SOL    HW227597   2.145   3.954   6.715
 8900SOL     OW27598   5.090   2.961   3.240
 8900SOL    HW127599   5.081   2.866   3.270
 8900SOL    HW227600   5.010   2.986   3.185
 8901SOL     OW27601   1.265   0.755   2.777
 8901SOL    HW127602   1.191   0.691   2.800
 8901SOL    HW227603   1.253   0.840   2.829
 8902SOL     OW27604   2.082   5.627   6.706
 8902SOL    HW127605   2.055   5.667   6.794
 8902SOL    HW227606   2.062   5.529   6.706
 8903SOL     OW27607   2.439   1.812   3.578
 8903SOL    HW127608   2.426   1.731   3.520
 8903SOL    HW227609   2.419   1.894   3.525
 8904SOL     OW27610   0.139   5.909   3.801
 8904SOL    HW127611   0.218   5.910   3.740
 8904SOL    HW227612   0.144   5.987   3.863
 8905SOL     OW27613   2.262   3.133   5.327
 8905SOL    HW127614   2.199   3.194   5.279
 8905SOL    HW227615   2.323   3.090   5.260
 8906SOL     OW27616   6.666   6.036   6.172
 8906SOL    HW127617   6.666   6.088   6.258
 8906SOL    HW227618   6.632   6.095   6.099
 8907SOL     OW27619   3.332   2.597   5.335
 8907SOL    HW127620   3.286   2.524   5.283
 8907SOL    HW227621   3.305   2.686   5.298
 8908SOL     OW27622   1.419   2.093   0.842
 8908SOL    HW127623   1.471   2.176   0.823
 8908SOL    HW227624   1.460   2.017   0.792
 8909SOL     OW27625   3.207   0.344   6.027
 8909SOL    HW127626   3.254   0.259   6.006
 8909SOL    HW227627   3.204   0.401   5.944
 8910SOL     OW27628   3.147   3.017   6.339
 8910SOL    HW127629   3.138   3.084   6.264
 8910SOL    HW227630   3.060   3.011   6.388
 8911SOL     OW27631   3.023   2.146   4.462
 8911SOL    HW127632   2.991   2.227   4.510
 8911SOL    HW227633   3.089   2.097   4.518
 8912SOL     OW27634   4.464   1.763   5.934
 8912SOL    HW127635   4.452   1.713   5.848
 8912SOL    HW227636   4.562   1.767   5.956
 8913SOL     OW27637   5.064   3.891   1.859
 8913SOL    HW127638   5.140   3.855   1.913
 8913SOL    HW227639   5.090   3.980   1.821
 8914SOL     OW27640   4.086   1.640   5.021
 8914SOL    HW127641   4.029   1.678   4.949
 8914SOL    HW227642   4.034   1.635   5.106
 8915SOL     OW27643   2.136   3.073   3.866
 8915SOL    HW127644   2.152   3.098   3.961
 8915SOL    HW227645   2.083   3.144   3.821
 8916SOL     OW27646   0.093   4.524   2.717
 8916SOL    HW127647   0.169   4.584   2.742
 8916SOL    HW227648   0.037   4.568   2.647
 8917SOL     OW27649   6.023   5.866   6.638
 8917SOL    HW127650   5.991   5.773   6.617
 8917SOL    HW227651   5.981   5.897   6.723
 8918SOL     OW27652   5.524   6.448   6.682
 8918SOL    HW127653   5.610   6.492   6.709
 8918SOL    HW227654   5.537   6.404   6.593
 8919SOL     OW27655   3.574   4.261   0.830
 8919SOL    HW127656   3.540   4.355   0.826
 8919SOL    HW227657   3.602   4.232   0.738
 8920SOL     OW27658   6.085   5.430   6.346
 8920SOL    HW127659   6.043   5.467   6.429
 8920SOL    HW227660   6.080   5.330   6.347
 8921SOL     OW27661   1.515   0.727   3.687
 8921SOL    HW127662   1.591   0.670   3.718
 8921SOL    HW227663   1.511   0.725   3.587
 8922SOL     OW27664   2.207   5.149   0.962
 8922SOL    HW127665   2.216   5.055   0.996
 8922SOL    HW227666   2.184   5.147   0.865
 8923SOL     OW27667   2.070   3.660   6.630
 8923SOL    HW127668   2.074   3.567   6.594
 8923SOL    HW227669   2.107   3.724   6.562
 8924SOL     OW27670   2.755   4.923   5.801
 8924SOL    HW127671   2.773   4.839   5.750
 8924SOL    HW227672   2.834   4.946   5.858
 8925SOL     OW27673   0.041   6.478   2.425
 8925SOL    HW127674   6.978   6.436   2.450
 8925SOL    HW227675   0.105   6.406   2.397
 8926SOL     OW27676   5.536   2.377   2.178
 8926SOL    HW127677   5.448   2.422   2.166
 8926SOL    HW227678   5.594   2.397   2.099
 8927SOL     OW27679   2.324   2.676   4.833
 8927SOL    HW127680   2.271   2.760   4.839
 8927SOL    HW227681   2.360   2.652   4.923
 8928SOL     OW27682   0.288   0.648   5.627
 8928SOL    HW127683   0.229   0.724   5.654
 8928SOL    HW227684   0.261   0.565   5.675
 8929SOL     OW27685   6.815   3.825   4.118
 8929SOL    HW127686   6.859   3.911   4.144
 8929SOL    HW227687   6.884   3.754   4.107
 8930SOL     OW27688   1.367   5.277   4.987
 8930SOL    HW127689   1.365   5.253   4.890
 8930SOL    HW227690   1.438   5.347   5.002
 8931SOL     OW27691   5.226   1.834   1.308
 8931SOL    HW127692   5.304   1.836   1.246
 8931SOL    HW227693   5.202   1.927   1.335
 8932SOL     OW27694   5.682   0.190   6.305
 8932SOL    HW127695   5.726   0.112   6.349
 8932SOL    HW227696   5.584   0.189   6.326
 8933SOL     OW27697   1.156   1.019   4.874
 8933SOL    HW127698   1.113   0.983   4.791
 8933SOL    HW227699   1.109   0.980   4.954
 8934SOL     OW27700   3.603   5.552   3.447
 8934SOL    HW127701   3.578   5.499   3.366
 8934SOL    HW227702   3.545   5.525   3.524
 8935SOL     OW27703   4.859   2.729   2.707
 8935SOL    HW127704   4.823   2.820   2.688
 8935SOL    HW227705   4.821   2.695   2.793
 8936SOL     OW27706   0.300   4.352   1.234
 8936SOL    HW127707   0.374   4.342   1.300
 8936SOL    HW227708   0.235   4.420   1.266
 8937SOL     OW27709   0.318   6.953   3.979
 8937SOL    HW127710   0.273   0.011   3.947
 8937SOL    HW227711   0.287   6.932   4.072
 8938SOL     OW27712   6.112   0.855   0.772
 8938SOL    HW127713   6.088   0.786   0.703
 8938SOL    HW227714   6.087   0.946   0.739
 8939SOL     OW27715   0.087   2.851   4.373
 8939SOL    HW127716   0.040   2.775   4.329
 8939SOL    HW227717   0.040   2.937   4.351
 8940SOL     OW27718   6.701   3.697   0.989
 8940SOL    HW127719   6.622   3.682   1.049
 8940SOL    HW227720   6.698   3.632   0.913
 8941SOL     OW27721   4.893   2.392   2.048
 8941SOL    HW127722   4.964   2.459   2.026
 8941SOL    HW227723   4.893   2.319   1.980
 8942SOL     OW27724   6.467   5.118   3.843
 8942SOL    HW127725   6.492   5.070   3.927
 8942SOL    HW227726   6.461   5.216   3.860
 8943SOL     OW27727   4.505   3.400   0.201
 8943SOL    HW127728   4.554   3.316   0.178
 8943SOL    HW227729   4.466   3.391   0.293
 8944SOL     OW27730   4.670   5.296   4.741
 8944SOL    HW127731   4.572   5.297   4.723
 8944SOL    HW227732   4.687   5.265   4.835
 8945SOL     OW27733   6.175   3.584   5.141
 8945SOL    HW127734   6.103   3.609   5.205
 8945SOL    HW227735   6.244   3.657   5.138
 8946SOL     OW27736   4.997   1.121   4.143
 8946SOL    HW127737   5.072   1.183   4.166
 8946SOL    HW227738   5.019   1.029   4.174
 8947SOL     OW27739   1.294   5.025   6.388
 8947SOL    HW127740   1.315   5.104   6.445
 8947SOL    HW227741   1.196   5.003   6.396
 8948SOL     OW27742   6.245   6.908   3.759
 8948SOL    HW127743   6.212   6.911   3.854
 8948SOL    HW227744   6.339   6.942   3.756
 8949SOL     OW27745   3.416   6.187   0.388
 8949SOL    HW127746   3.339   6.158   0.445
 8949SOL    HW227747   3.496   6.205   0.446
 8950SOL     OW27748   4.727   4.710   1.455
 8950SOL    HW127749   4.715   4.703   1.555
 8950SOL    HW227750   4.779   4.631   1.423
 8951SOL     OW27751   2.370   1.337   4.028
 8951SOL    HW127752   2.459   1.341   4.074
 8951SOL    HW227753   2.353   1.244   3.996
 8952SOL     OW27754   2.372   4.750   3.303
 8952SOL    HW127755   2.457   4.774   3.350
 8952SOL    HW227756   2.296   4.750   3.369
 8953SOL     OW27757   2.710   5.367   2.341
 8953SOL    HW127758   2.690   5.273   2.314
 8953SOL    HW227759   2.632   5.405   2.390
 8954SOL     OW27760   1.037   5.874   4.643
 8954SOL    HW127761   1.110   5.939   4.665
 8954SOL    HW227762   1.034   5.802   4.713
 8955SOL     OW27763   5.717   2.849   3.618
 8955SOL    HW127764   5.692   2.939   3.582
 8955SOL    HW227765   5.775   2.801   3.553
 8956SOL     OW27766   0.825   6.298   5.608
 8956SOL    HW127767   0.792   6.209   5.640
 8956SOL    HW227768   0.747   6.359   5.592
 8957SOL     OW27769   1.516   5.303   2.072
 8957SOL    HW127770   1.599   5.248   2.083
 8957SOL    HW227771   1.436   5.243   2.079
 8958SOL     OW27772   1.898   3.422   5.524
 8958SOL    HW127773   1.947   3.373   5.452
 8958SOL    HW227774   1.860   3.355   5.589
 8959SOL     OW27775   0.520   3.325   2.285
 8959SOL    HW127776   0.514   3.225   2.295
 8959SOL    HW227777   0.596   3.348   2.225
 8960SOL     OW27778   5.779   3.916   4.043
 8960SOL    HW127779   5.857   3.909   3.982
 8960SOL    HW227780   5.795   3.861   4.125
 8961SOL     OW27781   3.398   6.536   4.875
 8961SOL    HW127782   3.381   6.518   4.972
 8961SOL    HW227783   3.325   6.495   4.821
 8962SOL     OW27784   0.799   5.813   1.265
 8962SOL    HW127785   0.816   5.906   1.233
 8962SOL    HW227786   0.789   5.813   1.364
 8963SOL     OW27787   3.550   6.282   4.654
 8963SOL    HW127788   3.588   6.366   4.694
 8963SOL    HW227789   3.620   6.210   4.656
 8964SOL     OW27790   6.444   3.826   3.742
 8964SOL    HW127791   6.405   3.918   3.748
 8964SOL    HW227792   6.420   3.785   3.653
 8965SOL     OW27793   4.246   5.101   0.213
 8965SOL    HW127794   4.215   5.019   0.164
 8965SOL    HW227795   4.193   5.111   0.297
 8966SOL     OW27796   5.296   5.735   6.285
 8966SOL    HW127797   5.200   5.759   6.267
 8966SOL    HW227798   5.323   5.771   6.374
 8967SOL     OW27799   3.468   0.881   3.190
 8967SOL    HW127800   3.550   0.886   3.133
 8967SOL    HW227801   3.480   0.939   3.270
 8968SOL     OW27802   3.374   4.964   1.874
 8968SOL    HW127803   3.325   5.043   1.839
 8968SOL    HW227804   3.434   4.992   1.949
 8969SOL     OW27805   6.784   0.659   2.971
 8969SOL    HW127806   6.841   0.638   3.050
 8969SOL    HW227807   6.721   0.584   2.954
 8970SOL     OW27808   1.064   1.418   6.183
 8970SOL    HW127809   0.971   1.453   6.197
 8970SOL    HW227810   1.111   1.475   6.115
 8971SOL     OW27811   4.279   5.774   0.871
 8971SOL    HW127812   4.209   5.844   0.884
 8971SOL    HW227813   4.308   5.739   0.960
 8972SOL     OW27814   5.774   5.029   0.609
 8972SOL    HW127815   5.812   4.971   0.681
 8972SOL    HW227816   5.842   5.097   0.581
 8973SOL     OW27817   0.665   2.352   2.152
 8973SOL    HW127818   0.573   2.339   2.187
 8973SOL    HW227819   0.695   2.446   2.169
 8974SOL     OW27820   2.273   4.317   4.276
 8974SOL    HW127821   2.198   4.265   4.318
 8974SOL    HW227822   2.335   4.349   4.348
 8975SOL     OW27823   0.556   0.523   6.543
 8975SOL    HW127824   0.467   0.495   6.508
 8975SOL    HW227825   0.544   0.590   6.616
 8976SOL     OW27826   6.632   0.315   1.791
 8976SOL    HW127827   6.714   0.350   1.745
 8976SOL    HW227828   6.565   0.287   1.722
 8977SOL     OW27829   6.862   4.978   6.317
 8977SOL    HW127830   6.903   4.887   6.321
 8977SOL    HW227831   6.796   4.981   6.242
 8978SOL     OW27832   5.909   5.592   5.821
 8978SOL    HW127833   5.987   5.644   5.788
 8978SOL    HW227834   5.933   5.546   5.906
 8979SOL     OW27835   0.602   5.581   5.793
 8979SOL    HW127836   0.660   5.506   5.824
 8979SOL    HW227837   0.507   5.564   5.822
 8980SOL     OW27838   3.726   1.464   5.133
 8980SOL    HW127839   3.819   1.458   5.170
 8980SOL    HW227840   3.730   1.486   5.036
 8981SOL     OW27841   4.582   2.592   6.523
 8981SOL    HW127842   4.546   2.611   6.614
 8981SOL    HW227843   4.512   2.614   6.454
 8982SOL     OW27844   6.778   1.165   1.480
 8982SOL    HW127845   6.679   1.167   1.468
 8982SOL    HW227846   6.800   1.134   1.572
 8983SOL     OW27847   0.689   5.923   2.913
 8983SOL    HW127848   0.772   5.869   2.920
 8983SOL    HW227849   0.711   6.021   2.919
 8984SOL     OW27850   5.927   0.413   4.340
 8984SOL    HW127851   6.017   0.451   4.319
 8984SOL    HW227852   5.856   0.479   4.315
 8985SOL     OW27853   5.178   2.039   0.713
 8985SOL    HW127854   5.131   2.097   0.780
 8985SOL    HW227855   5.167   1.943   0.738
 8986SOL     OW27856   6.224   4.502   1.683
 8986SOL    HW127857   6.130   4.529   1.704
 8986SOL    HW227858   6.247   4.418   1.732
 8987SOL     OW27859   2.264   6.673   1.529
 8987SOL    HW127860   2.302   6.719   1.449
 8987SOL    HW227861   2.258   6.575   1.511
 8988SOL     OW27862   2.134   4.826   1.265
 8988SOL    HW127863   2.176   4.826   1.175
 8988SOL    HW227864   2.139   4.918   1.304
 8989SOL     OW27865   5.525   1.962   2.008
 8989SOL    HW127866   5.513   1.992   1.913
 8989SOL    HW227867   5.435   1.956   2.052
 8990SOL     OW27868   3.483   6.476   1.615
 8990SOL    HW127869   3.409   6.536   1.583
 8990SOL    HW227870   3.571   6.518   1.591
 8991SOL     OW27871   1.813   1.893   0.465
 8991SOL    HW127872   1.804   1.863   0.370
 8991SOL    HW227873   1.909   1.915   0.484
 8992SOL     OW27874   0.742   3.330   6.766
 8992SOL    HW127875   0.765   3.248   6.818
 8992SOL    HW227876   0.812   3.400   6.781
 8993SOL     OW27877   5.737   2.477   3.337
 8993SOL    HW127878   5.788   2.412   3.281
 8993SOL    HW227879   5.639   2.465   3.321
 8994SOL     OW27880   1.285   5.219   3.912
 8994SOL    HW127881   1.361   5.188   3.854
 8994SOL    HW227882   1.283   5.164   3.995
 8995SOL     OW27883   2.006   3.314   5.262
 8995SOL    HW127884   2.051   3.268   5.186
 8995SOL    HW227885   1.930   3.369   5.227
 8996SOL     OW27886   0.709   3.934   2.492
 8996SOL    HW127887   0.723   3.853   2.549
 8996SOL    HW227888   0.770   3.931   2.414
 8997SOL     OW27889   4.087   1.300   5.162
 8997SOL    HW127890   4.047   1.384   5.197
 8997SOL    HW227891   4.027   1.223   5.181
 8998SOL     OW27892   1.644   2.656   5.919
 8998SOL    HW127893   1.608   2.563   5.912
 8998SOL    HW227894   1.705   2.662   5.997
 8999SOL     OW27895   5.223   1.532   5.475
 8999SOL    HW127896   5.227   1.465   5.549
 8999SOL    HW227897   5.180   1.616   5.510
 9000SOL     OW27898   3.703   4.198   0.606
 9000SOL    HW127899   3.763   4.125   0.639
 9000SOL    HW227900   3.609   4.166   0.604
 9001SOL     OW27901   2.449   4.638   3.754
 9001SOL    HW127902   2.389   4.717   3.767
 9001SOL    HW227903   2.484   4.608   3.843
 9002SOL     OW27904   6.007   4.633   6.099
 9002SOL    HW127905   5.978   4.717   6.145
 9002SOL    HW227906   6.052   4.573   6.166
 9003SOL     OW27907   6.507   3.232   6.944
 9003SOL    HW127908   6.432   3.227   7.010
 9003SOL    HW227909   6.582   3.173   6.974
 9004SOL     OW27910   4.703   6.487   1.504
 9004SOL    HW127911   4.625   6.510   1.446
 9004SOL    HW227912   4.689   6.396   1.544
 9005SOL     OW27913   4.735   1.998   3.351
 9005SOL    HW127914   4.706   1.972   3.259
 9005SOL    HW227915   4.663   2.051   3.395
 9006SOL     OW27916   1.967   5.346   1.318
 9006SOL    HW127917   1.924   5.256   1.332
 9006SOL    HW227918   1.910   5.417   1.360
 9007SOL     OW27919   3.397   5.573   4.276
 9007SOL    HW127920   3.468   5.584   4.206
 9007SOL    HW227921   3.434   5.602   4.365
 9008SOL     OW27922   0.035   4.222   1.700
 9008SOL    HW127923   0.091   4.301   1.676
 9008SOL    HW227924   6.964   4.240   1.675
 9009SOL     OW27925   2.964   6.306   0.738
 9009SOL    HW127926   3.030   6.328   0.810
 9009SOL    HW227927   3.009   6.310   0.649
 9010SOL     OW27928   0.429   6.749   5.168
 9010SOL    HW127929   0.351   6.803   5.198
 9010SOL    HW227930   0.476   6.797   5.094
 9011SOL     OW27931   3.841   1.820   1.144
 9011SOL    HW127932   3.876   1.817   1.237
 9011SOL    HW227933   3.885   1.749   1.089
 9012SOL     OW27934   0.859   5.337   1.680
 9012SOL    HW127935   0.911   5.421   1.669
 9012SOL    HW227936   0.824   5.308   1.591
 9013SOL     OW27937   6.285   5.940   3.242
 9013SOL    HW127938   6.232   5.909   3.163
 9013SOL    HW227939   6.226   5.992   3.304
 9014SOL     OW27940   1.610   0.907   0.553
 9014SOL    HW127941   1.575   0.894   0.460
 9014SOL    HW227942   1.705   0.874   0.557
 9015SOL     OW27943   0.445   1.326   5.601
 9015SOL    HW127944   0.429   1.229   5.585
 9015SOL    HW227945   0.452   1.343   5.699
 9016SOL     OW27946   6.408   6.029   5.914
 9016SOL    HW127947   6.470   6.078   5.974
 9016SOL    HW227948   6.452   5.944   5.883
 9017SOL     OW27949   6.000   2.229   3.817
 9017SOL    HW127950   5.960   2.216   3.908
 9017SOL    HW227951   5.952   2.303   3.770
 9018SOL     OW27952   3.055   1.911   5.397
 9018SOL    HW127953   2.975   1.867   5.356
 9018SOL    HW227954   3.072   1.998   5.352
 9019SOL     OW27955   2.816   5.830   0.426
 9019SOL    HW127956   2.723   5.865   0.418
 9019SOL    HW227957   2.871   5.863   0.350
 9020SOL     OW27958   1.862   4.458   2.453
 9020SOL    HW127959   1.808   4.496   2.377
 9020SOL    HW227960   1.804   4.400   2.509
 9021SOL     OW27961   0.158   5.376   4.366
 9021SOL    HW127962   0.243   5.395   4.317
 9021SOL    HW227963   0.137   5.279   4.361
 9022SOL     OW27964   2.647   0.477   0.271
 9022SOL    HW127965   2.656   0.486   0.172
 9022SOL    HW227966   2.655   0.567   0.313
 9023SOL     OW27967   3.200   3.314   3.705
 9023SOL    HW127968   3.199   3.294   3.803
 9023SOL    HW227969   3.190   3.413   3.692
 9024SOL     OW27970   1.430   6.340   5.886
 9024SOL    HW127971   1.501   6.270   5.889
 9024SOL    HW227972   1.361   6.321   5.956
 9025SOL     OW27973   6.180   5.013   1.856
 9025SOL    HW127974   6.218   4.925   1.826
 9025SOL    HW227975   6.081   5.004   1.868
 9026SOL     OW27976   3.643   2.904   4.631
 9026SOL    HW127977   3.696   2.825   4.663
 9026SOL    HW227978   3.626   2.965   4.708
 9027SOL     OW27979   2.646   2.231   3.005
 9027SOL    HW127980   2.647   2.285   3.090
 9027SOL    HW227981   2.643   2.293   2.927
 9028SOL     OW27982   2.525   4.600   5.177
 9028SOL    HW127983   2.570   4.534   5.237
 9028SOL    HW227984   2.482   4.551   5.101
 9029SOL     OW27985   5.144   5.551   3.431
 9029SOL    HW127986   5.062   5.501   3.403
 9029SOL    HW227987   5.146   5.639   3.383
 9030SOL     OW27988   2.288   0.919   2.476
 9030SOL    HW127989   2.207   0.954   2.523
 9030SOL    HW227990   2.311   0.829   2.513
 9031SOL     OW27991   2.469   6.446   6.038
 9031SOL    HW127992   2.458   6.381   6.113
 9031SOL    HW227993   2.536   6.516   6.063
 9032SOL     OW27994   2.453   2.546   1.796
 9032SOL    HW127995   2.552   2.543   1.803
 9032SOL    HW227996   2.426   2.575   1.704
 9033SOL     OW27997   1.842   3.291   4.066
 9033SOL    HW127998   1.836   3.214   4.129
 9033SOL    HW227999   1.829   3.377   4.116
 9034SOL     OW28000   2.874   6.595   5.496
 9034SOL    HW128001   2.946   6.626   5.558
 9034SOL    HW228002   2.791   6.576   5.549
 9035SOL     OW28003   6.906   0.884   4.159
 9035SOL    HW128004   6.977   0.954   4.169
 9035SOL    HW228005   6.828   0.922   4.109
 9036SOL     OW28006   1.365   2.667   5.727
 9036SOL    HW128007   1.368   2.738   5.798
 9036SOL    HW228008   1.457   2.630   5.714
 9037SOL     OW28009   2.697   4.301   6.943
 9037SOL    HW128010   2.766   4.229   6.954
 9037SOL    HW228011   2.697   4.334   6.849
 9038SOL     OW28012   4.899   6.905   5.294
 9038SOL    HW128013   4.960   6.955   5.233
 9038SOL    HW228014   4.946   6.889   5.381
 9039SOL     OW28015   2.068   5.200   4.864
 9039SOL    HW128016   1.984   5.226   4.816
 9039SOL    HW228017   2.060   5.224   4.960
 9040SOL     OW28018   2.224   1.595   2.603
 9040SOL    HW128019   2.285   1.553   2.536
 9040SOL    HW228020   2.130   1.569   2.583
 9041SOL     OW28021   0.881   2.199   0.952
 9041SOL    HW128022   0.963   2.189   0.896
 9041SOL    HW228023   0.845   2.292   0.942
 9042SOL     OW28024   3.202   5.235   3.215
 9042SOL    HW128025   3.184   5.230   3.313
 9042SOL    HW228026   3.223   5.143   3.181
 9043SOL     OW28027   1.267   2.757   6.007
 9043SOL    HW128028   1.240   2.766   6.103
 9043SOL    HW228029   1.192   2.788   5.949
 9044SOL     OW28030   5.816   0.498   0.662
 9044SOL    HW128031   5.853   0.405   0.652
 9044SOL    HW228032   5.720   0.498   0.636
 9045SOL     OW28033   3.281   0.254   3.213
 9045SOL    HW128034   3.265   0.156   3.216
 9045SOL    HW228035   3.380   0.272   3.209
 9046SOL     OW28036   3.321   4.234   5.450
 9046SOL    HW128037   3.228   4.263   5.428
 9046SOL    HW228038   3.385   4.308   5.431
 9047SOL     OW28039   1.477   4.131   3.871
 9047SOL    HW128040   1.397   4.120   3.930
 9047SOL    HW228041   1.450   4.179   3.787
 9048SOL     OW28042   1.704   3.962   4.880
 9048SOL    HW128043   1.770   3.895   4.846
 9048SOL    HW228044   1.615   3.944   4.838
 9049SOL     OW28045   5.523   6.280   5.864
 9049SOL    HW128046   5.428   6.309   5.875
 9049SOL    HW228047   5.578   6.315   5.940
 9050SOL     OW28048   0.110   5.015   0.023
 9050SOL    HW128049   0.144   4.963   6.970
 9050SOL    HW228050   0.182   5.076   0.056
 9051SOL     OW28051   5.053   6.218   0.207
 9051SOL    HW128052   4.992   6.228   0.128
 9051SOL    HW228053   5.136   6.271   0.192
 9052SOL     OW28054   2.591   4.918   4.822
 9052SOL    HW128055   2.556   4.904   4.914
 9052SOL    HW228056   2.560   5.007   4.787
 9053SOL     OW28057   2.316   2.763   3.951
 9053SOL    HW128058   2.317   2.683   4.012
 9053SOL    HW228059   2.311   2.846   4.005
 9054SOL     OW28060   1.631   0.848   1.973
 9054SOL    HW128061   1.688   0.900   2.037
 9054SOL    HW228062   1.536   0.854   2.002
 9055SOL     OW28063   1.077   2.508   4.188
 9055SOL    HW128064   1.171   2.494   4.154
 9055SOL    HW228065   1.072   2.596   4.234
 9056SOL     OW28066   4.845   0.420   2.394
 9056SOL    HW128067   4.823   0.412   2.491
 9056SOL    HW228068   4.929   0.370   2.375
 9057SOL     OW28069   6.304   5.782   0.436
 9057SOL    HW128070   6.240   5.711   0.466
 9057SOL    HW228071   6.282   5.810   0.343
 9058SOL     OW28072   1.948   2.760   5.021
 9058SOL    HW128073   2.013   2.792   5.090
 9058SOL    HW228074   1.955   2.818   4.940
 9059SOL     OW28075   6.435   1.735   3.353
 9059SOL    HW128076   6.491   1.759   3.274
 9059SOL    HW228077   6.448   1.803   3.425
 9060SOL     OW28078   6.805   3.554   1.951
 9060SOL    HW128079   6.902   3.528   1.954
 9060SOL    HW228080   6.773   3.552   1.856
 9061SOL     OW28081   4.823   5.917   2.698
 9061SOL    HW128082   4.894   5.987   2.692
 9061SOL    HW228083   4.822   5.877   2.790
 9062SOL     OW28084   1.189   4.345   3.312
 9062SOL    HW128085   1.139   4.262   3.289
 9062SOL    HW228086   1.276   4.321   3.355
 9063SOL     OW28087   2.941   1.425   2.357
 9063SOL    HW128088   2.993   1.427   2.442
 9063SOL    HW228089   3.003   1.440   2.279
 9064SOL     OW28090   0.462   3.792   3.717
 9064SOL    HW128091   0.555   3.770   3.689
 9064SOL    HW228092   0.442   3.747   3.804
 9065SOL     OW28093   2.880   6.301   4.782
 9065SOL    HW128094   2.883   6.220   4.724
 9065SOL    HW228095   2.933   6.284   4.866
 9066SOL     OW28096   5.719   5.958   6.390
 9066SOL    HW128097   5.692   5.878   6.443
 9066SOL    HW228098   5.756   5.928   6.302
 9067SOL     OW28099   6.300   0.113   4.331
 9067SOL    HW128100   6.388   0.109   4.378
 9067SOL    HW228101   6.267   0.208   4.330
 9068SOL     OW28102   5.147   0.373   5.458
 9068SOL    HW128103   5.171   0.346   5.551
 9068SOL    HW228104   5.203   0.323   5.393
 9069SOL     OW28105   4.540   2.088   2.038
 9069SOL    HW128106   4.470   2.127   1.978
 9069SOL    HW228107   4.542   1.989   2.029
 9070SOL     OW28108   1.202   2.210   5.771
 9070SOL    HW128109   1.136   2.136   5.783
 9070SOL    HW228110   1.154   2.296   5.756
 9071SOL     OW28111   4.428   1.485   6.184
 9071SOL    HW128112   4.334   1.453   6.188
 9071SOL    HW228113   4.435   1.575   6.226
 9072SOL     OW28114   5.295   0.001   1.515
 9072SOL    HW128115   5.218   0.006   1.578
 9072SOL    HW228116   5.265   0.027   1.423
 9073SOL     OW28117   4.208   0.207   0.337
 9073SOL    HW128118   4.293   0.169   0.373
 9073SOL    HW228119   4.159   0.137   0.286
 9074SOL     OW28120   1.426   0.286   1.518
 9074SOL    HW128121   1.475   0.302   1.433
 9074SOL    HW228122   1.441   0.192   1.548
 9075SOL     OW28123   6.529   0.746   2.005
 9075SOL    HW128124   6.590   0.755   2.084
 9075SOL    HW228125   6.501   0.651   1.996
 9076SOL     OW28126   4.909   0.420   2.678
 9076SOL    HW128127   4.900   0.323   2.701
 9076SOL    HW228128   4.941   0.470   2.759
 9077SOL     OW28129   5.191   1.062   5.938
 9077SOL    HW128130   5.263   1.005   5.899
 9077SOL    HW228131   5.215   1.086   6.032
 9078SOL     OW28132   4.773   5.307   6.865
 9078SOL    HW128133   4.739   5.394   6.829
 9078SOL    HW228134   4.781   5.313   6.964
 9079SOL     OW28135   1.597   0.449   5.265
 9079SOL    HW128136   1.649   0.534   5.254
 9079SOL    HW228137   1.559   0.446   5.357
 9080SOL     OW28138   6.478   3.858   0.780
 9080SOL    HW128139   6.548   3.811   0.726
 9080SOL    HW228140   6.422   3.915   0.719
 9081SOL     OW28141   3.728   1.790   1.769
 9081SOL    HW128142   3.754   1.720   1.835
 9081SOL    HW228143   3.797   1.795   1.697
 9082SOL     OW28144   2.934   6.079   6.337
 9082SOL    HW128145   2.900   6.055   6.428
 9082SOL    HW228146   3.004   6.012   6.309
 9083SOL     OW28147   5.069   4.493   6.137
 9083SOL    HW128148   5.035   4.445   6.056
 9083SOL    HW228149   5.025   4.455   6.219
 9084SOL     OW28150   0.601   2.888   5.620
 9084SOL    HW128151   0.674   2.956   5.618
 9084SOL    HW228152   0.550   2.897   5.706
 9085SOL     OW28153   3.409   4.738   0.012
 9085SOL    HW128154   3.443   4.747   6.943
 9085SOL    HW228155   3.348   4.659   0.018
 9086SOL     OW28156   6.701   4.289   0.879
 9086SOL    HW128157   6.625   4.280   0.815
 9086SOL    HW228158   6.740   4.198   0.897
 9087SOL     OW28159   6.027   2.873   2.451
 9087SOL    HW128160   6.107   2.882   2.391
 9087SOL    HW228161   6.038   2.793   2.509
 9088SOL     OW28162   6.077   0.489   1.649
 9088SOL    HW128163   6.168   0.455   1.624
 9088SOL    HW228164   6.023   0.414   1.687
 9089SOL     OW28165   4.388   5.307   4.011
 9089SOL    HW128166   4.374   5.399   4.049
 9089SOL    HW228167   4.481   5.277   4.031
 9090SOL     OW28168   5.607   6.283   4.242
 9090SOL    HW128169   5.573   6.193   4.267
 9090SOL    HW228170   5.537   6.331   4.189
 9091SOL     OW28171   3.561   2.307   0.707
 9091SOL    HW128172   3.512   2.295   0.793
 9091SOL    HW228173   3.561   2.404   0.683
 9092SOL     OW28174   1.132   0.236   5.580
 9092SOL    HW128175   1.063   0.165   5.566
 9092SOL    HW228176   1.193   0.210   5.655
 9093SOL     OW28177   1.596   6.153   0.086
 9093SOL    HW128178   1.626   6.080   0.147
 9093SOL    HW228179   1.645   6.237   0.108
 9094SOL     OW28180   0.330   6.153   2.009
 9094SOL    HW128181   0.401   6.156   2.080
 9094SOL    HW228182   0.346   6.074   1.950
 9095SOL     OW28183   5.115   3.476   6.672
 9095SOL    HW128184   5.025   3.507   6.641
 9095SOL    HW228185   5.155   3.544   6.733
 9096SOL     OW28186   5.330   3.078   3.185
 9096SOL    HW128187   5.246   3.025   3.199
 9096SOL    HW228188   5.403   3.017   3.153
 9097SOL     OW28189   0.948   3.516   6.738
 9097SOL    HW128190   0.925   3.587   6.805
 9097SOL    HW228191   1.042   3.529   6.708
 9098SOL     OW28192   3.916   3.672   1.587
 9098SOL    HW128193   3.852   3.644   1.659
 9098SOL    HW228194   3.944   3.592   1.534
 9099SOL     OW28195   3.328   3.498   1.264
 9099SOL    HW128196   3.302   3.594   1.258
 9099SOL    HW228197   3.252   3.445   1.302
 9100SOL     OW28198   0.710   2.955   1.806
 9100SOL    HW128199   0.787   2.941   1.742
 9100SOL    HW228200   0.718   2.890   1.881
 9101SOL     OW28201   2.141   3.158   2.871
 9101SOL    HW128202   2.154   3.151   2.970
 9101SOL    HW228203   2.155   3.068   2.829
 9102SOL     OW28204   3.847   5.683   2.683
 9102SOL    HW128205   3.887   5.626   2.611
 9102SOL    HW228206   3.851   5.779   2.654
 9103SOL     OW28207   0.225   3.461   0.692
 9103SOL    HW128208   0.192   3.526   0.624
 9103SOL    HW228209   0.225   3.369   0.654
 9104SOL     OW28210   3.924   6.217   1.997
 9104SOL    HW128211   3.973   6.155   1.935
 9104SOL    HW228212   3.891   6.296   1.945
 9105SOL     OW28213   1.664   0.458   6.674
 9105SOL    HW128214   1.761   0.483   6.681
 9105SOL    HW228215   1.608   0.540   6.679
 9106SOL     OW28216   6.342   4.222   0.495
 9106SOL    HW128217   6.273   4.294   0.506
 9106SOL    HW228218   6.379   4.226   0.402
 9107SOL     OW28219   4.419   6.699   6.629
 9107SOL    HW128220   4.412   6.790   6.672
 9107SOL    HW228221   4.344   6.687   6.564
 9108SOL     OW28222   5.014   4.523   5.236
 9108SOL    HW128223   4.993   4.516   5.139
 9108SOL    HW228224   5.101   4.476   5.255
 9109SOL     OW28225   1.750   2.229   2.956
 9109SOL    HW128226   1.751   2.315   2.904
 9109SOL    HW228227   1.787   2.156   2.899
 9110SOL     OW28228   2.620   4.607   3.964
 9110SOL    HW128229   2.587   4.522   4.005
 9110SOL    HW228230   2.676   4.656   4.031
 9111SOL     OW28231   4.140   3.653   0.675
 9111SOL    HW128232   4.234   3.685   0.669
 9111SOL    HW228233   4.138   3.557   0.701
 9112SOL     OW28234   0.701   3.687   3.643
 9112SOL    HW128235   0.742   3.735   3.566
 9112SOL    HW228236   0.707   3.588   3.628
 9113SOL     OW28237   4.555   0.839   0.435
 9113SOL    HW128238   4.489   0.888   0.491
 9113SOL    HW228239   4.646   0.880   0.445
 9114SOL     OW28240   1.861   4.957   2.398
 9114SOL    HW128241   1.846   5.053   2.374
 9114SOL    HW228242   1.800   4.932   2.473
 9115SOL     OW28243   0.950   5.408   4.788
 9115SOL    HW128244   0.880   5.337   4.778
 9115SOL    HW228245   1.038   5.373   4.758
 9116SOL     OW28246   6.732   1.769   0.059
 9116SOL    HW128247   6.696   1.834   7.017
 9116SOL    HW228248   6.707   1.676   0.032
 9117SOL     OW28249   6.104   2.964   6.522
 9117SOL    HW128250   6.048   2.881   6.524
 9117SOL    HW228251   6.150   2.974   6.610
 9118SOL     OW28252   5.628   6.470   0.504
 9118SOL    HW128253   5.592   6.561   0.484
 9118SOL    HW228254   5.722   6.478   0.537
 9119SOL     OW28255   5.783   1.328   2.667
 9119SOL    HW128256   5.765   1.236   2.634
 9119SOL    HW228257   5.879   1.351   2.651
 9120SOL     OW28258   5.914   2.903   5.602
 9120SOL    HW128259   5.833   2.859   5.641
 9120SOL    HW228260   5.891   2.943   5.513
 9121SOL     OW28261   0.832   3.092   5.730
 9121SOL    HW128262   0.829   3.186   5.765
 9121SOL    HW228263   0.910   3.044   5.769
 9122SOL     OW28264   1.938   2.581   1.473
 9122SOL    HW128265   1.863   2.527   1.433
 9122SOL    HW228266   1.939   2.568   1.572
 9123SOL     OW28267   3.556   0.059   5.368
 9123SOL    HW128268   3.638   0.079   5.315
 9123SOL    HW228269   3.485   0.127   5.349
 9124SOL     OW28270   5.788   6.304   5.761
 9124SOL    HW128271   5.702   6.263   5.791
 9124SOL    HW228272   5.770   6.390   5.714
 9125SOL     OW28273   4.297   4.662   4.060
 9125SOL    HW128274   4.387   4.651   4.102
 9125SOL    HW228275   4.307   4.657   3.960
 9126SOL     OW28276   5.775   1.569   2.490
 9126SOL    HW128277   5.727   1.538   2.408
 9126SOL    HW228278   5.768   1.499   2.561
 9127SOL     OW28279   6.275   0.035   6.140
 9127SOL    HW128280   6.183   0.071   6.155
 9127SOL    HW228281   6.269   6.972   6.090
 9128SOL     OW28282   3.725   2.172   5.288
 9128SOL    HW128283   3.771   2.089   5.256
 9128SOL    HW228284   3.630   2.171   5.256
 9129SOL     OW28285   2.186   3.135   0.935
 9129SOL    HW128286   2.195   3.177   1.025
 9129SOL    HW228287   2.221   3.198   0.865
 9130SOL     OW28288   0.489   4.018   0.016
 9130SOL    HW128289   0.486   3.954   6.963
 9130SOL    HW228290   0.538   3.977   0.092
 9131SOL     OW28291   0.062   4.451   5.148
 9131SOL    HW128292   7.015   4.435   5.216
 9131SOL    HW228293   0.027   4.427   5.057
 9132SOL     OW28294   0.544   4.615   4.114
 9132SOL    HW128295   0.498   4.619   4.026
 9132SOL    HW228296   0.636   4.577   4.102
 9133SOL     OW28297   3.107   5.732   0.903
 9133SOL    HW128298   3.175   5.770   0.841
 9133SOL    HW228299   3.153   5.692   0.982
 9134SOL     OW28300   3.531   6.762   0.908
 9134SOL    HW128301   3.571   6.806   0.827
 9134SOL    HW228302   3.515   6.830   0.979
 9135SOL     OW28303   0.111   6.374   1.664
 9135SOL    HW128304   0.015   6.378   1.636
 9135SOL    HW228305   0.169   6.384   1.584
 9136SOL     OW28306   4.766   5.497   5.448
 9136SOL    HW128307   4.847   5.545   5.414
 9136SOL    HW228308   4.786   5.400   5.460
 9137SOL     OW28309   5.266   1.629   0.850
 9137SOL    HW128310   5.214   1.544   0.858
 9137SOL    HW228311   5.210   1.705   0.882
 9138SOL     OW28312   6.565   4.515   6.105
 9138SOL    HW128313   6.468   4.505   6.085
 9138SOL    HW228314   6.577   4.561   6.193
 9139SOL     OW28315   2.172   1.340   4.235
 9139SOL    HW128316   2.194   1.272   4.306
 9139SOL    HW228317   2.239   1.332   4.162
 9140SOL     OW28318   6.641   3.179   2.764
 9140SOL    HW128319   6.639   3.259   2.703
 9140SOL    HW228320   6.626   3.096   2.711
 9141SOL     OW28321   5.596   0.402   6.529
 9141SOL    HW128322   5.565   0.325   6.473
 9141SOL    HW228323   5.531   0.416   6.603
 9142SOL     OW28324   0.798   2.610   6.589
 9142SOL    HW128325   0.868   2.672   6.554
 9142SOL    HW228326   0.777   2.541   6.519
 9143SOL     OW28327   5.224   3.984   0.275
 9143SOL    HW128328   5.322   4.002   0.275
 9143SOL    HW228329   5.203   3.906   0.334
 9144SOL     OW28330   2.310   5.589   5.822
 9144SOL    HW128331   2.290   5.593   5.920
 9144SOL    HW228332   2.408   5.605   5.808
 9145SOL     OW28333   6.827   5.502   0.676
 9145SOL    HW128334   6.886   5.555   0.737
 9145SOL    HW228335   6.878   5.478   0.593
 9146SOL     OW28336   5.011   1.942   1.960
 9146SOL    HW128337   5.045   1.889   1.882
 9146SOL    HW228338   4.929   1.898   1.998
 9147SOL     OW28339   5.753   0.144   4.352
 9147SOL    HW128340   5.827   0.207   4.373
 9147SOL    HW228341   5.786   0.072   4.292
 9148SOL     OW28342   5.004   0.020   0.751
 9148SOL    HW128343   5.078   0.087   0.743
 9148SOL    HW228344   4.975   7.016   0.659
 9149SOL     OW28345   5.229   3.039   3.803
 9149SOL    HW128346   5.169   3.000   3.733
 9149SOL    HW228347   5.174   3.096   3.866
 9150SOL     OW28348   3.500   5.477   3.692
 9150SOL    HW128349   3.419   5.418   3.686
 9150SOL    HW228350   3.576   5.424   3.731
 9151SOL     OW28351   1.445   4.536   3.181
 9151SOL    HW128352   1.520   4.540   3.247
 9151SOL    HW228353   1.482   4.524   3.089
 9152SOL     OW28354   2.920   5.165   4.846
 9152SOL    HW128355   2.944   5.160   4.749
 9152SOL    HW228356   2.834   5.215   4.857
 9153SOL     OW28357   1.330   3.296   1.318
 9153SOL    HW128358   1.420   3.265   1.347
 9153SOL    HW228359   1.337   3.390   1.283
 9154SOL     OW28360   3.644   5.082   0.109
 9154SOL    HW128361   3.645   4.982   0.101
 9154SOL    HW228362   3.737   5.116   0.120
 9155SOL     OW28363   1.784   3.315   0.788
 9155SOL    HW128364   1.718   3.303   0.714
 9155SOL    HW228365   1.855   3.245   0.782
 9156SOL     OW28366   2.072   2.939   0.605
 9156SOL    HW128367   2.038   2.932   0.511
 9156SOL    HW228368   2.166   2.971   0.604
 9157SOL     OW28369   5.807   4.831   6.210
 9157SOL    HW128370   5.796   4.885   6.294
 9157SOL    HW228371   5.746   4.752   6.214
 9158SOL     OW28372   5.999   3.347   4.995
 9158SOL    HW128373   6.025   3.421   4.933
 9158SOL    HW228374   5.917   3.302   4.960
 9159SOL     OW28375   0.920   0.213   3.036
 9159SOL    HW128376   0.828   0.232   3.002
 9159SOL    HW228377   0.925   0.119   3.068
 9160SOL     OW28378   6.396   0.096   5.161
 9160SOL    HW128379   6.416   0.158   5.237
 9160SOL    HW228380   6.450   0.013   5.171
 9161SOL     OW28381   4.815   4.087   4.302
 9161SOL    HW128382   4.739   4.138   4.343
 9161SOL    HW228383   4.795   4.069   4.206
 9162SOL     OW28384   4.959   1.488   3.828
 9162SOL    HW128385   4.890   1.471   3.898
 9162SOL    HW228386   4.972   1.405   3.774
 9163SOL     OW28387   2.056   3.348   4.533
 9163SOL    HW128388   2.023   3.260   4.498
 9163SOL    HW228389   2.112   3.392   4.463
 9164SOL     OW28390   2.635   0.422   6.844
 9164SOL    HW128391   2.613   0.397   6.749
 9164SOL    HW228392   2.564   0.386   6.905
 9165SOL     OW28393   5.606   1.565   5.259
 9165SOL    HW128394   5.645   1.645   5.213
 9165SOL    HW228395   5.508   1.559   5.238
 9166SOL     OW28396   4.416   6.255   0.853
 9166SOL    HW128397   4.412   6.197   0.934
 9166SOL    HW228398   4.328   6.255   0.806
 9167SOL     OW28399   1.795   2.721   6.172
 9167SOL    HW128400   1.854   2.767   6.238
 9167SOL    HW228401   1.775   2.628   6.204
 9168SOL     OW28402   0.405   0.745   6.013
 9168SOL    HW128403   0.439   0.815   6.076
 9168SOL    HW228404   0.356   0.789   5.938
 9169SOL     OW28405   6.308   0.990   5.171
 9169SOL    HW128406   6.306   0.936   5.256
 9169SOL    HW228407   6.323   0.929   5.093
 9170SOL     OW28408   1.019   4.879   0.753
 9170SOL    HW128409   1.103   4.927   0.726
 9170SOL    HW228410   1.029   4.846   0.846
 9171SOL     OW28411   3.266   4.816   1.285
 9171SOL    HW128412   3.223   4.783   1.369
 9171SOL    HW228413   3.238   4.911   1.268
 9172SOL     OW28414   3.266   0.172   4.951
 9172SOL    HW128415   3.272   0.270   4.933
 9172SOL    HW228416   3.180   0.152   4.998
 9173SOL     OW28417   6.013   4.214   4.719
 9173SOL    HW128418   5.990   4.197   4.623
 9173SOL    HW228419   6.104   4.255   4.724
 9174SOL     OW28420   5.719   5.091   1.126
 9174SOL    HW128421   5.811   5.053   1.126
 9174SOL    HW228422   5.654   5.020   1.155
 9175SOL     OW28423   1.179   6.870   4.122
 9175SOL    HW128424   1.114   6.807   4.080
 9175SOL    HW228425   1.148   6.964   4.109
 9176SOL     OW28426   3.107   1.041   4.895
 9176SOL    HW128427   3.170   1.058   4.818
 9176SOL    HW228428   3.147   1.077   4.979
 9177SOL     OW28429   1.442   4.701   5.194
 9177SOL    HW128430   1.509   4.689   5.267
 9177SOL    HW228431   1.489   4.708   5.106
 9178SOL     OW28432   2.252   5.769   0.044
 9178SOL    HW128433   2.296   5.815   6.991
 9178SOL    HW228434   2.220   5.679   0.015
 9179SOL     OW28435   3.277   5.325   4.159
 9179SOL    HW128436   3.323   5.410   4.183
 9179SOL    HW228437   3.332   5.274   4.093
 9180SOL     OW28438   5.506   1.995   3.245
 9180SOL    HW128439   5.566   2.041   3.310
 9180SOL    HW228440   5.522   2.032   3.153
 9181SOL     OW28441   4.010   2.198   3.881
 9181SOL    HW128442   4.076   2.270   3.860
 9181SOL    HW228443   3.973   2.213   3.973
 9182SOL     OW28444   2.114   6.683   2.121
 9182SOL    HW128445   2.099   6.602   2.065
 9182SOL    HW228446   2.193   6.667   2.181
 9183SOL     OW28447   5.208   6.582   0.611
 9183SOL    HW128448   5.177   6.631   0.530
 9183SOL    HW228449   5.307   6.570   0.607
 9184SOL     OW28450   5.165   1.946   0.275
 9184SOL    HW128451   5.099   1.951   0.350
 9184SOL    HW228452   5.145   2.016   0.208
 9185SOL     OW28453   3.869   6.833   5.020
 9185SOL    HW128454   3.782   6.790   4.996
 9185SOL    HW228455   3.943   6.767   5.005
 9186SOL     OW28456   5.465   0.231   4.008
 9186SOL    HW128457   5.560   0.226   3.977
 9186SOL    HW228458   5.421   0.313   3.972
 9187SOL     OW28459   2.794   1.463   1.310
 9187SOL    HW128460   2.716   1.458   1.373
 9187SOL    HW228461   2.855   1.537   1.337
 9188SOL     OW28462   1.807   6.583   1.732
 9188SOL    HW128463   1.804   6.624   1.641
 9188SOL    HW228464   1.728   6.615   1.785
 9189SOL     OW28465   4.573   6.082   1.248
 9189SOL    HW128466   4.563   6.180   1.234
 9189SOL    HW228467   4.490   6.035   1.220
 9190SOL     OW28468   2.078   4.094   0.038
 9190SOL    HW128469   2.082   4.019   6.997
 9190SOL    HW228470   1.983   4.120   0.053
 9191SOL     OW28471   5.914   1.280   5.735
 9191SOL    HW128472   5.847   1.354   5.743
 9191SOL    HW228473   5.957   1.283   5.645
 9192SOL     OW28474   0.652   4.196   6.038
 9192SOL    HW128475   0.569   4.171   5.988
 9192SOL    HW228476   0.697   4.113   6.070
 9193SOL     OW28477   4.564   4.146   0.570
 9193SOL    HW128478   4.567   4.085   0.490
 9193SOL    HW228479   4.566   4.241   0.540
 9194SOL     OW28480   2.904   0.391   3.121
 9194SOL    HW128481   3.002   0.396   3.139
 9194SOL    HW228482   2.854   0.389   3.208
 9195SOL     OW28483   2.226   1.930   4.345
 9195SOL    HW128484   2.224   1.838   4.306
 9195SOL    HW228485   2.191   1.927   4.439
 9196SOL     OW28486   4.265   0.213   4.132
 9196SOL    HW128487   4.236   0.211   4.228
 9196SOL    HW228488   4.345   0.155   4.120
 9197SOL     OW28489   1.852   4.796   2.117
 9197SOL    HW128490   1.926   4.818   2.053
 9197SOL    HW228491   1.848   4.867   2.188
 9198SOL     OW28492   6.683   5.060   6.511
 9198SOL    HW128493   6.760   5.049   6.447
 9198SOL    HW228494   6.599   5.027   6.468
 9199SOL     OW28495   1.593   3.817   5.944
 9199SOL    HW128496   1.687   3.837   5.971
 9199SOL    HW228497   1.545   3.903   5.926
 9200SOL     OW28498   2.890   6.823   0.848
 9200SOL    HW128499   2.863   6.747   0.788
 9200SOL    HW228500   2.820   6.893   0.847
 9201SOL     OW28501   0.176   2.779   0.502
 9201SOL    HW128502   0.220   2.867   0.485
 9201SOL    HW228503   0.144   2.775   0.597
 9202SOL     OW28504   1.509   6.366   3.031
 9202SOL    HW128505   1.466   6.375   3.121
 9202SOL    HW228506   1.573   6.290   3.032
 9203SOL     OW28507   0.712   4.943   0.102
 9203SOL    HW128508   0.749   4.883   0.173
 9203SOL    HW228509   0.785   5.002   0.067
 9204SOL     OW28510   4.441   2.598   6.049
 9204SOL    HW128511   4.375   2.542   6.099
 9204SOL    HW228512   4.452   2.686   6.094
 9205SOL     OW28513   6.739   4.463   2.665
 9205SOL    HW128514   6.654   4.428   2.627
 9205SOL    HW228515   6.795   4.386   2.698
 9206SOL     OW28516   4.215   5.543   1.813
 9206SOL    HW128517   4.294   5.483   1.801
 9206SOL    HW228518   4.149   5.499   1.874
 9207SOL     OW28519   4.645   5.037   6.239
 9207SOL    HW128520   4.729   5.047   6.185
 9207SOL    HW228521   4.620   5.126   6.278
 9208SOL     OW28522   5.724   4.245   4.045
 9208SOL    HW128523   5.660   4.178   4.084
 9208SOL    HW228524   5.753   4.213   3.955
 9209SOL     OW28525   3.015   0.617   6.562
 9209SOL    HW128526   3.107   0.577   6.560
 9209SOL    HW228527   3.023   0.716   6.555
 9210SOL     OW28528   0.203   0.722   2.865
 9210SOL    HW128529   0.131   0.788   2.842
 9210SOL    HW228530   0.231   0.674   2.782
 9211SOL     OW28531   0.090   2.665   4.731
 9211SOL    HW128532   0.091   2.611   4.647
 9211SOL    HW228533   0.139   2.616   4.803
 9212SOL     OW28534   4.665   5.269   4.483
 9212SOL    HW128535   4.610   5.186   4.480
 9212SOL    HW228536   4.680   5.297   4.578
 9213SOL     OW28537   5.183   3.808   5.794
 9213SOL    HW128538   5.204   3.735   5.858
 9213SOL    HW228539   5.168   3.893   5.844
 9214SOL     OW28540   7.017   4.345   6.117
 9214SOL    HW128541   0.040   4.257   6.124
 9214SOL    HW228542   6.939   4.346   6.180
 9215SOL     OW28543   1.042   2.582   0.191
 9215SOL    HW128544   1.113   2.517   0.163
 9215SOL    HW228545   0.952   2.539   0.184
 9216SOL     OW28546   2.666   0.141   2.299
 9216SOL    HW128547   2.635   0.229   2.335
 9216SOL    HW228548   2.761   0.149   2.269
 9217SOL     OW28549   0.596   1.611   6.824
 9217SOL    HW128550   0.693   1.586   6.812
 9217SOL    HW228551   0.539   1.543   6.778
 9218SOL     OW28552   2.844   6.733   0.339
 9218SOL    HW128553   2.777   6.756   0.410
 9218SOL    HW228554   2.797   6.703   0.256
 9219SOL     OW28555   6.847   2.671   1.483
 9219SOL    HW128556   6.876   2.605   1.553
 9219SOL    HW228557   6.845   2.763   1.522
 9220SOL     OW28558   1.446   6.407   0.602
 9220SOL    HW128559   1.413   6.487   0.551
 9220SOL    HW228560   1.499   6.437   0.681
 9221SOL     OW28561   3.013   1.179   4.145
 9221SOL    HW128562   3.084   1.192   4.076
 9221SOL    HW228563   3.055   1.145   4.229
 9222SOL     OW28564   2.199   0.025   6.423
 9222SOL    HW128565   2.218   0.122   6.437
 9222SOL    HW228566   2.102   0.012   6.405
 9223SOL     OW28567   1.577   1.091   3.928
 9223SOL    HW128568   1.506   1.021   3.922
 9223SOL    HW228569   1.656   1.062   3.875
 9224SOL     OW28570   2.110   5.286   5.116
 9224SOL    HW128571   2.208   5.286   5.098
 9224SOL    HW228572   2.091   5.230   5.197
 9225SOL     OW28573   3.530   6.226   6.416
 9225SOL    HW128574   3.602   6.221   6.346
 9225SOL    HW228575   3.567   6.271   6.498
 9226SOL     OW28576   5.551   6.850   1.746
 9226SOL    HW128577   5.529   6.948   1.740
 9226SOL    HW228578   5.549   6.821   1.842
 9227SOL     OW28579   0.998   5.039   1.237
 9227SOL    HW128580   1.093   5.040   1.206
 9227SOL    HW228581   0.996   5.021   1.336
 9228SOL     OW28582   1.459   1.114   5.829
 9228SOL    HW128583   1.369   1.072   5.819
 9228SOL    HW228584   1.449   1.213   5.833
 9229SOL     OW28585   1.324   5.129   4.748
 9229SOL    HW128586   1.261   5.061   4.786
 9229SOL    HW228587   1.418   5.096   4.759
 9230SOL     OW28588   5.402   1.261   3.289
 9230SOL    HW128589   5.493   1.301   3.281
 9230SOL    HW228590   5.378   1.249   3.385
 9231SOL     OW28591   1.112   4.555   4.640
 9231SOL    HW128592   1.175   4.629   4.614
 9231SOL    HW228593   1.165   4.479   4.678
 9232SOL     OW28594   3.555   5.140   6.749
 9232SOL    HW128595   3.615   5.104   6.821
 9232SOL    HW228596   3.601   5.214   6.701
 9233SOL     OW28597   5.493   5.227   1.815
 9233SOL    HW128598   5.480   5.215   1.716
 9233SOL    HW228599   5.588   5.254   1.832
 9234SOL     OW28600   3.321   5.398   5.520
 9234SOL    HW128601   3.244   5.334   5.519
 9234SOL    HW228602   3.374   5.388   5.435
 9235SOL     OW28603   1.536   2.802   3.830
 9235SOL    HW128604   1.587   2.861   3.893
 9235SOL    HW228605   1.577   2.711   3.829
 9236SOL     OW28606   2.945   4.261   5.556
 9236SOL    HW128607   2.997   4.331   5.508
 9236SOL    HW228608   3.007   4.190   5.590
 9237SOL     OW28609   1.997   5.503   5.001
 9237SOL    HW128610   1.937   5.448   4.944
 9237SOL    HW228611   2.042   5.444   5.069
 9238SOL     OW28612   3.908   1.339   6.524
 9238SOL    HW128613   3.898   1.330   6.623
 9238SOL    HW228614   3.870   1.259   6.479
 9239SOL     OW28615   0.278   3.997   0.655
 9239SOL    HW128616   0.340   3.950   0.592
 9239SOL    HW228617   0.261   4.090   0.622
 9240SOL     OW28618   4.901   1.919   0.801
 9240SOL    HW128619   4.892   2.018   0.813
 9240SOL    HW228620   4.828   1.887   0.741
 9241SOL     OW28621   0.637   5.331   6.064
 9241SOL    HW128622   0.735   5.323   6.083
 9241SOL    HW228623   0.588   5.344   6.150
 9242SOL     OW28624   0.087   5.349   0.699
 9242SOL    HW128625   0.153   5.423   0.705
 9242SOL    HW228626   0.047   5.333   0.790
 9243SOL     OW28627   5.501   0.053   2.513
 9243SOL    HW128628   5.435   0.059   2.588
 9243SOL    HW228629   5.591   0.079   2.547
 9244SOL     OW28630   4.753   4.767   6.299
 9244SOL    HW128631   4.731   4.865   6.297
 9244SOL    HW228632   4.843   4.754   6.342
 9245SOL     OW28633   2.192   5.176   3.658
 9245SOL    HW128634   2.246   5.093   3.647
 9245SOL    HW228635   2.098   5.152   3.680
 9246SOL     OW28636   0.113   4.235   3.121
 9246SOL    HW128637   0.202   4.218   3.079
 9246SOL    HW228638   0.096   4.333   3.126
 9247SOL     OW28639   1.011   0.029   3.401
 9247SOL    HW128640   0.940   0.074   3.348
 9247SOL    HW228641   1.062   6.990   3.341
 9248SOL     OW28642   1.951   2.758   5.951
 9248SOL    HW128643   2.038   2.802   5.976
 9248SOL    HW228644   1.895   2.748   6.033
 9249SOL     OW28645   4.860   3.396   6.911
 9249SOL    HW128646   4.830   3.303   6.888
 9249SOL    HW228647   4.780   3.455   6.922
 9250SOL     OW28648   5.492   3.520   5.010
 9250SOL    HW128649   5.589   3.516   4.985
 9250SOL    HW228650   5.465   3.616   5.019
 9251SOL     OW28651   3.866   2.146   3.071
 9251SOL    HW128652   3.898   2.120   2.980
 9251SOL    HW228653   3.767   2.161   3.069
 9252SOL     OW28654   5.970   0.051   3.958
 9252SOL    HW128655   6.030   0.127   3.984
 9252SOL    HW228656   5.929   0.071   3.869
 9253SOL     OW28657   5.901   6.272   6.175
 9253SOL    HW128658   5.964   6.194   6.178
 9253SOL    HW228659   5.901   6.318   6.264
 9254SOL     OW28660   6.403   4.117   2.647
 9254SOL    HW128661   6.307   4.136   2.626
 9254SOL    HW228662   6.445   4.068   2.571
 9255SOL     OW28663   5.003   4.003   0.691
 9255SOL    HW128664   5.046   4.026   0.778
 9255SOL    HW228665   5.061   4.034   0.616
 9256SOL     OW28666   3.786   5.487   3.193
 9256SOL    HW128667   3.714   5.500   3.124
 9256SOL    HW228668   3.769   5.548   3.270
 9257SOL     OW28669   0.822   3.053   2.902
 9257SOL    HW128670   0.843   3.104   2.985
 9257SOL    HW228671   0.751   3.101   2.850
 9258SOL     OW28672   3.897   2.997   3.472
 9258SOL    HW128673   3.911   2.910   3.424
 9258SOL    HW228674   3.884   3.070   3.406
 9259SOL     OW28675   1.486   1.862   0.739
 9259SOL    HW128676   1.494   1.763   0.746
 9259SOL    HW228677   1.420   1.886   0.668
 9260SOL     OW28678   4.651   1.588   5.374
 9260SOL    HW128679   4.728   1.651   5.359
 9260SOL    HW228680   4.608   1.608   5.461
 9261SOL     OW28681   4.932   0.956   6.440
 9261SOL    HW128682   4.942   0.965   6.341
 9261SOL    HW228683   4.846   0.999   6.469
 9262SOL     OW28684   6.820   3.126   5.242
 9262SOL    HW128685   6.915   3.096   5.232
 9262SOL    HW228686   6.792   3.115   5.337
 9263SOL     OW28687   5.989   4.779   1.497
 9263SOL    HW128688   6.049   4.706   1.465
 9263SOL    HW228689   5.901   4.741   1.523
 9264SOL     OW28690   5.472   4.358   0.301
 9264SOL    HW128691   5.443   4.263   0.312
 9264SOL    HW228692   5.562   4.370   0.342
 9265SOL     OW28693   2.679   1.593   0.173
 9265SOL    HW128694   2.686   1.576   0.272
 9265SOL    HW228695   2.741   1.532   0.124
 9266SOL     OW28696   2.373   6.568   2.259
 9266SOL    HW128697   2.325   6.541   2.342
 9266SOL    HW228698   2.459   6.517   2.252
 9267SOL     OW28699   6.927   4.322   5.854
 9267SOL    HW128700   6.901   4.397   5.793
 9267SOL    HW228701   6.978   4.358   5.932
 9268SOL     OW28702   1.635   5.504   0.968
 9268SOL    HW128703   1.641   5.540   0.875
 9268SOL    HW228704   1.696   5.557   1.028
 9269SOL     OW28705   3.276   2.570   6.105
 9269SOL    HW128706   3.231   2.571   6.016
 9269SOL    HW228707   3.214   2.609   6.173
 9270SOL     OW28708   5.185   0.195   5.995
 9270SOL    HW128709   5.147   0.270   6.049
 9270SOL    HW228710   5.175   0.110   6.046
 9271SOL     OW28711   1.591   5.222   7.003
 9271SOL    HW128712   1.671   5.242   0.035
 9271SOL    HW228713   1.526   5.297   7.010
 9272SOL     OW28714   2.170   5.641   5.579
 9272SOL    HW128715   2.236   5.639   5.655
 9272SOL    HW228716   2.078   5.630   5.615
 9273SOL     OW28717   5.588   5.970   3.966
 9273SOL    HW128718   5.561   6.018   3.883
 9273SOL    HW228719   5.642   5.889   3.942
 9274SOL     OW28720   6.225   3.194   0.052
 9274SOL    HW128721   6.208   3.273   0.111
 9274SOL    HW228722   6.185   3.113   0.094
 9275SOL     OW28723   0.138   2.174   7.020
 9275SOL    HW128724   0.054   2.153   0.046
 9275SOL    HW228725   0.215   2.123   0.036
 9276SOL     OW28726   2.833   4.790   3.803
 9276SOL    HW128727   2.766   4.734   3.852
 9276SOL    HW228728   2.906   4.732   3.767
 9277SOL     OW28729   4.911   3.584   0.683
 9277SOL    HW128730   4.902   3.676   0.646
 9277SOL    HW228731   4.963   3.527   0.620
 9278SOL     OW28732   1.367   0.860   4.483
 9278SOL    HW128733   1.428   0.784   4.462
 9278SOL    HW228734   1.416   0.947   4.475
 9279SOL     OW28735   4.055   0.556   1.455
 9279SOL    HW128736   4.141   0.507   1.467
 9279SOL    HW228737   4.071   0.654   1.456
 9280SOL     OW28738   1.501   0.602   2.817
 9280SOL    HW128739   1.510   0.565   2.910
 9280SOL    HW228740   1.408   0.638   2.805
 9281SOL     OW28741   3.286   4.311   1.485
 9281SOL    HW128742   3.273   4.256   1.567
 9281SOL    HW228743   3.367   4.278   1.435
 9282SOL     OW28744   4.635   1.969   4.841
 9282SOL    HW128745   4.560   2.030   4.869
 9282SOL    HW228746   4.696   2.019   4.780
 9283SOL     OW28747   5.600   0.648   3.544
 9283SOL    HW128748   5.603   0.574   3.477
 9283SOL    HW228749   5.590   0.609   3.635
 9284SOL     OW28750   3.459   5.138   5.911
 9284SOL    HW128751   3.492   5.186   5.830
 9284SOL    HW228752   3.502   5.176   5.992
 9285SOL     OW28753   5.018   3.081   0.839
 9285SOL    HW128754   5.020   3.082   0.939
 9285SOL    HW228755   5.044   2.990   0.807
 9286SOL     OW28756   5.455   0.154   5.910
 9286SOL    HW128757   5.364   0.155   5.952
 9286SOL    HW228758   5.498   0.244   5.922
 9287SOL     OW28759   3.036   4.836   0.267
 9287SOL    HW128760   2.962   4.880   0.216
 9287SOL    HW228761   3.120   4.888   0.254
 9288SOL     OW28762   3.311   1.110   5.100
 9288SOL    HW128763   3.384   1.049   5.069
 9288SOL    HW228764   3.350   1.201   5.118
 9289SOL     OW28765   3.451   1.916   2.673
 9289SOL    HW128766   3.384   1.875   2.612
 9289SOL    HW228767   3.421   2.008   2.700
 9290SOL     OW28768   5.235   1.596   3.806
 9290SOL    HW128769   5.233   1.612   3.707
 9290SOL    HW228770   5.149   1.554   3.835
 9291SOL     OW28771   2.584   0.127   5.337
 9291SOL    HW128772   2.645   0.051   5.318
 9291SOL    HW228773   2.553   0.168   5.251
 9292SOL     OW28774   0.503   3.093   6.294
 9292SOL    HW128775   0.535   3.185   6.270
 9292SOL    HW228776   0.490   3.039   6.210
 9293SOL     OW28777   6.291   3.985   0.570
 9293SOL    HW128778   6.220   3.999   0.639
 9293SOL    HW228779   6.315   4.072   0.528
 9294SOL     OW28780   3.897   6.701   5.331
 9294SOL    HW128781   3.907   6.797   5.356
 9294SOL    HW228782   3.808   6.686   5.289
 9295SOL     OW28783   5.662   2.376   4.170
 9295SOL    HW128784   5.649   2.346   4.075
 9295SOL    HW228785   5.750   2.342   4.203
 9296SOL     OW28786   0.593   6.577   6.579
 9296SOL    HW128787   0.604   6.504   6.512
 9296SOL    HW228788   0.656   6.652   6.557
 9297SOL     OW28789   6.781   0.860   0.677
 9297SOL    HW128790   6.682   0.846   0.664
 9297SOL    HW228791   6.801   0.860   0.775
 9298SOL     OW28792   1.168   0.383   5.346
 9298SOL    HW128793   1.167   0.299   5.400
 9298SOL    HW228794   1.218   0.454   5.394
 9299SOL     OW28795   1.012   2.571   4.751
 9299SOL    HW128796   0.999   2.479   4.789
 9299SOL    HW228797   0.983   2.639   4.817
 9300SOL     OW28798   0.051   4.802   5.018
 9300SOL    HW128799   0.111   4.722   5.016
 9300SOL    HW228800   6.982   4.774   4.998
 9301SOL     OW28801   4.684   4.336   3.723
 9301SOL    HW128802   4.755   4.268   3.743
 9301SOL    HW228803   4.672   4.343   3.625
 9302SOL     OW28804   1.980   3.100   4.506
 9302SOL    HW128805   2.054   3.039   4.533
 9302SOL    HW228806   1.896   3.075   4.555
 9303SOL     OW28807   3.808   6.128   0.983
 9303SOL    HW128808   3.756   6.051   1.020
 9303SOL    HW228809   3.746   6.196   0.945
 9304SOL     OW28810   4.782   4.347   0.793
 9304SOL    HW128811   4.851   4.295   0.842
 9304SOL    HW228812   4.719   4.390   0.858
 9305SOL     OW28813   3.771   1.824   2.154
 9305SOL    HW128814   3.719   1.898   2.113
 9305SOL    HW228815   3.864   1.855   2.175
 9306SOL     OW28816   0.308   4.422   5.251
 9306SOL    HW128817   0.227   4.453   5.201
 9306SOL    HW228818   0.386   4.479   5.228
 9307SOL     OW28819   1.077   3.414   1.927
 9307SOL    HW128820   1.091   3.315   1.937
 9307SOL    HW228821   1.164   3.458   1.907
 9308SOL     OW28822   1.185   4.122   0.772
 9308SOL    HW128823   1.184   4.218   0.743
 9308SOL    HW228824   1.274   4.101   0.812
 9309SOL     OW28825   3.522   4.893   5.477
 9309SOL    HW128826   3.453   4.838   5.524
 9309SOL    HW228827   3.550   4.969   5.536
 9310SOL     OW28828   4.836   5.265   6.420
 9310SOL    HW128829   4.862   5.356   6.389
 9310SOL    HW228830   4.738   5.252   6.407
 9311SOL     OW28831   5.273   5.036   1.913
 9311SOL    HW128832   5.270   5.024   2.012
 9311SOL    HW228833   5.327   5.117   1.891
 9312SOL     OW28834   1.337   3.733   1.831
 9312SOL    HW128835   1.421   3.738   1.777
 9312SOL    HW228836   1.326   3.817   1.884
 9313SOL     OW28837   0.164   0.851   0.667
 9313SOL    HW128838   0.245   0.792   0.677
 9313SOL    HW228839   0.090   0.798   0.625
 9314SOL     OW28840   4.325   5.680   6.153
 9314SOL    HW128841   4.291   5.675   6.059
 9314SOL    HW228842   4.392   5.754   6.160
 9315SOL     OW28843   6.869   0.766   5.204
 9315SOL    HW128844   6.950   0.798   5.253
 9315SOL    HW228845   6.897   0.732   5.114
 9316SOL     OW28846   4.066   5.428   5.532
 9316SOL    HW128847   4.150   5.473   5.563
 9316SOL    HW228848   4.008   5.494   5.485
 9317SOL     OW28849   6.780   5.439   3.437
 9317SOL    HW128850   6.801   5.399   3.526
 9317SOL    HW228851   6.734   5.371   3.380
 9318SOL     OW28852   6.545   0.533   5.423
 9318SOL    HW128853   6.469   0.538   5.488
 9318SOL    HW228854   6.559   0.624   5.382
 9319SOL     OW28855   0.833   2.823   6.194
 9319SOL    HW128856   0.750   2.813   6.139
 9319SOL    HW228857   0.906   2.767   6.154
 9320SOL     OW28858   4.104   1.163   6.131
 9320SOL    HW128859   4.053   1.135   6.049
 9320SOL    HW228860   4.083   1.100   6.206
 9321SOL     OW28861   6.351   0.395   2.613
 9321SOL    HW128862   6.297   0.381   2.696
 9321SOL    HW228863   6.444   0.362   2.629
 9322SOL     OW28864   0.202   5.286   6.424
 9322SOL    HW128865   0.118   5.280   6.478
 9322SOL    HW228866   0.231   5.195   6.397
 9323SOL     OW28867   1.613   0.218   5.095
 9323SOL    HW128868   1.532   0.219   5.036
 9323SOL    HW228869   1.600   0.280   5.172
 9324SOL     OW28870   2.041   5.028   0.428
 9324SOL    HW128871   2.123   4.998   0.476
 9324SOL    HW228872   2.016   4.962   0.358
 9325SOL     OW28873   4.875   1.503   0.019
 9325SOL    HW128874   4.888   1.534   6.949
 9325SOL    HW228875   4.801   1.436   0.022
 9326SOL     OW28876   1.851   6.631   0.886
 9326SOL    HW128877   1.769   6.659   0.936
 9326SOL    HW228878   1.931   6.641   0.946
 9327SOL     OW28879   5.161   0.130   2.606
 9327SOL    HW128880   5.180   0.033   2.621
 9327SOL    HW228881   5.101   0.163   2.679
 9328SOL     OW28882   3.325   1.220   5.789
 9328SOL    HW128883   3.331   1.304   5.735
 9328SOL    HW228884   3.377   1.148   5.744
 9329SOL     OW28885   6.689   4.290   2.184
 9329SOL    HW128886   6.728   4.287   2.276
 9329SOL    HW228887   6.700   4.382   2.146
 9330SOL     OW28888   0.324   6.316   6.955
 9330SOL    HW128889   0.420   6.302   6.976
 9330SOL    HW228890   0.308   6.294   6.858
 9331SOL     OW28891   1.367   1.849   5.916
 9331SOL    HW128892   1.304   1.867   5.992
 9331SOL    HW228893   1.433   1.923   5.909
 9332SOL     OW28894   3.604   4.095   2.707
 9332SOL    HW128895   3.652   4.106   2.620
 9332SOL    HW228896   3.618   4.001   2.740
 9333SOL     OW28897   4.317   3.854   1.344
 9333SOL    HW128898   4.223   3.858   1.310
 9333SOL    HW228899   4.351   3.947   1.358
 9334SOL     OW28900   4.537   6.141   3.740
 9334SOL    HW128901   4.490   6.209   3.684
 9334SOL    HW228902   4.614   6.184   3.786
 9335SOL     OW28903   0.901   1.612   5.874
 9335SOL    HW128904   0.894   1.688   5.809
 9335SOL    HW228905   0.962   1.638   5.949
 9336SOL     OW28906   3.155   5.175   5.521
 9336SOL    HW128907   3.148   5.098   5.585
 9336SOL    HW228908   3.117   5.148   5.432
 9337SOL     OW28909   4.687   0.754   3.420
 9337SOL    HW128910   4.774   0.796   3.445
 9337SOL    HW228911   4.622   0.825   3.394
 9338SOL     OW28912   3.890   0.664   2.114
 9338SOL    HW128913   3.980   0.622   2.100
 9338SOL    HW228914   3.888   0.754   2.070
 9339SOL     OW28915   5.155   6.844   1.010
 9339SOL    HW128916   5.100   6.799   0.940
 9339SOL    HW228917   5.173   6.939   0.982
 9340SOL     OW28918   5.747   3.980   4.945
 9340SOL    HW128919   5.741   3.955   4.848
 9340SOL    HW228920   5.820   4.046   4.959
 9341SOL     OW28921   0.239   5.912   6.702
 9341SOL    HW128922   0.204   6.006   6.697
 9341SOL    HW228923   0.229   5.868   6.613
 9342SOL     OW28924   2.055   0.589   3.699
 9342SOL    HW128925   2.088   0.545   3.615
 9342SOL    HW228926   2.015   0.519   3.759
 9343SOL     OW28927   5.853   4.251   3.002
 9343SOL    HW128928   5.883   4.157   3.019
 9343SOL    HW228929   5.786   4.278   3.071
 9344SOL     OW28930   4.741   6.245   1.605
 9344SOL    HW128931   4.804   6.178   1.567
 9344SOL    HW228932   4.793   6.315   1.655
 9345SOL     OW28933   6.347   3.939   2.206
 9345SOL    HW128934   6.323   3.964   2.112
 9345SOL    HW228935   6.405   3.858   2.204
 9346SOL     OW28936   6.341   0.750   0.884
 9346SOL    HW128937   6.366   0.699   0.801
 9346SOL    HW228938   6.243   0.768   0.885
 9347SOL     OW28939   1.263   5.011   1.143
 9347SOL    HW128940   1.340   4.956   1.114
 9347SOL    HW228941   1.267   5.101   1.100
 9348SOL     OW28942   3.796   5.696   1.845
 9348SOL    HW128943   3.730   5.771   1.846
 9348SOL    HW228944   3.760   5.620   1.791
 9349SOL     OW28945   0.955   6.586   2.509
 9349SOL    HW128946   0.950   6.488   2.491
 9349SOL    HW228947   0.956   6.636   2.423
 9350SOL     OW28948   0.554   3.604   5.563
 9350SOL    HW128949   0.582   3.524   5.511
 9350SOL    HW228950   0.610   3.682   5.537
 9351SOL     OW28951   3.028   1.253   6.266
 9351SOL    HW128952   3.050   1.350   6.274
 9351SOL    HW228953   3.077   1.215   6.187
 9352SOL     OW28954   2.700   2.429   0.400
 9352SOL    HW128955   2.625   2.398   0.340
 9352SOL    HW228956   2.685   2.395   0.492
 9353SOL     OW28957   0.431   5.252   1.109
 9353SOL    HW128958   0.347   5.265   1.055
 9353SOL    HW228959   0.510   5.285   1.057
 9354SOL     OW28960   6.554   2.248   6.838
 9354SOL    HW128961   6.560   2.272   6.741
 9354SOL    HW228962   6.614   2.170   6.857
 9355SOL     OW28963   0.171   2.223   5.003
 9355SOL    HW128964   0.267   2.196   4.999
 9355SOL    HW228965   0.141   2.225   5.098
 9356SOL     OW28966   3.913   0.183   1.010
 9356SOL    HW128967   3.996   0.179   0.954
 9356SOL    HW228968   3.931   0.236   1.093
 9357SOL     OW28969   1.197   3.361   5.996
 9357SOL    HW128970   1.286   3.405   6.013
 9357SOL    HW228971   1.181   3.356   5.898
 9358SOL     OW28972   6.855   4.067   2.091
 9358SOL    HW128973   6.787   4.140   2.090
 9358SOL    HW228974   6.814   3.984   2.128
 9359SOL     OW28975   1.665   4.330   6.519
 9359SOL    HW128976   1.733   4.257   6.518
 9359SOL    HW228977   1.636   4.348   6.613
 9360SOL     OW28978   1.179   6.033   6.076
 9360SOL    HW128979   1.216   6.028   6.169
 9360SOL    HW228980   1.144   5.943   6.050
 9361SOL     OW28981   2.051   5.349   3.386
 9361SOL    HW128982   1.979   5.336   3.454
 9361SOL    HW228983   2.019   5.411   3.314
 9362SOL     OW28984   1.491   1.609   2.813
 9362SOL    HW128985   1.571   1.588   2.757
 9362SOL    HW228986   1.513   1.683   2.877
 9363SOL     OW28987   3.283   5.550   1.642
 9363SOL    HW128988   3.231   5.465   1.636
 9363SOL    HW228989   3.296   5.588   1.551
 9364SOL     OW28990   2.264   1.501   1.267
 9364SOL    HW128991   2.267   1.510   1.168
 9364SOL    HW228992   2.255   1.405   1.292
 9365SOL     OW28993   2.990   1.927   3.919
 9365SOL    HW128994   2.934   1.957   3.842
 9365SOL    HW228995   3.074   1.982   3.922
 9366SOL     OW28996   3.052   5.914   0.263
 9366SOL    HW128997   3.066   6.007   0.227
 9366SOL    HW228998   3.141   5.874   0.286
 9367SOL     OW28999   6.105   0.115   1.456
 9367SOL    HW129000   6.168   0.130   1.532
 9367SOL    HW229001   6.066   0.203   1.427
 9368SOL     OW29002   3.905   0.368   2.253
 9368SOL    HW129003   3.808   0.378   2.275
 9368SOL    HW229004   3.924   0.411   2.165
 9369SOL     OW29005   0.497   6.018   5.011
 9369SOL    HW129006   0.596   6.021   5.025
 9369SOL    HW229007   0.475   6.059   4.923
 9370SOL     OW29008   5.059   1.266   3.685
 9370SOL    HW129009   5.139   1.205   3.688
 9370SOL    HW229010   4.988   1.230   3.745
 9371SOL     OW29011   2.849   5.673   0.984
 9371SOL    HW129012   2.770   5.733   0.968
 9371SOL    HW229013   2.932   5.718   0.951
 9372SOL     OW29014   4.158   6.772   2.040
 9372SOL    HW129015   4.123   6.818   1.959
 9372SOL    HW229016   4.244   6.815   2.069
 9373SOL     OW29017   6.067   2.509   0.646
 9373SOL    HW129018   5.995   2.442   0.663
 9373SOL    HW229019   6.047   2.594   0.695
 9374SOL     OW29020   6.982   3.582   6.093
 9374SOL    HW129021   6.888   3.583   6.125
 9374SOL    HW229022   6.995   3.654   6.024
 9375SOL     OW29023   0.024   1.826   0.776
 9375SOL    HW129024   0.024   1.797   0.680
 9375SOL    HW229025   6.993   1.762   0.830
 9376SOL     OW29026   2.097   3.225   2.073
 9376SOL    HW129027   2.132   3.185   1.988
 9376SOL    HW229028   2.133   3.318   2.084
 9377SOL     OW29029   3.024   5.381   3.091
 9377SOL    HW129030   2.950   5.341   3.145
 9377SOL    HW229031   3.112   5.341   3.119
 9378SOL     OW29032   3.189   1.371   3.985
 9378SOL    HW129033   3.263   1.436   4.003
 9378SOL    HW229034   3.102   1.411   4.015
 9379SOL     OW29035   4.610   0.451   4.778
 9379SOL    HW129036   4.708   0.441   4.759
 9379SOL    HW229037   4.597   0.477   4.873
 9380SOL     OW29038   3.336   6.123   6.184
 9380SOL    HW129039   3.407   6.143   6.252
 9380SOL    HW229040   3.285   6.042   6.212
 9381SOL     OW29041   5.234   2.413   4.254
 9381SOL    HW129042   5.168   2.357   4.304
 9381SOL    HW229043   5.216   2.510   4.272
 9382SOL     OW29044   4.156   0.855   4.584
 9382SOL    HW129045   4.215   0.922   4.629
 9382SOL    HW229046   4.166   0.863   4.485
 9383SOL     OW29047   4.715   4.296   4.115
 9383SOL    HW129048   4.738   4.206   4.080
 9383SOL    HW229049   4.624   4.323   4.084
 9384SOL     OW29050   2.452   0.006   1.741
 9384SOL    HW129051   2.516   0.016   1.665
 9384SOL    HW229052   2.500   0.024   1.827
 9385SOL     OW29053   3.946   1.892   4.395
 9385SOL    HW129054   4.030   1.924   4.352
 9385SOL    HW229055   3.894   1.971   4.429
 9386SOL     OW29056   3.566   6.117   5.342
 9386SOL    HW129057   3.509   6.072   5.411
 9386SOL    HW229058   3.524   6.105   5.252
 9387SOL     OW29059   3.854   2.119   0.449
 9387SOL    HW129060   3.869   2.021   0.440
 9387SOL    HW229061   3.755   2.137   0.453
 9388SOL     OW29062   1.665   6.286   3.863
 9388SOL    HW129063   1.607   6.206   3.851
 9388SOL    HW229064   1.727   6.271   3.940
 9389SOL     OW29065   3.323   5.469   2.289
 9389SOL    HW129066   3.232   5.429   2.286
 9389SOL    HW229067   3.380   5.419   2.354
 9390SOL     OW29068   5.342   4.361   5.920
 9390SOL    HW129069   5.345   4.399   6.012
 9390SOL    HW229070   5.247   4.340   5.896
 9391SOL     OW29071   0.652   0.486   4.770
 9391SOL    HW129072   0.749   0.478   4.746
 9391SOL    HW229073   0.599   0.422   4.714
 9392SOL     OW29074   4.931   4.508   3.694
 9392SOL    HW129075   4.843   4.461   3.706
 9392SOL    HW229076   4.962   4.496   3.600
 9393SOL     OW29077   3.275   6.201   6.499
 9393SOL    HW129078   3.370   6.193   6.467
 9393SOL    HW229079   3.260   6.293   6.536
 9394SOL     OW29080   5.437   0.568   1.449
 9394SOL    HW129081   5.459   0.660   1.417
 9394SOL    HW229082   5.463   0.559   1.545
 9395SOL     OW29083   2.167   1.462   0.741
 9395SOL    HW129084   2.211   1.498   0.823
 9395SOL    HW229085   2.076   1.502   0.731
 9396SOL     OW29086   2.043   5.926   5.748
 9396SOL    HW129087   2.006   5.833   5.747
 9396SOL    HW229088   2.142   5.922   5.762
 9397SOL     OW29089   3.392   6.709   6.327
 9397SOL    HW129090   3.322   6.780   6.318
 9397SOL    HW229091   3.354   6.621   6.298
 9398SOL     OW29092   6.075   1.371   6.210
 9398SOL    HW129093   5.985   1.414   6.218
 9398SOL    HW229094   6.076   1.285   6.260
 9399SOL     OW29095   1.310   2.615   3.803
 9399SOL    HW129096   1.409   2.627   3.802
 9399SOL    HW229097   1.283   2.572   3.889
 9400SOL     OW29098   4.989   1.345   0.452
 9400SOL    HW129099   4.895   1.369   0.474
 9400SOL    HW229100   5.016   1.388   0.366
 9401SOL     OW29101   0.166   3.160   2.024
 9401SOL    HW129102   0.214   3.072   2.032
 9401SOL    HW229103   0.072   3.149   2.057
 9402SOL     OW29104   2.100   5.369   3.846
 9402SOL    HW129105   2.087   5.467   3.832
 9402SOL    HW229106   2.132   5.328   3.761
 9403SOL     OW29107   0.010   1.246   2.368
 9403SOL    HW129108   0.100   1.210   2.393
 9403SOL    HW229109   6.988   1.278   2.451
 9404SOL     OW29110   0.546   3.068   1.199
 9404SOL    HW129111   0.511   3.159   1.178
 9404SOL    HW229112   0.494   3.028   1.274
 9405SOL     OW29113   0.485   4.631   4.871
 9405SOL    HW129114   0.534   4.583   4.799
 9405SOL    HW229115   0.392   4.594   4.879
 9406SOL     OW29116   0.975   3.114   6.597
 9406SOL    HW129117   0.921   3.065   6.528
 9406SOL    HW229118   1.032   3.183   6.552
 9407SOL     OW29119   2.909   5.060   5.112
 9407SOL    HW129120   2.879   4.965   5.127
 9407SOL    HW229121   2.904   5.082   5.015
 9408SOL     OW29122   6.976   3.203   5.634
 9408SOL    HW129123   0.030   3.236   5.582
 9408SOL    HW229124   7.008   3.151   5.713
 9409SOL     OW29125   6.851   5.640   2.238
 9409SOL    HW129126   6.825   5.609   2.330
 9409SOL    HW229127   6.872   5.738   2.241
 9410SOL     OW29128   4.565   0.851   1.919
 9410SOL    HW129129   4.574   0.950   1.926
 9410SOL    HW229130   4.473   0.824   1.947
 9411SOL     OW29131   3.293   3.252   3.433
 9411SOL    HW129132   3.283   3.166   3.382
 9411SOL    HW229133   3.251   3.242   3.524
 9412SOL     OW29134   0.760   0.541   0.959
 9412SOL    HW129135   0.769   0.567   1.055
 9412SOL    HW229136   0.810   0.455   0.944
 9413SOL     OW29137   4.572   4.794   4.697
 9413SOL    HW129138   4.476   4.777   4.719
 9413SOL    HW229139   4.630   4.731   4.748
 9414SOL     OW29140   2.228   2.406   4.818
 9414SOL    HW129141   2.132   2.420   4.842
 9414SOL    HW229142   2.273   2.494   4.806
 9415SOL     OW29143   3.058   0.663   1.963
 9415SOL    HW129144   3.099   0.578   1.929
 9415SOL    HW229145   2.963   0.646   1.990
 9416SOL     OW29146   0.328   7.002   5.688
 9416SOL    HW129147   0.322   6.922   5.629
 9416SOL    HW229148   0.412   6.998   5.742
 9417SOL     OW29149   3.279   6.226   1.475
 9417SOL    HW129150   3.329   6.274   1.403
 9417SOL    HW229151   3.213   6.288   1.517
 9418SOL     OW29152   3.122   1.587   3.696
 9418SOL    HW129153   3.156   1.498   3.665
 9418SOL    HW229154   3.130   1.653   3.621
 9419SOL     OW29155   2.478   2.634   6.372
 9419SOL    HW129156   2.451   2.539   6.356
 9419SOL    HW229157   2.574   2.646   6.345
 9420SOL     OW29158   5.747   4.339   0.387
 9420SOL    HW129159   5.785   4.322   0.478
 9420SOL    HW229160   5.741   4.438   0.372
 9421SOL     OW29161   3.916   6.117   4.967
 9421SOL    HW129162   3.993   6.152   4.914
 9421SOL    HW229163   3.875   6.191   5.020
 9422SOL     OW29164   2.674   5.895   4.357
 9422SOL    HW129165   2.684   5.910   4.456
 9422SOL    HW229166   2.593   5.839   4.340
 9423SOL     OW29167   4.115   5.802   3.047
 9423SOL    HW129168   4.019   5.774   3.053
 9423SOL    HW229169   4.174   5.722   3.051
 9424SOL     OW29170   5.433   1.877   4.473
 9424SOL    HW129171   5.441   1.823   4.556
 9424SOL    HW229172   5.432   1.974   4.496
 9425SOL     OW29173   6.175   4.568   1.406
 9425SOL    HW129174   6.253   4.612   1.361
 9425SOL    HW229175   6.207   4.512   1.482
 9426SOL     OW29176   0.767   2.445   6.208
 9426SOL    HW129177   0.862   2.470   6.228
 9426SOL    HW229178   0.725   2.407   6.291
 9427SOL     OW29179   2.773   5.679   2.959
 9427SOL    HW129180   2.710   5.740   3.008
 9427SOL    HW229181   2.863   5.684   3.001
 9428SOL     OW29182   5.959   6.188   0.177
 9428SOL    HW129183   6.005   6.267   0.217
 9428SOL    HW229184   6.025   6.115   0.161
 9429SOL     OW29185   1.562   2.293   3.953
 9429SOL    HW129186   1.486   2.242   3.913
 9429SOL    HW229187   1.533   2.332   4.041
 9430SOL     OW29188   0.542   1.910   4.237
 9430SOL    HW129189   0.578   1.836   4.294
 9430SOL    HW229190   0.612   1.981   4.228
 9431SOL     OW29191   6.982   4.382   0.857
 9431SOL    HW129192   6.952   4.339   0.772
 9431SOL    HW229193   6.968   4.318   0.933
 9432SOL     OW29194   6.738   1.537   3.605
 9432SOL    HW129195   6.769   1.536   3.510
 9432SOL    HW229196   6.658   1.478   3.615
 9433SOL     OW29197   4.150   5.636   2.807
 9433SOL    HW129198   4.064   5.625   2.856
 9433SOL    HW229199   4.162   5.561   2.742
 9434SOL     OW29200   5.507   5.386   4.121
 9434SOL    HW129201   5.493   5.299   4.074
 9434SOL    HW229202   5.475   5.378   4.216
 9435SOL     OW29203   0.739   2.697   2.626
 9435SOL    HW129204   0.694   2.747   2.701
 9435SOL    HW229205   0.830   2.669   2.656
 9436SOL     OW29206   0.826   1.278   2.479
 9436SOL    HW129207   0.766   1.199   2.466
 9436SOL    HW229208   0.833   1.329   2.394
 9437SOL     OW29209   0.303   5.034   3.706
 9437SOL    HW129210   0.238   5.093   3.658
 9437SOL    HW229211   0.394   5.076   3.703
 9438SOL     OW29212   2.253   6.415   1.953
 9438SOL    HW129213   2.177   6.469   1.916
 9438SOL    HW229214   2.237   6.318   1.935
 9439SOL     OW29215   1.049   2.808   0.445
 9439SOL    HW129216   1.113   2.884   0.434
 9439SOL    HW229217   1.039   2.760   0.357
 9440SOL     OW29218   3.082   5.108   3.547
 9440SOL    HW129219   3.182   5.106   3.551
 9440SOL    HW229220   3.045   5.093   3.639
 9441SOL     OW29221   6.550   5.682   4.608
 9441SOL    HW129222   6.537   5.600   4.663
 9441SOL    HW229223   6.577   5.657   4.515
 9442SOL     OW29224   4.884   3.734   1.196
 9442SOL    HW129225   4.840   3.707   1.111
 9442SOL    HW229226   4.967   3.679   1.210
 9443SOL     OW29227   3.388   5.265   1.883
 9443SOL    HW129228   3.428   5.354   1.860
 9443SOL    HW229229   3.423   5.234   1.971
 9444SOL     OW29230   2.158   3.719   0.318
 9444SOL    HW129231   2.097   3.786   0.277
 9444SOL    HW229232   2.160   3.731   0.417
 9445SOL     OW29233   0.462   1.592   4.082
 9445SOL    HW129234   0.420   1.667   4.032
 9445SOL    HW229235   0.561   1.602   4.081
 9446SOL     OW29236   6.257   4.970   3.731
 9446SOL    HW129237   6.346   5.013   3.745
 9446SOL    HW229238   6.226   4.988   3.637
 9447SOL     OW29239   5.417   5.159   2.682
 9447SOL    HW129240   5.440   5.070   2.722
 9447SOL    HW229241   5.430   5.155   2.583
 9448SOL     OW29242   5.823   6.875   5.688
 9448SOL    HW129243   5.790   6.936   5.760
 9448SOL    HW229244   5.772   6.893   5.604
 9449SOL     OW29245   5.372   6.964   0.322
 9449SOL    HW129246   5.335   6.921   0.239
 9449SOL    HW229247   5.297   6.989   0.383
 9450SOL     OW29248   1.490   5.895   4.651
 9450SOL    HW129249   1.555   5.818   4.651
 9450SOL    HW229250   1.398   5.861   4.668
 9451SOL     OW29251   3.502   5.815   6.116
 9451SOL    HW129252   3.407   5.784   6.116
 9451SOL    HW229253   3.517   5.876   6.194
 9452SOL     OW29254   0.829   4.216   1.306
 9452SOL    HW129255   0.823   4.312   1.280
 9452SOL    HW229256   0.741   4.171   1.289
 9453SOL     OW29257   3.493   5.172   3.340
 9453SOL    HW129258   3.536   5.199   3.426
 9453SOL    HW229259   3.461   5.254   3.292
 9454SOL     OW29260   4.560   4.444   0.912
 9454SOL    HW129261   4.559   4.437   1.011
 9454SOL    HW229262   4.555   4.541   0.885
 9455SOL     OW29263   2.982   2.230   2.321
 9455SOL    HW129264   2.951   2.288   2.245
 9455SOL    HW229265   3.077   2.204   2.306
 9456SOL     OW29266   6.322   3.538   2.240
 9456SOL    HW129267   6.401   3.597   2.224
 9456SOL    HW229268   6.319   3.512   2.337
 9457SOL     OW29269   1.480   4.802   4.294
 9457SOL    HW129270   1.523   4.845   4.215
 9457SOL    HW229271   1.545   4.740   4.337
 9458SOL     OW29272   6.862   4.175   0.276
 9458SOL    HW129273   6.841   4.183   0.179
 9458SOL    HW229274   6.860   4.265   0.319
 9459SOL     OW29275   5.218   4.775   5.039
 9459SOL    HW129276   5.218   4.821   4.950
 9459SOL    HW229277   5.279   4.696   5.035
 9460SOL     OW29278   1.632   3.350   3.899
 9460SOL    HW129279   1.705   3.296   3.940
 9460SOL    HW229280   1.590   3.299   3.824
 9461SOL     OW29281   0.917   2.069   1.181
 9461SOL    HW129282   0.825   2.054   1.219
 9461SOL    HW229283   0.910   2.128   1.101
 9462SOL     OW29284   2.151   1.978   3.989
 9462SOL    HW129285   2.177   2.071   4.014
 9462SOL    HW229286   2.073   1.981   3.926
 9463SOL     OW29287   5.287   6.653   1.334
 9463SOL    HW129288   5.285   6.647   1.234
 9463SOL    HW229289   5.379   6.677   1.364
 9464SOL     OW29290   6.747   0.776   1.777
 9464SOL    HW129291   6.681   0.749   1.848
 9464SOL    HW229292   6.766   0.873   1.784
 9465SOL     OW29293   0.233   3.933   1.318
 9465SOL    HW129294   0.220   3.982   1.404
 9465SOL    HW229295   0.208   3.993   1.242
 9466SOL     OW29296   4.103   5.443   6.398
 9466SOL    HW129297   4.036   5.457   6.326
 9466SOL    HW229298   4.061   5.393   6.474
 9467SOL     OW29299   1.601   2.587   0.689
 9467SOL    HW129300   1.612   2.551   0.782
 9467SOL    HW229301   1.684   2.637   0.663
 9468SOL     OW29302   0.219   3.883   0.082
 9468SOL    HW129303   0.198   3.980   0.074
 9468SOL    HW229304   0.316   3.868   0.065
 9469SOL     OW29305   6.968   6.241   0.125
 9469SOL    HW129306   6.929   6.150   0.110
 9469SOL    HW229307   0.038   6.242   0.095
 9470SOL     OW29308   4.754   3.852   0.227
 9470SOL    HW129309   4.819   3.788   0.267
 9470SOL    HW229310   4.800   3.906   0.156
 9471SOL     OW29311   6.180   2.133   5.378
 9471SOL    HW129312   6.257   2.109   5.320
 9471SOL    HW229313   6.101   2.156   5.321
 9472SOL     OW29314   1.488   4.768   6.042
 9472SOL    HW129315   1.529   4.788   5.953
 9472SOL    HW229316   1.393   4.738   6.029
 9473SOL     OW29317   2.923   4.099   0.014
 9473SOL    HW129318   2.976   4.019   0.042
 9473SOL    HW229319   2.932   4.171   0.083
 9474SOL     OW29320   5.864   3.736   1.818
 9474SOL    HW129321   5.770   3.748   1.786
 9474SOL    HW229322   5.882   3.799   1.893
 9475SOL     OW29323   4.939   3.706   5.668
 9475SOL    HW129324   4.911   3.790   5.621
 9475SOL    HW229325   5.019   3.725   5.726
 9476SOL     OW29326   3.969   4.301   5.698
 9476SOL    HW129327   3.889   4.282   5.643
 9476SOL    HW229328   3.968   4.397   5.728
 9477SOL     OW29329   1.959   3.486   1.898
 9477SOL    HW129330   2.053   3.467   1.928
 9477SOL    HW229331   1.899   3.489   1.977
 9478SOL     OW29332   4.698   2.610   1.013
 9478SOL    HW129333   4.701   2.701   1.055
 9478SOL    HW229334   4.791   2.576   1.000
 9479SOL     OW29335   4.581   0.854   1.540
 9479SOL    HW129336   4.668   0.887   1.576
 9479SOL    HW229337   4.515   0.928   1.538
 9480SOL     OW29338   5.714   5.781   0.043
 9480SOL    HW129339   5.646   5.851   0.023
 9480SOL    HW229340   5.779   5.815   0.111
 9481SOL     OW29341   4.602   1.471   3.516
 9481SOL    HW129342   4.560   1.416   3.588
 9481SOL    HW229343   4.682   1.518   3.551
 9482SOL     OW29344   5.858   0.887   0.911
 9482SOL    HW129345   5.799   0.922   0.839
 9482SOL    HW229346   5.885   0.793   0.890
 9483SOL     OW29347   0.749   0.882   6.878
 9483SOL    HW129348   0.789   0.842   6.795
 9483SOL    HW229349   0.808   0.861   6.957
 9484SOL     OW29350   2.506   6.569   4.679
 9484SOL    HW129351   2.534   6.503   4.610
 9484SOL    HW229352   2.586   6.621   4.711
 9485SOL     OW29353   6.280   1.271   0.483
 9485SOL    HW129354   6.234   1.349   0.524
 9485SOL    HW229355   6.378   1.278   0.497
 9486SOL     OW29356   4.558   5.777   0.539
 9486SOL    HW129357   4.462   5.804   0.542
 9486SOL    HW229358   4.567   5.683   0.573
 9487SOL     OW29359   3.054   3.968   4.293
 9487SOL    HW129360   3.023   4.005   4.381
 9487SOL    HW229361   3.008   3.881   4.276
 9488SOL     OW29362   1.614   1.192   1.192
 9488SOL    HW129363   1.689   1.243   1.233
 9488SOL    HW229364   1.569   1.136   1.262
 9489SOL     OW29365   5.192   4.500   1.103
 9489SOL    HW129366   5.135   4.568   1.149
 9489SOL    HW229367   5.183   4.412   1.150
 9490SOL     OW29368   6.141   5.257   3.512
 9490SOL    HW129369   6.205   5.196   3.465
 9490SOL    HW229370   6.176   5.350   3.510
 9491SOL     OW29371   5.470   6.137   3.766
 9491SOL    HW129372   5.383   6.101   3.733
 9491SOL    HW229373   5.519   6.180   3.690
 9492SOL     OW29374   4.829   2.796   5.133
 9492SOL    HW129375   4.734   2.772   5.111
 9492SOL    HW229376   4.833   2.837   5.224
 9493SOL     OW29377   3.618   6.405   4.377
 9493SOL    HW129378   3.604   6.488   4.432
 9493SOL    HW229379   3.563   6.330   4.415
 9494SOL     OW29380   5.375   2.761   2.113
 9494SOL    HW129381   5.453   2.774   2.174
 9494SOL    HW229382   5.340   2.668   2.124
 9495SOL     OW29383   6.992   0.865   2.169
 9495SOL    HW129384   0.041   0.805   2.201
 9495SOL    HW229385   6.999   0.876   2.070
 9496SOL     OW29386   4.418   1.924   2.291
 9496SOL    HW129387   4.347   1.874   2.242
 9496SOL    HW229388   4.421   2.019   2.259
 9497SOL     OW29389   5.560   5.834   5.343
 9497SOL    HW129390   5.478   5.886   5.368
 9497SOL    HW229391   5.533   5.753   5.291
 9498SOL     OW29392   6.662   4.926   4.363
 9498SOL    HW129393   6.571   4.954   4.394
 9498SOL    HW229394   6.671   4.827   4.369
 9499SOL     OW29395   6.833   5.355   5.066
 9499SOL    HW129396   6.767   5.307   5.009
 9499SOL    HW229397   6.862   5.296   5.141
 9500SOL     OW29398   4.254   0.127   0.994
 9500SOL    HW129399   4.194   0.053   1.027
 9500SOL    HW229400   4.336   0.087   0.954
 9501SOL     OW29401   1.872   1.657   4.271
 9501SOL    HW129402   1.873   1.721   4.194
 9501SOL    HW229403   1.966   1.633   4.295
 9502SOL     OW29404   5.406   4.579   5.026
 9502SOL    HW129405   5.494   4.614   5.058
 9502SOL    HW229406   5.416   4.540   4.935
 9503SOL     OW29407   0.602   2.274   0.396
 9503SOL    HW129408   0.670   2.214   0.440
 9503SOL    HW229409   0.606   2.365   0.437
 9504SOL     OW29410   0.225   3.914   1.731
 9504SOL    HW129411   0.144   3.952   1.776
 9504SOL    HW229412   0.236   3.956   1.641
 9505SOL     OW29413   4.634   5.115   5.895
 9505SOL    HW129414   4.644   5.153   5.987
 9505SOL    HW229415   4.629   5.016   5.900
 9506SOL     OW29416   2.277   2.170   0.789
 9506SOL    HW129417   2.221   2.109   0.845
 9506SOL    HW229418   2.374   2.148   0.802
 9507SOL     OW29419   6.014   0.273   1.126
 9507SOL    HW129420   5.990   0.308   1.217
 9507SOL    HW229421   5.939   0.217   1.090
 9508SOL     OW29422   4.822   1.245   2.482
 9508SOL    HW129423   4.732   1.205   2.470
 9508SOL    HW229424   4.813   1.344   2.494
 9509SOL     OW29425   6.556   0.960   2.780
 9509SOL    HW129426   6.534   0.909   2.697
 9509SOL    HW229427   6.478   0.956   2.842
 9510SOL     OW29428   0.725   3.362   3.627
 9510SOL    HW129429   0.807   3.325   3.585
 9510SOL    HW229430   0.669   3.288   3.663
 9511SOL     OW29431   0.916   0.958   0.797
 9511SOL    HW129432   0.925   1.035   0.860
 9511SOL    HW229433   0.836   0.970   0.739
 9512SOL     OW29434   6.254   3.185   1.389
 9512SOL    HW129435   6.258   3.285   1.398
 9512SOL    HW229436   6.323   3.154   1.324
 9513SOL     OW29437   3.735   4.611   6.025
 9513SOL    HW129438   3.680   4.568   6.096
 9513SOL    HW229439   3.777   4.695   6.060
 9514SOL     OW29440   3.226   2.855   7.008
 9514SOL    HW129441   3.218   2.817   6.916
 9514SOL    HW229442   3.163   2.932   7.018
 9515SOL     OW29443   2.713   5.184   3.553
 9515SOL    HW129444   2.673   5.125   3.483
 9515SOL    HW229445   2.742   5.128   3.631
 9516SOL     OW29446   6.553   4.584   0.684
 9516SOL    HW129447   6.508   4.613   0.769
 9516SOL    HW229448   6.557   4.662   0.621
 9517SOL     OW29449   1.187   4.664   1.271
 9517SOL    HW129450   1.215   4.568   1.272
 9517SOL    HW229451   1.088   4.670   1.266
 9518SOL     OW29452   2.757   1.012   0.542
 9518SOL    HW129453   2.663   1.007   0.576
 9518SOL    HW229454   2.817   1.042   0.616
 9519SOL     OW29455   1.376   2.465   5.384
 9519SOL    HW129456   1.407   2.505   5.298
 9519SOL    HW229457   1.301   2.520   5.422
 9520SOL     OW29458   2.446   0.268   2.592
 9520SOL    HW129459   2.372   0.237   2.533
 9520SOL    HW229460   2.418   0.349   2.642
 9521SOL     OW29461   5.813   6.109   4.102
 9521SOL    HW129462   5.724   6.088   4.061
 9521SOL    HW229463   5.815   6.075   4.196
 9522SOL     OW29464   3.188   6.167   1.149
 9522SOL    HW129465   3.112   6.157   1.085
 9522SOL    HW229466   3.163   6.232   1.220
 9523SOL     OW29467   3.591   5.182   4.285
 9523SOL    HW129468   3.633   5.177   4.375
 9523SOL    HW229469   3.506   5.129   4.285
 9524SOL     OW29470   3.532   2.980   1.366
 9524SOL    HW129471   3.541   3.034   1.449
 9524SOL    HW229472   3.473   2.901   1.384
 9525SOL     OW29473   1.855   1.328   6.172
 9525SOL    HW129474   1.939   1.383   6.162
 9525SOL    HW229475   1.796   1.344   6.093
 9526SOL     OW29476   4.993   5.981   3.102
 9526SOL    HW129477   4.999   6.002   3.200
 9526SOL    HW229478   5.085   5.968   3.065
 9527SOL     OW29479   0.931   0.840   2.110
 9527SOL    HW129480   0.914   0.893   2.026
 9527SOL    HW229481   1.005   0.775   2.093
 9528SOL     OW29482   6.456   0.014   0.988
 9528SOL    HW129483   6.445   7.012   0.892
 9528SOL    HW229484   6.525   0.086   0.996
 9529SOL     OW29485   1.160   3.283   6.425
 9529SOL    HW129486   1.246   3.333   6.421
 9529SOL    HW229487   1.084   3.348   6.436
 9530SOL     OW29488   1.918   2.713   2.682
 9530SOL    HW129489   1.824   2.730   2.653
 9530SOL    HW229490   1.918   2.672   2.774
 9531SOL     OW29491   3.989   6.265   3.184
 9531SOL    HW129492   4.049   6.185   3.189
 9531SOL    HW229493   3.921   6.252   3.112
 9532SOL     OW29494   1.587   6.115   1.235
 9532SOL    HW129495   1.598   6.031   1.181
 9532SOL    HW229496   1.661   6.178   1.214
 9533SOL     OW29497   0.412   0.972   5.006
 9533SOL    HW129498   0.361   1.050   4.970
 9533SOL    HW229499   0.484   0.947   4.941
 9534SOL     OW29500   5.325   1.922   4.813
 9534SOL    HW129501   5.419   1.948   4.789
 9534SOL    HW229502   5.283   1.995   4.867
 9535SOL     OW29503   2.847   0.989   6.181
 9535SOL    HW129504   2.857   1.070   6.123
 9535SOL    HW229505   2.935   0.968   6.225
 9536SOL     OW29506   1.920   5.649   5.679
 9536SOL    HW129507   1.884   5.583   5.745
 9536SOL    HW229508   1.851   5.666   5.609
 9537SOL     OW29509   3.034   0.602   2.426
 9537SOL    HW129510   3.049   0.505   2.443
 9537SOL    HW229511   3.089   0.656   2.490
 9538SOL     OW29512   6.451   2.217   4.364
 9538SOL    HW129513   6.541   2.248   4.335
 9538SOL    HW229514   6.402   2.293   4.407
 9539SOL     OW29515   1.536   5.486   6.706
 9539SOL    HW129516   1.454   5.543   6.716
 9539SOL    HW229517   1.583   5.510   6.622
 9540SOL     OW29518   4.757   5.052   5.658
 9540SOL    HW129519   4.703   5.068   5.741
 9540SOL    HW229520   4.765   4.954   5.642
 9541SOL     OW29521   1.585   2.649   4.576
 9541SOL    HW129522   1.681   2.678   4.579
 9541SOL    HW229523   1.530   2.712   4.631
 9542SOL     OW29524   4.874   3.129   4.734
 9542SOL    HW129525   4.892   3.153   4.830
 9542SOL    HW229526   4.878   3.212   4.678
 9543SOL     OW29527   4.527   1.112   3.887
 9543SOL    HW129528   4.611   1.058   3.895
 9543SOL    HW229529   4.496   1.139   3.979
 9544SOL     OW29530   5.770   0.321   2.082
 9544SOL    HW129531   5.770   0.320   2.182
 9544SOL    HW229532   5.685   0.280   2.049
 9545SOL     OW29533   6.592   0.061   3.454
 9545SOL    HW129534   6.548   0.048   3.543
 9545SOL    HW229535   6.637   7.000   3.427
 9546SOL     OW29536   2.955   4.948   6.835
 9546SOL    HW129537   3.024   4.935   6.764
 9546SOL    HW229538   2.971   5.035   6.881
 9547SOL     OW29539   1.316   6.362   4.507
 9547SOL    HW129540   1.242   6.327   4.450
 9547SOL    HW229541   1.283   6.372   4.601
 9548SOL     OW29542   6.016   5.620   4.733
 9548SOL    HW129543   6.010   5.587   4.639
 9548SOL    HW229544   6.080   5.698   4.737
 9549SOL     OW29545   3.481   5.180   0.521
 9549SOL    HW129546   3.553   5.220   0.465
 9549SOL    HW229547   3.467   5.085   0.495
 9550SOL     OW29548   0.638   1.462   0.434
 9550SOL    HW129549   0.595   1.465   0.345
 9550SOL    HW229550   0.666   1.554   0.461
 9551SOL     OW29551   0.476   0.312   4.665
 9551SOL    HW129552   0.442   0.332   4.573
 9551SOL    HW229553   0.425   0.366   4.732
 9552SOL     OW29554   1.514   6.554   3.542
 9552SOL    HW129555   1.558   6.593   3.461
 9552SOL    HW229556   1.584   6.532   3.611
 9553SOL     OW29557   5.721   4.815   6.482
 9553SOL    HW129558   5.711   4.912   6.506
 9553SOL    HW229559   5.639   4.784   6.433
 9554SOL     OW29560   2.237   0.943   2.213
 9554SOL    HW129561   2.155   0.995   2.188
 9554SOL    HW229562   2.250   0.948   2.312
 9555SOL     OW29563   6.428   2.468   0.878
 9555SOL    HW129564   6.461   2.550   0.830
 9555SOL    HW229565   6.485   2.390   0.853
 9556SOL     OW29566   2.217   1.195   0.975
 9556SOL    HW129567   2.179   1.146   1.054
 9556SOL    HW229568   2.147   1.206   0.905
 9557SOL     OW29569   6.075   0.534   2.096
 9557SOL    HW129570   6.068   0.450   2.150
 9557SOL    HW229571   6.092   0.611   2.157
 9558SOL     OW29572   6.723   5.041   2.870
 9558SOL    HW129573   6.659   4.969   2.844
 9558SOL    HW229574   6.815   5.016   2.838
 9559SOL     OW29575   6.893   3.585   2.367
 9559SOL    HW129576   6.963   3.535   2.417
 9559SOL    HW229577   6.858   3.528   2.293
 9560SOL     OW29578   2.662   1.221   3.298
 9560SOL    HW129579   2.612   1.139   3.325
 9560SOL    HW229580   2.760   1.200   3.293
 9561SOL     OW29581   3.480   6.502   1.030
 9561SOL    HW129582   3.404   6.504   1.095
 9561SOL    HW229583   3.487   6.590   0.984
 9562SOL     OW29584   4.686   5.550   2.375
 9562SOL    HW129585   4.758   5.529   2.441
 9562SOL    HW229586   4.621   5.614   2.415
 9563SOL     OW29587   6.998   5.765   6.135
 9563SOL    HW129588   7.004   5.797   6.040
 9563SOL    HW229589   0.014   5.674   6.142
 9564SOL     OW29590   3.084   6.796   6.812
 9564SOL    HW129591   3.010   6.746   6.767
 9564SOL    HW229592   3.170   6.748   6.799
 9565SOL     OW29593   3.831   6.658   4.386
 9565SOL    HW129594   3.811   6.661   4.288
 9565SOL    HW229595   3.840   6.563   4.415
 9566SOL     OW29596   2.999   4.598   5.868
 9566SOL    HW129597   2.949   4.601   5.954
 9566SOL    HW229598   2.961   4.525   5.810
 9567SOL     OW29599   6.601   5.873   6.831
 9567SOL    HW129600   6.559   5.785   6.810
 9567SOL    HW229601   6.681   5.859   6.889
 9568SOL     OW29602   5.215   3.745   6.792
 9568SOL    HW129603   5.283   3.818   6.786
 9568SOL    HW229604   5.125   3.785   6.810
 9569SOL     OW29605   6.706   0.664   0.142
 9569SOL    HW129606   6.646   0.734   0.105
 9569SOL    HW229607   6.694   0.579   0.090
 9570SOL     OW29608   0.283   1.535   0.316
 9570SOL    HW129609   0.252   1.630   0.320
 9570SOL    HW229610   0.290   1.499   0.409
 9571SOL     OW29611   1.935   3.115   0.064
 9571SOL    HW129612   2.017   3.131   0.009
 9571SOL    HW229613   1.866   3.068   0.008
 9572SOL     OW29614   1.458   4.395   2.007
 9572SOL    HW129615   1.529   4.465   2.010
 9572SOL    HW229616   1.369   4.437   1.988
 9573SOL     OW29617   1.651   1.168   0.118
 9573SOL    HW129618   1.729   1.144   0.060
 9573SOL    HW229619   1.583   1.216   0.063
 9574SOL     OW29620   3.638   3.228   5.779
 9574SOL    HW129621   3.702   3.154   5.759
 9574SOL    HW229622   3.544   3.195   5.769
 9575SOL     OW29623   5.137   0.803   2.160
 9575SOL    HW129624   5.093   0.891   2.174
 9575SOL    HW229625   5.119   0.771   2.067
 9576SOL     OW29626   3.497   1.423   4.719
 9576SOL    HW129627   3.557   1.366   4.775
 9576SOL    HW229628   3.526   1.519   4.725
 9577SOL     OW29629   0.788   6.001   2.610
 9577SOL    HW129630   0.860   6.060   2.648
 9577SOL    HW229631   0.701   6.022   2.656
 9578SOL     OW29632   6.400   2.999   1.998
 9578SOL    HW129633   6.342   2.963   1.925
 9578SOL    HW229634   6.429   3.092   1.975
 9579SOL     OW29635   1.434   0.059   2.519
 9579SOL    HW129636   1.435   7.007   2.454
 9579SOL    HW229637   1.482   0.137   2.479
 9580SOL     OW29638   4.348   3.902   0.093
 9580SOL    HW129639   4.366   3.954   0.176
 9580SOL    HW229640   4.417   3.923   0.024
 9581SOL     OW29641   1.041   4.800   6.152
 9581SOL    HW129642   1.063   4.835   6.062
 9581SOL    HW229643   1.005   4.873   6.210
 9582SOL     OW29644   4.342   4.880   4.384
 9582SOL    HW129645   4.419   4.817   4.373
 9582SOL    HW229646   4.276   4.865   4.311
 9583SOL     OW29647   2.113   3.501   2.295
 9583SOL    HW129648   2.077   3.591   2.321
 9583SOL    HW229649   2.160   3.507   2.207
 9584SOL     OW29650   6.088   5.628   0.154
 9584SOL    HW129651   6.083   5.560   0.080
 9584SOL    HW229652   6.069   5.583   0.241
 9585SOL     OW29653   6.080   0.071   3.103
 9585SOL    HW129654   6.141   0.093   3.027
 9585SOL    HW229655   6.127   0.011   3.167
 9586SOL     OW29656   5.108   3.273   3.181
 9586SOL    HW129657   5.191   3.223   3.156
 9586SOL    HW229658   5.100   3.356   3.126
 9587SOL     OW29659   5.467   0.499   2.079
 9587SOL    HW129660   5.439   0.583   2.124
 9587SOL    HW229661   5.449   0.505   1.981
 9588SOL     OW29662   0.227   0.555   1.327
 9588SOL    HW129663   0.258   0.526   1.236
 9588SOL    HW229664   0.209   0.474   1.383
 9589SOL     OW29665   2.646   0.608   6.151
 9589SOL    HW129666   2.623   0.700   6.180
 9589SOL    HW229667   2.741   0.588   6.175
 9590SOL     OW29668   6.699   4.137   3.361
 9590SOL    HW129669   6.799   4.138   3.357
 9590SOL    HW229670   6.663   4.099   3.275
 9591SOL     OW29671   2.045   5.377   1.037
 9591SOL    HW129672   2.009   5.349   1.126
 9591SOL    HW229673   2.113   5.310   1.006
 9592SOL     OW29674   4.302   5.640   2.197
 9592SOL    HW129675   4.204   5.650   2.180
 9592SOL    HW229676   4.350   5.722   2.168
 9593SOL     OW29677   6.943   2.673   4.237
 9593SOL    HW129678   6.849   2.650   4.262
 9593SOL    HW229679   6.954   2.665   4.138
 9594SOL     OW29680   6.467   6.666   2.508
 9594SOL    HW129681   6.533   6.595   2.484
 9594SOL    HW229682   6.444   6.658   2.605
 9595SOL     OW29683   2.037   5.882   4.636
 9595SOL    HW129684   2.125   5.911   4.599
 9595SOL    HW229685   2.051   5.805   4.699
 9596SOL     OW29686   5.937   5.765   5.462
 9596SOL    HW129687   5.859   5.722   5.508
 9596SOL    HW229688   5.951   5.720   5.373
 9597SOL     OW29689   1.570   4.174   1.797
 9597SOL    HW129690   1.495   4.200   1.859
 9597SOL    HW229691   1.650   4.147   1.851
 9598SOL     OW29692   0.316   5.273   5.996
 9598SOL    HW129693   0.220   5.302   5.999
 9598SOL    HW229694   0.373   5.341   6.042
 9599SOL     OW29695   4.325   1.334   5.557
 9599SOL    HW129696   4.377   1.384   5.626
 9599SOL    HW229697   4.370   1.343   5.468
 9600SOL     OW29698   1.516   6.957   6.028
 9600SOL    HW129699   1.521   6.866   6.068
 9600SOL    HW229700   1.436   6.964   5.969
 9601SOL     OW29701   0.517   4.983   5.640
 9601SOL    HW129702   0.522   4.996   5.739
 9601SOL    HW229703   0.520   5.073   5.595
 9602SOL     OW29704   0.861   5.718   6.560
 9602SOL    HW129705   0.782   5.769   6.595
 9602SOL    HW229706   0.945   5.770   6.578
 9603SOL     OW29707   1.934   6.253   4.739
 9603SOL    HW129708   1.891   6.320   4.799
 9603SOL    HW229709   1.865   6.191   4.703
 9604SOL     OW29710   5.874   1.795   6.690
 9604SOL    HW129711   5.886   1.846   6.775
 9604SOL    HW229712   5.940   1.827   6.622
 9605SOL     OW29713   1.954   5.980   6.498
 9605SOL    HW129714   2.038   5.993   6.446
 9605SOL    HW229715   1.904   5.901   6.462
 9606SOL     OW29716   0.470   6.894   3.780
 9606SOL    HW129717   0.436   6.805   3.751
 9606SOL    HW229718   0.426   6.920   3.867
 9607SOL     OW29719   1.353   1.602   2.127
 9607SOL    HW129720   1.451   1.583   2.117
 9607SOL    HW229721   1.339   1.673   2.196
 9608SOL     OW29722   0.524   6.888   2.433
 9608SOL    HW129723   0.532   6.955   2.507
 9608SOL    HW229724   0.532   6.935   2.345
 9609SOL     OW29725   2.077   4.726   4.471
 9609SOL    HW129726   2.085   4.664   4.393
 9609SOL    HW229727   2.156   4.712   4.532
 9610SOL     OW29728   2.072   1.847   6.140
 9610SOL    HW129729   2.162   1.812   6.115
 9610SOL    HW229730   2.002   1.779   6.115
 9611SOL     OW29731   6.041   7.013   0.892
 9611SOL    HW129732   6.094   0.074   0.891
 9611SOL    HW229733   5.953   0.005   0.936
 9612SOL     OW29734   6.004   3.104   1.953
 9612SOL    HW129735   6.025   3.116   1.856
 9612SOL    HW229736   6.020   3.190   2.002
 9613SOL     OW29737   6.544   6.721   4.895
 9613SOL    HW129738   6.642   6.701   4.901
 9613SOL    HW229739   6.493   6.635   4.896
 9614SOL     OW29740   3.568   3.783   2.182
 9614SOL    HW129741   3.501   3.838   2.233
 9614SOL    HW229742   3.586   3.699   2.232
 9615SOL     OW29743   1.418   6.016   2.753
 9615SOL    HW129744   1.400   6.098   2.808
 9615SOL    HW229745   1.357   6.016   2.674
 9616SOL     OW29746   3.871   2.700   1.078
 9616SOL    HW129747   3.841   2.775   1.019
 9616SOL    HW229748   3.929   2.637   1.025
 9617SOL     OW29749   1.272   2.977   3.851
 9617SOL    HW129750   1.212   2.917   3.904
 9617SOL    HW229751   1.352   2.926   3.821
 9618SOL     OW29752   3.273   6.019   6.694
 9618SOL    HW129753   3.336   5.946   6.668
 9618SOL    HW229754   3.264   6.084   6.619
 9619SOL     OW29755   3.140   6.405   0.972
 9619SOL    HW129756   3.042   6.424   0.978
 9619SOL    HW229757   3.179   6.402   1.065
 9620SOL     OW29758   3.430   1.637   6.560
 9620SOL    HW129759   3.443   1.545   6.523
 9620SOL    HW229760   3.379   1.692   6.493
 9621SOL     OW29761   0.229   0.659   1.668
 9621SOL    HW129762   0.307   0.720   1.665
 9621SOL    HW229763   0.176   0.668   1.583
 9622SOL     OW29764   5.828   0.497   6.268
 9622SOL    HW129765   5.888   0.556   6.322
 9622SOL    HW229766   5.826   0.405   6.308
 9623SOL     OW29767   4.718   6.363   6.330
 9623SOL    HW129768   4.818   6.365   6.329
 9623SOL    HW229769   4.683   6.453   6.357
 9624SOL     OW29770   4.493   5.183   4.969
 9624SOL    HW129771   4.416   5.183   4.905
 9624SOL    HW229772   4.555   5.108   4.946
 9625SOL     OW29773   5.188   4.305   6.382
 9625SOL    HW129774   5.125   4.369   6.427
 9625SOL    HW229775   5.240   4.255   6.451
 9626SOL     OW29776   2.020   4.134   6.029
 9626SOL    HW129777   1.988   4.199   5.961
 9626SOL    HW229778   1.982   4.043   6.010
 9627SOL     OW29779   0.614   5.202   6.797
 9627SOL    HW129780   0.527   5.156   6.815
 9627SOL    HW229781   0.596   5.295   6.766
 9628SOL     OW29782   6.005   3.502   0.117
 9628SOL    HW129783   5.952   3.587   0.120
 9628SOL    HW229784   6.002   3.457   0.207
 9629SOL     OW29785   7.023   5.669   3.016
 9629SOL    HW129786   0.093   5.702   3.025
 9629SOL    HW229787   7.020   5.571   3.038
 9630SOL     OW29788   6.537   5.802   5.846
 9630SOL    HW129789   6.630   5.818   5.877
 9630SOL    HW229790   6.522   5.704   5.833
 9631SOL     OW29791   4.284   1.384   0.845
 9631SOL    HW129792   4.381   1.357   0.839
 9631SOL    HW229793   4.276   1.464   0.904
 9632SOL     OW29794   3.419   6.410   1.290
 9632SOL    HW129795   3.516   6.423   1.312
 9632SOL    HW229796   3.376   6.500   1.279
 9633SOL     OW29797   4.056   3.177   2.522
 9633SOL    HW129798   4.079   3.093   2.571
 9633SOL    HW229799   4.058   3.254   2.585
 9634SOL     OW29800   5.253   4.536   2.399
 9634SOL    HW129801   5.173   4.476   2.410
 9634SOL    HW229802   5.302   4.542   2.486
 9635SOL     OW29803   1.175   3.642   3.683
 9635SOL    HW129804   1.083   3.671   3.709
 9635SOL    HW229805   1.230   3.722   3.659
 9636SOL     OW29806   4.246   2.311   4.571
 9636SOL    HW129807   4.313   2.345   4.506
 9636SOL    HW229808   4.245   2.211   4.567
 9637SOL     OW29809   2.326   2.979   0.594
 9637SOL    HW129810   2.378   2.970   0.510
 9637SOL    HW229811   2.386   3.007   0.668
 9638SOL     OW29812   6.870   4.579   5.422
 9638SOL    HW129813   6.945   4.638   5.390
 9638SOL    HW229814   6.883   4.487   5.384
 9639SOL     OW29815   4.448   1.521   1.559
 9639SOL    HW129816   4.507   1.591   1.519
 9639SOL    HW229817   4.417   1.550   1.649
 9640SOL     OW29818   3.446   0.661   2.267
 9640SOL    HW129819   3.370   0.700   2.318
 9640SOL    HW229820   3.533   0.691   2.307
 9641SOL     OW29821   6.085   4.121   2.811
 9641SOL    HW129822   6.013   4.131   2.743
 9641SOL    HW229823   6.119   4.027   2.811
 9642SOL     OW29824   2.080   0.512   3.415
 9642SOL    HW129825   2.087   0.610   3.394
 9642SOL    HW229826   2.085   0.460   3.331
 9643SOL     OW29827   5.262   4.362   4.269
 9643SOL    HW129828   5.202   4.283   4.281
 9643SOL    HW229829   5.213   4.433   4.219
 9644SOL     OW29830   1.507   5.524   5.094
 9644SOL    HW129831   1.449   5.509   5.174
 9644SOL    HW229832   1.584   5.460   5.097
 9645SOL     OW29833   1.428   5.700   6.314
 9645SOL    HW129834   1.435   5.722   6.217
 9645SOL    HW229835   1.469   5.611   6.331
 9646SOL     OW29836   3.385   6.615   5.858
 9646SOL    HW129837   3.352   6.709   5.868
 9646SOL    HW229838   3.446   6.610   5.779
 9647SOL     OW29839   6.089   6.024   3.412
 9647SOL    HW129840   5.995   5.999   3.434
 9647SOL    HW229841   6.088   6.104   3.351
 9648SOL     OW29842   4.772   2.279   1.036
 9648SOL    HW129843   4.798   2.237   1.122
 9648SOL    HW229844   4.802   2.375   1.035
 9649SOL     OW29845   2.616   3.359   0.744
 9649SOL    HW129846   2.694   3.362   0.681
 9649SOL    HW229847   2.580   3.451   0.757
 9650SOL     OW29848   0.046   4.763   4.360
 9650SOL    HW129849   0.125   4.719   4.405
 9650SOL    HW229850   0.079   4.831   4.295
 9651SOL     OW29851   2.936   1.502   0.310
 9651SOL    HW129852   2.936   1.419   0.254
 9651SOL    HW229853   2.937   1.477   0.407
 9652SOL     OW29854   6.928   3.805   0.837
 9652SOL    HW129855   0.003   3.795   0.841
 9652SOL    HW229856   6.886   3.754   0.912
 9653SOL     OW29857   4.616   3.852   6.059
 9653SOL    HW129858   4.547   3.810   6.119
 9653SOL    HW229859   4.572   3.918   5.998
 9654SOL     OW29860   3.255   3.360   3.993
 9654SOL    HW129861   3.352   3.361   4.017
 9654SOL    HW229862   3.202   3.407   4.064
 9655SOL     OW29863   5.409   0.718   2.220
 9655SOL    HW129864   5.324   0.764   2.196
 9655SOL    HW229865   5.481   0.785   2.233
 9656SOL     OW29866   5.351   3.955   1.210
 9656SOL    HW129867   5.384   4.023   1.276
 9656SOL    HW229868   5.305   4.001   1.134
 9657SOL     OW29869   6.026   3.694   3.144
 9657SOL    HW129870   5.971   3.629   3.092
 9657SOL    HW229871   6.022   3.672   3.241
 9658SOL     OW29872   4.935   1.394   2.727
 9658SOL    HW129873   4.900   1.380   2.634
 9658SOL    HW229874   4.956   1.305   2.768
 9659SOL     OW29875   2.917   2.698   1.193
 9659SOL    HW129876   2.863   2.673   1.274
 9659SOL    HW229877   2.964   2.617   1.159
 9660SOL     OW29878   1.155   5.665   0.868
 9660SOL    HW129879   1.232   5.621   0.915
 9660SOL    HW229880   1.070   5.616   0.889
 9661SOL     OW29881   5.045   4.980   1.246
 9661SOL    HW129882   5.029   5.037   1.165
 9661SOL    HW229883   4.962   4.976   1.301
 9662SOL     OW29884   5.332   4.111   6.994
 9662SOL    HW129885   5.308   4.189   6.936
 9662SOL    HW229886   5.312   4.134   0.065
 9663SOL     OW29887   0.728   4.145   3.330
 9663SOL    HW129888   0.815   4.180   3.365
 9663SOL    HW229889   0.683   4.216   3.276
 9664SOL     OW29890   5.619   4.090   3.370
 9664SOL    HW129891   5.571   4.034   3.303
 9664SOL    HW229892   5.553   4.145   3.421
 9665SOL     OW29893   5.940   6.316   6.443
 9665SOL    HW129894   5.943   6.229   6.392
 9665SOL    HW229895   5.930   6.297   6.540
 9666SOL     OW29896   6.041   4.432   1.198
 9666SOL    HW129897   6.079   4.486   1.273
 9666SOL    HW229898   6.106   4.360   1.173
 9667SOL     OW29899   4.850   5.509   1.122
 9667SOL    HW129900   4.755   5.486   1.104
 9667SOL    HW229901   4.855   5.585   1.186
 9668SOL     OW29902   0.849   6.131   6.002
 9668SOL    HW129903   0.771   6.070   6.018
 9668SOL    HW229904   0.922   6.081   5.955
 9669SOL     OW29905   3.135   6.759   0.367
 9669SOL    HW129906   3.050   6.710   0.347
 9669SOL    HW229907   3.132   6.849   0.322
 9670SOL     OW29908   0.156   0.180   6.121
 9670SOL    HW129909   0.169   0.125   6.039
 9670SOL    HW229910   0.241   0.227   6.144
 9671SOL     OW29911   1.074   4.750   6.665
 9671SOL    HW129912   1.047   4.831   6.717
 9671SOL    HW229913   1.128   4.689   6.723
 9672SOL     OW29914   0.787   4.461   4.038
 9672SOL    HW129915   0.861   4.506   4.088
 9672SOL    HW229916   0.770   4.371   4.077
 9673SOL     OW29917   2.687   3.962   1.125
 9673SOL    HW129918   2.622   3.892   1.096
 9673SOL    HW229919   2.780   3.929   1.110
 9674SOL     OW29920   3.300   6.235   2.933
 9674SOL    HW129921   3.391   6.228   2.892
 9674SOL    HW229922   3.245   6.156   2.907
 9675SOL     OW29923   4.790   3.991   1.496
 9675SOL    HW129924   4.778   3.966   1.400
 9675SOL    HW229925   4.705   3.974   1.546
 9676SOL     OW29926   1.529   3.068   5.647
 9676SOL    HW129927   1.470   3.003   5.694
 9676SOL    HW229928   1.486   3.096   5.561
 9677SOL     OW29929   6.224   4.767   0.496
 9677SOL    HW129930   6.279   4.732   0.420
 9677SOL    HW229931   6.192   4.690   0.551
 9678SOL     OW29932   3.203   4.038   4.937
 9678SOL    HW129933   3.125   3.979   4.917
 9678SOL    HW229934   3.255   4.054   4.853
 9679SOL     OW29935   2.038   1.580   4.780
 9679SOL    HW129936   1.947   1.540   4.774
 9679SOL    HW229937   2.062   1.623   4.692
 9680SOL     OW29938   4.728   6.449   3.111
 9680SOL    HW129939   4.803   6.387   3.088
 9680SOL    HW229940   4.760   6.544   3.107
 9681SOL     OW29941   2.034   0.663   1.222
 9681SOL    HW129942   2.009   0.711   1.138
 9681SOL    HW229943   2.128   0.683   1.247
 9682SOL     OW29944   5.622   5.777   4.395
 9682SOL    HW129945   5.602   5.791   4.492
 9682SOL    HW229946   5.717   5.803   4.376
 9683SOL     OW29947   1.969   6.883   0.785
 9683SOL    HW129948   2.059   6.858   0.822
 9683SOL    HW229949   1.898   6.849   0.846
 9684SOL     OW29950   1.626   4.349   5.314
 9684SOL    HW129951   1.575   4.337   5.399
 9684SOL    HW229952   1.719   4.313   5.325
 9685SOL     OW29953   4.386   3.695   0.497
 9685SOL    HW129954   4.407   3.600   0.523
 9685SOL    HW229955   4.348   3.697   0.404
 9686SOL     OW29956   6.021   2.255   5.896
 9686SOL    HW129957   5.981   2.295   5.814
 9686SOL    HW229958   6.119   2.275   5.899
 9687SOL     OW29959   6.319   0.188   2.388
 9687SOL    HW129960   6.292   0.227   2.476
 9687SOL    HW229961   6.254   0.116   2.362
 9688SOL     OW29962   1.907   4.707   1.462
 9688SOL    HW129963   1.889   4.702   1.364
 9688SOL    HW229964   1.902   4.803   1.492
 9689SOL     OW29965   1.188   6.213   6.749
 9689SOL    HW129966   1.215   6.118   6.765
 9689SOL    HW229967   1.253   6.274   6.794
 9690SOL     OW29968   5.621   5.658   5.084
 9690SOL    HW129969   5.663   5.660   4.993
 9690SOL    HW229970   5.527   5.692   5.077
 9691SOL     OW29971   2.995   3.806   1.929
 9691SOL    HW129972   3.085   3.849   1.935
 9691SOL    HW229973   2.933   3.865   1.876
 9692SOL     OW29974   4.503   5.020   0.324
 9692SOL    HW129975   4.411   5.057   0.307
 9692SOL    HW229976   4.496   4.937   0.378
 9693SOL     OW29977   6.008   3.865   3.913
 9693SOL    HW129978   6.058   3.780   3.927
 9693SOL    HW229979   5.974   3.868   3.819
 9694SOL     OW29980   2.868   6.892   1.842
 9694SOL    HW129981   2.883   6.983   1.804
 9694SOL    HW229982   2.789   6.850   1.797
 9695SOL     OW29983   0.059   3.887   3.925
 9695SOL    HW129984   0.009   3.843   4.000
 9695SOL    HW229985   7.017   3.925   3.860
 9696SOL     OW29986   5.916   2.230   3.063
 9696SOL    HW129987   5.881   2.139   3.043
 9696SOL    HW229988   5.840   2.292   3.083
 9697SOL     OW29989   6.991   5.653   0.165
 9697SOL    HW129990   6.974   5.707   0.248
 9697SOL    HW229991   0.053   5.605   0.175
 9698SOL     OW29992   5.206   3.615   0.567
 9698SOL    HW129993   5.180   3.539   0.507
 9698SOL    HW229994   5.292   3.593   0.612
 9699SOL     OW29995   1.288   4.927   0.203
 9699SOL    HW129996   1.366   4.956   0.148
 9699SOL    HW229997   1.241   5.008   0.239
 9700SOL     OW29998   5.969   6.726   3.967
 9700SOL    HW129999   5.903   6.801   3.961
 9700SOL    HW230000   6.060   6.764   3.983
 9701SOL     OW30001   4.999   2.879   6.717
 9701SOL    HW130002   5.035   2.810   6.779
 9701SOL    HW230003   5.075   2.923   6.668
 9702SOL     OW30004   3.530   2.951   0.586
 9702SOL    HW130005   3.571   2.996   0.665
 9702SOL    HW230006   3.433   2.974   0.581
 9703SOL     OW30007   6.126   4.196   5.123
 9703SOL    HW130008   6.160   4.285   5.155
 9703SOL    HW230009   6.135   4.129   5.197
 9704SOL     OW30010   3.007   4.818   2.649
 9704SOL    HW130011   3.097   4.853   2.624
 9704SOL    HW230012   2.953   4.802   2.566
 9705SOL     OW30013   6.010   4.532   5.635
 9705SOL    HW130014   5.993   4.501   5.542
 9705SOL    HW230015   5.923   4.555   5.679
 9706SOL     OW30016   1.177   1.414   1.815
 9706SOL    HW130017   1.142   1.352   1.744
 9706SOL    HW230018   1.168   1.508   1.784
 9707SOL     OW30019   6.303   4.743   2.376
 9707SOL    HW130020   6.219   4.796   2.386
 9707SOL    HW230021   6.282   4.646   2.383
 9708SOL     OW30022   1.330   0.728   2.505
 9708SOL    HW130023   1.422   0.756   2.532
 9708SOL    HW230024   1.274   0.714   2.587
 9709SOL     OW30025   5.986   3.122   2.576
 9709SOL    HW130026   6.014   3.033   2.539
 9709SOL    HW230027   6.062   3.164   2.625
 9710SOL     OW30028   6.045   6.400   5.967
 9710SOL    HW130029   6.025   6.425   5.873
 9710SOL    HW230030   5.971   6.344   6.004
 9711SOL     OW30031   4.087   5.960   6.943
 9711SOL    HW130032   4.164   5.902   6.970
 9711SOL    HW230033   4.115   6.019   6.868
 9712SOL     OW30034   5.990   3.078   0.896
 9712SOL    HW130035   6.018   3.171   0.919
 9712SOL    HW230036   5.993   3.021   0.978
 9713SOL     OW30037   1.777   6.013   3.601
 9713SOL    HW130038   1.695   5.988   3.653
 9713SOL    HW230039   1.802   6.107   3.623
 9714SOL     OW30040   4.081   5.335   4.649
 9714SOL    HW130041   4.099   5.275   4.571
 9714SOL    HW230042   4.008   5.400   4.626
 9715SOL     OW30043   6.051   4.719   1.167
 9715SOL    HW130044   6.143   4.716   1.207
 9715SOL    HW230045   5.995   4.647   1.207
 9716SOL     OW30046   3.938   4.087   6.764
 9716SOL    HW130047   3.850   4.041   6.769
 9716SOL    HW230048   4.000   4.049   6.833
 9717SOL     OW30049   4.491   0.619   6.017
 9717SOL    HW130050   4.394   0.610   6.040
 9717SOL    HW230051   4.518   0.543   5.957
 9718SOL     OW30052   3.407   1.915   0.361
 9718SOL    HW130053   3.475   1.894   0.432
 9718SOL    HW230054   3.328   1.960   0.404
 9719SOL     OW30055   4.771   6.339   4.777
 9719SOL    HW130056   4.717   6.315   4.696
 9719SOL    HW230057   4.788   6.438   4.778
 9720SOL     OW30058   1.844   4.004   3.194
 9720SOL    HW130059   1.898   3.942   3.138
 9720SOL    HW230060   1.829   3.964   3.284
 9721SOL     OW30061   0.967   1.735   0.430
 9721SOL    HW130062   0.871   1.739   0.461
 9721SOL    HW230063   0.985   1.814   0.371
 9722SOL     OW30064   3.818   2.576   5.349
 9722SOL    HW130065   3.819   2.675   5.335
 9722SOL    HW230066   3.726   2.540   5.333
 9723SOL     OW30067   6.196   4.415   4.767
 9723SOL    HW130068   6.114   4.472   4.756
 9723SOL    HW230069   6.265   4.443   4.700
 9724SOL     OW30070   1.457   5.513   6.963
 9724SOL    HW130071   1.460   5.613   6.969
 9724SOL    HW230072   1.483   5.484   6.870
 9725SOL     OW30073   3.711   5.454   5.752
 9725SOL    HW130074   3.673   5.375   5.706
 9725SOL    HW230075   3.658   5.473   5.835
 9726SOL     OW30076   5.805   0.632   4.167
 9726SOL    HW130077   5.736   0.564   4.142
 9726SOL    HW230078   5.790   0.716   4.115
 9727SOL     OW30079   0.507   2.372   6.814
 9727SOL    HW130080   0.597   2.407   6.842
 9727SOL    HW230081   0.439   2.396   6.883
 9728SOL     OW30082   5.633   0.767   6.040
 9728SOL    HW130083   5.692   0.779   5.960
 9728SOL    HW230084   5.642   0.673   6.074
 9729SOL     OW30085   0.696   3.794   3.373
 9729SOL    HW130086   0.599   3.790   3.394
 9729SOL    HW230087   0.709   3.845   3.288
 9730SOL     OW30088   0.504   4.347   3.319
 9730SOL    HW130089   0.465   4.259   3.344
 9730SOL    HW230090   0.533   4.396   3.401
 9731SOL     OW30091   5.115   3.443   2.696
 9731SOL    HW130092   5.088   3.372   2.631
 9731SOL    HW230093   5.214   3.455   2.693
 9732SOL     OW30094   1.511   2.847   2.216
 9732SOL    HW130095   1.546   2.911   2.148
 9732SOL    HW230096   1.548   2.756   2.199
 9733SOL     OW30097   6.339   5.600   2.957
 9733SOL    HW130098   6.265   5.619   2.893
 9733SOL    HW230099   6.306   5.542   3.031
 9734SOL     OW30100   6.197   6.431   6.573
 9734SOL    HW130101   6.102   6.443   6.547
 9734SOL    HW230102   6.249   6.397   6.494
 9735SOL     OW30103   1.401   1.609   3.117
 9735SOL    HW130104   1.486   1.650   3.153
 9735SOL    HW230105   1.424   1.532   3.058
 9736SOL     OW30106   4.748   1.913   5.105
 9736SOL    HW130107   4.845   1.936   5.103
 9736SOL    HW230108   4.712   1.913   5.011
 9737SOL     OW30109   5.987   1.932   2.322
 9737SOL    HW130110   5.888   1.941   2.330
 9737SOL    HW230111   6.017   1.844   2.358
 9738SOL     OW30112   2.270   5.995   0.692
 9738SOL    HW130113   2.347   5.988   0.755
 9738SOL    HW230114   2.189   5.954   0.733
 9739SOL     OW30115   4.577   7.022   6.969
 9739SOL    HW130116   4.652   0.004   6.902
 9739SOL    HW230117   4.516   0.076   6.958
 9740SOL     OW30118   5.892   1.034   2.599
 9740SOL    HW130119   5.895   0.977   2.681
 9740SOL    HW230120   5.984   1.065   2.577
 9741SOL     OW30121   3.168   1.533   4.277
 9741SOL    HW130122   3.226   1.609   4.248
 9741SOL    HW230123   3.078   1.543   4.235
 9742SOL     OW30124   4.423   1.380   6.533
 9742SOL    HW130125   4.474   1.465   6.519
 9742SOL    HW230126   4.325   1.400   6.535
 9743SOL     OW30127   6.991   3.081   3.430
 9743SOL    HW130128   6.945   3.166   3.406
 9743SOL    HW230129   0.015   3.045   3.350
 9744SOL     OW30130   2.074   6.787   3.585
 9744SOL    HW130131   2.060   6.878   3.547
 9744SOL    HW230132   2.148   6.740   3.536
 9745SOL     OW30133   5.723   1.451   5.785
 9745SOL    HW130134   5.745   1.526   5.849
 9745SOL    HW230135   5.629   1.422   5.800
 9746SOL     OW30136   4.586   6.411   6.876
 9746SOL    HW130137   4.584   6.341   6.946
 9746SOL    HW230138   4.494   6.421   6.836
 9747SOL     OW30139   2.326   2.074   2.055
 9747SOL    HW130140   2.303   2.051   1.960
 9747SOL    HW230141   2.420   2.047   2.074
 9748SOL     OW30142   6.938   0.515   3.161
 9748SOL    HW130143   6.978   0.446   3.101
 9748SOL    HW230144   6.844   0.490   3.182
 9749SOL     OW30145   0.659   1.606   1.983
 9749SOL    HW130146   0.619   1.698   1.980
 9749SOL    HW230147   0.684   1.577   1.891
 9750SOL     OW30148   6.188   4.705   4.297
 9750SOL    HW130149   6.222   4.784   4.248
 9750SOL    HW230150   6.091   4.690   4.274
 9751SOL     OW30151   2.307   0.308   1.473
 9751SOL    HW130152   2.231   0.244   1.485
 9751SOL    HW230153   2.273   0.402   1.483
 9752SOL     OW30154   4.286   2.155   0.504
 9752SOL    HW130155   4.215   2.089   0.527
 9752SOL    HW230156   4.248   2.228   0.448
 9753SOL     OW30157   0.400   5.873   6.343
 9753SOL    HW130158   0.408   5.860   6.244
 9753SOL    HW230159   0.307   5.848   6.372
 9754SOL     OW30160   4.009   0.581   0.806
 9754SOL    HW130161   3.965   0.533   0.730
 9754SOL    HW230162   3.984   0.537   0.892
 9755SOL     OW30163   3.356   4.002   5.325
 9755SOL    HW130164   3.428   3.988   5.256
 9755SOL    HW230165   3.369   4.092   5.368
 9756SOL     OW30166   5.305   1.563   6.161
 9756SOL    HW130167   5.216   1.548   6.204
 9756SOL    HW230168   5.364   1.484   6.179
 9757SOL     OW30169   5.553   4.082   4.198
 9757SOL    HW130170   5.456   4.058   4.200
 9757SOL    HW230171   5.606   4.005   4.165
 9758SOL     OW30172   1.132   0.824   0.416
 9758SOL    HW130173   1.088   0.747   0.369
 9758SOL    HW230174   1.076   0.906   0.405
 9759SOL     OW30175   0.804   1.225   0.529
 9759SOL    HW130176   0.742   1.152   0.500
 9759SOL    HW230177   0.779   1.311   0.483
 9760SOL     OW30178   4.877   2.278   6.935
 9760SOL    HW130179   4.807   2.234   6.993
 9760SOL    HW230180   4.850   2.372   6.917
 9761SOL     OW30181   1.255   0.976   1.809
 9761SOL    HW130182   1.289   0.986   1.715
 9761SOL    HW230183   1.158   0.953   1.807
 9762SOL     OW30184   2.884   1.349   4.893
 9762SOL    HW130185   2.973   1.336   4.851
 9762SOL    HW230186   2.861   1.447   4.893
 9763SOL     OW30187   6.618   1.481   1.999
 9763SOL    HW130188   6.668   1.451   1.917
 9763SOL    HW230189   6.649   1.573   2.024
 9764SOL     OW30190   5.644   2.541   2.388
 9764SOL    HW130191   5.740   2.537   2.364
 9764SOL    HW230192   5.591   2.481   2.328
 9765SOL     OW30193   6.360   1.451   2.099
 9765SOL    HW130194   6.366   1.492   2.190
 9765SOL    HW230195   6.452   1.441   2.061
 9766SOL     OW30196   2.725   0.988   3.564
 9766SOL    HW130197   2.760   0.894   3.556
 9766SOL    HW230198   2.782   1.039   3.629
 9767SOL     OW30199   2.443   3.127   6.006
 9767SOL    HW130200   2.496   3.063   5.949
 9767SOL    HW230201   2.358   3.150   5.958
 9768SOL     OW30202   5.761   2.528   0.464
 9768SOL    HW130203   5.845   2.538   0.410
 9768SOL    HW230204   5.692   2.481   0.409
 9769SOL     OW30205   3.193   1.627   5.617
 9769SOL    HW130206   3.106   1.614   5.666
 9769SOL    HW230207   3.193   1.571   5.534
 9770SOL     OW30208   3.679   2.469   6.252
 9770SOL    HW130209   3.755   2.501   6.196
 9770SOL    HW230210   3.704   2.475   6.349
 9771SOL     OW30211   2.494   6.569   1.970
 9771SOL    HW130212   2.409   6.516   1.966
 9771SOL    HW230213   2.473   6.665   1.984
 9772SOL     OW30214   1.685   6.185   2.049
 9772SOL    HW130215   1.768   6.238   2.030
 9772SOL    HW230216   1.642   6.158   1.963
 9773SOL     OW30217   5.689   5.460   2.896
 9773SOL    HW130218   5.717   5.418   2.810
 9773SOL    HW230219   5.723   5.406   2.973
 9774SOL     OW30220   0.870   5.514   3.974
 9774SOL    HW130221   0.922   5.433   3.999
 9774SOL    HW230222   0.881   5.531   3.876
 9775SOL     OW30223   2.847   0.723   3.574
 9775SOL    HW130224   2.928   0.718   3.632
 9775SOL    HW230225   2.779   0.657   3.606
 9776SOL     OW30226   1.731   5.360   6.090
 9776SOL    HW130227   1.796   5.368   6.165
 9776SOL    HW230228   1.710   5.263   6.074
 9777SOL     OW30229   5.224   6.875   6.869
 9777SOL    HW130230   5.250   6.957   6.817
 9777SOL    HW230231   5.220   6.797   6.807
 9778SOL     OW30232   0.251   1.998   4.573
 9778SOL    HW130233   0.293   2.015   4.484
 9778SOL    HW230234   0.305   1.930   4.624
 9779SOL     OW30235   0.773   2.228   2.972
 9779SOL    HW130236   0.738   2.140   3.006
 9779SOL    HW230237   0.793   2.287   3.050
 9780SOL     OW30238   1.444   1.349   1.445
 9780SOL    HW130239   1.428   1.351   1.544
 9780SOL    HW230240   1.528   1.299   1.426
 9781SOL     OW30241   1.349   3.699   3.954
 9781SOL    HW130242   1.285   3.639   3.906
 9781SOL    HW230243   1.442   3.664   3.942
 9782SOL     OW30244   0.290   2.510   0.535
 9782SOL    HW130245   0.235   2.588   0.505
 9782SOL    HW230246   0.236   2.452   0.596
 9783SOL     OW30247   4.100   1.854   3.246
 9783SOL    HW130248   4.153   1.870   3.162
 9783SOL    HW230249   4.003   1.850   3.223
 9784SOL     OW30250   2.961   0.904   6.537
 9784SOL    HW130251   2.981   0.973   6.608
 9784SOL    HW230252   2.886   0.846   6.568
 9785SOL     OW30253   6.930   2.372   4.570
 9785SOL    HW130254   7.018   2.373   4.521
 9785SOL    HW230255   6.864   2.428   4.520
 9786SOL     OW30256   3.277   4.207   0.441
 9786SOL    HW130257   3.347   4.150   0.485
 9786SOL    HW230258   3.234   4.266   0.510
 9787SOL     OW30259   3.411   3.635   3.809
 9787SOL    HW130260   3.323   3.593   3.789
 9787SOL    HW230261   3.468   3.635   3.727
 9788SOL     OW30262   0.835   5.631   1.932
 9788SOL    HW130263   0.776   5.569   1.984
 9788SOL    HW230264   0.869   5.703   1.992
 9789SOL     OW30265   3.071   0.028   6.843
 9789SOL    HW130266   3.127   0.049   6.923
 9789SOL    HW230267   3.067   6.953   6.831
 9790SOL     OW30268   6.525   4.232   5.052
 9790SOL    HW130269   6.537   4.188   5.141
 9790SOL    HW230270   6.439   4.201   5.010
 9791SOL     OW30271   0.525   6.668   0.090
 9791SOL    HW130272   0.543   6.606   0.014
 9791SOL    HW230273   0.505   6.615   0.173
 9792SOL     OW30274   3.463   5.189   0.803
 9792SOL    HW130275   3.380   5.175   0.857
 9792SOL    HW230276   3.437   5.216   0.710
 9793SOL     OW30277   4.268   0.785   1.471
 9793SOL    HW130278   4.310   0.695   1.462
 9793SOL    HW230279   4.265   0.830   1.381
 9794SOL     OW30280   4.967   4.384   4.720
 9794SOL    HW130281   4.950   4.476   4.683
 9794SOL    HW230282   4.895   4.322   4.690
 9795SOL     OW30283   0.945   3.199   3.955
 9795SOL    HW130284   0.884   3.277   3.944
 9795SOL    HW230285   0.910   3.139   4.027
 9796SOL     OW30286   3.984   3.794   3.907
 9796SOL    HW130287   4.065   3.765   3.958
 9796SOL    HW230288   3.951   3.719   3.850
 9797SOL     OW30289   2.989   6.252   6.701
 9797SOL    HW130290   2.908   6.290   6.656
 9797SOL    HW230291   3.069   6.307   6.677
 9798SOL     OW30292   2.267   2.135   1.249
 9798SOL    HW130293   2.186   2.185   1.219
 9798SOL    HW230294   2.285   2.155   1.345
 9799SOL     OW30295   2.933   4.799   6.552
 9799SOL    HW130296   3.023   4.838   6.572
 9799SOL    HW230297   2.944   4.707   6.514
 9800SOL     OW30298   5.823   2.997   4.461
 9800SOL    HW130299   5.914   3.038   4.452
 9800SOL    HW230300   5.760   3.041   4.396
 9801SOL     OW30301   5.024   4.628   0.223
 9801SOL    HW130302   4.981   4.592   0.306
 9801SOL    HW230303   5.124   4.626   0.233
 9802SOL     OW30304   3.886   4.637   0.405
 9802SOL    HW130305   3.895   4.699   0.482
 9802SOL    HW230306   3.841   4.553   0.435
 9803SOL     OW30307   1.685   3.027   6.556
 9803SOL    HW130308   1.710   3.123   6.549
 9803SOL    HW230309   1.690   2.998   6.652
 9804SOL     OW30310   6.541   5.776   3.249
 9804SOL    HW130311   6.467   5.843   3.260
 9804SOL    HW230312   6.520   5.695   3.304
 9805SOL     OW30313   0.979   6.686   3.189
 9805SOL    HW130314   0.903   6.707   3.127
 9805SOL    HW230315   1.048   6.633   3.141
 9806SOL     OW30316   3.559   2.130   6.357
 9806SOL    HW130317   3.658   2.131   6.369
 9806SOL    HW230318   3.519   2.206   6.408
 9807SOL     OW30319   3.671   3.045   2.871
 9807SOL    HW130320   3.638   3.005   2.787
 9807SOL    HW230321   3.698   3.140   2.854
 9808SOL     OW30322   4.193   5.805   3.906
 9808SOL    HW130323   4.166   5.890   3.952
 9808SOL    HW230324   4.242   5.747   3.971
 9809SOL     OW30325   0.408   2.977   0.429
 9809SOL    HW130326   0.440   2.904   0.369
 9809SOL    HW230327   0.486   3.025   0.468
 9810SOL     OW30328   2.758   1.997   4.961
 9810SOL    HW130329   2.822   2.035   5.028
 9810SOL    HW230330   2.801   1.996   4.871
 9811SOL     OW30331   6.600   3.648   3.953
 9811SOL    HW130332   6.603   3.667   3.855
 9811SOL    HW230333   6.621   3.732   4.004
 9812SOL     OW30334   2.768   6.715   4.673
 9812SOL    HW130335   2.849   6.682   4.624
 9812SOL    HW230336   2.725   6.790   4.622
 9813SOL     OW30337   5.823   2.725   0.635
 9813SOL    HW130338   5.814   2.655   0.564
 9813SOL    HW230339   5.900   2.703   0.695
 9814SOL     OW30340   5.595   1.895   0.153
 9814SOL    HW130341   5.554   1.979   0.117
 9814SOL    HW230342   5.524   1.839   0.197
 9815SOL     OW30343   4.418   2.436   4.064
 9815SOL    HW130344   4.341   2.401   4.010
 9815SOL    HW230345   4.487   2.365   4.074
 9816SOL     OW30346   1.097   6.796   5.865
 9816SOL    HW130347   1.027   6.866   5.872
 9816SOL    HW230348   1.076   6.734   5.790
 9817SOL     OW30349   0.804   6.729   2.981
 9817SOL    HW130350   0.831   6.815   2.938
 9817SOL    HW230351   0.796   6.658   2.911
 9818SOL     OW30352   5.677   1.625   4.875
 9818SOL    HW130353   5.704   1.693   4.944
 9818SOL    HW230354   5.737   1.632   4.796
 9819SOL     OW30355   4.395   2.398   3.161
 9819SOL    HW130356   4.408   2.301   3.182
 9819SOL    HW230357   4.329   2.408   3.087
 9820SOL     OW30358   3.394   3.589   6.673
 9820SOL    HW130359   3.411   3.687   6.676
 9820SOL    HW230360   3.323   3.565   6.740
 9821SOL     OW30361   5.832   6.695   6.524
 9821SOL    HW130362   5.831   6.654   6.615
 9821SOL    HW230363   5.812   6.624   6.456
 9822SOL     OW30364   0.528   0.067   3.137
 9822SOL    HW130365   0.478   0.147   3.105
 9822SOL    HW230366   0.559   0.013   3.059
 9823SOL     OW30367   3.472   0.511   1.142
 9823SOL    HW130368   3.481   0.463   1.229
 9823SOL    HW230369   3.375   0.518   1.117
 9824SOL     OW30370   1.419   4.014   5.876
 9824SOL    HW130371   1.405   4.051   5.784
 9824SOL    HW230372   1.332   3.981   5.913
 9825SOL     OW30373   3.439   5.920   5.543
 9825SOL    HW130374   3.384   5.868   5.609
 9825SOL    HW230375   3.470   5.858   5.471
 9826SOL     OW30376   4.395   6.090   6.323
 9826SOL    HW130377   4.323   6.060   6.260
 9826SOL    HW230378   4.460   6.015   6.337
 9827SOL     OW30379   1.820   4.453   4.382
 9827SOL    HW130380   1.725   4.482   4.369
 9827SOL    HW230381   1.851   4.404   4.300
 9828SOL     OW30382   3.469   2.713   6.277
 9828SOL    HW130383   3.402   2.669   6.217
 9828SOL    HW230384   3.421   2.754   6.355
 9829SOL     OW30385   3.307   6.444   0.758
 9829SOL    HW130386   3.399   6.456   0.794
 9829SOL    HW230387   3.248   6.404   0.828
 9830SOL     OW30388   5.969   2.010   1.562
 9830SOL    HW130389   6.029   2.079   1.521
 9830SOL    HW230390   5.992   1.919   1.526
 9831SOL     OW30391   1.355   6.118   0.324
 9831SOL    HW130392   1.439   6.145   0.371
 9831SOL    HW230393   1.293   6.196   0.318
 9832SOL     OW30394   4.616   5.250   2.439
 9832SOL    HW130395   4.553   5.317   2.399
 9832SOL    HW230396   4.706   5.258   2.394
 9833SOL     OW30397   3.466   3.170   5.043
 9833SOL    HW130398   3.514   3.124   5.118
 9833SOL    HW230399   3.378   3.126   5.028
 9834SOL     OW30400   2.691   3.994   5.760
 9834SOL    HW130401   2.606   3.943   5.746
 9834SOL    HW230402   2.740   4.001   5.673
 9835SOL     OW30403   4.411   2.121   5.168
 9835SOL    HW130404   4.459   2.069   5.239
 9835SOL    HW230405   4.378   2.059   5.097
 9836SOL     OW30406   6.273   3.804   3.238
 9836SOL    HW130407   6.207   3.753   3.183
 9836SOL    HW230408   6.249   3.902   3.235
 9837SOL     OW30409   1.516   6.991   2.990
 9837SOL    HW130410   1.491   0.064   2.986
 9837SOL    HW230411   1.468   6.948   3.066
 9838SOL     OW30412   0.295   7.001   5.305
 9838SOL    HW130413   0.212   0.032   5.317
 9838SOL    HW230414   0.301   6.933   5.378
 9839SOL     OW30415   6.744   1.563   2.722
 9839SOL    HW130416   6.688   1.509   2.785
 9839SOL    HW230417   6.840   1.537   2.732
 9840SOL     OW30418   0.064   0.485   0.534
 9840SOL    HW130419   0.007   0.567   0.538
 9840SOL    HW230420   0.012   0.406   0.566
 9841SOL     OW30421   1.570   4.674   4.962
 9841SOL    HW130422   1.518   4.588   4.958
 9841SOL    HW230423   1.623   4.684   4.877
 9842SOL     OW30424   3.372   4.108   3.267
 9842SOL    HW130425   3.277   4.078   3.270
 9842SOL    HW230426   3.389   4.160   3.183
 9843SOL     OW30427   6.834   1.849   1.560
 9843SOL    HW130428   6.766   1.776   1.573
 9843SOL    HW230429   6.878   1.838   1.471
 9844SOL     OW30430   4.873   0.043   3.251
 9844SOL    HW130431   4.819   0.121   3.218
 9844SOL    HW230432   4.951   0.028   3.190
 9845SOL     OW30433   2.271   1.298   4.851
 9845SOL    HW130434   2.287   1.394   4.832
 9845SOL    HW230435   2.217   1.257   4.778
 9846SOL     OW30436   3.921   3.974   3.119
 9846SOL    HW130437   3.843   4.036   3.118
 9846SOL    HW230438   3.909   3.906   3.191
 9847SOL     OW30439   2.594   2.475   5.953
 9847SOL    HW130440   2.499   2.451   5.934
 9847SOL    HW230441   2.616   2.562   5.910
 9848SOL     OW30442   3.366   2.255   6.528
 9848SOL    HW130443   3.395   2.214   6.615
 9848SOL    HW230444   3.323   2.344   6.545
 9849SOL     OW30445   6.067   0.655   6.932
 9849SOL    HW130446   6.161   0.634   6.959
 9849SOL    HW230447   6.064   0.674   6.834
 9850SOL     OW30448   5.013   5.504   2.449
 9850SOL    HW130449   5.008   5.587   2.393
 9850SOL    HW230450   4.986   5.526   2.543
 9851SOL     OW30451   4.466   2.031   5.512
 9851SOL    HW130452   4.437   1.949   5.560
 9851SOL    HW230453   4.532   2.007   5.442
 9852SOL     OW30454   4.049   2.141   3.266
 9852SOL    HW130455   3.995   2.155   3.183
 9852SOL    HW230456   4.091   2.050   3.263
 9853SOL     OW30457   4.667   4.327   3.444
 9853SOL    HW130458   4.737   4.284   3.387
 9853SOL    HW230459   4.577   4.293   3.417
 9854SOL     OW30460   5.906   5.202   5.246
 9854SOL    HW130461   5.939   5.285   5.292
 9854SOL    HW230462   5.809   5.191   5.265
 9855SOL     OW30463   1.577   4.499   1.365
 9855SOL    HW130464   1.547   4.594   1.369
 9855SOL    HW230465   1.551   4.452   1.450
 9856SOL     OW30466   4.674   4.290   0.055
 9856SOL    HW130467   4.773   4.302   0.050
 9856SOL    HW230468   4.635   4.359   0.117
 9857SOL     OW30469   5.174   2.096   3.462
 9857SOL    HW130470   5.125   2.068   3.544
 9857SOL    HW230471   5.122   2.166   3.414
 9858SOL     OW30472   5.962   0.357   1.398
 9858SOL    HW130473   5.933   0.381   1.490
 9858SOL    HW230474   5.936   0.430   1.334
 9859SOL     OW30475   6.628   6.850   1.267
 9859SOL    HW130476   6.575   6.771   1.238
 9859SOL    HW230477   6.663   6.898   1.187
 9860SOL     OW30478   0.410   0.888   1.707
 9860SOL    HW130479   0.334   0.950   1.725
 9860SOL    HW230480   0.449   0.908   1.617
 9861SOL     OW30481   3.012   6.949   3.449
 9861SOL    HW130482   3.061   6.892   3.383
 9861SOL    HW230483   2.926   6.904   3.474
 9862SOL     OW30484   2.774   3.821   0.764
 9862SOL    HW130485   2.702   3.887   0.741
 9862SOL    HW230486   2.784   3.755   0.690
 9863SOL     OW30487   3.324   7.014   3.239
 9863SOL    HW130488   3.275   6.952   3.177
 9863SOL    HW230489   3.411   6.973   3.265
 9864SOL     OW30490   3.991   5.661   3.796
 9864SOL    HW130491   4.056   5.735   3.812
 9864SOL    HW230492   3.983   5.606   3.879
 9865SOL     OW30493   1.084   1.072   4.430
 9865SOL    HW130494   1.124   1.042   4.344
 9865SOL    HW230495   1.056   1.168   4.422
 9866SOL     OW30496   5.073   4.154   4.300
 9866SOL    HW130497   4.984   4.112   4.281
 9866SOL    HW230498   5.086   4.158   4.399
 9867SOL     OW30499   5.159   0.563   1.420
 9867SOL    HW130500   5.163   0.628   1.344
 9867SOL    HW230501   5.246   0.563   1.468
 9868SOL     OW30502   1.678   4.411   5.710
 9868SOL    HW130503   1.764   4.422   5.660
 9868SOL    HW230504   1.614   4.359   5.654
 9869SOL     OW30505   2.146   3.560   2.876
 9869SOL    HW130506   2.061   3.612   2.883
 9869SOL    HW230507   2.187   3.550   2.966
 9870SOL     OW30508   4.186   5.799   2.446
 9870SOL    HW130509   4.212   5.809   2.542
 9870SOL    HW230510   4.152   5.886   2.411
 9871SOL     OW30511   0.558   6.352   5.549
 9871SOL    HW130512   0.490   6.316   5.614
 9871SOL    HW230513   0.563   6.291   5.470
 9872SOL     OW30514   3.251   5.323   3.684
 9872SOL    HW130515   3.287   5.253   3.745
 9872SOL    HW230516   3.164   5.357   3.719
 9873SOL     OW30517   2.032   2.268   1.193
 9873SOL    HW130518   1.933   2.258   1.197
 9873SOL    HW230519   2.056   2.364   1.181
 9874SOL     OW30520   0.631   2.995   4.494
 9874SOL    HW130521   0.640   2.896   4.477
 9874SOL    HW230522   0.545   3.027   4.454
 9875SOL     OW30523   0.015   6.741   2.406
 9875SOL    HW130524   0.111   6.761   2.430
 9875SOL    HW230525   0.000   6.642   2.409
 9876SOL     OW30526   0.010   1.261   2.090
 9876SOL    HW130527   0.006   1.247   2.189
 9876SOL    HW230528   6.941   1.275   2.055
 9877SOL     OW30529   0.799   5.960   3.326
 9877SOL    HW130530   0.748   6.030   3.277
 9877SOL    HW230531   0.892   5.992   3.343
 9878SOL     OW30532   2.696   5.307   4.916
 9878SOL    HW130533   2.726   5.394   4.954
 9878SOL    HW230534   2.612   5.278   4.961
 9879SOL     OW30535   6.034   5.174   4.996
 9879SOL    HW130536   6.030   5.083   4.955
 9879SOL    HW230537   5.979   5.176   5.080
 9880SOL     OW30538   1.763   2.113   5.177
 9880SOL    HW130539   1.755   2.031   5.234
 9880SOL    HW230540   1.691   2.178   5.201
 9881SOL     OW30541   1.886   1.416   5.013
 9881SOL    HW130542   1.833   1.475   4.953
 9881SOL    HW230543   1.936   1.472   5.079
 9882SOL     OW30544   0.852   2.265   3.651
 9882SOL    HW130545   0.945   2.299   3.634
 9882SOL    HW230546   0.823   2.209   3.573
 9883SOL     OW30547   1.678   5.474   0.225
 9883SOL    HW130548   1.724   5.415   0.158
 9883SOL    HW230549   1.737   5.552   0.246
 9884SOL     OW30550   4.373   1.514   3.353
 9884SOL    HW130551   4.454   1.501   3.411
 9884SOL    HW230552   4.314   1.583   3.395
 9885SOL     OW30553   0.122   3.450   5.143
 9885SOL    HW130554   0.208   3.493   5.173
 9885SOL    HW230555   0.056   3.521   5.119
 9886SOL     OW30556   0.901   4.379   1.740
 9886SOL    HW130557   0.858   4.375   1.830
 9886SOL    HW230558   0.994   4.414   1.748
 9887SOL     OW30559   3.266   1.749   6.368
 9887SOL    HW130560   3.225   1.658   6.363
 9887SOL    HW230561   3.211   1.814   6.315
 9888SOL     OW30562   6.804   4.253   1.598
 9888SOL    HW130563   6.776   4.333   1.546
 9888SOL    HW230564   6.792   4.171   1.543
 9889SOL     OW30565   6.598   5.187   1.430
 9889SOL    HW130566   6.534   5.173   1.506
 9889SOL    HW230567   6.635   5.280   1.435
 9890SOL     OW30568   1.539   2.403   0.282
 9890SOL    HW130569   1.609   2.336   0.306
 9890SOL    HW230570   1.521   2.462   0.361
 9891SOL     OW30571   5.854   3.463   1.310
 9891SOL    HW130572   5.900   3.503   1.389
 9891SOL    HW230573   5.862   3.364   1.313
 9892SOL     OW30574   6.811   5.166   0.622
 9892SOL    HW130575   6.882   5.105   0.588
 9892SOL    HW230576   6.815   5.169   0.722
 9893SOL     OW30577   1.059   0.222   1.316
 9893SOL    HW130578   1.101   0.256   1.232
 9893SOL    HW230579   1.072   0.289   1.390
 9894SOL     OW30580   1.554   2.137   1.775
 9894SOL    HW130581   1.523   2.045   1.798
 9894SOL    HW230582   1.603   2.176   1.852
 9895SOL     OW30583   6.187   3.570   5.682
 9895SOL    HW130584   6.144   3.480   5.683
 9895SOL    HW230585   6.130   3.633   5.628
 9896SOL     OW30586   6.142   0.478   6.552
 9896SOL    HW130587   6.241   0.493   6.549
 9896SOL    HW230588   6.095   0.553   6.506
 9897SOL     OW30589   6.266   5.492   3.481
 9897SOL    HW130590   6.361   5.521   3.471
 9897SOL    HW230591   6.205   5.561   3.441
 9898SOL     OW30592   1.996   6.644   5.277
 9898SOL    HW130593   1.909   6.693   5.284
 9898SOL    HW230594   2.041   6.642   5.366
 9899SOL     OW30595   0.651   5.459   6.641
 9899SOL    HW130596   0.732   5.410   6.674
 9899SOL    HW230597   0.638   5.439   6.544
 9900SOL     OW30598   1.802   3.735   3.310
 9900SOL    HW130599   1.723   3.695   3.263
 9900SOL    HW230600   1.782   3.744   3.408
 9901SOL     OW30601   2.964   1.560   6.201
 9901SOL    HW130602   3.019   1.538   6.121
 9901SOL    HW230603   2.877   1.509   6.197
 9902SOL     OW30604   3.457   4.469   0.317
 9902SOL    HW130605   3.362   4.447   0.294
 9902SOL    HW230606   3.519   4.424   0.253
 9903SOL     OW30607   4.855   1.247   1.538
 9903SOL    HW130608   4.885   1.301   1.459
 9903SOL    HW230609   4.912   1.269   1.617
 9904SOL     OW30610   0.788   3.720   0.270
 9904SOL    HW130611   0.744   3.655   0.208
 9904SOL    HW230612   0.853   3.776   0.219
 9905SOL     OW30613   2.565   0.540   6.462
 9905SOL    HW130614   2.588   0.463   6.522
 9905SOL    HW230615   2.517   0.506   6.382
 9906SOL     OW30616   2.474   3.124   1.647
 9906SOL    HW130617   2.551   3.186   1.664
 9906SOL    HW230618   2.486   3.079   1.559
 9907SOL     OW30619   6.567   0.515   0.720
 9907SOL    HW130620   6.564   0.481   0.814
 9907SOL    HW230621   6.637   0.587   0.714
 9908SOL     OW30622   5.134   1.706   4.391
 9908SOL    HW130623   5.142   1.638   4.318
 9908SOL    HW230624   5.223   1.748   4.407
 9909SOL     OW30625   4.143   0.413   3.988
 9909SOL    HW130626   4.184   0.358   4.061
 9909SOL    HW230627   4.083   0.356   3.933
 9910SOL     OW30628   1.897   3.676   2.894
 9910SOL    HW130629   1.835   3.600   2.876
 9910SOL    HW230630   1.864   3.759   2.848
 9911SOL     OW30631   2.825   6.415   1.655
 9911SOL    HW130632   2.907   6.412   1.712
 9911SOL    HW230633   2.800   6.322   1.628
 9912SOL     OW30634   3.789   1.314   1.593
 9912SOL    HW130635   3.705   1.274   1.555
 9912SOL    HW230636   3.802   1.405   1.555
 9913SOL     OW30637   6.454   4.389   1.030
 9913SOL    HW130638   6.498   4.328   1.096
 9913SOL    HW230639   6.454   4.347   0.940
 9914SOL     OW30640   5.924   2.046   4.487
 9914SOL    HW130641   5.994   2.090   4.431
 9914SOL    HW230642   5.835   2.053   4.442
 9915SOL     OW30643   5.440   0.631   4.307
 9915SOL    HW130644   5.466   0.572   4.383
 9915SOL    HW230645   5.364   0.689   4.335
 9916SOL     OW30646   1.821   2.809   3.056
 9916SOL    HW130647   1.781   2.718   3.056
 9916SOL    HW230648   1.921   2.802   3.059
 9917SOL     OW30649   5.869   4.213   0.159
 9917SOL    HW130650   5.816   4.270   0.221
 9917SOL    HW230651   5.839   4.118   0.168
 9918SOL     OW30652   3.357   1.206   3.328
 9918SOL    HW130653   3.427   1.257   3.379
 9918SOL    HW230654   3.268   1.251   3.340
 9919SOL     OW30655   6.468   5.061   1.217
 9919SOL    HW130656   6.519   5.093   1.297
 9919SOL    HW230657   6.438   5.139   1.162
 9920SOL     OW30658   5.040   1.208   2.323
 9920SOL    HW130659   5.101   1.286   2.316
 9920SOL    HW230660   4.965   1.229   2.386
 9921SOL     OW30661   4.217   0.027   5.948
 9921SOL    HW130662   4.123   0.040   5.916
 9921SOL    HW230663   4.217   6.993   6.029
 9922SOL     OW30664   2.930   4.304   0.212
 9922SOL    HW130665   2.835   4.325   0.189
 9922SOL    HW230666   2.981   4.390   0.220
 9923SOL     OW30667   4.748   4.624   0.199
 9923SOL    HW130668   4.843   4.639   0.171
 9923SOL    HW230669   4.687   4.657   0.127
 9924SOL     OW30670   6.345   1.723   5.265
 9924SOL    HW130671   6.252   1.686   5.267
 9924SOL    HW230672   6.349   1.808   5.318
 9925SOL     OW30673   6.491   3.453   4.119
 9925SOL    HW130674   6.439   3.537   4.134
 9925SOL    HW230675   6.547   3.462   4.037
 9926SOL     OW30676   4.165   2.602   0.894
 9926SOL    HW130677   4.240   2.547   0.931
 9926SOL    HW230678   4.080   2.548   0.895
 9927SOL     OW30679   6.623   6.784   0.394
 9927SOL    HW130680   6.681   6.809   0.317
 9927SOL    HW230681   6.661   6.821   0.479
 9928SOL     OW30682   5.407   5.573   1.895
 9928SOL    HW130683   5.360   5.660   1.910
 9928SOL    HW230684   5.359   5.500   1.944
 9929SOL     OW30685   2.939   4.952   5.453
 9929SOL    HW130686   2.871   4.880   5.464
 9929SOL    HW230687   2.900   5.040   5.479
 9930SOL     OW30688   6.699   6.984   4.335
 9930SOL    HW130689   6.663   6.909   4.279
 9930SOL    HW230690   6.667   6.974   4.429
 9931SOL     OW30691   1.011   4.974   3.986
 9931SOL    HW130692   0.990   5.071   3.973
 9931SOL    HW230693   0.980   4.945   4.076
 9932SOL     OW30694   2.542   5.489   7.024
 9932SOL    HW130695   2.509   5.496   6.930
 9932SOL    HW230696   2.636   5.456   7.024
 9933SOL     OW30697   0.387   5.581   3.798
 9933SOL    HW130698   0.365   5.618   3.888
 9933SOL    HW230699   0.371   5.482   3.798
 9934SOL     OW30700   5.082   1.751   5.556
 9934SOL    HW130701   5.114   1.829   5.608
 9934SOL    HW230702   5.004   1.779   5.499
 9935SOL     OW30703   2.565   6.646   0.258
 9935SOL    HW130704   2.611   6.588   0.325
 9935SOL    HW230705   2.521   6.723   0.304
 9936SOL     OW30706   6.623   5.317   6.741
 9936SOL    HW130707   6.533   5.346   6.708
 9936SOL    HW230708   6.675   5.398   6.770
 9937SOL     OW30709   6.795   1.930   0.319
 9937SOL    HW130710   6.785   1.876   0.402
 9937SOL    HW230711   6.818   1.870   0.242
 9938SOL     OW30712   6.943   5.144   2.530
 9938SOL    HW130713   6.985   5.218   2.582
 9938SOL    HW230714   7.009   5.069   2.520
 9939SOL     OW30715   4.483   2.492   1.083
 9939SOL    HW130716   4.503   2.412   1.139
 9939SOL    HW230717   4.568   2.537   1.057
 9940SOL     OW30718   1.192   0.251   1.049
 9940SOL    HW130719   1.102   0.245   1.007
 9940SOL    HW230720   1.242   0.165   1.034
 9941SOL     OW30721   2.980   3.969   5.596
 9941SOL    HW130722   2.973   3.902   5.522
 9941SOL    HW230723   2.989   3.921   5.683
 9942SOL     OW30724   2.662   5.542   2.006
 9942SOL    HW130725   2.669   5.442   2.004
 9942SOL    HW230726   2.700   5.576   2.092
 9943SOL     OW30727   6.907   5.194   5.323
 9943SOL    HW130728   6.954   5.121   5.273
 9943SOL    HW230729   6.964   5.225   5.399
 9944SOL     OW30730   1.263   4.380   6.338
 9944SOL    HW130731   1.246   4.466   6.289
 9944SOL    HW230732   1.276   4.307   6.271
 9945SOL     OW30733   5.935   5.565   6.584
 9945SOL    HW130734   5.890   5.482   6.618
 9945SOL    HW230735   5.874   5.612   6.521
 9946SOL     OW30736   4.751   0.957   3.834
 9946SOL    HW130737   4.780   0.901   3.757
 9946SOL    HW230738   4.786   0.917   3.919
 9947SOL     OW30739   1.522   2.906   5.130
 9947SOL    HW130740   1.603   2.848   5.137
 9947SOL    HW230741   1.503   2.947   5.219
 9948SOL     OW30742   5.298   4.410   4.746
 9948SOL    HW130743   5.356   4.440   4.670
 9948SOL    HW230744   5.222   4.474   4.756
 9949SOL     OW30745   6.080   5.147   4.248
 9949SOL    HW130746   6.158   5.132   4.309
 9949SOL    HW230747   6.109   5.199   4.168
 9950SOL     OW30748   5.815   6.002   4.895
 9950SOL    HW130749   5.720   6.029   4.885
 9950SOL    HW230750   5.860   6.003   4.805
 9951SOL     OW30751   6.417   0.697   5.090
 9951SOL    HW130752   6.491   0.673   5.154
 9951SOL    HW230753   6.336   0.642   5.110
 9952SOL     OW30754   0.680   3.410   1.431
 9952SOL    HW130755   0.621   3.389   1.509
 9952SOL    HW230756   0.775   3.395   1.457
 9953SOL     OW30757   6.379   2.730   4.292
 9953SOL    HW130758   6.459   2.696   4.242
 9953SOL    HW230759   6.308   2.757   4.226
 9954SOL     OW30760   6.343   0.267   5.995
 9954SOL    HW130761   6.324   0.203   6.070
 9954SOL    HW230762   6.258   0.312   5.967
 9955SOL     OW30763   6.292   3.550   5.415
 9955SOL    HW130764   6.234   3.479   5.376
 9955SOL    HW230765   6.301   3.535   5.514
 9956SOL     OW30766   1.083   0.402   2.188
 9956SOL    HW130767   1.105   0.311   2.154
 9956SOL    HW230768   1.163   0.441   2.233
 9957SOL     OW30769   5.277   5.410   2.510
 9957SOL    HW130770   5.278   5.400   2.610
 9957SOL    HW230771   5.185   5.433   2.480
 9958SOL     OW30772   3.221   5.623   1.122
 9958SOL    HW130773   3.158   5.647   1.197
 9958SOL    HW230774   3.315   5.639   1.152
 9959SOL     OW30775   4.162   3.569   5.347
 9959SOL    HW130776   4.187   3.655   5.304
 9959SOL    HW230777   4.192   3.493   5.290
 9960SOL     OW30778   0.074   6.474   2.723
 9960SOL    HW130779   0.021   6.511   2.800
 9960SOL    HW230780   0.042   6.517   2.638
 9961SOL     OW30781   1.853   5.335   3.945
 9961SOL    HW130782   1.785   5.400   3.912
 9961SOL    HW230783   1.939   5.348   3.895
 9962SOL     OW30784   6.564   6.990   2.893
 9962SOL    HW130785   6.513   6.975   2.808
 9962SOL    HW230786   6.508   0.018   2.957
 9963SOL     OW30787   2.994   2.522   6.621
 9963SOL    HW130788   2.897   2.501   6.637
 9963SOL    HW230789   3.021   2.486   6.531
 9964SOL     OW30790   5.039   4.922   5.620
 9964SOL    HW130791   4.970   4.945   5.551
 9964SOL    HW230792   5.120   4.885   5.576
 9965SOL     OW30793   4.061   6.561   6.762
 9965SOL    HW130794   4.156   6.543   6.786
 9965SOL    HW230795   4.002   6.494   6.806
 9966SOL     OW30796   1.570   5.720   1.641
 9966SOL    HW130797   1.652   5.775   1.631
 9966SOL    HW230798   1.553   5.668   1.558
 9967SOL     OW30799   0.138   6.469   1.919
 9967SOL    HW130800   0.135   6.440   1.823
 9967SOL    HW230801   0.078   6.410   1.973
 9968SOL     OW30802   3.694   3.710   1.297
 9968SOL    HW130803   3.691   3.805   1.267
 9968SOL    HW230804   3.787   3.675   1.288
 9969SOL     OW30805   1.792   2.626   2.172
 9969SOL    HW130806   1.823   2.692   2.241
 9969SOL    HW230807   1.838   2.644   2.085
 9970SOL     OW30808   4.863   3.751   2.741
 9970SOL    HW130809   4.810   3.835   2.731
 9970SOL    HW230810   4.877   3.709   2.652
 9971SOL     OW30811   1.868   5.009   1.519
 9971SOL    HW130812   1.930   5.038   1.592
 9971SOL    HW230813   1.905   5.036   1.430
 9972SOL     OW30814   5.467   5.187   1.258
 9972SOL    HW130815   5.401   5.141   1.198
 9972SOL    HW230816   5.538   5.230   1.202
 9973SOL     OW30817   5.956   1.722   3.866
 9973SOL    HW130818   6.001   1.807   3.892
 9973SOL    HW230819   5.951   1.662   3.947
 9974SOL     OW30820   0.963   2.637   2.755
 9974SOL    HW130821   1.026   2.700   2.800
 9974SOL    HW230822   1.005   2.546   2.748
 9975SOL     OW30823   6.174   3.864   0.337
 9975SOL    HW130824   6.134   3.952   0.311
 9975SOL    HW230825   6.244   3.878   0.407
 9976SOL     OW30826   1.079   6.385   5.677
 9976SOL    HW130827   0.995   6.333   5.688
 9976SOL    HW230828   1.150   6.326   5.637
 9977SOL     OW30829   6.634   5.378   5.558
 9977SOL    HW130830   6.672   5.287   5.538
 9977SOL    HW230831   6.557   5.395   5.496
 9978SOL     OW30832   0.672   2.701   4.426
 9978SOL    HW130833   0.624   2.719   4.341
 9978SOL    HW230834   0.736   2.626   4.413
 9979SOL     OW30835   6.233   4.975   5.633
 9979SOL    HW130836   6.185   4.945   5.715
 9979SOL    HW230837   6.225   4.905   5.562
 9980SOL     OW30838   1.891   0.883   6.356
 9980SOL    HW130839   1.853   0.970   6.388
 9980SOL    HW230840   1.932   0.897   6.266
 9981SOL     OW30841   2.516   1.756   2.757
 9981SOL    HW130842   2.496   1.802   2.844
 9981SOL    HW230843   2.551   1.664   2.776
 9982SOL     OW30844   6.351   6.251   4.386
 9982SOL    HW130845   6.393   6.196   4.314
 9982SOL    HW230846   6.255   6.267   4.364
 9983SOL     OW30847   6.663   2.221   2.642
 9983SOL    HW130848   6.739   2.284   2.653
 9983SOL    HW230849   6.577   2.272   2.640
 9984SOL     OW30850   2.511   0.853   6.824
 9984SOL    HW130851   2.588   0.796   6.854
 9984SOL    HW230852   2.427   0.799   6.825
 9985SOL     OW30853   1.318   0.788   0.624
 9985SOL    HW130854   1.398   0.844   0.602
 9985SOL    HW230855   1.246   0.806   0.557
 9986SOL     OW30856   5.578   4.759   5.998
 9986SOL    HW130857   5.499   4.801   6.042
 9986SOL    HW230858   5.630   4.706   6.066
 9987SOL     OW30859   0.051   2.993   4.038
 9987SOL    HW130860   0.039   3.086   4.075
 9987SOL    HW230861   0.115   2.996   3.961
 9988SOL     OW30862   0.461   5.990   4.097
 9988SOL    HW130863   0.531   6.055   4.126
 9988SOL    HW230864   0.391   6.037   4.043
 9989SOL     OW30865   6.761   3.440   4.214
 9989SOL    HW130866   6.766   3.343   4.238
 9989SOL    HW230867   6.671   3.461   4.177
 9990SOL     OW30868   2.147   4.977   2.704
 9990SOL    HW130869   2.069   4.918   2.682
 9990SOL    HW230870   2.116   5.053   2.761
 9991SOL     OW30871   2.507   2.135   3.697
 9991SOL    HW130872   2.472   2.206   3.758
 9991SOL    HW230873   2.432   2.095   3.646
 9992SOL     OW30874   5.753   5.411   0.184
 9992SOL    HW130875   5.710   5.334   0.232
 9992SOL    HW230876   5.682   5.469   0.145
 9993SOL     OW30877   2.896   1.143   0.712
 9993SOL    HW130878   2.822   1.203   0.740
 9993SOL    HW230879   2.942   1.105   0.793
 9994SOL     OW30880   6.011   4.480   3.003
 9994SOL    HW130881   5.920   4.441   2.995
 9994SOL    HW230882   6.080   4.408   2.993
 9995SOL     OW30883   4.843   1.350   3.144
 9995SOL    HW130884   4.786   1.315   3.219
 9995SOL    HW230885   4.851   1.449   3.152
 9996SOL     OW30886   3.060   3.732   0.300
 9996SOL    HW130887   3.009   3.757   0.217
 9996SOL    HW230888   3.150   3.699   0.275
 9997SOL     OW30889   2.729   1.619   5.856
 9997SOL    HW130890   2.700   1.667   5.773
 9997SOL    HW230891   2.826   1.594   5.847
 9998SOL     OW30892   5.954   4.988   6.036
 9998SOL    HW130893   5.983   5.064   6.094
 9998SOL    HW230894   5.904   4.921   6.091
 9999SOL     OW30895   6.282   2.937   5.888
 9999SOL    HW130896   6.377   2.956   5.865
 9999SOL    HW230897   6.221   2.988   5.827
10000SOL     OW30898   0.173   4.569   0.072
10000SOL    HW130899   0.116   4.557   0.153
10000SOL    HW230900   0.173   4.485   0.018
10001SOL     OW30901   4.807   0.045   2.009
10001SOL    HW130902   4.749   6.988   2.013
10001SOL    HW230903   4.856   0.055   2.096
10002SOL     OW30904   1.241   6.611   2.073
10002SOL    HW130905   1.294   6.527   2.061
10002SOL    HW230906   1.286   6.686   2.025
10003SOL     OW30907   3.739   2.096   3.455
10003SOL    HW130908   3.817   2.089   3.393
10003SOL    HW230909   3.773   2.111   3.548
10004SOL     OW30910   6.948   2.650   3.961
10004SOL    HW130911   7.002   2.650   3.877
10004SOL    HW230912   6.859   2.691   3.944
10005SOL     OW30913   5.762   0.345   3.998
10005SOL    HW130914   5.690   0.408   4.028
10005SOL    HW230915   5.847   0.366   4.046
10006SOL     OW30916   5.231   5.658   4.749
10006SOL    HW130917   5.305   5.591   4.762
10006SOL    HW230918   5.208   5.698   4.838
10007SOL     OW30919   6.949   4.339   4.937
10007SOL    HW130920   6.882   4.268   4.960
10007SOL    HW230921   6.908   4.402   4.870
10008SOL     OW30922   3.737   1.551   4.866
10008SOL    HW130923   3.647   1.592   4.851
10008SOL    HW230924   3.807   1.606   4.821
10009SOL     OW30925   1.802   3.531   2.162
10009SOL    HW130926   1.808   3.504   2.258
10009SOL    HW230927   1.811   3.630   2.154
10010SOL     OW30928   2.396   1.166   5.824
10010SOL    HW130929   2.310   1.121   5.849
10010SOL    HW230930   2.471   1.100   5.832
10011SOL     OW30931   6.465   0.708   5.893
10011SOL    HW130932   6.452   0.807   5.898
10011SOL    HW230933   6.557   0.684   5.924
10012SOL     OW30934   6.052   1.171   2.898
10012SOL    HW130935   5.967   1.127   2.929
10012SOL    HW230936   6.044   1.193   2.801
10013SOL     OW30937   0.388   1.206   2.981
10013SOL    HW130938   0.296   1.213   3.018
10013SOL    HW230939   0.437   1.291   2.996
10014SOL     OW30940   0.685   4.324   0.067
10014SOL    HW130941   0.724   4.267   0.140
10014SOL    HW230942   0.667   4.268   7.011
10015SOL     OW30943   2.722   4.829   0.919
10015SOL    HW130944   2.686   4.863   1.006
10015SOL    HW230945   2.818   4.803   0.931
10016SOL     OW30946   0.750   1.796   6.185
10016SOL    HW130947   0.704   1.751   6.109
10016SOL    HW230948   0.838   1.833   6.155
10017SOL     OW30949   3.244   2.076   3.181
10017SOL    HW130950   3.160   2.091   3.233
10017SOL    HW230951   3.322   2.109   3.233
10018SOL     OW30952   4.965   0.517   6.595
10018SOL    HW130953   5.001   0.565   6.675
10018SOL    HW230954   4.877   0.475   6.618
10019SOL     OW30955   0.697   1.762   3.026
10019SOL    HW130956   0.700   1.713   3.113
10019SOL    HW230957   0.696   1.696   2.951
10020SOL     OW30958   1.182   1.905   1.583
10020SOL    HW130959   1.263   1.923   1.528
10020SOL    HW230960   1.105   1.956   1.546
10021SOL     OW30961   6.507   3.118   1.217
10021SOL    HW130962   6.546   3.026   1.228
10021SOL    HW230963   6.535   3.155   1.128
10022SOL     OW30964   2.225   1.608   5.666
10022SOL    HW130965   2.279   1.669   5.608
10022SOL    HW230966   2.146   1.658   5.701
10023SOL     OW30967   6.836   4.582   0.976
10023SOL    HW130968   6.890   4.515   0.924
10023SOL    HW230969   6.740   4.577   0.947
10024SOL     OW30970   1.409   6.097   3.174
10024SOL    HW130971   1.446   6.119   3.084
10024SOL    HW230972   1.410   6.178   3.231
10025SOL     OW30973   1.764   0.528   0.505
10025SOL    HW130974   1.686   0.472   0.476
10025SOL    HW230975   1.748   0.564   0.596
10026SOL     OW30976   5.124   0.268   3.824
10026SOL    HW130977   5.172   0.196   3.774
10026SOL    HW230978   5.040   0.292   3.776
10027SOL     OW30979   5.737   3.251   4.581
10027SOL    HW130980   5.798   3.321   4.545
10027SOL    HW230981   5.742   3.169   4.524
10028SOL     OW30982   1.130   6.967   1.073
10028SOL    HW130983   1.204   6.908   1.106
10028SOL    HW230984   1.154   7.004   0.983
10029SOL     OW30985   5.546   2.030   3.723
10029SOL    HW130986   5.622   1.965   3.718
10029SOL    HW230987   5.460   1.980   3.736
10030SOL     OW30988   1.774   0.352   2.888
10030SOL    HW130989   1.852   0.290   2.880
10030SOL    HW230990   1.714   0.339   2.809
10031SOL     OW30991   5.558   4.830   3.688
10031SOL    HW130992   5.475   4.870   3.727
10031SOL    HW230993   5.631   4.831   3.755
10032SOL     OW30994   2.941   1.281   5.631
10032SOL    HW130995   2.873   1.213   5.658
10032SOL    HW230996   3.005   1.240   5.566
10033SOL     OW30997   6.249   3.434   4.315
10033SOL    HW130998   6.266   3.529   4.343
10033SOL    HW230999   6.335   3.393   4.284
10034SOL     OW31000   3.588   0.908   4.129
10034SOL    HW131001   3.662   0.841   4.131
10034SOL    HW231002   3.626   1.001   4.130
10035SOL     OW31003   6.370   5.361   2.210
10035SOL    HW131004   6.466   5.372   2.187
10035SOL    HW231005   6.315   5.428   2.161
10036SOL     OW31006   6.727   2.350   0.540
10036SOL    HW131007   6.660   2.287   0.579
10036SOL    HW231008   6.703   2.368   0.444
10037SOL     OW31009   0.188   1.374   6.287
10037SOL    HW131010   0.162   1.347   6.194
10037SOL    HW231011   0.259   1.443   6.283
10038SOL     OW31012   6.214   0.151   0.127
10038SOL    HW131013   6.172   0.231   0.083
10038SOL    HW231014   6.250   0.090   0.057
10039SOL     OW31015   3.221   0.064   3.600
10039SOL    HW131016   3.270   0.140   3.558
10039SOL    HW231017   3.147   0.034   3.540
10040SOL     OW31018   5.949   4.504   6.915
10040SOL    HW131019   5.890   4.532   6.990
10040SOL    HW231020   5.975   4.585   6.861
10041SOL     OW31021   3.611   6.315   0.557
10041SOL    HW131022   3.592   6.261   0.639
10041SOL    HW231023   3.697   6.284   0.517
10042SOL     OW31024   0.027   2.091   3.159
10042SOL    HW131025   0.030   2.098   3.059
10042SOL    HW231026   7.022   2.178   3.198
10043SOL     OW31027   6.569   2.028   5.839
10043SOL    HW131028   6.648   2.070   5.793
10043SOL    HW231029   6.579   2.039   5.937
10044SOL     OW31030   2.926   3.257   5.931
10044SOL    HW131031   2.884   3.196   5.864
10044SOL    HW231032   2.858   3.279   6.002
10045SOL     OW31033   4.292   1.215   0.601
10045SOL    HW131034   4.207   1.207   0.549
10045SOL    HW231035   4.280   1.279   0.676
10046SOL     OW31036   1.588   4.270   1.217
10046SOL    HW131037   1.494   4.240   1.199
10046SOL    HW231038   1.587   4.361   1.258
10047SOL     OW31039   1.012   3.490   6.158
10047SOL    HW131040   1.074   3.419   6.124
10047SOL    HW231041   1.032   3.509   6.254
10048SOL     OW31042   6.945   6.596   2.933
10048SOL    HW131043   6.946   6.561   3.027
10048SOL    HW231044   6.969   6.693   2.933
10049SOL     OW31045   0.175   2.854   6.093
10049SOL    HW131046   0.263   2.866   6.140
10049SOL    HW231047   0.115   2.931   6.116
10050SOL     OW31048   5.071   3.426   5.162
10050SOL    HW131049   5.137   3.462   5.097
10050SOL    HW231050   4.995   3.383   5.113
10051SOL     OW31051   1.251   4.325   4.713
10051SOL    HW131052   1.312   4.252   4.746
10051SOL    HW231053   1.189   4.288   4.644
10052SOL     OW31054   1.284   0.464   3.429
10052SOL    HW131055   1.222   0.419   3.365
10052SOL    HW231056   1.234   0.484   3.514
10053SOL     OW31057   4.802   5.486   4.357
10053SOL    HW131058   4.766   5.420   4.423
10053SOL    HW231059   4.899   5.502   4.376
10054SOL     OW31060   5.788   3.731   5.066
10054SOL    HW131061   5.809   3.708   4.971
10054SOL    HW231062   5.752   3.824   5.070
10055SOL     OW31063   6.580   2.328   6.574
10055SOL    HW131064   6.554   2.405   6.633
10055SOL    HW231065   6.656   2.356   6.515
10056SOL     OW31066   5.219   3.156   3.449
10056SOL    HW131067   5.225   3.152   3.349
10056SOL    HW231068   5.139   3.105   3.479
10057SOL     OW31069   5.569   4.260   6.377
10057SOL    HW131070   5.556   4.167   6.413
10057SOL    HW231071   5.583   4.255   6.279
10058SOL     OW31072   6.556   3.250   5.185
10058SOL    HW131073   6.529   3.307   5.107
10058SOL    HW231074   6.524   3.157   5.170
10059SOL     OW31075   6.688   1.313   0.098
10059SOL    HW131076   6.612   1.251   0.117
10059SOL    HW231077   6.741   1.330   0.181
10060SOL     OW31078   2.782   1.935   2.396
10060SOL    HW131079   2.793   2.017   2.339
10060SOL    HW231080   2.689   1.932   2.432
10061SOL     OW31081   4.065   0.885   4.074
10061SOL    HW131082   4.070   0.790   4.044
10061SOL    HW231083   4.150   0.932   4.051
10062SOL     OW31084   0.588   0.224   3.859
10062SOL    HW131085   0.578   0.226   3.959
10062SOL    HW231086   0.531   0.150   3.822
10063SOL     OW31087   1.822   2.246   4.625
10063SOL    HW131088   1.856   2.205   4.709
10063SOL    HW231089   1.898   2.259   4.561
10064SOL     OW31090   3.167   6.168   0.221
10064SOL    HW131091   3.210   6.231   0.156
10064SOL    HW231092   3.228   6.153   0.299
10065SOL     OW31093   1.023   0.609   1.757
10065SOL    HW131094   1.041   0.644   1.849
10065SOL    HW231095   0.937   0.646   1.723
10066SOL     OW31096   6.893   3.625   4.809
10066SOL    HW131097   6.932   3.714   4.785
10066SOL    HW231098   6.962   3.554   4.796
10067SOL     OW31099   0.644   2.805   5.975
10067SOL    HW131100   0.584   2.839   5.904
10067SOL    HW231101   0.668   2.710   5.957
10068SOL     OW31102   2.313   2.877   2.564
10068SOL    HW131103   2.323   2.782   2.536
10068SOL    HW231104   2.398   2.927   2.545
10069SOL     OW31105   3.609   5.075   1.624
10069SOL    HW131106   3.631   5.167   1.591
10069SOL    HW231107   3.520   5.047   1.587
10070SOL     OW31108   3.066   5.898   5.071
10070SOL    HW131109   2.979   5.901   5.120
10070SOL    HW231110   3.053   5.854   4.983
10071SOL     OW31111   0.499   6.834   3.224
10071SOL    HW131112   0.576   6.860   3.166
10071SOL    HW231113   0.461   6.915   3.267
10072SOL     OW31114   6.658   1.722   2.482
10072SOL    HW131115   6.668   1.669   2.567
10072SOL    HW231116   6.711   1.679   2.409
10073SOL     OW31117   6.047   3.173   4.430
10073SOL    HW131118   6.020   3.247   4.369
10073SOL    HW231119   6.099   3.210   4.507
10074SOL     OW31120   2.307   4.973   0.523
10074SOL    HW131121   2.392   5.026   0.531
10074SOL    HW231122   2.325   4.889   0.471
10075SOL     OW31123   1.815   2.117   2.328
10075SOL    HW131124   1.728   2.156   2.295
10075SOL    HW231125   1.808   2.100   2.426
10076SOL     OW31126   4.833   5.117   3.439
10076SOL    HW131127   4.896   5.053   3.394
10076SOL    HW231128   4.873   5.148   3.525
10077SOL     OW31129   6.221   3.282   6.825
10077SOL    HW131130   6.192   3.262   6.919
10077SOL    HW231131   6.311   3.243   6.808
10078SOL     OW31132   0.163   6.391   4.577
10078SOL    HW131133   0.139   6.388   4.674
10078SOL    HW231134   0.102   6.330   4.526
10079SOL     OW31135   5.226   2.674   3.086
10079SOL    HW131136   5.208   2.585   3.045
10079SOL    HW231137   5.165   2.688   3.163
10080SOL     OW31138   5.736   0.742   5.791
10080SOL    HW131139   5.682   0.782   5.718
10080SOL    HW231140   5.785   0.661   5.757
10081SOL     OW31141   1.837   2.253   0.659
10081SOL    HW131142   1.923   2.273   0.705
10081SOL    HW231143   1.843   2.279   0.563
10082SOL     OW31144   1.527   4.632   2.449
10082SOL    HW131145   1.577   4.550   2.421
10082SOL    HW231146   1.430   4.622   2.425
10083SOL     OW31147   3.933   5.217   3.774
10083SOL    HW131148   4.001   5.281   3.738
10083SOL    HW231149   3.928   5.137   3.714
10084SOL     OW31150   0.977   0.242   5.212
10084SOL    HW131151   1.050   0.308   5.229
10084SOL    HW231152   0.891   0.291   5.196
10085SOL     OW31153   4.046   6.606   0.393
10085SOL    HW131154   3.961   6.597   0.341
10085SOL    HW231155   4.097   6.520   0.387
10086SOL     OW31156   6.906   5.820   1.890
10086SOL    HW131157   6.960   5.903   1.880
10086SOL    HW231158   6.815   5.834   1.851
10087SOL     OW31159   1.528   6.660   4.673
10087SOL    HW131160   1.539   6.633   4.769
10087SOL    HW231161   1.436   6.695   4.659
10088SOL     OW31162   6.735   3.112   7.007
10088SOL    HW131163   6.700   3.047   0.051
10088SOL    HW231164   6.809   3.166   0.023
10089SOL     OW31165   4.427   1.807   1.985
10089SOL    HW131166   4.430   1.811   1.885
10089SOL    HW231167   4.341   1.766   2.015
10090SOL     OW31168   1.377   5.619   1.054
10090SOL    HW131169   1.417   5.704   1.021
10090SOL    HW231170   1.449   5.559   1.088
10091SOL     OW31171   6.279   4.544   5.927
10091SOL    HW131172   6.304   4.619   5.988
10091SOL    HW231173   6.200   4.495   5.964
10092SOL     OW31174   0.043   3.012   5.369
10092SOL    HW131175   7.021   2.947   5.308
10092SOL    HW231176   0.043   2.975   5.462
10093SOL     OW31177   5.613   4.073   6.150
10093SOL    HW131178   5.529   4.046   6.198
10093SOL    HW231179   5.613   4.035   6.058
10094SOL     OW31180   3.190   0.847   0.854
10094SOL    HW131181   3.178   0.844   0.755
10094SOL    HW231182   3.275   0.799   0.879
10095SOL     OW31183   5.053   2.798   5.016
10095SOL    HW131184   4.965   2.792   5.064
10095SOL    HW231185   5.117   2.853   5.070
10096SOL     OW31186   5.014   0.925   2.997
10096SOL    HW131187   4.927   0.883   2.971
10096SOL    HW231188   5.080   0.854   3.019
10097SOL     OW31189   1.362   1.791   6.660
10097SOL    HW131190   1.436   1.725   6.644
10097SOL    HW231191   1.327   1.781   6.753
10098SOL     OW31192   3.610   5.690   4.747
10098SOL    HW131193   3.551   5.698   4.827
10098SOL    HW231194   3.703   5.664   4.776
10099SOL     OW31195   6.882   4.756   1.971
10099SOL    HW131196   6.789   4.770   1.938
10099SOL    HW231197   6.942   4.827   1.934
10100SOL     OW31198   5.322   5.204   4.601
10100SOL    HW131199   5.332   5.227   4.697
10100SOL    HW231200   5.236   5.156   4.587
10101SOL     OW31201   1.110   1.693   0.954
10101SOL    HW131202   1.017   1.664   0.976
10101SOL    HW231203   1.133   1.662   0.862
10102SOL     OW31204   6.439   6.476   1.637
10102SOL    HW131205   6.359   6.510   1.686
10102SOL    HW231206   6.437   6.376   1.634
10103SOL     OW31207   6.903   6.755   6.093
10103SOL    HW131208   6.980   6.818   6.102
10103SOL    HW231209   6.935   6.661   6.106
10104SOL     OW31210   1.818   0.718   5.518
10104SOL    HW131211   1.745   0.700   5.583
10104SOL    HW231212   1.888   0.646   5.526
10105SOL     OW31213   2.181   0.722   5.851
10105SOL    HW131214   2.090   0.689   5.876
10105SOL    HW231215   2.184   0.822   5.858
10106SOL     OW31216   4.957   5.864   1.543
10106SOL    HW131217   4.961   5.773   1.583
10106SOL    HW231218   5.049   5.894   1.518
10107SOL     OW31219   5.328   4.183   6.616
10107SOL    HW131220   5.428   4.190   6.624
10107SOL    HW231221   5.285   4.227   6.694
10108SOL     OW31222   1.565   2.049   0.538
10108SOL    HW131223   1.661   2.022   0.542
10108SOL    HW231224   1.547   2.120   0.607
10109SOL     OW31225   1.058   1.253   0.650
10109SOL    HW131226   0.966   1.228   0.619
10109SOL    HW231227   1.095   1.179   0.707
10110SOL     OW31228   4.976   6.412   2.857
10110SOL    HW131229   5.028   6.377   2.779
10110SOL    HW231230   4.895   6.461   2.825
10111SOL     OW31231   1.261   1.357   2.062
10111SOL    HW131232   1.298   1.450   2.069
10111SOL    HW231233   1.215   1.346   1.974
10112SOL     OW31234   6.503   2.257   3.591
10112SOL    HW131235   6.459   2.346   3.586
10112SOL    HW231236   6.489   2.217   3.682
10113SOL     OW31237   5.692   1.344   6.752
10113SOL    HW131238   5.731   1.410   6.687
10113SOL    HW231239   5.703   1.379   6.845
10114SOL     OW31240   4.053   1.687   2.513
10114SOL    HW131241   3.958   1.696   2.546
10114SOL    HW231242   4.094   1.778   2.506
10115SOL     OW31243   3.567   2.471   5.387
10115SOL    HW131244   3.557   2.383   5.341
10115SOL    HW231245   3.484   2.525   5.373
10116SOL     OW31246   6.231   0.484   4.798
10116SOL    HW131247   6.283   0.430   4.864
10116SOL    HW231248   6.155   0.529   4.844
10117SOL     OW31249   6.587   5.282   4.050
10117SOL    HW131250   6.542   5.341   4.117
10117SOL    HW231251   6.589   5.188   4.084
10118SOL     OW31252   3.470   5.338   4.853
10118SOL    HW131253   3.564   5.339   4.887
10118SOL    HW231254   3.448   5.249   4.814
10119SOL     OW31255   0.442   5.131   4.669
10119SOL    HW131256   0.372   5.125   4.598
10119SOL    HW231257   0.465   5.038   4.700
10120SOL     OW31258   2.188   2.822   1.961
10120SOL    HW131259   2.191   2.864   2.051
10120SOL    HW231260   2.219   2.887   1.892
10121SOL     OW31261   6.034   4.486   0.885
10121SOL    HW131262   5.993   4.394   0.879
10121SOL    HW231263   6.050   4.508   0.982
10122SOL     OW31264   1.154   0.957   3.816
10122SOL    HW131265   1.123   0.868   3.783
10122SOL    HW231266   1.247   0.950   3.850
10123SOL     OW31267   5.642   5.954   0.613
10123SOL    HW131268   5.618   6.022   0.683
10123SOL    HW231269   5.642   5.863   0.653
10124SOL     OW31270   1.584   4.109   3.066
10124SOL    HW131271   1.655   4.086   3.132
10124SOL    HW231272   1.618   4.177   3.001
10125SOL     OW31273   0.965   1.909   6.074
10125SOL    HW131274   0.956   1.956   5.987
10125SOL    HW231275   1.015   1.967   6.139
10126SOL     OW31276   6.492   6.588   6.511
10126SOL    HW131277   6.467   6.669   6.459
10126SOL    HW231278   6.418   6.520   6.505
10127SOL     OW31279   2.138   5.408   6.085
10127SOL    HW131280   2.164   5.328   6.138
10127SOL    HW231281   2.135   5.384   5.988
10128SOL     OW31282   3.201   0.747   6.983
10128SOL    HW131283   3.234   0.834   7.018
10128SOL    HW231284   3.259   0.715   6.908
10129SOL     OW31285   5.984   1.596   4.121
10129SOL    HW131286   5.934   1.515   4.150
10129SOL    HW231287   6.070   1.603   4.172
10130SOL     OW31288   1.627   1.800   2.928
10130SOL    HW131289   1.621   1.898   2.907
10130SOL    HW231290   1.669   1.788   3.018
10131SOL     OW31291   2.275   0.629   4.539
10131SOL    HW131292   2.216   0.555   4.571
10131SOL    HW231293   2.261   0.711   4.595
10132SOL     OW31294   6.736   0.737   2.204
10132SOL    HW131295   6.816   0.789   2.174
10132SOL    HW231296   6.760   0.640   2.212
10133SOL     OW31297   4.838   6.865   0.109
10133SOL    HW131298   4.900   6.789   0.126
10133SOL    HW231299   4.759   6.833   0.057
10134SOL     OW31300   6.312   1.084   1.754
10134SOL    HW131301   6.271   1.004   1.710
10134SOL    HW231302   6.312   1.161   1.690
10135SOL     OW31303   6.414   0.570   2.382
10135SOL    HW131304   6.421   0.512   2.463
10135SOL    HW231305   6.439   0.517   2.301
10136SOL     OW31306   5.325   1.622   3.179
10136SOL    HW131307   5.243   1.574   3.207
10136SOL    HW231308   5.370   1.661   3.259
10137SOL     OW31309   6.252   5.447   5.785
10137SOL    HW131310   6.181   5.402   5.732
10137SOL    HW231311   6.224   5.541   5.806
10138SOL     OW31312   6.502   1.682   0.339
10138SOL    HW131313   6.507   1.749   0.265
10138SOL    HW231314   6.406   1.665   0.362
10139SOL     OW31315   3.376   3.576   5.605
10139SOL    HW131316   3.338   3.638   5.536
10139SOL    HW231317   3.476   3.579   5.601
10140SOL     OW31318   7.003   5.919   5.903
10140SOL    HW131319   7.000   6.019   5.899
10140SOL    HW231320   0.002   5.883   5.813
10141SOL     OW31321   2.505   1.926   4.273
10141SOL    HW131322   2.408   1.926   4.297
10141SOL    HW231323   2.520   1.866   4.194
10142SOL     OW31324   5.785   6.675   4.181
10142SOL    HW131325   5.717   6.618   4.135
10142SOL    HW231326   5.873   6.666   4.134
10143SOL     OW31327   5.342   3.547   6.907
10143SOL    HW131328   5.324   3.625   6.846
10143SOL    HW231329   5.417   3.493   6.871
10144SOL     OW31330   3.953   6.481   5.793
10144SOL    HW131331   3.864   6.464   5.834
10144SOL    HW231332   3.942   6.518   5.701
10145SOL     OW31333   5.316   6.319   6.812
10145SOL    HW131334   5.302   6.318   6.910
10145SOL    HW231335   5.401   6.368   6.791
10146SOL     OW31336   0.207   2.508   4.254
10146SOL    HW131337   0.131   2.538   4.312
10146SOL    HW231338   0.283   2.478   4.313
10147SOL     OW31339   4.990   6.061   6.212
10147SOL    HW131340   5.011   6.150   6.253
10147SOL    HW231341   4.894   6.060   6.183
10148SOL     OW31342   0.910   4.575   6.556
10148SOL    HW131343   0.970   4.631   6.613
10148SOL    HW231344   0.819   4.571   6.599
10149SOL     OW31345   4.313   4.569   0.598
10149SOL    HW131346   4.255   4.540   0.521
10149SOL    HW231347   4.342   4.489   0.649
10150SOL     OW31348   4.118   4.509   6.759
10150SOL    HW131349   4.122   4.492   6.857
10150SOL    HW231350   4.149   4.602   6.739
10151SOL     OW31351   6.014   6.734   5.427
10151SOL    HW131352   6.030   6.804   5.497
10151SOL    HW231353   5.923   6.747   5.388
10152SOL     OW31354   5.231   6.252   2.867
10152SOL    HW131355   5.277   6.332   2.829
10152SOL    HW231356   5.188   6.275   2.954
10153SOL     OW31357   5.112   4.154   3.471
10153SOL    HW131358   5.018   4.182   3.449
10153SOL    HW231359   5.136   4.186   3.563
10154SOL     OW31360   5.326   5.447   5.090
10154SOL    HW131361   5.426   5.443   5.081
10154SOL    HW231362   5.302   5.450   5.187
10155SOL     OW31363   4.416   2.150   4.895
10155SOL    HW131364   4.316   2.150   4.900
10155SOL    HW231365   4.451   2.235   4.934
10156SOL     OW31366   5.321   2.130   6.999
10156SOL    HW131367   5.223   2.126   7.019
10156SOL    HW231368   5.336   2.190   6.921
10157SOL     OW31369   0.136   2.572   1.172
10157SOL    HW131370   0.078   2.510   1.225
10157SOL    HW231371   0.113   2.666   1.194
10158SOL     OW31372   5.723   5.857   1.247
10158SOL    HW131373   5.722   5.807   1.334
10158SOL    HW231374   5.643   5.916   1.242
10159SOL     OW31375   3.565   3.419   2.612
10159SOL    HW131376   3.528   3.379   2.696
10159SOL    HW231377   3.565   3.350   2.539
10160SOL     OW31378   1.693   5.193   3.330
10160SOL    HW131379   1.764   5.122   3.332
10160SOL    HW231380   1.729   5.274   3.284
10161SOL     OW31381   5.349   3.280   5.668
10161SOL    HW131382   5.363   3.214   5.742
10161SOL    HW231383   5.262   3.326   5.680
10162SOL     OW31384   1.322   3.457   2.727
10162SOL    HW131385   1.344   3.544   2.770
10162SOL    HW231386   1.402   3.397   2.730
10163SOL     OW31387   1.107   6.133   5.229
10163SOL    HW131388   1.104   6.184   5.143
10163SOL    HW231389   1.040   6.059   5.227
10164SOL     OW31390   0.680   2.827   2.873
10164SOL    HW131391   0.687   2.768   2.954
10164SOL    HW231392   0.742   2.904   2.882
10165SOL     OW31393   6.955   3.192   4.390
10165SOL    HW131394   0.028   3.179   4.371
10165SOL    HW231395   6.903   3.117   4.349
10166SOL     OW31396   1.164   0.832   0.862
10166SOL    HW131397   1.217   0.801   0.784
10166SOL    HW231398   1.072   0.859   0.832
10167SOL     OW31399   1.940   0.257   6.852
10167SOL    HW131400   1.914   0.336   6.796
10167SOL    HW231401   1.886   0.178   6.823
10168SOL     OW31402   6.813   1.105   0.533
10168SOL    HW131403   6.773   1.025   0.577
10168SOL    HW231404   6.845   1.169   0.604
10169SOL     OW31405   6.395   2.562   3.588
10169SOL    HW131406   6.411   2.578   3.491
10169SOL    HW231407   6.297   2.569   3.608
10170SOL     OW31408   6.062   5.511   6.055
10170SOL    HW131409   6.073   5.506   6.155
10170SOL    HW231410   6.013   5.430   6.023
10171SOL     OW31411   2.282   3.444   5.860
10171SOL    HW131412   2.347   3.479   5.926
10171SOL    HW231413   2.202   3.408   5.908
10172SOL     OW31414   6.363   0.713   2.688
10172SOL    HW131415   6.323   0.722   2.597
10172SOL    HW231416   6.399   0.620   2.699
10173SOL     OW31417   3.239   4.556   5.814
10173SOL    HW131418   3.294   4.594   5.888
10173SOL    HW231419   3.142   4.568   5.835
10174SOL     OW31420   5.156   5.914   2.734
10174SOL    HW131421   5.229   5.936   2.669
10174SOL    HW231422   5.173   5.823   2.773
10175SOL     OW31423   0.141   1.331   4.033
10175SOL    HW131424   0.237   1.312   4.050
10175SOL    HW231425   0.107   1.267   3.963
10176SOL     OW31426   5.879   1.912   5.862
10176SOL    HW131427   5.794   1.962   5.881
10176SOL    HW231428   5.925   1.953   5.783
10177SOL     OW31429   2.528   0.737   2.663
10177SOL    HW131430   2.552   0.659   2.722
10177SOL    HW231431   2.548   0.715   2.568
10178SOL     OW31432   2.007   1.123   0.200
10178SOL    HW131433   2.081   1.075   0.247
10178SOL    HW231434   2.013   1.221   0.220
10179SOL     OW31435   1.027   4.071   1.233
10179SOL    HW131436   1.067   4.030   1.315
10179SOL    HW231437   0.942   4.117   1.257
10180SOL     OW31438   4.532   6.851   6.181
10180SOL    HW131439   4.466   6.909   6.133
10180SOL    HW231440   4.497   6.757   6.185
10181SOL     OW31441   0.043   3.492   1.941
10181SOL    HW131442   0.110   3.428   1.979
10181SOL    HW231443   0.070   3.586   1.962
10182SOL     OW31444   5.746   2.280   6.817
10182SOL    HW131445   5.775   2.229   6.735
10182SOL    HW231446   5.671   2.231   6.861
10183SOL     OW31447   6.495   2.595   6.659
10183SOL    HW131448   6.399   2.573   6.642
10183SOL    HW231449   6.514   2.687   6.627
10184SOL     OW31450   5.676   3.324   6.090
10184SOL    HW131451   5.736   3.390   6.134
10184SOL    HW231452   5.585   3.364   6.079
10185SOL     OW31453   4.008   5.614   2.397
10185SOL    HW131454   4.078   5.546   2.419
10185SOL    HW231455   4.045   5.706   2.411
10186SOL     OW31456   4.207   3.054   6.022
10186SOL    HW131457   4.299   3.016   6.009
10186SOL    HW231458   4.197   3.136   5.966
10187SOL     OW31459   1.453   5.379   6.028
10187SOL    HW131460   1.430   5.463   5.979
10187SOL    HW231461   1.551   5.361   6.018
10188SOL     OW31462   2.930   0.386   6.674
10188SOL    HW131463   2.965   0.359   6.763
10188SOL    HW231464   2.983   0.464   6.640
10189SOL     OW31465   0.971   2.047   5.811
10189SOL    HW131466   0.973   1.971   5.746
10189SOL    HW231467   0.892   2.106   5.791
10190SOL     OW31468   3.499   5.196   2.114
10190SOL    HW131469   3.552   5.274   2.145
10190SOL    HW231470   3.451   5.155   2.192
10191SOL     OW31471   5.432   5.389   0.300
10191SOL    HW131472   5.488   5.307   0.314
10191SOL    HW231473   5.479   5.450   0.236
10192SOL     OW31474   2.139   1.704   4.573
10192SOL    HW131475   2.232   1.693   4.607
10192SOL    HW231476   2.121   1.637   4.501
10193SOL     OW31477   3.746   3.975   3.467
10193SOL    HW131478   3.664   3.923   3.446
10193SOL    HW231479   3.729   4.033   3.547
10194SOL     OW31480   3.377   6.818   3.855
10194SOL    HW131481   3.476   6.819   3.840
10194SOL    HW231482   3.336   6.743   3.803
10195SOL     OW31483   4.233   6.426   1.955
10195SOL    HW131484   4.191   6.514   1.933
10195SOL    HW231485   4.329   6.428   1.928
10196SOL     OW31486   5.988   1.867   3.429
10196SOL    HW131487   5.997   1.946   3.489
10196SOL    HW231488   5.939   1.894   3.346
10197SOL     OW31489   5.736   0.736   2.177
10197SOL    HW131490   5.739   0.643   2.215
10197SOL    HW231491   5.694   0.733   2.086
10198SOL     OW31492   2.865   0.251   1.299
10198SOL    HW131493   2.788   0.307   1.270
10198SOL    HW231494   2.832   0.164   1.337
10199SOL     OW31495   0.244   0.996   6.843
10199SOL    HW131496   0.161   1.025   6.796
10199SOL    HW231497   0.249   1.041   6.932
10200SOL     OW31498   5.276   4.431   5.248
10200SOL    HW131499   5.312   4.490   5.175
10200SOL    HW231500   5.352   4.396   5.303
10201SOL     OW31501   0.983   4.962   2.479
10201SOL    HW131502   1.074   4.921   2.484
10201SOL    HW231503   0.992   5.061   2.463
10202SOL     OW31504   1.216   3.145   2.006
10202SOL    HW131505   1.197   3.094   2.090
10202SOL    HW231506   1.312   3.170   2.003
10203SOL     OW31507   2.061   3.006   2.466
10203SOL    HW131508   2.142   2.966   2.509
10203SOL    HW231509   2.032   3.087   2.518
10204SOL     OW31510   2.788   4.713   5.357
10204SOL    HW131511   2.738   4.779   5.301
10204SOL    HW231512   2.832   4.646   5.298
10205SOL     OW31513   4.999   2.238   3.224
10205SOL    HW131514   5.081   2.258   3.172
10205SOL    HW231515   4.942   2.319   3.230
10206SOL     OW31516   5.256   6.988   6.104
10206SOL    HW131517   5.342   6.950   6.071
10206SOL    HW231518   5.254   6.986   6.204
10207SOL     OW31519   3.637   0.944   2.982
10207SOL    HW131520   3.592   1.033   2.993
10207SOL    HW231521   3.735   0.957   2.976
10208SOL     OW31522   6.277   4.211   5.556
10208SOL    HW131523   6.331   4.288   5.521
10208SOL    HW231524   6.192   4.245   5.596
10209SOL     OW31525   6.368   6.323   6.400
10209SOL    HW131526   6.457   6.277   6.401
10209SOL    HW231527   6.340   6.339   6.305
10210SOL     OW31528   5.404   5.759   2.483
10210SOL    HW131529   5.463   5.788   2.558
10210SOL    HW231530   5.315   5.731   2.520
10211SOL     OW31531   3.890   5.858   5.054
10211SOL    HW131532   3.900   5.957   5.046
10211SOL    HW231533   3.795   5.837   5.080
10212SOL     OW31534   0.252   0.878   4.526
10212SOL    HW131535   0.166   0.851   4.483
10212SOL    HW231536   0.290   0.957   4.478
10213SOL     OW31537   6.047   1.520   3.694
10213SOL    HW131538   6.022   1.583   3.768
10213SOL    HW231539   6.115   1.564   3.636
10214SOL     OW31540   6.813   1.056   1.804
10214SOL    HW131541   6.723   1.046   1.763
10214SOL    HW231542   6.805   1.106   1.890
10215SOL     OW31543   3.680   4.003   6.481
10215SOL    HW131544   3.647   3.912   6.454
10215SOL    HW231545   3.779   4.007   6.468
10216SOL     OW31546   5.196   0.660   1.172
10216SOL    HW131547   5.108   0.707   1.172
10216SOL    HW231548   5.214   0.623   1.081
10217SOL     OW31549   2.729   1.584   4.531
10217SOL    HW131550   2.658   1.518   4.556
10217SOL    HW231551   2.710   1.618   4.439
10218SOL     OW31552   1.901   0.903   0.585
10218SOL    HW131553   1.965   0.831   0.559
10218SOL    HW231554   1.923   0.988   0.537
10219SOL     OW31555   0.729   2.375   1.449
10219SOL    HW131556   0.755   2.302   1.513
10219SOL    HW231557   0.731   2.339   1.356
10220SOL     OW31558   4.245   1.890   1.391
10220SOL    HW131559   4.191   1.940   1.458
10220SOL    HW231560   4.201   1.801   1.373
10221SOL     OW31561   2.879   0.396   5.172
10221SOL    HW131562   2.965   0.446   5.166
10221SOL    HW231563   2.812   0.449   5.224
10222SOL     OW31564   1.470   4.759   5.546
10222SOL    HW131565   1.520   4.845   5.535
10222SOL    HW231566   1.490   4.698   5.470
10223SOL     OW31567   1.540   4.061   0.108
10223SOL    HW131568   1.546   3.972   0.154
10223SOL    HW231569   1.453   4.105   0.132
10224SOL     OW31570   1.253   0.312   4.052
10224SOL    HW131571   1.303   0.350   4.130
10224SOL    HW231572   1.307   0.239   4.010
10225SOL     OW31573   6.744   5.647   4.820
10225SOL    HW131574   6.677   5.721   4.823
10225SOL    HW231575   6.774   5.625   4.913
10226SOL     OW31576   2.027   0.902   6.613
10226SOL    HW131577   2.021   0.914   6.712
10226SOL    HW231578   1.941   0.933   6.571
10227SOL     OW31579   4.996   4.874   6.779
10227SOL    HW131580   4.993   4.928   6.694
10227SOL    HW231581   5.060   4.798   6.768
10228SOL     OW31582   1.399   5.280   3.646
10228SOL    HW131583   1.467   5.273   3.719
10228SOL    HW231584   1.440   5.326   3.567
10229SOL     OW31585   1.068   0.345   3.226
10229SOL    HW131586   1.034   0.283   3.156
10229SOL    HW231587   1.059   0.440   3.194
10230SOL     OW31588   6.131   0.530   3.857
10230SOL    HW131589   6.157   0.494   3.767
10230SOL    HW231590   6.196   0.499   3.926
10231SOL     OW31591   5.384   6.584   5.020
10231SOL    HW131592   5.385   6.527   4.937
10231SOL    HW231593   5.463   6.646   5.018
10232SOL     OW31594   3.335   2.030   5.155
10232SOL    HW131595   3.362   2.011   5.249
10232SOL    HW231596   3.238   2.009   5.142
10233SOL     OW31597   4.545   2.278   5.596
10233SOL    HW131598   4.491   2.199   5.567
10233SOL    HW231599   4.585   2.260   5.686
10234SOL     OW31600   5.872   6.857   1.158
10234SOL    HW131601   5.865   6.893   1.251
10234SOL    HW231602   5.920   6.770   1.159
10235SOL     OW31603   5.029   1.529   0.232
10235SOL    HW131604   5.085   1.611   0.231
10235SOL    HW231605   4.974   1.525   0.148
10236SOL     OW31606   2.217   5.970   2.270
10236SOL    HW131607   2.303   5.966   2.321
10236SOL    HW231608   2.173   6.059   2.286
10237SOL     OW31609   6.143   3.866   2.721
10237SOL    HW131610   6.164   3.904   2.631
10237SOL    HW231611   6.071   3.797   2.713
10238SOL     OW31612   4.202   4.602   5.337
10238SOL    HW131613   4.213   4.545   5.256
10238SOL    HW231614   4.261   4.568   5.410
10239SOL     OW31615   0.370   4.089   4.717
10239SOL    HW131616   0.301   4.134   4.774
10239SOL    HW231617   0.342   3.994   4.701
10240SOL     OW31618   1.051   3.564   3.240
10240SOL    HW131619   1.130   3.622   3.219
10240SOL    HW231620   1.043   3.554   3.340
10241SOL     OW31621   0.946   1.731   2.670
10241SOL    HW131622   0.949   1.635   2.644
10241SOL    HW231623   1.035   1.760   2.703
10242SOL     OW31624   0.040   1.258   6.057
10242SOL    HW131625   0.043   1.180   6.120
10242SOL    HW231626   6.995   1.323   6.088
10243SOL     OW31627   0.544   5.724   1.677
10243SOL    HW131628   0.482   5.777   1.736
10243SOL    HW231629   0.586   5.651   1.731
10244SOL     OW31630   2.151   5.516   6.971
10244SOL    HW131631   2.200   5.531   6.885
10244SOL    HW231632   2.163   5.421   7.000
10245SOL     OW31633   1.464   3.040   6.145
10245SOL    HW131634   1.509   2.980   6.211
10245SOL    HW231635   1.431   2.985   6.068
10246SOL     OW31636   2.952   3.896   4.852
10246SOL    HW131637   2.965   3.823   4.919
10246SOL    HW231638   2.855   3.921   4.848
10247SOL     OW31639   6.911   5.158   5.871
10247SOL    HW131640   6.983   5.090   5.884
10247SOL    HW231641   6.952   5.249   5.864
10248SOL     OW31642   2.609   0.060   2.037
10248SOL    HW131643   2.678   0.076   1.966
10248SOL    HW231644   2.643   0.094   2.125
10249SOL     OW31645   4.531   1.112   5.814
10249SOL    HW131646   4.487   1.154   5.893
10249SOL    HW231647   4.580   1.029   5.843
10250SOL     OW31648   5.980   1.360   0.937
10250SOL    HW131649   6.076   1.336   0.921
10250SOL    HW231650   5.960   1.448   0.892
10251SOL     OW31651   2.869   2.582   0.280
10251SOL    HW131652   2.838   2.593   0.185
10251SOL    HW231653   2.807   2.519   0.327
10252SOL     OW31654   5.879   6.771   0.773
10252SOL    HW131655   5.959   6.830   0.764
10252SOL    HW231656   5.820   6.805   0.846
10253SOL     OW31657   4.934   4.381   0.044
10253SOL    HW131658   4.959   4.452   0.110
10253SOL    HW231659   4.969   4.405   6.978
10254SOL     OW31660   2.674   1.571   5.358
10254SOL    HW131661   2.773   1.558   5.350
10254SOL    HW231662   2.655   1.635   5.433
10255SOL     OW31663   2.477   5.543   2.513
10255SOL    HW131664   2.407   5.579   2.575
10255SOL    HW231665   2.562   5.595   2.524
10256SOL     OW31666   4.812   0.925   0.373
10256SOL    HW131667   4.883   0.994   0.363
10256SOL    HW231668   4.840   0.841   0.326
10257SOL     OW31669   1.175   5.543   5.997
10257SOL    HW131670   1.150   5.625   6.048
10257SOL    HW231671   1.194   5.468   6.060
10258SOL     OW31672   4.313   6.871   3.448
10258SOL    HW131673   4.395   6.831   3.406
10258SOL    HW231674   4.294   6.825   3.535
10259SOL     OW31675   0.535   4.127   3.872
10259SOL    HW131676   0.493   4.171   3.793
10259SOL    HW231677   0.464   4.086   3.929
10260SOL     OW31678   0.804   6.826   2.182
10260SOL    HW131679   0.887   6.773   2.199
10260SOL    HW231680   0.725   6.764   2.180
10261SOL     OW31681   0.906   5.317   2.205
10261SOL    HW131682   0.954   5.335   2.120
10261SOL    HW231683   0.847   5.394   2.227
10262SOL     OW31684   3.175   4.852   4.279
10262SOL    HW131685   3.115   4.827   4.355
10262SOL    HW231686   3.120   4.884   4.202
10263SOL     OW31687   5.028   1.750   5.857
10263SOL    HW131688   5.125   1.729   5.846
10263SOL    HW231689   5.017   1.828   5.919
10264SOL     OW31690   6.159   0.868   6.304
10264SOL    HW131691   6.231   0.916   6.354
10264SOL    HW231692   6.123   0.927   6.232
10265SOL     OW31693   3.756   1.456   2.887
10265SOL    HW131694   3.673   1.511   2.886
10265SOL    HW231695   3.755   1.393   2.964
10266SOL     OW31696   3.243   3.832   6.330
10266SOL    HW131697   3.202   3.809   6.242
10266SOL    HW231698   3.286   3.922   6.325
10267SOL     OW31699   6.869   2.073   6.679
10267SOL    HW131700   6.861   2.138   6.604
10267SOL    HW231701   6.937   2.003   6.655
10268SOL     OW31702   5.301   5.511   1.642
10268SOL    HW131703   5.365   5.530   1.716
10268SOL    HW231704   5.283   5.413   1.638
10269SOL     OW31705   2.224   2.493   6.282
10269SOL    HW131706   2.212   2.589   6.305
10269SOL    HW231707   2.296   2.483   6.214
10270SOL     OW31708   1.890   5.851   0.593
10270SOL    HW131709   1.959   5.864   0.665
10270SOL    HW231710   1.936   5.822   0.509
10271SOL     OW31711   3.951   3.450   1.442
10271SOL    HW131712   3.865   3.411   1.408
10271SOL    HW231713   4.027   3.391   1.416
10272SOL     OW31714   0.652   0.925   4.256
10272SOL    HW131715   0.656   0.941   4.354
10272SOL    HW231716   0.726   0.864   4.229
10273SOL     OW31717   3.913   5.809   4.574
10273SOL    HW131718   3.943   5.848   4.661
10273SOL    HW231719   3.858   5.876   4.525
10274SOL     OW31720   0.873   4.968   5.894
10274SOL    HW131721   0.798   4.959   5.960
10274SOL    HW231722   0.850   4.918   5.811
10275SOL     OW31723   0.751   6.523   2.773
10275SOL    HW131724   0.783   6.575   2.694
10275SOL    HW231725   0.708   6.438   2.742
10276SOL     OW31726   0.022   5.354   4.895
10276SOL    HW131727   6.962   5.358   4.949
10276SOL    HW231728   0.084   5.428   4.924
10277SOL     OW31729   3.288   6.403   4.236
10277SOL    HW131730   3.300   6.317   4.286
10277SOL    HW231731   3.196   6.405   4.196
10278SOL     OW31732   6.166   0.229   6.449
10278SOL    HW131733   6.143   0.325   6.465
10278SOL    HW231734   6.127   0.200   6.362
10279SOL     OW31735   2.913   0.274   4.481
10279SOL    HW131736   2.941   0.335   4.407
10279SOL    HW231737   2.829   0.226   4.454
10280SOL     OW31738   1.796   3.988   0.808
10280SOL    HW131739   1.726   3.990   0.738
10280SOL    HW231740   1.836   3.897   0.814
10281SOL     OW31741   4.430   1.089   2.974
10281SOL    HW131742   4.510   1.098   2.915
10281SOL    HW231743   4.429   1.165   3.040
10282SOL     OW31744   0.867   1.823   3.696
10282SOL    HW131745   0.818   1.837   3.609
10282SOL    HW231746   0.916   1.736   3.692
10283SOL     OW31747   1.207   3.312   0.929
10283SOL    HW131748   1.275   3.252   0.971
10283SOL    HW231749   1.188   3.389   0.989
10284SOL     OW31750   5.373   3.767   5.043
10284SOL    HW131751   5.346   3.843   4.984
10284SOL    HW231752   5.366   3.796   5.139
10285SOL     OW31753   4.782   1.205   0.637
10285SOL    HW131754   4.855   1.241   0.694
10285SOL    HW231755   4.726   1.141   0.690
10286SOL     OW31756   4.459   0.581   2.877
10286SOL    HW131757   4.480   0.492   2.837
10286SOL    HW231758   4.482   0.579   2.975
10287SOL     OW31759   1.812   6.930   1.363
10287SOL    HW131760   1.813   6.988   1.445
10287SOL    HW231761   1.754   6.972   1.293
10288SOL     OW31762   5.808   5.850   3.084
10288SOL    HW131763   5.829   5.803   2.998
10288SOL    HW231764   5.795   5.947   3.067
10289SOL     OW31765   2.842   1.818   1.484
10289SOL    HW131766   2.777   1.844   1.555
10289SOL    HW231767   2.808   1.737   1.436
10290SOL     OW31768   4.059   3.561   2.925
10290SOL    HW131769   4.055   3.660   2.939
10290SOL    HW231770   4.077   3.515   3.012
10291SOL     OW31771   3.385   0.489   4.040
10291SOL    HW131772   3.373   0.471   3.943
10291SOL    HW231773   3.436   0.414   4.082
10292SOL     OW31774   0.296   1.996   4.315
10292SOL    HW131775   0.377   1.937   4.325
10292SOL    HW231776   0.313   2.063   4.242
10293SOL     OW31777   2.374   6.062   3.323
10293SOL    HW131778   2.425   6.065   3.237
10293SOL    HW231779   2.285   6.019   3.308
10294SOL     OW31780   4.536   1.406   2.864
10294SOL    HW131781   4.529   1.377   2.960
10294SOL    HW231782   4.581   1.335   2.810
10295SOL     OW31783   7.015   4.893   5.787
10295SOL    HW131784   6.955   4.914   5.710
10295SOL    HW231785   0.086   4.899   5.758
10296SOL     OW31786   6.508   4.024   6.775
10296SOL    HW131787   6.589   4.083   6.776
10296SOL    HW231788   6.454   4.044   6.693
10297SOL     OW31789   1.325   5.758   4.205
10297SOL    HW131790   1.373   5.792   4.286
10297SOL    HW231791   1.262   5.828   4.172
10298SOL     OW31792   5.403   4.179   3.915
10298SOL    HW131793   5.386   4.166   4.012
10298SOL    HW231794   5.392   4.092   3.867
10299SOL     OW31795   4.176   4.671   3.578
10299SOL    HW131796   4.140   4.752   3.624
10299SOL    HW231797   4.155   4.676   3.481
10300SOL     OW31798   1.130   3.350   2.365
10300SOL    HW131799   1.141   3.253   2.386
10300SOL    HW231800   1.082   3.396   2.439
10301SOL     OW31801   5.943   1.417   3.462
10301SOL    HW131802   6.012   1.440   3.531
10301SOL    HW231803   5.852   1.437   3.498
10302SOL     OW31804   1.464   5.794   2.887
10302SOL    HW131805   1.464   5.888   2.855
10302SOL    HW231806   1.453   5.732   2.809
10303SOL     OW31807   4.150   3.579   1.201
10303SOL    HW131808   4.165   3.574   1.300
10303SOL    HW231809   4.065   3.629   1.184
10304SOL     OW31810   0.065   6.844   3.120
10304SOL    HW131811   0.146   6.786   3.122
10304SOL    HW231812   0.069   6.911   3.193
10305SOL     OW31813   1.827   6.158   6.828
10305SOL    HW131814   1.736   6.124   6.806
10305SOL    HW231815   1.895   6.092   6.797
10306SOL     OW31816   4.294   5.787   0.476
10306SOL    HW131817   4.252   5.732   0.548
10306SOL    HW231818   4.225   5.843   0.431
10307SOL     OW31819   1.120   0.997   6.449
10307SOL    HW131820   1.072   1.017   6.364
10307SOL    HW231821   1.175   1.076   6.476
10308SOL     OW31822   3.258   5.783   3.718
10308SOL    HW131823   3.292   5.717   3.785
10308SOL    HW231824   3.181   5.742   3.668
10309SOL     OW31825   6.706   6.147   2.805
10309SOL    HW131826   6.675   6.061   2.764
10309SOL    HW231827   6.716   6.135   2.904
10310SOL     OW31828   3.402   3.836   2.404
10310SOL    HW131829   3.360   3.900   2.468
10310SOL    HW231830   3.333   3.772   2.370
10311SOL     OW31831   0.549   5.051   0.346
10311SOL    HW131832   0.576   4.999   0.265
10311SOL    HW231833   0.547   5.148   0.323
10312SOL     OW31834   3.118   4.381   0.579
10312SOL    HW131835   3.152   4.389   0.673
10312SOL    HW231836   3.033   4.432   0.569
10313SOL     OW31837   4.552   0.612   2.470
10313SOL    HW131838   4.602   0.614   2.557
10313SOL    HW231839   4.531   0.518   2.446
10314SOL     OW31840   6.287   6.962   0.442
10314SOL    HW131841   6.189   6.949   0.454
10314SOL    HW231842   6.325   6.887   0.388
10315SOL     OW31843   6.516   5.846   4.814
10315SOL    HW131844   6.436   5.906   4.810
10315SOL    HW231845   6.511   5.778   4.740
10316SOL     OW31846   0.308   3.886   4.373
10316SOL    HW131847   0.319   3.881   4.473
10316SOL    HW231848   0.241   3.819   4.343
10317SOL     OW31849   4.545   5.275   6.337
10317SOL    HW131850   4.480   5.336   6.382
10317SOL    HW231851   4.568   5.311   6.247
10318SOL     OW31852   6.079   5.376   1.520
10318SOL    HW131853   6.162   5.357   1.572
10318SOL    HW231854   6.065   5.306   1.451
10319SOL     OW31855   6.796   5.605   3.679
10319SOL    HW131856   6.706   5.585   3.718
10319SOL    HW231857   6.832   5.689   3.719
10320SOL     OW31858   0.043   5.910   0.886
10320SOL    HW131859   0.020   6.000   0.847
10320SOL    HW231860   0.140   5.893   0.872
10321SOL     OW31861   4.363   5.392   4.442
10321SOL    HW131862   4.316   5.312   4.404
10321SOL    HW231863   4.454   5.400   4.399
10322SOL     OW31864   6.451   4.320   0.750
10322SOL    HW131865   6.404   4.270   0.677
10322SOL    HW231866   6.490   4.404   0.714
10323SOL     OW31867   5.168   3.081   6.305
10323SOL    HW131868   5.147   3.177   6.287
10323SOL    HW231869   5.143   3.025   6.225
10324SOL     OW31870   3.007   3.666   3.492
10324SOL    HW131871   3.000   3.765   3.496
10324SOL    HW231872   3.048   3.638   3.405
10325SOL     OW31873   0.345   2.797   3.098
10325SOL    HW131874   0.322   2.889   3.065
10325SOL    HW231875   0.265   2.738   3.089
10326SOL     OW31876   5.533   2.647   0.655
10326SOL    HW131877   5.622   2.609   0.628
10326SOL    HW231878   5.547   2.726   0.714
10327SOL     OW31879   0.491   0.569   3.255
10327SOL    HW131880   0.418   0.622   3.212
10327SOL    HW231881   0.568   0.629   3.275
10328SOL     OW31882   5.984   3.551   2.415
10328SOL    HW131883   6.057   3.505   2.465
10328SOL    HW231884   5.916   3.483   2.386
10329SOL     OW31885   2.811   0.153   2.970
10329SOL    HW131886   2.901   0.115   2.952
10329SOL    HW231887   2.820   0.241   3.017
10330SOL     OW31888   4.085   5.120   2.394
10330SOL    HW131889   4.030   5.185   2.446
10330SOL    HW231890   4.049   5.113   2.301
10331SOL     OW31891   5.269   1.043   3.732
10331SOL    HW131892   5.239   0.984   3.657
10331SOL    HW231893   5.260   0.995   3.819
10332SOL     OW31894   0.229   2.167   6.587
10332SOL    HW131895   0.308   2.143   6.644
10332SOL    HW231896   0.170   2.086   6.576
10333SOL     OW31897   6.058   5.560   4.103
10333SOL    HW131898   6.126   5.506   4.054
10333SOL    HW231899   5.967   5.520   4.089
10334SOL     OW31900   1.881   4.378   4.117
10334SOL    HW131901   1.799   4.329   4.088
10334SOL    HW231902   1.862   4.476   4.119
10335SOL     OW31903   2.179   5.087   1.362
10335SOL    HW131904   2.232   5.103   1.445
10335SOL    HW231905   2.119   5.165   1.345
10336SOL     OW31906   3.930   6.640   1.743
10336SOL    HW131907   3.918   6.589   1.828
10336SOL    HW231908   3.955   6.735   1.764
10337SOL     OW31909   0.541   5.590   4.804
10337SOL    HW131910   0.496   5.504   4.829
10337SOL    HW231911   0.563   5.641   4.888
10338SOL     OW31912   2.749   6.680   2.694
10338SOL    HW131913   2.733   6.700   2.597
10338SOL    HW231914   2.847   6.672   2.711
10339SOL     OW31915   2.386   6.270   1.586
10339SOL    HW131916   2.378   6.189   1.527
10339SOL    HW231917   2.416   6.242   1.677
10340SOL     OW31918   2.231   6.454   0.382
10340SOL    HW131919   2.206   6.521   0.452
10340SOL    HW231920   2.281   6.379   0.423
10341SOL     OW31921   2.314   1.443   2.392
10341SOL    HW131922   2.294   1.505   2.316
10341SOL    HW231923   2.356   1.360   2.357
10342SOL     OW31924   1.986   0.527   5.587
10342SOL    HW131925   2.067   0.480   5.553
10342SOL    HW231926   1.994   0.539   5.686
10343SOL     OW31927   2.888   3.877   5.896
10343SOL    HW131928   2.801   3.915   5.864
10343SOL    HW231929   2.961   3.943   5.878
10344SOL     OW31930   4.190   3.443   5.110
10344SOL    HW131931   4.231   3.388   5.038
10344SOL    HW231932   4.112   3.394   5.149
10345SOL     OW31933   2.073   1.373   6.554
10345SOL    HW131934   2.000   1.332   6.609
10345SOL    HW231935   2.080   1.471   6.575
10346SOL     OW31936   5.094   0.045   0.141
10346SOL    HW131937   5.158   0.005   0.075
10346SOL    HW231938   5.026   7.001   0.168
10347SOL     OW31939   5.342   1.660   1.639
10347SOL    HW131940   5.386   1.581   1.597
10347SOL    HW231941   5.359   1.660   1.738
10348SOL     OW31942   6.516   0.439   5.816
10348SOL    HW131943   6.507   0.524   5.867
10348SOL    HW231944   6.450   0.372   5.850
10349SOL     OW31945   6.819   1.586   1.357
10349SOL    HW131946   6.773   1.602   1.444
10349SOL    HW231947   6.767   1.630   1.283
10350SOL     OW31948   2.910   5.404   4.239
10350SOL    HW131949   2.850   5.475   4.203
10350SOL    HW231950   3.000   5.443   4.258
10351SOL     OW31951   5.634   4.961   5.330
10351SOL    HW131952   5.646   5.054   5.294
10351SOL    HW231953   5.650   4.960   5.428
10352SOL     OW31954   6.160   2.441   0.106
10352SOL    HW131955   6.251   2.404   0.091
10352SOL    HW231956   6.102   2.422   0.026
10353SOL     OW31957   0.292   2.517   3.318
10353SOL    HW131958   0.336   2.468   3.243
10353SOL    HW231959   0.218   2.461   3.356
10354SOL     OW31960   0.667   3.798   0.642
10354SOL    HW131961   0.600   3.744   0.692
10354SOL    HW231962   0.740   3.739   0.607
10355SOL     OW31963   1.302   0.242   0.701
10355SOL    HW131964   1.391   0.212   0.667
10355SOL    HW231965   1.301   0.341   0.709
10356SOL     OW31966   6.956   3.813   6.679
10356SOL    HW131967   6.923   3.719   6.670
10356SOL    HW231968   6.897   3.873   6.625
10357SOL     OW31969   1.080   3.123   5.962
10357SOL    HW131970   1.091   3.100   6.059
10357SOL    HW231971   1.109   3.218   5.947
10358SOL     OW31972   0.607   2.356   2.798
10358SOL    HW131973   0.670   2.330   2.871
10358SOL    HW231974   0.631   2.306   2.714
10359SOL     OW31975   5.649   2.172   2.351
10359SOL    HW131976   5.597   2.196   2.433
10359SOL    HW231977   5.629   2.237   2.278
10360SOL     OW31978   6.165   4.496   2.362
10360SOL    HW131979   6.116   4.448   2.290
10360SOL    HW231980   6.143   4.455   2.451
10361SOL     OW31981   0.301   1.750   1.196
10361SOL    HW131982   0.283   1.825   1.132
10361SOL    HW231983   0.316   1.787   1.288
10362SOL     OW31984   1.267   4.651   2.393
10362SOL    HW131985   1.182   4.600   2.404
10362SOL    HW231986   1.248   4.742   2.358
10363SOL     OW31987   4.985   4.217   0.946
10363SOL    HW131988   5.052   4.259   1.006
10363SOL    HW231989   4.948   4.135   0.990
10364SOL     OW31990   5.892   4.621   2.044
10364SOL    HW131991   5.929   4.536   2.080
10364SOL    HW231992   5.792   4.619   2.048
10365SOL     OW31993   5.901   5.589   0.383
10365SOL    HW131994   5.876   5.685   0.392
10365SOL    HW231995   5.851   5.548   0.307
10366SOL     OW31996   3.104   6.358   3.060
10366SOL    HW131997   3.177   6.306   3.016
10366SOL    HW231998   3.065   6.305   3.134
10367SOL     OW31999   6.395   2.262   0.557
10367SOL    HW132000   6.360   2.353   0.535
10367SOL    HW232001   6.349   2.227   0.639
10368SOL     OW32002   1.967   7.003   2.240
10368SOL    HW132003   1.886   6.977   2.187
10368SOL    HW232004   1.973   6.945   2.321
10369SOL     OW32005   3.453   6.411   6.015
10369SOL    HW132006   3.396   6.487   5.983
10369SOL    HW232007   3.447   6.335   5.950
10370SOL     OW32008   0.209   1.722   4.395
10370SOL    HW132009   0.209   1.818   4.370
10370SOL    HW232010   0.172   1.667   4.320
10371SOL     OW32011   3.228   6.061   3.186
10371SOL    HW132012   3.145   6.112   3.212
10371SOL    HW232013   3.308   6.119   3.198
10372SOL     OW32014   2.719   0.046   1.349
10372SOL    HW132015   2.718   6.972   1.370
10372SOL    HW232016   2.631   0.072   1.309
10373SOL     OW32017   0.060   1.868   5.168
10373SOL    HW132018   0.012   1.928   5.232
10373SOL    HW232019   0.086   1.783   5.216
10374SOL     OW32020   2.979   0.029   4.639
10374SOL    HW132021   3.032   6.983   4.591
10374SOL    HW232022   2.960   0.104   4.576
10375SOL     OW32023   3.969   2.912   0.256
10375SOL    HW132024   3.973   2.821   0.214
10375SOL    HW232025   4.046   2.922   0.319
10376SOL     OW32026   1.947   5.768   2.862
10376SOL    HW132027   1.961   5.691   2.801
10376SOL    HW232028   2.018   5.769   2.932
10377SOL     OW32029   0.624   1.481   2.302
10377SOL    HW132030   0.542   1.465   2.357
10377SOL    HW232031   0.656   1.575   2.317
10378SOL     OW32032   6.850   4.870   5.542
10378SOL    HW132033   6.900   4.824   5.469
10378SOL    HW232034   6.753   4.850   5.535
10379SOL     OW32035   2.471   6.696   4.409
10379SOL    HW132036   2.401   6.724   4.343
10379SOL    HW232037   2.438   6.618   4.462
10380SOL     OW32038   1.581   2.367   4.635
10380SOL    HW132039   1.674   2.329   4.634
10380SOL    HW232040   1.582   2.460   4.597
10381SOL     OW32041   4.655   4.290   1.723
10381SOL    HW132042   4.715   4.370   1.728
10381SOL    HW232043   4.595   4.288   1.803
10382SOL     OW32044   3.269   4.718   1.766
10382SOL    HW132045   3.350   4.661   1.774
10382SOL    HW232046   3.280   4.801   1.820
10383SOL     OW32047   2.212   4.392   0.170
10383SOL    HW132048   2.295   4.338   0.178
10383SOL    HW232049   2.176   4.384   0.077
10384SOL     OW32050   5.873   6.257   1.327
10384SOL    HW132051   5.881   6.170   1.278
10384SOL    HW232052   5.960   6.277   1.373
10385SOL     OW32053   3.785   4.304   6.280
10385SOL    HW132054   3.774   4.217   6.232
10385SOL    HW232055   3.790   4.288   6.378
10386SOL     OW32056   6.728   0.605   5.966
10386SOL    HW132057   6.759   0.575   5.877
10386SOL    HW232058   6.750   0.536   6.035
10387SOL     OW32059   4.981   3.216   2.863
10387SOL    HW132060   5.079   3.229   2.850
10387SOL    HW232061   4.934   3.303   2.852
10388SOL     OW32062   3.001   0.364   5.615
10388SOL    HW132063   3.006   0.452   5.566
10388SOL    HW232064   2.911   0.324   5.601
10389SOL     OW32065   0.476   3.530   0.505
10389SOL    HW132066   0.544   3.489   0.444
10389SOL    HW232067   0.522   3.575   0.581
10390SOL     OW32068   2.486   2.245   1.087
10390SOL    HW132069   2.528   2.168   1.039
10390SOL    HW232070   2.409   2.213   1.141
10391SOL     OW32071   0.589   6.483   3.101
10391SOL    HW132072   0.578   6.579   3.074
10391SOL    HW232073   0.668   6.475   3.161
10392SOL     OW32074   6.780   5.146   4.754
10392SOL    HW132075   6.762   5.242   4.733
10392SOL    HW232076   6.698   5.091   4.736
10393SOL     OW32077   2.149   3.883   4.230
10393SOL    HW132078   2.151   3.976   4.266
10393SOL    HW232079   2.125   3.819   4.304
10394SOL     OW32080   3.572   5.890   4.430
10394SOL    HW132081   3.543   5.900   4.335
10394SOL    HW232082   3.529   5.810   4.471
10395SOL     OW32083   6.606   6.217   1.231
10395SOL    HW132084   6.647   6.239   1.142
10395SOL    HW232085   6.610   6.119   1.246
10396SOL     OW32086   3.153   2.151   4.016
10396SOL    HW132087   3.243   2.129   3.981
10396SOL    HW232088   3.104   2.208   3.950
10397SOL     OW32089   3.271   2.085   2.209
10397SOL    HW132090   3.352   2.090   2.151
10397SOL    HW232091   3.188   2.087   2.152
10398SOL     OW32092   0.311   3.446   1.524
10398SOL    HW132093   0.399   3.413   1.558
10398SOL    HW232094   0.279   3.522   1.580
10399SOL     OW32095   6.073   2.747   2.756
10399SOL    HW132096   6.050   2.678   2.688
10399SOL    HW232097   6.003   2.819   2.755
10400SOL     OW32098   4.220   6.968   0.205
10400SOL    HW132099   4.129   6.930   0.188
10400SOL    HW232100   4.246   6.951   0.299
10401SOL     OW32101   6.681   0.545   3.646
10401SOL    HW132102   6.774   0.509   3.636
10401SOL    HW232103   6.684   0.635   3.688
10402SOL     OW32104   6.126   3.122   5.048
10402SOL    HW132105   6.107   3.220   5.039
10402SOL    HW232106   6.143   3.100   5.144
10403SOL     OW32107   3.230   0.932   3.394
10403SOL    HW132108   3.285   0.854   3.424
10403SOL    HW232109   3.276   0.977   3.317
10404SOL     OW32110   5.765   6.924   5.182
10404SOL    HW132111   5.721   7.014   5.180
10404SOL    HW232112   5.863   6.936   5.162
10405SOL     OW32113   0.464   1.875   5.842
10405SOL    HW132114   0.440   1.812   5.768
10405SOL    HW232115   0.544   1.929   5.814
10406SOL     OW32116   3.289   4.908   2.577
10406SOL    HW132117   3.385   4.902   2.550
10406SOL    HW232118   3.245   4.982   2.526
10407SOL     OW32119   3.174   5.804   5.750
10407SOL    HW132120   3.238   5.741   5.708
10407SOL    HW232121   3.081   5.784   5.718
10408SOL     OW32122   4.543   1.310   0.552
10408SOL    HW132123   4.455   1.264   0.555
10408SOL    HW232124   4.614   1.250   0.587
10409SOL     OW32125   0.088   4.777   0.803
10409SOL    HW132126   0.037   4.856   0.769
10409SOL    HW232127   0.064   4.760   0.899
10410SOL     OW32128   5.793   1.008   6.980
10410SOL    HW132129   5.870   1.034   0.013
10410SOL    HW232130   5.817   1.021   6.884
10411SOL     OW32131   3.644   6.779   2.843
10411SOL    HW132132   3.615   6.845   2.911
10411SOL    HW232133   3.610   6.806   2.753
10412SOL     OW32134   6.062   0.664   0.570
10412SOL    HW132135   6.121   0.602   0.518
10412SOL    HW232136   5.985   0.612   0.607
10413SOL     OW32137   6.647   1.920   1.283
10413SOL    HW132138   6.716   1.975   1.236
10413SOL    HW232139   6.621   1.966   1.368
10414SOL     OW32140   4.385   4.328   5.414
10414SOL    HW132141   4.360   4.341   5.510
10414SOL    HW232142   4.305   4.298   5.362
10415SOL     OW32143   0.292   4.714   5.401
10415SOL    HW132144   0.279   4.660   5.484
10415SOL    HW232145   0.389   4.738   5.393
10416SOL     OW32146   6.537   0.980   3.347
10416SOL    HW132147   6.604   0.907   3.335
10416SOL    HW232148   6.534   1.037   3.264
10417SOL     OW32149   3.900   5.528   4.622
10417SOL    HW132150   3.818   5.503   4.673
10417SOL    HW232151   3.897   5.625   4.600
10418SOL     OW32152   6.892   4.692   6.223
10418SOL    HW132153   6.843   4.708   6.138
10418SOL    HW232154   6.988   4.673   6.202
10419SOL     OW32155   1.412   0.234   6.376
10419SOL    HW132156   1.340   0.185   6.327
10419SOL    HW232157   1.439   0.315   6.324
10420SOL     OW32158   6.279   2.888   2.231
10420SOL    HW132159   6.330   2.861   2.312
10420SOL    HW232160   6.338   2.940   2.170
10421SOL     OW32161   0.456   1.772   3.482
10421SOL    HW132162   0.409   1.854   3.449
10421SOL    HW232163   0.494   1.789   3.572
10422SOL     OW32164   6.171   2.532   5.717
10422SOL    HW132165   6.128   2.586   5.644
10422SOL    HW232166   6.163   2.434   5.696
10423SOL     OW32167   5.008   5.063   4.557
10423SOL    HW132168   5.079   4.993   4.547
10423SOL    HW232169   4.949   5.040   4.634
10424SOL     OW32170   5.753   3.405   0.372
10424SOL    HW132171   5.712   3.493   0.352
10424SOL    HW232172   5.682   3.335   0.376
10425SOL     OW32173   2.221   6.935   2.043
10425SOL    HW132174   2.170   6.860   2.085
10425SOL    HW232175   2.166   7.019   2.047
10426SOL     OW32176   6.735   4.125   0.519
10426SOL    HW132177   6.773   4.108   0.428
10426SOL    HW232178   6.636   4.111   0.516
10427SOL     OW32179   3.643   1.535   0.000
10427SOL    HW132180   3.659   1.448   0.046
10427SOL    HW232181   3.686   1.609   0.052
10428SOL     OW32182   3.041   2.018   5.051
10428SOL    HW132183   3.076   2.111   5.041
10428SOL    HW232184   2.991   1.992   4.968
10429SOL     OW32185   0.504   5.560   1.115
10429SOL    HW132186   0.578   5.540   1.180
10429SOL    HW232187   0.538   5.547   1.022
10430SOL     OW32188   4.264   6.835   4.004
10430SOL    HW132189   4.316   6.903   3.952
10430SOL    HW232190   4.327   6.772   4.049
10431SOL     OW32191   3.611   6.823   5.511
10431SOL    HW132192   3.588   6.905   5.459
10431SOL    HW232193   3.594   6.742   5.455
10432SOL     OW32194   6.159   0.538   4.291
10432SOL    HW132195   6.142   0.611   4.225
10432SOL    HW232196   6.250   0.499   4.274
10433SOL     OW32197   2.032   6.583   1.876
10433SOL    HW132198   1.944   6.572   1.831
10433SOL    HW232199   2.079   6.663   1.839
10434SOL     OW32200   4.245   6.745   3.095
10434SOL    HW132201   4.252   6.732   2.996
10434SOL    HW232202   4.293   6.671   3.142
10435SOL     OW32203   6.818   0.340   4.862
10435SOL    HW132204   6.890   0.293   4.811
10435SOL    HW232205   6.849   0.356   4.956
10436SOL     OW32206   0.399   5.174   5.458
10436SOL    HW132207   0.466   5.127   5.401
10436SOL    HW232208   0.311   5.126   5.452
10437SOL     OW32209   6.015   4.937   5.210
10437SOL    HW132210   5.963   5.022   5.219
10437SOL    HW232211   6.110   4.953   5.236
10438SOL     OW32212   5.443   6.554   0.023
10438SOL    HW132213   5.532   6.551   0.069
10438SOL    HW232214   5.449   6.610   6.965
10439SOL     OW32215   3.635   1.463   6.142
10439SOL    HW132216   3.602   1.369   6.132
10439SOL    HW232217   3.692   1.487   6.063
10440SOL     OW32218   1.182   6.316   0.349
10440SOL    HW132219   1.095   6.292   0.304
10440SOL    HW232220   1.167   6.394   0.410
10441SOL     OW32221   5.116   1.756   0.080
10441SOL    HW132222   5.130   1.778   7.008
10441SOL    HW232223   5.100   1.840   0.132
10442SOL     OW32224   2.916   5.764   5.673
10442SOL    HW132225   2.926   5.694   5.602
10442SOL    HW232226   2.873   5.724   5.753
10443SOL     OW32227   5.159   3.411   4.807
10443SOL    HW132228   5.068   3.386   4.842
10443SOL    HW232229   5.227   3.396   4.878
10444SOL     OW32230   4.345   5.948   4.715
10444SOL    HW132231   4.424   5.963   4.775
10444SOL    HW232232   4.342   5.852   4.687
10445SOL     OW32233   0.697   5.021   3.855
10445SOL    HW132234   0.711   5.067   3.943
10445SOL    HW232235   0.762   4.946   3.846
10446SOL     OW32236   1.040   3.528   5.690
10446SOL    HW132237   0.981   3.463   5.737
10446SOL    HW232238   0.985   3.593   5.638
10447SOL     OW32239   0.273   1.460   1.914
10447SOL    HW132240   0.185   1.445   1.869
10447SOL    HW232241   0.258   1.495   2.006
10448SOL     OW32242   4.147   2.905   1.293
10448SOL    HW132243   4.051   2.893   1.320
10448SOL    HW232244   4.154   2.980   1.227
10449SOL     OW32245   2.781   5.283   4.450
10449SOL    HW132246   2.763   5.340   4.531
10449SOL    HW232247   2.820   5.340   4.378
10450SOL     OW32248   0.528   2.594   0.110
10450SOL    HW132249   0.464   2.664   0.142
10450SOL    HW232250   0.480   2.530   0.051
10451SOL     OW32251   2.741   5.018   2.835
10451SOL    HW132252   2.740   5.097   2.895
10451SOL    HW232253   2.677   4.949   2.869
10452SOL     OW32254   6.340   3.472   3.453
10452SOL    HW132255   6.310   3.454   3.360
10452SOL    HW232256   6.359   3.570   3.465
10453SOL     OW32257   5.113   6.339   1.939
10453SOL    HW132258   5.120   6.378   2.031
10453SOL    HW232259   5.151   6.404   1.872
10454SOL     OW32260   5.423   2.650   1.388
10454SOL    HW132261   5.488   2.669   1.314
10454SOL    HW232262   5.463   2.675   1.476
10455SOL     OW32263   0.677   4.436   3.110
10455SOL    HW132264   0.587   4.402   3.136
10455SOL    HW232265   0.737   4.439   3.191
10456SOL     OW32266   2.827   6.548   1.408
10456SOL    HW132267   2.798   6.643   1.398
10456SOL    HW232268   2.811   6.518   1.502
10457SOL     OW32269   3.334   2.929   3.638
10457SOL    HW132270   3.280   2.882   3.568
10457SOL    HW232271   3.432   2.919   3.616
10458SOL     OW32272   0.176   0.149   0.073
10458SOL    HW132273   0.143   0.225   0.129
10458SOL    HW232274   0.132   0.064   0.103
10459SOL     OW32275   5.407   5.446   2.764
10459SOL    HW132276   5.486   5.484   2.812
10459SOL    HW232277   5.426   5.351   2.738
10460SOL     OW32278   1.868   5.536   1.499
10460SOL    HW132279   1.789   5.484   1.530
10460SOL    HW232280   1.868   5.626   1.541
10461SOL     OW32281   0.947   5.936   5.525
10461SOL    HW132282   1.037   5.939   5.570
10461SOL    HW232283   0.876   5.954   5.593
10462SOL     OW32284   5.862   1.260   1.846
10462SOL    HW132285   5.779   1.307   1.875
10462SOL    HW232286   5.942   1.318   1.864
10463SOL     OW32287   3.656   3.778   5.971
10463SOL    HW132288   3.743   3.818   5.943
10463SOL    HW232289   3.588   3.791   5.899
10464SOL     OW32290   4.925   0.705   0.612
10464SOL    HW132291   4.978   0.789   0.626
10464SOL    HW232292   4.870   0.714   0.529
10465SOL     OW32293   6.781   0.298   6.608
10465SOL    HW132294   6.768   0.389   6.569
10465SOL    HW232295   6.702   0.241   6.586
10466SOL     OW32296   4.843   5.323   5.008
10466SOL    HW132297   4.866   5.236   5.050
10466SOL    HW232298   4.927   5.366   4.972
10467SOL     OW32299   1.793   1.729   5.120
10467SOL    HW132300   1.876   1.674   5.133
10467SOL    HW232301   1.713   1.668   5.121
10468SOL     OW32302   3.784   6.238   4.236
10468SOL    HW132303   3.849   6.281   4.174
10468SOL    HW232304   3.738   6.308   4.291
10469SOL     OW32305   3.207   3.761   1.264
10469SOL    HW132306   3.206   3.851   1.308
10469SOL    HW232307   3.209   3.773   1.165
10470SOL     OW32308   2.169   2.099   3.162
10470SOL    HW132309   2.073   2.098   3.191
10470SOL    HW232310   2.174   2.111   3.063
10471SOL     OW32311   2.037   3.946   1.258
10471SOL    HW132312   2.029   3.881   1.334
10471SOL    HW232313   1.973   4.021   1.272
10472SOL     OW32314   3.784   6.484   1.945
10472SOL    HW132315   3.717   6.437   1.887
10472SOL    HW232316   3.757   6.579   1.957
10473SOL     OW32317   5.411   6.895   0.840
10473SOL    HW132318   5.406   6.967   0.772
10473SOL    HW232319   5.369   6.927   0.925
10474SOL     OW32320   4.521   0.678   4.606
10474SOL    HW132321   4.545   0.606   4.671
10474SOL    HW232322   4.581   0.757   4.619
10475SOL     OW32323   4.688   5.948   1.444
10475SOL    HW132324   4.654   6.005   1.369
10475SOL    HW232325   4.787   5.960   1.452
10476SOL     OW32326   6.610   5.611   6.756
10476SOL    HW132327   6.583   5.618   6.659
10476SOL    HW232328   6.707   5.633   6.765
10477SOL     OW32329   6.109   3.342   5.446
10477SOL    HW132330   6.035   3.341   5.379
10477SOL    HW232331   6.070   3.350   5.538
10478SOL     OW32332   0.964   6.889   6.631
10478SOL    HW132333   0.932   6.889   6.726
10478SOL    HW232334   0.892   6.924   6.571
10479SOL     OW32335   1.276   2.205   1.754
10479SOL    HW132336   1.234   2.178   1.667
10479SOL    HW232337   1.367   2.165   1.761
10480SOL     OW32338   5.013   6.651   1.613
10480SOL    HW132339   5.053   6.583   1.551
10480SOL    HW232340   5.064   6.651   1.698
10481SOL     OW32341   2.248   1.166   4.435
10481SOL    HW132342   2.346   1.169   4.451
10481SOL    HW232343   2.215   1.072   4.450
10482SOL     OW32344   0.838   6.367   4.711
10482SOL    HW132345   0.849   6.305   4.633
10482SOL    HW232346   0.849   6.462   4.680
10483SOL     OW32347   6.370   5.265   0.831
10483SOL    HW132348   6.339   5.356   0.802
10483SOL    HW232349   6.404   5.215   0.752
10484SOL     OW32350   0.105   0.668   1.084
10484SOL    HW132351   0.152   0.753   1.110
10484SOL    HW232352   0.011   0.670   1.119
10485SOL     OW32353   3.633   4.014   3.119
10485SOL    HW132354   3.590   4.033   3.208
10485SOL    HW232355   3.584   4.062   3.047
10486SOL     OW32356   6.524   0.107   5.692
10486SOL    HW132357   6.605   0.110   5.751
10486SOL    HW232358   6.457   0.173   5.725
10487SOL     OW32359   4.929   1.638   1.760
10487SOL    HW132360   4.879   1.555   1.786
10487SOL    HW232361   4.864   1.709   1.735
10488SOL     OW32362   0.842   2.415   4.914
10488SOL    HW132363   0.876   2.431   5.007
10488SOL    HW232364   0.773   2.484   4.892
10489SOL     OW32365   6.547   5.807   3.957
10489SOL    HW132366   6.463   5.854   3.984
10489SOL    HW232367   6.547   5.714   3.995
10490SOL     OW32368   5.550   0.511   0.556
10490SOL    HW132369   5.546   0.445   0.630
10490SOL    HW232370   5.465   0.564   0.553
10491SOL     OW32371   1.614   2.849   6.329
10491SOL    HW132372   1.689   2.810   6.276
10491SOL    HW232373   1.651   2.904   6.403
10492SOL     OW32374   4.429   6.896   0.607
10492SOL    HW132375   4.362   6.863   0.540
10492SOL    HW232376   4.436   6.995   0.600
10493SOL     OW32377   4.144   5.431   1.020
10493SOL    HW132378   4.131   5.530   1.020
10493SOL    HW232379   4.205   5.406   1.095
10494SOL     OW32380   1.210   4.579   6.128
10494SOL    HW132381   1.165   4.503   6.081
10494SOL    HW232382   1.141   4.645   6.157
10495SOL     OW32383   6.618   6.188   6.381
10495SOL    HW132384   6.663   6.276   6.371
10495SOL    HW232385   6.611   6.164   6.478
10496SOL     OW32386   0.099   3.698   5.467
10496SOL    HW132387   0.029   3.769   5.464
10496SOL    HW232388   0.056   3.608   5.462
10497SOL     OW32389   2.470   6.840   1.994
10497SOL    HW132390   2.379   6.853   2.032
10497SOL    HW232391   2.526   6.921   2.012
10498SOL     OW32392   5.275   5.452   0.692
10498SOL    HW132393   5.350   5.474   0.629
10498SOL    HW232394   5.292   5.494   0.781
10499SOL     OW32395   5.958   5.805   1.544
10499SOL    HW132396   6.001   5.869   1.607
10499SOL    HW232397   5.865   5.833   1.524
10500SOL     OW32398   5.501   4.029   5.062
10500SOL    HW132399   5.567   3.975   5.011
10500SOL    HW232400   5.533   4.124   5.068
10501SOL     OW32401   2.742   5.621   2.247
10501SOL    HW132402   2.728   5.527   2.277
10501SOL    HW232403   2.832   5.652   2.276
10502SOL     OW32404   3.006   3.099   2.957
10502SOL    HW132405   3.011   3.098   2.857
10502SOL    HW232406   3.088   3.056   2.995
10503SOL     OW32407   6.772   3.866   6.185
10503SOL    HW132408   6.732   3.856   6.094
10503SOL    HW232409   6.772   3.962   6.212
10504SOL     OW32410   1.989   3.423   6.279
10504SOL    HW132411   1.892   3.415   6.304
10504SOL    HW232412   2.019   3.517   6.292
10505SOL     OW32413   5.541   6.212   2.226
10505SOL    HW132414   5.549   6.268   2.143
10505SOL    HW232415   5.632   6.186   2.257
10506SOL     OW32416   0.678   2.837   6.756
10506SOL    HW132417   0.642   2.899   6.687
10506SOL    HW232418   0.711   2.753   6.711
10507SOL     OW32419   2.495   4.942   0.023
10507SOL    HW132420   2.545   5.027   0.008
10507SOL    HW232421   2.465   4.906   6.959
10508SOL     OW32422   1.039   5.703   5.097
10508SOL    HW132423   1.057   5.609   5.068
10508SOL    HW232424   1.114   5.735   5.156
10509SOL     OW32425   5.043   3.392   4.197
10509SOL    HW132426   5.064   3.417   4.102
10509SOL    HW232427   5.034   3.476   4.251
10510SOL     OW32428   4.799   6.258   5.625
10510SOL    HW132429   4.890   6.217   5.616
10510SOL    HW232430   4.808   6.357   5.631
10511SOL     OW32431   2.567   1.163   1.937
10511SOL    HW132432   2.599   1.249   1.896
10511SOL    HW232433   2.559   1.173   2.036
10512SOL     OW32434   4.149   0.318   6.157
10512SOL    HW132435   4.244   0.287   6.154
10512SOL    HW232436   4.133   0.368   6.242
10513SOL     OW32437   5.657   2.774   2.239
10513SOL    HW132438   5.636   2.699   2.302
10513SOL    HW232439   5.679   2.856   2.291
10514SOL     OW32440   1.003   2.478   1.425
10514SOL    HW132441   0.945   2.431   1.492
10514SOL    HW232442   0.968   2.462   1.333
10515SOL     OW32443   2.226   2.377   4.453
10515SOL    HW132444   2.220   2.303   4.519
10515SOL    HW232445   2.153   2.443   4.470
10516SOL     OW32446   3.425   2.421   0.125
10516SOL    HW132447   3.461   2.513   0.110
10516SOL    HW232448   3.494   2.366   0.173
10517SOL     OW32449   1.480   3.117   3.422
10517SOL    HW132450   1.495   3.214   3.404
10517SOL    HW232451   1.553   3.064   3.380
10518SOL     OW32452   1.065   5.235   2.401
10518SOL    HW132453   1.153   5.277   2.379
10518SOL    HW232454   0.999   5.253   2.328
10519SOL     OW32455   2.569   5.605   1.683
10519SOL    HW132456   2.581   5.634   1.778
10519SOL    HW232457   2.624   5.523   1.665
10520SOL     OW32458   6.654   1.821   6.078
10520SOL    HW132459   6.680   1.770   5.995
10520SOL    HW232460   6.602   1.760   6.138
10521SOL     OW32461   5.835   3.651   1.503
10521SOL    HW132462   5.744   3.671   1.466
10521SOL    HW232463   5.861   3.721   1.568
10522SOL     OW32464   5.992   2.557   3.021
10522SOL    HW132465   6.052   2.500   2.966
10522SOL    HW232466   5.896   2.538   2.997
10523SOL     OW32467   0.794   4.089   3.935
10523SOL    HW132468   0.777   4.106   4.032
10523SOL    HW232469   0.707   4.092   3.885
10524SOL     OW32470   0.063   5.162   3.598
10524SOL    HW132471   0.069   5.246   3.651
10524SOL    HW232472   0.022   5.181   3.509
10525SOL     OW32473   4.203   1.057   5.028
10525SOL    HW132474   4.105   1.066   5.011
10525SOL    HW232475   4.246   1.147   5.032
10526SOL     OW32476   0.798   5.669   0.263
10526SOL    HW132477   0.871   5.719   0.311
10526SOL    HW232478   0.812   5.571   0.275
10527SOL     OW32479   0.710   1.528   5.364
10527SOL    HW132480   0.771   1.602   5.335
10527SOL    HW232481   0.700   1.530   5.463
10528SOL     OW32482   0.570   4.753   6.848
10528SOL    HW132483   0.583   4.695   6.929
10528SOL    HW232484   0.547   4.846   6.877
10529SOL     OW32485   1.571   6.102   5.922
10529SOL    HW132486   1.667   6.088   5.898
10529SOL    HW232487   1.556   6.076   6.017
10530SOL     OW32488   0.738   6.824   5.674
10530SOL    HW132489   0.727   6.905   5.731
10530SOL    HW232490   0.785   6.849   5.590
10531SOL     OW32491   3.163   2.695   5.524
10531SOL    HW132492   3.243   2.673   5.469
10531SOL    HW232493   3.097   2.620   5.520
10532SOL     OW32494   5.602   6.577   5.997
10532SOL    HW132495   5.626   6.502   6.058
10532SOL    HW232496   5.685   6.613   5.955
10533SOL     OW32497   3.598   5.636   4.077
10533SOL    HW132498   3.630   5.627   3.983
10533SOL    HW232499   3.670   5.677   4.133
10534SOL     OW32500   0.403   5.595   2.948
10534SOL    HW132501   0.336   5.653   2.996
10534SOL    HW232502   0.449   5.536   3.014
10535SOL     OW32503   2.827   1.197   2.325
10535SOL    HW132504   2.734   1.204   2.289
10535SOL    HW232505   2.859   1.288   2.351
10536SOL     OW32506   4.747   0.747   4.044
10536SOL    HW132507   4.706   0.673   3.990
10536SOL    HW232508   4.741   0.724   4.141
10537SOL     OW32509   4.755   6.782   3.046
10537SOL    HW132510   4.715   6.867   3.010
10537SOL    HW232511   4.803   6.802   3.131
10538SOL     OW32512   5.675   3.696   2.366
10538SOL    HW132513   5.746   3.636   2.329
10538SOL    HW232514   5.642   3.757   2.294
10539SOL     OW32515   6.169   5.694   2.749
10539SOL    HW132516   6.184   5.684   2.651
10539SOL    HW232517   6.076   5.666   2.772
10540SOL     OW32518   2.481   4.144   6.412
10540SOL    HW132519   2.479   4.047   6.389
10540SOL    HW232520   2.573   4.180   6.397
10541SOL     OW32521   3.005   3.069   5.126
10541SOL    HW132522   3.009   3.032   5.219
10541SOL    HW232523   2.924   3.126   5.117
10542SOL     OW32524   6.310   0.064   4.779
10542SOL    HW132525   6.216   0.065   4.814
10542SOL    HW232526   6.365   0.128   4.833
10543SOL     OW32527   6.799   2.694   5.669
10543SOL    HW132528   6.756   2.613   5.632
10543SOL    HW232529   6.733   2.769   5.673
10544SOL     OW32530   1.149   1.200   4.035
10544SOL    HW132531   1.136   1.145   3.952
10544SOL    HW232532   1.180   1.292   4.010
10545SOL     OW32533   1.649   2.732   2.576
10545SOL    HW132534   1.627   2.803   2.510
10545SOL    HW232535   1.568   2.713   2.632
10546SOL     OW32536   3.293   6.628   1.223
10546SOL    HW132537   3.218   6.688   1.196
10546SOL    HW232538   3.371   6.683   1.253
10547SOL     OW32539   4.684   0.208   5.045
10547SOL    HW132540   4.622   0.137   5.011
10547SOL    HW232541   4.740   0.242   4.969
10548SOL     OW32542   0.852   4.551   4.814
10548SOL    HW132543   0.919   4.508   4.754
10548SOL    HW232544   0.813   4.482   4.875
10549SOL     OW32545   0.491   1.358   0.637
10549SOL    HW132546   0.558   1.390   0.570
10549SOL    HW232547   0.453   1.271   0.606
10550SOL     OW32548   3.687   6.031   3.199
10550SOL    HW132549   3.700   6.094   3.275
10550SOL    HW232550   3.705   6.078   3.113
10551SOL     OW32551   2.686   2.019   5.906
10551SOL    HW132552   2.615   2.069   5.955
10551SOL    HW232553   2.701   1.930   5.951
10552SOL     OW32554   3.483   1.094   4.366
10552SOL    HW132555   3.452   1.189   4.360
10552SOL    HW232556   3.512   1.064   4.275
10553SOL     OW32557   0.090   5.086   0.680
10553SOL    HW132558   0.070   5.184   0.687
10553SOL    HW232559   0.172   5.065   0.734
10554SOL     OW32560   6.482   4.921   2.800
10554SOL    HW132561   6.412   4.900   2.869
10554SOL    HW232562   6.474   4.856   2.724
10555SOL     OW32563   3.277   2.195   0.662
10555SOL    HW132564   3.332   2.182   0.580
10555SOL    HW232565   3.334   2.234   0.735
10556SOL     OW32566   2.153   1.303   2.711
10556SOL    HW132567   2.231   1.264   2.663
10556SOL    HW232568   2.171   1.399   2.731
10557SOL     OW32569   1.722   3.800   4.442
10557SOL    HW132570   1.657   3.855   4.389
10557SOL    HW232571   1.758   3.855   4.517
10558SOL     OW32572   3.117   4.897   5.255
10558SOL    HW132573   3.075   4.948   5.180
10558SOL    HW232574   3.059   4.904   5.337
10559SOL     OW32575   3.525   0.000   0.526
10559SOL    HW132576   3.480   6.939   0.501
10559SOL    HW232577   3.618   7.006   0.558
10560SOL     OW32578   4.101   6.241   1.703
10560SOL    HW132579   4.174   6.181   1.735
10560SOL    HW232580   4.116   6.333   1.737
10561SOL     OW32581   5.323   4.318   1.811
10561SOL    HW132582   5.300   4.415   1.803
10561SOL    HW232583   5.390   4.307   1.885
10562SOL     OW32584   3.316   6.672   1.546
10562SOL    HW132585   3.218   6.664   1.528
10562SOL    HW232586   3.335   6.758   1.592
10563SOL     OW32587   0.382   0.033   0.918
10563SOL    HW132588   0.321   0.054   0.842
10563SOL    HW232589   0.440   0.112   0.938
10564SOL     OW32590   6.668   5.540   4.398
10564SOL    HW132591   6.728   5.460   4.407
10564SOL    HW232592   6.718   5.615   4.356
10565SOL     OW32593   6.664   6.649   5.254
10565SOL    HW132594   6.762   6.632   5.254
10565SOL    HW232595   6.618   6.584   5.194
10566SOL     OW32596   2.674   2.429   6.907
10566SOL    HW132597   2.684   2.476   6.819
10566SOL    HW232598   2.676   2.330   6.892
10567SOL     OW32599   1.888   2.252   5.872
10567SOL    HW132600   1.936   2.167   5.895
10567SOL    HW232601   1.935   2.330   5.913
10568SOL     OW32602   5.396   2.815   6.568
10568SOL    HW132603   5.320   2.873   6.538
10568SOL    HW232604   5.424   2.842   6.660
10569SOL     OW32605   5.480   0.081   1.680
10569SOL    HW132606   5.441   0.044   1.596
10569SOL    HW232607   5.423   0.156   1.713
10570SOL     OW32608   0.539   5.154   3.690
10570SOL    HW132609   0.595   5.111   3.761
10570SOL    HW232610   0.598   5.196   3.622
10571SOL     OW32611   6.605   4.688   6.393
10571SOL    HW132612   6.697   4.715   6.362
10571SOL    HW232613   6.560   4.766   6.435
10572SOL     OW32614   6.739   4.484   1.457
10572SOL    HW132615   6.801   4.541   1.512
10572SOL    HW232616   6.737   4.519   1.363
10573SOL     OW32617   5.878   0.623   3.841
10573SOL    HW132618   5.973   0.594   3.854
10573SOL    HW232619   5.855   0.692   3.909
10574SOL     OW32620   6.423   0.479   3.585
10574SOL    HW132621   6.391   0.427   3.664
10574SOL    HW232622   6.518   0.507   3.600
10575SOL     OW32623   5.687   0.856   2.533
10575SOL    HW132624   5.746   0.928   2.569
10575SOL    HW232625   5.723   0.767   2.560
10576SOL     OW32626   2.285   4.871   3.089
10576SOL    HW132627   2.256   4.810   3.015
10576SOL    HW232628   2.322   4.817   3.164
10577SOL     OW32629   3.642   5.904   0.808
10577SOL    HW132630   3.622   5.997   0.836
10577SOL    HW232631   3.568   5.843   0.836
10578SOL     OW32632   6.295   2.185   3.796
10578SOL    HW132633   6.294   2.110   3.861
10578SOL    HW232634   6.201   2.207   3.769
10579SOL     OW32635   2.746   3.415   1.002
10579SOL    HW132636   2.674   3.458   1.056
10579SOL    HW232637   2.705   3.356   0.933
10580SOL     OW32638   6.287   6.827   6.427
10580SOL    HW132639   6.230   6.875   6.493
10580SOL    HW232640   6.348   6.892   6.381
10581SOL     OW32641   5.658   6.586   2.878
10581SOL    HW132642   5.658   6.500   2.930
10581SOL    HW232643   5.708   6.656   2.930
10582SOL     OW32644   5.591   4.708   6.758
10582SOL    HW132645   5.641   4.752   6.684
10582SOL    HW232646   5.632   4.618   6.777
10583SOL     OW32647   2.993   6.649   3.679
10583SOL    HW132648   2.948   6.565   3.649
10583SOL    HW232649   2.942   6.728   3.646
10584SOL     OW32650   6.453   0.281   5.351
10584SOL    HW132651   6.491   0.373   5.354
10584SOL    HW232652   6.523   0.214   5.375
10585SOL     OW32653   0.458   2.232   6.141
10585SOL    HW132654   0.498   2.322   6.155
10585SOL    HW232655   0.462   2.180   6.227
10586SOL     OW32656   4.875   4.240   5.423
10586SOL    HW132657   4.785   4.233   5.380
10586SOL    HW232658   4.946   4.237   5.353
10587SOL     OW32659   0.924   5.936   5.262
10587SOL    HW132660   0.931   5.942   5.361
10587SOL    HW232661   0.935   5.841   5.233
10588SOL     OW32662   1.381   3.188   4.190
10588SOL    HW132663   1.449   3.177   4.117
10588SOL    HW232664   1.302   3.239   4.155
10589SOL     OW32665   5.313   5.984   4.642
10589SOL    HW132666   5.392   5.923   4.643
10589SOL    HW232667   5.321   6.051   4.715
10590SOL     OW32668   0.662   6.064   1.624
10590SOL    HW132669   0.729   6.029   1.558
10590SOL    HW232670   0.698   6.147   1.666
10591SOL     OW32671   0.865   1.393   1.281
10591SOL    HW132672   0.864   1.440   1.192
10591SOL    HW232673   0.937   1.433   1.338
10592SOL     OW32674   5.999   2.238   5.199
10592SOL    HW132675   6.080   2.273   5.152
10592SOL    HW232676   5.920   2.294   5.173
10593SOL     OW32677   2.506   6.304   1.247
10593SOL    HW132678   2.481   6.301   1.150
10593SOL    HW232679   2.570   6.379   1.262
10594SOL     OW32680   3.850   1.035   3.377
10594SOL    HW132681   3.886   0.966   3.314
10594SOL    HW232682   3.750   1.028   3.381
10595SOL     OW32683   6.053   0.661   1.074
10595SOL    HW132684   5.986   0.652   1.000
10595SOL    HW232685   6.088   0.755   1.075
10596SOL     OW32686   4.980   1.923   6.856
10596SOL    HW132687   5.059   1.866   6.835
10596SOL    HW232688   4.991   2.013   6.813
10597SOL     OW32689   2.624   0.600   5.887
10597SOL    HW132690   2.712   0.555   5.871
10597SOL    HW232691   2.610   0.610   5.986
10598SOL     OW32692   2.286   1.747   5.987
10598SOL    HW132693   2.309   1.659   5.944
10598SOL    HW232694   2.288   1.819   5.918
10599SOL     OW32695   6.156   4.265   6.249
10599SOL    HW132696   6.144   4.253   6.150
10599SOL    HW232697   6.123   4.356   6.276
10600SOL     OW32698   2.642   1.403   1.860
10600SOL    HW132699   2.709   1.438   1.794
10600SOL    HW232700   2.590   1.479   1.899
10601SOL     OW32701   0.333   6.537   6.375
10601SOL    HW132702   0.266   6.609   6.355
10601SOL    HW232703   0.340   6.524   6.473
10602SOL     OW32704   0.411   0.227   6.939
10602SOL    HW132705   0.339   0.220   7.008
10602SOL    HW232706   0.386   0.299   6.873
10603SOL     OW32707   4.334   0.167   1.916
10603SOL    HW132708   4.414   0.197   1.863
10603SOL    HW232709   4.353   0.079   1.959
10604SOL     OW32710   6.856   6.764   4.534
10604SOL    HW132711   6.878   6.858   4.561
10604SOL    HW232712   6.935   6.723   4.488
10605SOL     OW32713   2.514   0.337   0.953
10605SOL    HW132714   2.489   0.337   0.856
10605SOL    HW232715   2.464   0.410   1.000
10606SOL     OW32716   5.791   0.921   1.524
10606SOL    HW132717   5.700   0.942   1.559
10606SOL    HW232718   5.796   0.823   1.504
10607SOL     OW32719   4.335   4.317   6.691
10607SOL    HW132720   4.398   4.371   6.634
10607SOL    HW232721   4.251   4.368   6.705
10608SOL     OW32722   6.536   2.572   3.295
10608SOL    HW132723   6.597   2.494   3.281
10608SOL    HW232724   6.583   2.656   3.268
10609SOL     OW32725   4.079   0.014   0.587
10609SOL    HW132726   4.136   0.096   0.584
10609SOL    HW232727   4.035   0.008   0.677
10610SOL     OW32728   6.903   1.661   4.571
10610SOL    HW132729   6.942   1.747   4.603
10610SOL    HW232730   6.934   1.643   4.478
10611SOL     OW32731   2.870   5.586   4.933
10611SOL    HW132732   2.910   5.659   4.877
10611SOL    HW232733   2.928   5.505   4.929
10612SOL     OW32734   5.514   1.207   3.955
10612SOL    HW132735   5.582   1.279   3.945
10612SOL    HW232736   5.422   1.247   3.949
10613SOL     OW32737   6.150   6.048   4.250
10613SOL    HW132738   6.248   6.064   4.242
10613SOL    HW232739   6.109   6.048   4.159
10614SOL     OW32740   5.513   0.448   5.938
10614SOL    HW132741   5.425   0.485   5.909
10614SOL    HW232742   5.522   0.456   6.037
10615SOL     OW32743   2.688   2.166   6.327
10615SOL    HW132744   2.780   2.205   6.336
10615SOL    HW232745   2.675   2.134   6.234
10616SOL     OW32746   3.275   5.776   6.379
10616SOL    HW132747   3.310   5.683   6.377
10616SOL    HW232748   3.222   5.791   6.462
10617SOL     OW32749   2.508   3.698   1.634
10617SOL    HW132750   2.470   3.704   1.542
10617SOL    HW232751   2.474   3.615   1.679
10618SOL     OW32752   0.050   5.538   5.333
10618SOL    HW132753   0.121   5.494   5.278
10618SOL    HW232754   0.044   5.635   5.308
10619SOL     OW32755   0.366   1.959   2.902
10619SOL    HW132756   0.302   1.885   2.924
10619SOL    HW232757   0.402   1.946   2.810
10620SOL     OW32758   2.255   0.046   5.663
10620SOL    HW132759   2.273   6.992   5.604
10620SOL    HW232760   2.257   0.016   5.759
10621SOL     OW32761   1.323   4.170   2.970
10621SOL    HW132762   1.304   4.267   2.979
10621SOL    HW232763   1.397   4.144   3.033
10622SOL     OW32764   4.403   2.970   1.032
10622SOL    HW132765   4.370   2.879   1.058
10622SOL    HW232766   4.459   2.963   0.950
10623SOL     OW32767   6.062   6.229   5.702
10623SOL    HW132768   6.085   6.257   5.608
10623SOL    HW232769   5.968   6.253   5.722
10624SOL     OW32770   0.752   2.897   5.061
10624SOL    HW132771   0.695   2.959   5.008
10624SOL    HW232772   0.823   2.949   5.109
10625SOL     OW32773   0.128   3.622   6.909
10625SOL    HW132774   0.054   3.565   6.873
10625SOL    HW232775   0.196   3.563   6.953
10626SOL     OW32776   3.738   3.004   2.028
10626SOL    HW132777   3.833   3.028   2.047
10626SOL    HW232778   3.726   2.991   1.930
10627SOL     OW32779   6.091   0.418   6.011
10627SOL    HW132780   6.095   0.508   5.967
10627SOL    HW232781   6.000   0.379   5.998
10628SOL     OW32782   3.985   0.641   0.288
10628SOL    HW132783   3.992   0.686   0.199
10628SOL    HW232784   4.053   0.569   0.295
10629SOL     OW32785   3.296   5.319   5.108
10629SOL    HW132786   3.364   5.309   5.035
10629SOL    HW232787   3.343   5.318   5.197
10630SOL     OW32788   4.593   0.761   2.753
10630SOL    HW132789   4.538   0.691   2.799
10630SOL    HW232790   4.539   0.805   2.682
10631SOL     OW32791   4.719   5.108   6.674
10631SOL    HW132792   4.807   5.086   6.633
10631SOL    HW232793   4.731   5.180   6.743
10632SOL     OW32794   5.041   5.758   3.291
10632SOL    HW132795   4.955   5.737   3.244
10632SOL    HW232796   5.028   5.839   3.348
10633SOL     OW32797   2.009   2.823   1.383
10633SOL    HW132798   2.068   2.823   1.302
10633SOL    HW232799   1.988   2.728   1.408
10634SOL     OW32800   1.590   5.107   6.746
10634SOL    HW132801   1.580   5.146   6.838
10634SOL    HW232802   1.544   5.166   6.680
10635SOL     OW32803   2.112   3.507   0.084
10635SOL    HW132804   2.128   3.488   7.011
10635SOL    HW232805   2.173   3.580   0.114
10636SOL     OW32806   6.710   2.416   0.265
10636SOL    HW132807   6.716   2.395   0.168
10636SOL    HW232808   6.734   2.512   0.280
10637SOL     OW32809   2.837   6.008   6.606
10637SOL    HW132810   2.931   6.010   6.638
10637SOL    HW232811   2.786   6.084   6.646
10638SOL     OW32812   6.798   6.029   2.054
10638SOL    HW132813   6.822   5.964   1.982
10638SOL    HW232814   6.817   6.122   2.024
10639SOL     OW32815   2.129   3.806   2.003
10639SOL    HW132816   2.114   3.709   2.021
10639SOL    HW232817   2.216   3.818   1.955
10640SOL     OW32818   3.770   0.659   3.671
10640SOL    HW132819   3.817   0.677   3.584
10640SOL    HW232820   3.787   0.735   3.734
10641SOL     OW32821   1.473   0.665   3.434
10641SOL    HW132822   1.427   0.577   3.434
10641SOL    HW232823   1.422   0.729   3.376
10642SOL     OW32824   6.472   2.569   0.305
10642SOL    HW132825   6.419   2.535   0.383
10642SOL    HW232826   6.547   2.505   0.286
10643SOL     OW32827   2.324   5.691   5.031
10643SOL    HW132828   2.319   5.606   5.083
10643SOL    HW232829   2.316   5.769   5.093
10644SOL     OW32830   5.985   2.833   2.050
10644SOL    HW132831   6.001   2.932   2.045
10644SOL    HW232832   5.892   2.813   2.019
10645SOL     OW32833   2.197   3.191   3.539
10645SOL    HW132834   2.266   3.156   3.603
10645SOL    HW232835   2.118   3.225   3.591
10646SOL     OW32836   5.027   1.395   4.477
10646SOL    HW132837   5.034   1.474   4.538
10646SOL    HW232838   4.931   1.371   4.464
10647SOL     OW32839   4.330   5.404   5.665
10647SOL    HW132840   4.391   5.406   5.585
10647SOL    HW232841   4.315   5.309   5.692
10648SOL     OW32842   6.181   5.142   6.106
10648SOL    HW132843   6.174   5.159   6.008
10648SOL    HW232844   6.255   5.197   6.144
10649SOL     OW32845   0.568   3.141   3.689
10649SOL    HW132846   0.640   3.072   3.701
10649SOL    HW232847   0.528   3.131   3.597
10650SOL     OW32848   6.990   0.318   4.108
10650SOL    HW132849   6.998   0.254   4.032
10650SOL    HW232850   6.923   0.284   4.174
10651SOL     OW32851   5.162   6.703   6.156
10651SOL    HW132852   5.248   6.673   6.115
10651SOL    HW232853   5.086   6.651   6.116
10652SOL     OW32854   1.420   6.729   6.272
10652SOL    HW132855   1.391   6.648   6.324
10652SOL    HW232856   1.436   6.805   6.335
10653SOL     OW32857   3.984   6.152   4.597
10653SOL    HW132858   4.022   6.090   4.666
10653SOL    HW232859   3.894   6.119   4.569
10654SOL     OW32860   5.162   1.619   4.115
10654SOL    HW132861   5.076   1.669   4.123
10654SOL    HW232862   5.213   1.654   4.036
10655SOL     OW32863   1.832   4.444   1.547
10655SOL    HW132864   1.862   4.537   1.525
10655SOL    HW232865   1.754   4.420   1.489
10656SOL     OW32866   6.044   1.667   2.425
10656SOL    HW132867   5.968   1.614   2.463
10656SOL    HW232868   6.070   1.630   2.336
10657SOL     OW32869   5.724   0.892   4.538
10657SOL    HW132870   5.785   0.840   4.477
10657SOL    HW232871   5.709   0.839   4.622
10658SOL     OW32872   5.928   3.993   5.506
10658SOL    HW132873   5.988   3.930   5.458
10658SOL    HW232874   5.868   3.941   5.567
10659SOL     OW32875   1.085   4.816   1.029
10659SOL    HW132876   1.029   4.793   1.109
10659SOL    HW232877   1.156   4.881   1.054
10660SOL     OW32878   5.987   3.332   5.699
10660SOL    HW132879   5.975   3.298   5.792
10660SOL    HW232880   5.899   3.365   5.664
10661SOL     OW32881   1.617   4.728   0.675
10661SOL    HW132882   1.524   4.757   0.697
10661SOL    HW232883   1.678   4.752   0.751
10662SOL     OW32884   3.526   1.318   2.343
10662SOL    HW132885   3.564   1.289   2.431
10662SOL    HW232886   3.548   1.414   2.327
10663SOL     OW32887   1.013   1.591   3.697
10663SOL    HW132888   1.083   1.522   3.676
10663SOL    HW232889   0.923   1.547   3.702
10664SOL     OW32890   0.667   5.241   4.539
10664SOL    HW132891   0.569   5.256   4.538
10664SOL    HW232892   0.696   5.214   4.631
10665SOL     OW32893   2.154   2.585   6.835
10665SOL    HW132894   2.153   2.675   6.791
10665SOL    HW232895   2.190   2.517   6.772
10666SOL     OW32896   3.650   3.462   1.992
10666SOL    HW132897   3.558   3.424   1.998
10666SOL    HW232898   3.700   3.440   2.076
10667SOL     OW32899   4.676   1.134   3.589
10667SOL    HW132900   4.615   1.108   3.664
10667SOL    HW232901   4.766   1.092   3.603
10668SOL     OW32902   3.175   2.148   5.594
10668SOL    HW132903   3.116   2.149   5.513
10668SOL    HW232904   3.171   2.058   5.637
10669SOL     OW32905   5.848   0.615   0.912
10669SOL    HW132906   5.851   0.567   0.824
10669SOL    HW232907   5.793   0.562   0.977
10670SOL     OW32908   5.365   3.958   4.580
10670SOL    HW132909   5.344   3.871   4.534
10670SOL    HW232910   5.461   3.981   4.567
10671SOL     OW32911   1.067   1.363   4.398
10671SOL    HW132912   1.153   1.341   4.352
10671SOL    HW232913   1.062   1.461   4.415
10672SOL     OW32914   6.313   4.213   1.812
10672SOL    HW132915   6.359   4.173   1.733
10672SOL    HW232916   6.214   4.205   1.800
10673SOL     OW32917   1.936   6.804   0.510
10673SOL    HW132918   1.982   6.824   0.423
10673SOL    HW232919   1.968   6.867   0.580
10674SOL     OW32920   4.064   3.710   4.513
10674SOL    HW132921   4.071   3.634   4.449
10674SOL    HW232922   3.980   3.762   4.493
10675SOL     OW32923   3.091   0.989   6.306
10675SOL    HW132924   3.059   0.947   6.392
10675SOL    HW232925   3.065   1.085   6.305
10676SOL     OW32926   6.967   5.668   4.674
10676SOL    HW132927   7.010   5.750   4.713
10676SOL    HW232928   6.881   5.650   4.722
10677SOL     OW32929   1.357   0.675   1.254
10677SOL    HW132930   1.398   0.719   1.333
10677SOL    HW232931   1.279   0.728   1.222
10678SOL     OW32932   4.062   4.828   3.795
10678SOL    HW132933   4.148   4.872   3.819
10678SOL    HW232934   4.047   4.749   3.855
10679SOL     OW32935   3.739   5.419   6.950
10679SOL    HW132936   3.741   5.416   6.851
10679SOL    HW232937   3.833   5.410   6.985
10680SOL     OW32938   3.734   1.674   4.056
10680SOL    HW132939   3.700   1.733   4.129
10680SOL    HW232940   3.701   1.708   3.968
10681SOL     OW32941   0.261   3.435   0.028
10681SOL    HW132942   0.266   3.444   0.127
10681SOL    HW232943   0.348   3.400   7.018
10682SOL     OW32944   0.311   3.096   5.014
10682SOL    HW132945   0.237   3.149   4.973
10682SOL    HW232946   0.298   2.999   4.993
10683SOL     OW32947   4.445   0.612   3.663
10683SOL    HW132948   4.435   0.628   3.762
10683SOL    HW232949   4.381   0.671   3.614
10684SOL     OW32950   4.184   5.440   1.536
10684SOL    HW132951   4.217   5.508   1.601
10684SOL    HW232952   4.084   5.440   1.536
10685SOL     OW32953   0.317   5.899   0.808
10685SOL    HW132954   0.412   5.900   0.840
10685SOL    HW232955   0.301   5.978   0.748
10686SOL     OW32956   2.438   4.564   6.298
10686SOL    HW132957   2.343   4.587   6.320
10686SOL    HW232958   2.441   4.518   6.209
10687SOL     OW32959   6.348   4.461   3.537
10687SOL    HW132960   6.305   4.544   3.573
10687SOL    HW232961   6.374   4.475   3.442
10688SOL     OW32962   5.129   1.868   2.701
10688SOL    HW132963   5.073   1.934   2.650
10688SOL    HW232964   5.086   1.850   2.790
10689SOL     OW32965   6.896   6.827   1.314
10689SOL    HW132966   6.797   6.835   1.307
10689SOL    HW232967   6.939   6.910   1.277
10690SOL     OW32968   0.386   5.245   3.306
10690SOL    HW132969   0.390   5.298   3.391
10690SOL    HW232970   0.436   5.159   3.319
10691SOL     OW32971   1.864   1.322   1.710
10691SOL    HW132972   1.794   1.386   1.678
10691SOL    HW232973   1.946   1.331   1.654
10692SOL     OW32974   2.702   0.625   4.619
10692SOL    HW132975   2.772   0.554   4.614
10692SOL    HW232976   2.730   0.704   4.563
10693SOL     OW32977   0.743   6.286   1.429
10693SOL    HW132978   0.752   6.316   1.524
10693SOL    HW232979   0.651   6.305   1.396
10694SOL     OW32980   5.258   0.053   6.650
10694SOL    HW132981   5.257   7.019   6.570
10694SOL    HW232982   5.204   0.136   6.632
10695SOL     OW32983   0.906   2.430   1.186
10695SOL    HW132984   0.981   2.477   1.139
10695SOL    HW232985   0.835   2.405   1.121
10696SOL     OW32986   6.379   3.594   4.613
10696SOL    HW132987   6.454   3.527   4.616
10696SOL    HW232988   6.398   3.669   4.675
10697SOL     OW32989   6.953   6.825   5.569
10697SOL    HW132990   6.869   6.773   5.584
10697SOL    HW232991   6.959   6.899   5.636
10698SOL     OW32992   4.779   4.124   0.316
10698SOL    HW132993   4.731   4.159   0.235
10698SOL    HW232994   4.764   4.026   0.323
10699SOL     OW32995   3.580   4.835   0.991
10699SOL    HW132996   3.654   4.791   0.940
10699SOL    HW232997   3.493   4.814   0.948
10700SOL     OW32998   5.435   0.095   0.666
10700SOL    HW132999   5.390   0.173   0.620
10700SOL    HW233000   5.527   0.122   0.694
10701SOL     OW33001   3.425   0.009   6.227
10701SOL    HW133002   3.330   7.012   6.249
10701SOL    HW233003   3.455   6.976   6.151
10702SOL     OW33004   4.967   3.270   2.522
10702SOL    HW133005   5.048   3.215   2.501
10702SOL    HW233006   4.928   3.305   2.437
10703SOL     OW33007   2.151   2.821   5.667
10703SOL    HW133008   2.095   2.743   5.641
10703SOL    HW233009   2.093   2.893   5.704
10704SOL     OW33010   0.066   4.902   2.522
10704SOL    HW133011   0.018   4.876   2.439
10704SOL    HW233012   0.151   4.851   2.530
10705SOL     OW33013   5.737   5.619   1.442
10705SOL    HW133014   5.659   5.581   1.392
10705SOL    HW233015   5.822   5.594   1.396
10706SOL     OW33016   3.843   0.043   1.997
10706SOL    HW133017   3.757   0.060   1.947
10706SOL    HW233018   3.912   0.107   1.967
10707SOL     OW33019   0.812   6.827   3.918
10707SOL    HW133020   0.766   6.865   3.998
10707SOL    HW233021   0.785   6.878   3.836
10708SOL     OW33022   3.974   1.473   1.261
10708SOL    HW133023   3.912   1.502   1.189
10708SOL    HW233024   3.947   1.383   1.295
10709SOL     OW33025   5.345   5.032   5.113
10709SOL    HW133026   5.324   4.936   5.099
10709SOL    HW233027   5.443   5.047   5.103
10710SOL     OW33028   5.946   1.131   3.868
10710SOL    HW133029   5.886   1.091   3.799
10710SOL    HW233030   5.924   1.092   3.958
10711SOL     OW33031   1.939   6.702   3.913
10711SOL    HW133032   1.954   6.702   4.012
10711SOL    HW233033   1.887   6.621   3.887
10712SOL     OW33034   2.919   0.490   2.856
10712SOL    HW133035   2.899   0.498   2.954
10712SOL    HW233036   3.001   0.541   2.834
10713SOL     OW33037   0.770   2.952   0.777
10713SOL    HW133038   0.729   3.008   0.704
10713SOL    HW233039   0.698   2.922   0.840
10714SOL     OW33040   4.216   3.324   5.808
10714SOL    HW133041   4.288   3.312   5.740
10714SOL    HW233042   4.127   3.311   5.765
10715SOL     OW33043   4.877   0.270   1.865
10715SOL    HW133044   4.843   0.183   1.900
10715SOL    HW233045   4.852   0.343   1.929
10716SOL     OW33046   6.099   3.180   3.711
10716SOL    HW133047   6.122   3.098   3.765
10716SOL    HW233048   6.138   3.171   3.619
10717SOL     OW33049   1.969   3.093   1.347
10717SOL    HW133050   1.998   3.001   1.373
10717SOL    HW233051   2.049   3.148   1.326
10718SOL     OW33052   1.147   3.665   0.019
10718SOL    HW133053   1.200   3.635   6.964
10718SOL    HW233054   1.059   3.702   7.012
10719SOL     OW33055   0.165   5.524   2.665
10719SOL    HW133056   0.233   5.450   2.668
10719SOL    HW233057   0.080   5.492   2.706
10720SOL     OW33058   6.566   4.973   4.775
10720SOL    HW133059   6.512   5.056   4.767
10720SOL    HW233060   6.508   4.898   4.808
10721SOL     OW33061   5.100   3.662   5.389
10721SOL    HW133062   5.157   3.593   5.433
10721SOL    HW233063   5.063   3.724   5.459
10722SOL     OW33064   0.751   4.958   1.075
10722SOL    HW133065   0.827   4.979   1.137
10722SOL    HW233066   0.665   4.986   1.117
10723SOL     OW33067   0.428   2.816   6.173
10723SOL    HW133068   0.503   2.783   6.116
10723SOL    HW233069   0.426   2.766   6.260
10724SOL     OW33070   5.837   0.236   6.059
10724SOL    HW133071   5.756   0.248   6.116
10724SOL    HW233072   5.822   0.161   5.995
10725SOL     OW33073   1.679   6.064   5.312
10725SOL    HW133074   1.717   6.031   5.225
10725SOL    HW233075   1.583   6.089   5.298
10726SOL     OW33076   5.838   0.861   4.000
10726SOL    HW133077   5.885   0.899   4.079
10726SOL    HW233078   5.746   0.901   3.993
10727SOL     OW33079   0.298   5.419   5.294
10727SOL    HW133080   0.354   5.422   5.211
10727SOL    HW233081   0.290   5.325   5.325
10728SOL     OW33082   1.830   5.164   6.511
10728SOL    HW133083   1.861   5.236   6.448
10728SOL    HW233084   1.736   5.137   6.488
10729SOL     OW33085   5.138   1.324   3.232
10729SOL    HW133086   5.108   1.381   3.155
10729SOL    HW233087   5.238   1.317   3.231
10730SOL     OW33088   1.566   0.607   1.030
10730SOL    HW133089   1.563   0.707   1.034
10730SOL    HW233090   1.473   0.571   1.036
10731SOL     OW33091   3.342   1.103   0.856
10731SOL    HW133092   3.374   1.075   0.946
10731SOL    HW233093   3.242   1.098   0.852
10732SOL     OW33094   6.708   4.462   4.767
10732SOL    HW133095   6.651   4.431   4.690
10732SOL    HW233096   6.656   4.526   4.823
10733SOL     OW33097   6.901   1.510   6.630
10733SOL    HW133098   6.907   1.545   6.536
10733SOL    HW233099   6.806   1.515   6.661
10734SOL     OW33100   0.937   0.754   0.061
10734SOL    HW133101   0.993   0.712   0.133
10734SOL    HW233102   0.991   0.823   0.013
10735SOL     OW33103   0.216   3.039   2.319
10735SOL    HW133104   0.265   3.086   2.393
10735SOL    HW233105   0.260   3.061   2.232
10736SOL     OW33106   1.171   0.466   3.713
10736SOL    HW133107   1.093   0.411   3.744
10736SOL    HW233108   1.251   0.446   3.769
10737SOL     OW33109   1.102   1.891   6.968
10737SOL    HW133110   1.029   1.832   7.003
10737SOL    HW233111   1.188   1.839   6.967
10738SOL     OW33112   2.462   0.065   2.811
10738SOL    HW133113   2.476   0.120   2.894
10738SOL    HW233114   2.406   0.117   2.746
10739SOL     OW33115   1.626   0.887   1.049
10739SOL    HW133116   1.697   0.872   0.980
10739SOL    HW233117   1.605   0.984   1.055
10740SOL     OW33118   0.500   5.333   4.888
10740SOL    HW133119   0.591   5.303   4.858
10740SOL    HW233120   0.431   5.285   4.834
10741SOL     OW33121   4.620   0.899   1.051
10741SOL    HW133122   4.635   0.817   0.995
10741SOL    HW233123   4.558   0.961   1.003
10742SOL     OW33124   5.482   6.780   1.466
10742SOL    HW133125   5.403   6.839   1.449
10742SOL    HW233126   5.498   6.773   1.564
10743SOL     OW33127   1.324   1.651   5.343
10743SOL    HW133128   1.260   1.673   5.417
10743SOL    HW233129   1.293   1.567   5.298
10744SOL     OW33130   3.131   1.483   0.908
10744SOL    HW133131   3.057   1.435   0.954
10744SOL    HW233132   3.183   1.536   0.976
10745SOL     OW33133   6.889   5.622   5.865
10745SOL    HW133134   6.974   5.598   5.913
10745SOL    HW233135   6.817   5.558   5.890
10746SOL     OW33136   2.670   4.453   1.137
10746SOL    HW133137   2.692   4.356   1.149
10746SOL    HW233138   2.706   4.505   1.214
10747SOL     OW33139   4.115   1.672   4.521
10747SOL    HW133140   4.056   1.725   4.582
10747SOL    HW233141   4.197   1.644   4.571
10748SOL     OW33142   5.860   1.170   0.533
10748SOL    HW133143   5.819   1.110   0.464
10748SOL    HW233144   5.859   1.264   0.500
10749SOL     OW33145   0.002   5.436   3.671
10749SOL    HW133146   6.942   5.488   3.684
10749SOL    HW233147   0.064   5.488   3.613
10750SOL     OW33148   4.773   5.822   4.086
10750SOL    HW133149   4.804   5.819   3.991
10750SOL    HW233150   4.833   5.882   4.139
10751SOL     OW33151   2.130   4.978   4.750
10751SOL    HW133152   2.045   4.952   4.704
10751SOL    HW233153   2.117   5.063   4.800
10752SOL     OW33154   6.246   4.789   5.458
10752SOL    HW133155   6.274   4.713   5.517
10752SOL    HW233156   6.146   4.796   5.458
10753SOL     OW33157   5.465   4.570   4.556
10753SOL    HW133158   5.545   4.575   4.496
10753SOL    HW233159   5.479   4.629   4.635
10754SOL     OW33160   0.732   0.349   3.441
10754SOL    HW133161   0.826   0.363   3.471
10754SOL    HW233162   0.704   0.425   3.382
10755SOL     OW33163   6.955   0.712   0.519
10755SOL    HW133164   6.887   0.784   0.534
10755SOL    HW233165   6.960   0.690   0.422
10756SOL     OW33166   6.379   5.056   6.640
10756SOL    HW133167   6.402   5.029   6.734
10756SOL    HW233168   6.375   5.155   6.634
10757SOL     OW33169   1.580   2.556   0.053
10757SOL    HW133170   1.531   2.481   0.009
10757SOL    HW233171   1.584   2.539   0.152
10758SOL     OW33172   0.837   6.124   4.510
10758SOL    HW133173   0.834   6.058   4.585
10758SOL    HW233174   0.928   6.122   4.469
10759SOL     OW33175   1.965   3.298   1.688
10759SOL    HW133176   2.063   3.306   1.670
10759SOL    HW233177   1.939   3.363   1.759
10760SOL     OW33178   5.483   0.205   2.111
10760SOL    HW133179   5.412   0.245   2.053
10760SOL    HW233180   5.514   0.272   2.177
10761SOL     OW33181   0.380   6.273   5.726
10761SOL    HW133182   0.400   6.176   5.719
10761SOL    HW233183   0.296   6.294   5.675
10762SOL     OW33184   3.335   2.017   4.240
10762SOL    HW133185   3.243   2.053   4.222
10762SOL    HW233186   3.368   2.052   4.327
10763SOL     OW33187   4.754   6.591   2.853
10763SOL    HW133188   4.656   6.590   2.834
10763SOL    HW233189   4.776   6.668   2.913
10764SOL     OW33190   5.211   2.132   5.819
10764SOL    HW133191   5.311   2.132   5.818
10764SOL    HW233192   5.178   2.057   5.876
10765SOL     OW33193   5.323   2.470   0.659
10765SOL    HW133194   5.383   2.549   0.652
10765SOL    HW233195   5.290   2.443   0.569
10766SOL     OW33196   4.305   5.012   0.599
10766SOL    HW133197   4.308   5.056   0.689
10766SOL    HW233198   4.329   4.916   0.608
10767SOL     OW33199   1.871   0.341   0.742
10767SOL    HW133200   1.792   0.402   0.749
10767SOL    HW233201   1.841   0.250   0.711
10768SOL     OW33202   5.118   5.262   1.337
10768SOL    HW133203   5.127   5.192   1.409
10768SOL    HW233204   5.095   5.217   1.250
10769SOL     OW33205   2.288   3.965   5.389
10769SOL    HW133206   2.346   3.938   5.312
10769SOL    HW233207   2.222   3.892   5.407
10770SOL     OW33208   5.664   6.473   4.437
10770SOL    HW133209   5.749   6.468   4.490
10770SOL    HW233210   5.657   6.393   4.378
10771SOL     OW33211   5.252   0.203   3.202
10771SOL    HW133212   5.219   0.297   3.196
10771SOL    HW233213   5.201   0.154   3.273
10772SOL     OW33214   6.173   0.221   4.073
10772SOL    HW133215   6.250   0.186   4.126
10772SOL    HW233216   6.156   0.316   4.099
10773SOL     OW33217   5.987   5.212   6.483
10773SOL    HW133218   6.035   5.137   6.528
10773SOL    HW233219   5.942   5.178   6.401
10774SOL     OW33220   2.427   1.804   6.226
10774SOL    HW133221   2.383   1.779   6.140
10774SOL    HW233222   2.358   1.812   6.298
10775SOL     OW33223   0.367   4.499   2.408
10775SOL    HW133224   0.340   4.595   2.400
10775SOL    HW233225   0.291   4.448   2.449
10776SOL     OW33226   0.529   0.907   6.201
10776SOL    HW133227   0.583   0.908   6.284
10776SOL    HW233228   0.498   1.000   6.180
10777SOL     OW33229   3.929   5.567   2.110
10777SOL    HW133230   3.941   5.580   2.208
10777SOL    HW233231   3.972   5.480   2.082
10778SOL     OW33232   4.955   6.916   4.125
10778SOL    HW133233   4.874   6.927   4.183
10778SOL    HW233234   5.001   6.830   4.148
10779SOL     OW33235   6.164   2.913   3.741
10779SOL    HW133236   6.255   2.935   3.777
10779SOL    HW233237   6.158   2.815   3.724
10780SOL     OW33238   1.907   0.747   4.362
10780SOL    HW133239   1.811   0.769   4.345
10780SOL    HW233240   1.917   0.707   4.453
10781SOL     OW33241   4.422   1.503   4.306
10781SOL    HW133242   4.406   1.549   4.218
10781SOL    HW233243   4.335   1.469   4.342
10782SOL     OW33244   0.014   0.954   2.844
10782SOL    HW133245   0.036   0.952   2.942
10782SOL    HW233246   6.940   0.947   2.832
10783SOL     OW33247   0.527   1.933   2.682
10783SOL    HW133248   0.551   2.009   2.622
10783SOL    HW233249   0.608   1.903   2.733
10784SOL     OW33250   4.065   0.029   4.080
10784SOL    HW133251   4.133   6.981   4.081
10784SOL    HW233252   4.111   0.118   4.077
10785SOL     OW33253   0.648   4.461   0.476
10785SOL    HW133254   0.729   4.440   0.531
10785SOL    HW233255   0.602   4.541   0.514
10786SOL     OW33256   6.291   4.917   3.143
10786SOL    HW133257   6.362   4.848   3.145
10786SOL    HW233258   6.251   4.922   3.052
10787SOL     OW33259   1.476   1.390   5.907
10787SOL    HW133260   1.395   1.380   5.848
10787SOL    HW233261   1.446   1.412   6.000
10788SOL     OW33262   1.528   4.171   0.475
10788SOL    HW133263   1.441   4.144   0.433
10788SOL    HW233264   1.510   4.228   0.556
10789SOL     OW33265   6.540   3.528   6.388
10789SOL    HW133266   6.511   3.571   6.474
10789SOL    HW233267   6.542   3.429   6.399
10790SOL     OW33268   0.626   0.419   2.028
10790SOL    HW133269   0.689   0.453   1.958
10790SOL    HW233270   0.553   0.486   2.042
10791SOL     OW33271   0.327   5.938   1.824
10791SOL    HW133272   0.289   5.848   1.805
10791SOL    HW233273   0.282   6.007   1.768
10792SOL     OW33274   3.261   2.983   5.012
10792SOL    HW133275   3.176   3.008   5.058
10792SOL    HW233276   3.248   2.984   4.913
10793SOL     OW33277   6.076   3.005   6.071
10793SOL    HW133278   6.157   2.959   6.034
10793SOL    HW233279   5.994   2.973   6.024
10794SOL     OW33280   3.995   3.612   4.761
10794SOL    HW133281   4.033   3.659   4.681
10794SOL    HW233282   4.005   3.513   4.750
10795SOL     OW33283   6.923   5.376   2.777
10795SOL    HW133284   6.991   5.303   2.785
10795SOL    HW233285   6.871   5.382   2.862
10796SOL     OW33286   6.723   6.700   5.619
10796SOL    HW133287   6.646   6.718   5.558
10796SOL    HW233288   6.691   6.697   5.713
10797SOL     OW33289   2.642   2.405   1.282
10797SOL    HW133290   2.601   2.335   1.223
10797SOL    HW233291   2.594   2.492   1.268
10798SOL     OW33292   2.907   0.667   0.213
10798SOL    HW133293   2.866   0.642   0.125
10798SOL    HW233294   2.835   0.697   0.276
10799SOL     OW33295   4.501   1.363   2.073
10799SOL    HW133296   4.487   1.285   2.012
10799SOL    HW233297   4.419   1.420   2.074
10800SOL     OW33298   0.597   6.603   5.412
10800SOL    HW133299   0.568   6.515   5.451
10800SOL    HW233300   0.548   6.619   5.326
10801SOL     OW33301   1.038   0.094   6.879
10801SOL    HW133302   0.984   0.012   6.895
10801SOL    HW233303   1.135   0.069   6.875
10802SOL     OW33304   0.374   0.196   2.396
10802SOL    HW133305   0.299   0.188   2.331
10802SOL    HW233306   0.375   0.115   2.455
10803SOL     OW33307   1.611   5.728   5.480
10803SOL    HW133308   1.638   5.819   5.512
10803SOL    HW233309   1.570   5.736   5.389
10804SOL     OW33310   5.816   3.430   2.739
10804SOL    HW133311   5.819   3.334   2.766
10804SOL    HW233312   5.722   3.454   2.714
10805SOL     OW33313   4.811   0.521   5.244
10805SOL    HW133314   4.885   0.550   5.184
10805SOL    HW233315   4.783   0.597   5.302
10806SOL     OW33316   3.929   3.838   5.975
10806SOL    HW133317   3.999   3.787   6.026
10806SOL    HW233318   3.968   3.922   5.938
10807SOL     OW33319   1.824   6.693   3.542
10807SOL    HW133320   1.898   6.759   3.556
10807SOL    HW233321   1.742   6.740   3.509
10808SOL     OW33322   0.348   3.163   5.917
10808SOL    HW133323   0.445   3.164   5.943
10808SOL    HW233324   0.324   3.251   5.876
10809SOL     OW33325   2.457   4.371   4.016
10809SOL    HW133326   2.408   4.341   4.098
10809SOL    HW233327   2.446   4.303   3.944
10810SOL     OW33328   0.169   0.331   4.272
10810SOL    HW133329   0.189   0.427   4.252
10810SOL    HW233330   0.090   0.302   4.218
10811SOL     OW33331   4.890   4.592   5.462
10811SOL    HW133332   4.932   4.583   5.372
10811SOL    HW233333   4.806   4.538   5.466
10812SOL     OW33334   0.064   3.702   0.561
10812SOL    HW133335   0.083   3.771   0.491
10812SOL    HW233336   0.092   3.737   0.651
10813SOL     OW33337   0.838   3.660   6.054
10813SOL    HW133338   0.913   3.598   6.075
10813SOL    HW233339   0.803   3.642   5.962
10814SOL     OW33340   2.213   0.192   6.922
10814SOL    HW133341   2.132   0.243   6.892
10814SOL    HW233342   2.281   0.256   6.958
10815SOL     OW33343   4.945   2.998   2.994
10815SOL    HW133344   5.003   2.932   2.947
10815SOL    HW233345   4.939   3.082   2.939
10816SOL     OW33346   3.274   3.050   3.019
10816SOL    HW133347   3.310   3.000   2.941
10816SOL    HW233348   3.291   3.148   3.007
10817SOL     OW33349   3.593   0.278   3.501
10817SOL    HW133350   3.584   0.327   3.415
10817SOL    HW233351   3.502   0.250   3.533
10818SOL     OW33352   4.641   3.894   5.471
10818SOL    HW133353   4.566   3.863   5.413
10818SOL    HW233354   4.604   3.948   5.547
10819SOL     OW33355   6.007   5.447   6.914
10819SOL    HW133356   5.960   5.387   6.849
10819SOL    HW233357   6.076   5.395   6.964
10820SOL     OW33358   0.350   5.090   4.400
10820SOL    HW133359   0.384   5.183   4.383
10820SOL    HW233360   0.425   5.025   4.392
10821SOL     OW33361   4.422   6.946   3.202
10821SOL    HW133362   4.343   6.885   3.188
10821SOL    HW233363   4.416   6.987   3.293
10822SOL     OW33364   6.390   1.815   2.106
10822SOL    HW133365   6.360   1.883   2.173
10822SOL    HW233366   6.381   1.723   2.146
10823SOL     OW33367   0.565   0.464   2.742
10823SOL    HW133368   0.575   0.406   2.661
10823SOL    HW233369   0.535   0.555   2.715
10824SOL     OW33370   6.900   0.924   2.450
10824SOL    HW133371   6.812   0.966   2.428
10824SOL    HW233372   6.942   0.889   2.366
10825SOL     OW33373   1.910   1.578   0.208
10825SOL    HW133374   1.861   1.493   0.227
10825SOL    HW233375   1.980   1.561   0.139
10826SOL     OW33376   0.934   1.318   2.854
10826SOL    HW133377   0.995   1.352   2.925
10826SOL    HW233378   0.964   1.228   2.823
10827SOL     OW33379   0.202   3.559   4.484
10827SOL    HW133380   0.226   3.614   4.563
10827SOL    HW233381   0.243   3.468   4.492
10828SOL     OW33382   1.816   4.308   0.937
10828SOL    HW133383   1.880   4.252   0.989
10828SOL    HW233384   1.753   4.354   0.999
10829SOL     OW33385   4.945   3.054   0.068
10829SOL    HW133386   5.041   3.074   0.086
10829SOL    HW233387   4.918   2.972   0.118
10830SOL     OW33388   4.465   1.884   3.269
10830SOL    HW133389   4.473   1.785   3.279
10830SOL    HW233390   4.402   1.920   3.338
10831SOL     OW33391   3.022   6.454   1.914
10831SOL    HW133392   3.023   6.554   1.918
10831SOL    HW233393   3.027   6.417   2.007
10832SOL     OW33394   6.759   3.602   6.251
10832SOL    HW133395   6.683   3.564   6.303
10832SOL    HW233396   6.743   3.700   6.237
10833SOL     OW33397   0.748   1.704   0.785
10833SOL    HW133398   0.778   1.791   0.824
10833SOL    HW233399   0.672   1.667   0.838
10834SOL     OW33400   6.235   1.662   0.258
10834SOL    HW133401   6.278   1.587   0.209
10834SOL    HW233402   6.139   1.642   0.274
10835SOL     OW33403   5.691   3.941   0.213
10835SOL    HW133404   5.630   3.924   0.136
10835SOL    HW233405   5.773   3.883   0.204
10836SOL     OW33406   0.563   1.390   3.060
10836SOL    HW133407   0.618   1.342   3.128
10836SOL    HW233408   0.597   1.484   3.049
10837SOL     OW33409   7.011   4.988   1.874
10837SOL    HW133410   0.034   5.074   1.892
10837SOL    HW233411   6.946   5.000   1.799
10838SOL     OW33412   6.103   6.475   3.972
10838SOL    HW133413   6.062   6.566   3.969
10838SOL    HW233414   6.032   6.408   3.995
10839SOL     OW33415   4.264   3.754   0.999
10839SOL    HW133416   4.220   3.693   1.064
10839SOL    HW233417   4.296   3.701   0.920
10840SOL     OW33418   3.453   6.552   2.133
10840SOL    HW133419   3.367   6.599   2.113
10840SOL    HW233420   3.528   6.600   2.086
10841SOL     OW33421   6.154   4.680   4.985
10841SOL    HW133422   6.108   4.655   5.069
10841SOL    HW233423   6.104   4.643   4.907
10842SOL     OW33424   5.225   2.299   1.220
10842SOL    HW133425   5.283   2.340   1.291
10842SOL    HW233426   5.144   2.356   1.207
10843SOL     OW33427   1.526   1.025   1.376
10843SOL    HW133428   1.591   0.950   1.370
10843SOL    HW233429   1.442   0.993   1.420
10844SOL     OW33430   0.072   4.867   3.196
10844SOL    HW133431   0.129   4.895   3.274
10844SOL    HW233432   0.089   4.929   3.119
10845SOL     OW33433   4.419   6.185   5.382
10845SOL    HW133434   4.410   6.250   5.306
10845SOL    HW233435   4.401   6.231   5.468
10846SOL     OW33436   5.478   0.406   6.813
10846SOL    HW133437   5.380   0.396   6.832
10846SOL    HW233438   5.527   0.328   6.851
10847SOL     OW33439   3.049   2.386   0.147
10847SOL    HW133440   3.086   2.432   0.066
10847SOL    HW233441   2.968   2.434   0.179
10848SOL     OW33442   0.865   4.486   1.058
10848SOL    HW133443   0.789   4.486   0.993
10848SOL    HW233444   0.928   4.412   1.036
10849SOL     OW33445   2.728   4.790   4.131
10849SOL    HW133446   2.701   4.787   4.227
10849SOL    HW233447   2.809   4.847   4.120
10850SOL     OW33448   3.638   6.308   6.663
10850SOL    HW133449   3.660   6.249   6.740
10850SOL    HW233450   3.697   6.389   6.666
10851SOL     OW33451   3.411   3.887   0.863
10851SOL    HW133452   3.341   3.816   0.867
10851SOL    HW233453   3.502   3.845   0.872
10852SOL     OW33454   1.334   1.184   6.768
10852SOL    HW133455   1.388   1.235   6.700
10852SOL    HW233456   1.318   1.241   6.848
10853SOL     OW33457   2.713   3.132   5.785
10853SOL    HW133458   2.636   3.177   5.740
10853SOL    HW233459   2.679   3.060   5.846
10854SOL     OW33460   4.491   5.232   5.222
10854SOL    HW133461   4.519   5.152   5.276
10854SOL    HW233462   4.500   5.211   5.125
10855SOL     OW33463   3.878   0.970   0.286
10855SOL    HW133464   3.795   0.979   0.231
10855SOL    HW233465   3.854   0.982   0.383
10856SOL     OW33466   5.932   1.391   0.398
10856SOL    HW133467   6.004   1.390   0.468
10856SOL    HW233468   5.926   1.483   0.359
10857SOL     OW33469   0.931   2.507   2.343
10857SOL    HW133470   0.992   2.429   2.325
10857SOL    HW233471   0.981   2.577   2.395
10858SOL     OW33472   1.129   7.016   0.242
10858SOL    HW133473   1.041   6.974   0.264
10858SOL    HW233474   1.160   0.046   0.319
10859SOL     OW33475   0.750   4.754   4.682
10859SOL    HW133476   0.816   4.702   4.738
10859SOL    HW233477   0.674   4.695   4.657
10860SOL     OW33478   0.357   2.980   4.431
10860SOL    HW133479   0.305   2.951   4.511
10860SOL    HW233480   0.299   3.037   4.372
10861SOL     OW33481   3.391   3.625   3.242
10861SOL    HW133482   3.324   3.699   3.231
10861SOL    HW233483   3.483   3.663   3.237
10862SOL     OW33484   1.170   0.926   5.596
10862SOL    HW133485   1.193   0.963   5.686
10862SOL    HW233486   1.104   0.852   5.606
10863SOL     OW33487   2.218   0.746   4.785
10863SOL    HW133488   2.279   0.806   4.836
10863SOL    HW233489   2.227   0.652   4.821
10864SOL     OW33490   3.457   5.672   0.393
10864SOL    HW133491   3.539   5.724   0.371
10864SOL    HW233492   3.454   5.589   0.336
10865SOL     OW33493   6.581   1.220   0.737
10865SOL    HW133494   6.496   1.170   0.754
10865SOL    HW233495   6.570   1.280   0.657
10866SOL     OW33496   4.988   4.719   1.047
10866SOL    HW133497   4.966   4.668   0.963
10866SOL    HW233498   5.015   4.813   1.022
10867SOL     OW33499   3.303   4.342   0.793
10867SOL    HW133500   3.305   4.379   0.886
10867SOL    HW233501   3.288   4.243   0.797
10868SOL     OW33502   4.932   1.747   3.802
10868SOL    HW133503   5.010   1.803   3.772
10868SOL    HW233504   4.961   1.651   3.807
10869NA      NA33505   6.718   3.134   5.028
10870NA      NA33506   4.494   4.631   5.160
10871NA      NA33507   1.143   2.915   1.528
10872NA      NA33508   4.972   3.627   5.210
10873NA      NA33509   4.178   2.288   5.255
10874NA      NA33510   3.607   4.853   1.740
10875NA      NA33511   6.730   5.094   6.721
10876NA      NA33512   3.255   3.161   4.643
10877NA      NA33513   4.493   5.881   0.060
10878NA      NA33514   4.352   6.365   4.996
10879NA      NA33515   6.433   5.045   2.518
10880NA      NA33516   2.296   0.065   3.857
10881NA      NA33517   3.923   5.782   2.025
10882NA      NA33518   3.737   3.900   2.021
   7.02436   7.02436   7.02436
