Generated by trjconv : CNT in water t= 546.00000
33518
    1C        C    1   2.843   2.768   4.748
    1C        C    2   2.899   2.717   4.867
    1C        C    3   2.848   2.777   4.983
    1C        C    4   2.847   2.774   4.259
    1C        C    5   2.901   2.728   4.381
    1C        C    6   2.846   2.774   4.503
    1C        C    7   3.015   2.647   4.626
    1C        C    8   2.895   2.723   4.625
    1C        C    9   3.081   2.613   4.746
    1C        C   10   3.012   2.633   4.867
    1C        C   11   3.183   2.493   4.978
    1C        C   12   3.061   2.561   4.977
    1C        C   13   2.856   2.778   3.774
    1C        C   14   2.909   2.729   3.896
    1C        C   15   2.857   2.779   4.017
    1C        C   16   3.018   2.641   4.141
    1C        C   17   2.904   2.726   4.139
    1C        C   18   3.082   2.613   4.263
    1C        C   19   3.020   2.652   4.384
    1C        C   20   3.210   2.557   4.505
    1C        C   21   3.081   2.614   4.505
    1C        C   22   3.280   2.535   4.625
    1C        C   23   3.211   2.554   4.747
    1C        C   24   3.412   2.482   4.866
    1C        C   25   3.271   2.505   4.865
    1C        C   26   3.490   2.478   4.982
    1C        C   27   2.853   2.772   3.282
    1C        C   28   2.907   2.728   3.405
    1C        C   29   2.857   2.776   3.528
    1C        C   30   3.021   2.645   3.651
    1C        C   31   2.912   2.735   3.651
    1C        C   32   3.078   2.603   3.773
    1C        C   33   3.021   2.644   3.896
    1C        C   34   3.207   2.549   4.015
    1C        C   35   3.077   2.602   4.019
    1C        C   36   3.276   2.526   4.137
    1C        C   37   3.211   2.555   4.259
    1C        C   38   3.415   2.504   4.381
    1C        C   39   3.277   2.537   4.382
    1C        C   40   3.487   2.499   4.502
    1C        C   41   3.417   2.500   4.625
    1C        C   42   3.630   2.483   4.744
    1C        C   43   3.488   2.479   4.746
    1C        C   44   3.706   2.484   4.864
    1C        C   45   3.629   2.482   4.981
    1C        C   46   2.840   2.756   2.796
    1C        C   47   2.894   2.709   2.918
    1C        C   48   2.848   2.767   3.038
    1C        C   49   3.017   2.637   3.160
    1C        C   50   2.902   2.720   3.160
    1C        C   51   3.081   2.607   3.282
    1C        C   52   3.022   2.646   3.404
    1C        C   53   3.207   2.545   3.527
    1C        C   54   3.081   2.611   3.528
    1C        C   55   3.276   2.525   3.649
    1C        C   56   3.210   2.553   3.771
    1C        C   57   3.414   2.497   3.893
    1C        C   58   3.278   2.533   3.894
    1C        C   59   3.486   2.494   4.015
    1C        C   60   3.415   2.502   4.137
    1C        C   61   3.627   2.501   4.258
    1C        C   62   3.486   2.494   4.259
    1C        C   63   3.700   2.511   4.379
    1C        C   64   3.628   2.498   4.500
    1C        C   65   3.833   2.543   4.623
    1C        C   66   3.699   2.498   4.622
    1C        C   67   3.906   2.562   4.742
    1C        C   68   3.841   2.524   4.861
    1C        C   69   4.049   2.588   4.977
    1C        C   70   3.920   2.533   4.976
    1C        C   71   2.827   2.738   2.309
    1C        C   72   2.884   2.692   2.430
    1C        C   73   2.830   2.745   2.549
    1C        C   74   3.006   2.631   2.674
    1C        C   75   2.887   2.708   2.672
    1C        C   76   3.074   2.598   2.793
    1C        C   77   3.012   2.632   2.916
    1C        C   78   3.206   2.546   3.038
    1C        C   79   3.073   2.595   3.038
    1C        C   80   3.276   2.523   3.159
    1C        C   81   3.210   2.549   3.281
    1C        C   82   3.413   2.497   3.400
    1C        C   83   3.274   2.526   3.405
    1C        C   84   3.481   2.491   3.524
    1C        C   85   3.415   2.503   3.648
    1C        C   86   3.625   2.497   3.769
    1C        C   87   3.484   2.491   3.771
    1C        C   88   3.696   2.507   3.891
    1C        C   89   3.627   2.504   4.014
    1C        C   90   3.834   2.549   4.136
    1C        C   91   3.697   2.515   4.136
    1C        C   92   3.904   2.569   4.257
    1C        C   93   3.838   2.542   4.378
    1C        C   94   4.025   2.635   4.499
    1C        C   95   3.900   2.569   4.502
    1C        C   96   4.092   2.671   4.618
    1C        C   97   4.033   2.627   4.738
    1C        C   98   4.188   2.769   4.863
    1C        C   99   4.093   2.662   4.863
    1C        C  100   4.228   2.837   4.979
    1C        C  101   2.818   2.727   2.071
    1C        C  102   2.990   2.591   2.192
    1C        C  103   2.878   2.681   2.189
    1C        C  104   3.062   2.570   2.312
    1C        C  105   3.000   2.613   2.432
    1C        C  106   3.199   2.536   2.552
    1C        C  107   3.068   2.589   2.554
    1C        C  108   3.270   2.520   2.673
    1C        C  109   3.202   2.539   2.796
    1C        C  110   3.411   2.493   2.913
    1C        C  111   3.272   2.517   2.916
    1C        C  112   3.485   2.489   3.034
    1C        C  113   3.414   2.497   3.156
    1C        C  114   3.626   2.495   3.280
    1C        C  115   3.484   2.491   3.279
    1C        C  116   3.694   2.508   3.403
    1C        C  117   3.623   2.495   3.525
    1C        C  118   3.830   2.543   3.644
    1C        C  119   3.695   2.504   3.646
    1C        C  120   3.896   2.571   3.766
    1C        C  121   3.832   2.545   3.889
    1C        C  122   4.018   2.645   4.012
    1C        C  123   3.896   2.574   4.012
    1C        C  124   4.084   2.678   4.133
    1C        C  125   4.028   2.638   4.257
    1C        C  126   4.196   2.766   4.376
    1C        C  127   4.088   2.675   4.379
    1C        C  128   4.242   2.822   4.497
    1C        C  129   4.198   2.765   4.619
    1C        C  130   4.322   2.937   4.739
    1C        C  131   4.241   2.820   4.741
    1C        C  132   4.356   3.003   4.859
    1C        C  133   4.298   2.957   4.977
    1C        C  134   3.172   2.468   2.081
    1C        C  135   3.039   2.511   2.084
    1C        C  136   3.261   2.482   2.188
    1C        C  137   3.196   2.522   2.307
    1C        C  138   3.404   2.485   2.428
    1C        C  139   3.264   2.507   2.430
    1C        C  140   3.479   2.486   2.548
    1C        C  141   3.409   2.498   2.670
    1C        C  142   3.623   2.495   2.789
    1C        C  143   3.482   2.490   2.791
    1C        C  144   3.695   2.502   2.910
    1C        C  145   3.626   2.495   3.033
    1C        C  146   3.831   2.539   3.155
    1C        C  147   3.695   2.501   3.157
    1C        C  148   3.895   2.569   3.277
    1C        C  149   3.830   2.543   3.400
    1C        C  150   4.024   2.631   3.520
    1C        C  151   3.897   2.568   3.522
    1C        C  152   4.082   2.671   3.642
    1C        C  153   4.018   2.643   3.766
    1C        C  154   4.189   2.766   3.884
    1C        C  155   4.076   2.682   3.888
    1C        C  156   4.245   2.811   4.006
    1C        C  157   4.196   2.764   4.130
    1C        C  158   4.337   2.920   4.250
    1C        C  159   4.250   2.810   4.253
    1C        C  160   4.373   2.985   4.371
    1C        C  161   4.329   2.933   4.495
    1C        C  162   4.434   3.117   4.615
    1C        C  163   4.363   2.995   4.617
    1C        C  164   4.468   3.183   4.735
    1C        C  165   4.437   3.119   4.857
    1C        C  166   4.520   3.321   4.971
    1C        C  167   4.481   3.187   4.971
    1C        C  168   3.474   2.433   2.073
    1C        C  169   3.399   2.453   2.189
    1C        C  170   3.617   2.468   2.307
    1C        C  171   3.475   2.462   2.308
    1C        C  172   3.694   2.484   2.425
    1C        C  173   3.620   2.483   2.545
    1C        C  174   3.829   2.538   2.666
    1C        C  175   3.692   2.503   2.665
    1C        C  176   3.897   2.562   2.787
    1C        C  177   3.832   2.535   2.910
    1C        C  178   4.022   2.627   3.031
    1C        C  179   3.898   2.560   3.033
    1C        C  180   4.086   2.661   3.153
    1C        C  181   4.024   2.628   3.275
    1C        C  182   4.193   2.755   3.396
    1C        C  183   4.085   2.664   3.397
    1C        C  184   4.246   2.802   3.518
    1C        C  185   4.195   2.754   3.641
    1C        C  186   4.338   2.916   3.764
    1C        C  187   4.245   2.810   3.761
    1C        C  188   4.377   2.977   3.885
    1C        C  189   4.339   2.916   4.007
    1C        C  190   4.444   3.103   4.130
    1C        C  191   4.378   2.978   4.128
    1C        C  192   4.471   3.172   4.250
    1C        C  193   4.438   3.110   4.373
    1C        C  194   4.506   3.316   4.491
    1C        C  195   4.465   3.180   4.492
    1C        C  196   4.527   3.386   4.612
    1C        C  197   4.514   3.318   4.734
    1C        C  198   4.555   3.536   4.846
    1C        C  199   4.535   3.394   4.853
    1C        C  200   4.584   3.620   4.958
    1C        C  201   3.613   2.419   2.073
    1C        C  202   3.826   2.509   2.182
    1C        C  203   3.690   2.463   2.186
    1C        C  204   3.898   2.538   2.301
    1C        C  205   3.829   2.524   2.424
    1C        C  206   4.022   2.622   2.542
    1C        C  207   3.896   2.558   2.543
    1C        C  208   4.084   2.661   2.664
    1C        C  209   4.025   2.622   2.786
    1C        C  210   4.197   2.746   2.906
    1C        C  211   4.084   2.660   2.908
    1C        C  212   4.250   2.794   3.028
    1C        C  213   4.198   2.747   3.151
    1C        C  214   4.335   2.910   3.273
    1C        C  215   4.244   2.802   3.273
    1C        C  216   4.374   2.968   3.396
    1C        C  217   4.334   2.913   3.519
    1C        C  218   4.439   3.099   3.640
    1C        C  219   4.378   2.971   3.640
    1C        C  220   4.465   3.167   3.762
    1C        C  221   4.442   3.103   3.886
    1C        C  222   4.503   3.306   4.003
    1C        C  223   4.470   3.169   4.007
    1C        C  224   4.519   3.377   4.124
    1C        C  225   4.509   3.308   4.247
    1C        C  226   4.522   3.523   4.366
    1C        C  227   4.518   3.381   4.367
    1C        C  228   4.529   3.599   4.485
    1C        C  229   4.535   3.527   4.607
    1C        C  230   4.507   3.745   4.726
    1C        C  231   4.538   3.606   4.724
    1C        C  232   4.499   3.822   4.844
    1C        C  233   4.543   3.754   4.959
    1C        C  234   4.018   2.615   2.062
    1C        C  235   3.896   2.548   2.068
    1C        C  236   4.085   2.651   2.180
    1C        C  237   4.022   2.607   2.299
    1C        C  238   4.200   2.732   2.418
    1C        C  239   4.084   2.650   2.418
    1C        C  240   4.251   2.785   2.539
    1C        C  241   4.197   2.745   2.663
    1C        C  242   4.335   2.907   2.785
    1C        C  243   4.249   2.795   2.785
    1C        C  244   4.376   2.964   2.908
    1C        C  245   4.337   2.905   3.030
    1C        C  246   4.442   3.092   3.148
    1C        C  247   4.377   2.967   3.151
    1C        C  248   4.461   3.160   3.271
    1C        C  249   4.436   3.095   3.394
    1C        C  250   4.494   3.299   3.514
    1C        C  251   4.463   3.161   3.516
    1C        C  252   4.507   3.371   3.635
    1C        C  253   4.505   3.302   3.758
    1C        C  254   4.525   3.514   3.878
    1C        C  255   4.520   3.373   3.879
    1C        C  256   4.520   3.588   3.998
    1C        C  257   4.523   3.518   4.121
    1C        C  258   4.493   3.730   4.239
    1C        C  259   4.517   3.591   4.242
    1C        C  260   4.468   3.800   4.359
    1C        C  261   4.490   3.734   4.483
    1C        C  262   4.431   3.941   4.603
    1C        C  263   4.477   3.807   4.603
    1C        C  264   4.401   4.011   4.722
    1C        C  265   4.435   3.947   4.844
    1C        C  266   4.325   4.135   4.956
    1C        C  267   4.400   4.018   4.960
    1C        C  268   4.268   2.776   2.060
    1C        C  269   4.199   2.734   2.175
    1C        C  270   4.348   2.886   2.298
    1C        C  271   4.255   2.778   2.297
    1C        C  272   4.387   2.950   2.418
    1C        C  273   4.342   2.893   2.539
    1C        C  274   4.446   3.080   2.662
    1C        C  275   4.381   2.955   2.660
    1C        C  276   4.474   3.150   2.782
    1C        C  277   4.447   3.086   2.905
    1C        C  278   4.508   3.292   3.023
    1C        C  279   4.473   3.155   3.026
    1C        C  280   4.522   3.360   3.146
    1C        C  281   4.501   3.296   3.270
    1C        C  282   4.519   3.508   3.389
    1C        C  283   4.511   3.367   3.391
    1C        C  284   4.513   3.580   3.511
    1C        C  285   4.515   3.512   3.635
    1C        C  286   4.492   3.723   3.752
    1C        C  287   4.522   3.585   3.755
    1C        C  288   4.473   3.792   3.873
    1C        C  289   4.491   3.726   3.997
    1C        C  290   4.428   3.932   4.116
    1C        C  291   4.475   3.799   4.117
    1C        C  292   4.396   3.997   4.237
    1C        C  293   4.418   3.932   4.360
    1C        C  294   4.327   4.125   4.479
    1C        C  295   4.398   4.003   4.480
    1C        C  296   4.283   4.189   4.597
    1C        C  297   4.332   4.135   4.718
    1C        C  298   4.203   4.314   4.838
    1C        C  299   4.290   4.201   4.837
    1C        C  300   4.172   4.403   4.947
    1C        C  301   4.354   2.885   2.057
    1C        C  302   4.469   3.067   2.174
    1C        C  303   4.398   2.942   2.177
    1C        C  304   4.482   3.140   2.295
    1C        C  305   4.450   3.076   2.417
    1C        C  306   4.503   3.281   2.537
    1C        C  307   4.476   3.143   2.539
    1C        C  308   4.515   3.357   2.655
    1C        C  309   4.504   3.288   2.778
    1C        C  310   4.521   3.500   2.899
    1C        C  311   4.515   3.359   2.899
    1C        C  312   4.515   3.571   3.021
    1C        C  313   4.523   3.501   3.144
    1C        C  314   4.487   3.713   3.261
    1C        C  315   4.516   3.575   3.264
    1C        C  316   4.469   3.783   3.383
    1C        C  317   4.491   3.719   3.507
    1C        C  318   4.419   3.920   3.627
    1C        C  319   4.471   3.789   3.629
    1C        C  320   4.384   3.982   3.750
    1C        C  321   4.418   3.922   3.873
    1C        C  322   4.315   4.110   3.993
    1C        C  323   4.394   3.993   3.993
    1C        C  324   4.275   4.169   4.115
    1C        C  325   4.324   4.119   4.238
    1C        C  326   4.182   4.281   4.356
    1C        C  327   4.283   4.182   4.357
    1C        C  328   4.131   4.335   4.476
    1C        C  329   4.185   4.290   4.599
    1C        C  330   4.027   4.439   4.715
    1C        C  331   4.139   4.352   4.717
    1C        C  332   3.969   4.496   4.831
    1C        C  333   4.052   4.475   4.942
    1C        C  334   4.546   3.268   2.063
    1C        C  335   4.533   3.128   2.062
    1C        C  336   4.535   3.350   2.177
    1C        C  337   4.510   3.280   2.296
    1C        C  338   4.523   3.495   2.412
    1C        C  339   4.520   3.354   2.416
    1C        C  340   4.519   3.567   2.533
    1C        C  341   4.520   3.498   2.656
    1C        C  342   4.493   3.710   2.773
    1C        C  343   4.520   3.571   2.777
    1C        C  344   4.474   3.779   2.895
    1C        C  345   4.487   3.709   3.017
    1C        C  346   4.420   3.912   3.139
    1C        C  347   4.471   3.780   3.138
    1C        C  348   4.388   3.979   3.259
    1C        C  349   4.417   3.914   3.381
    1C        C  350   4.319   4.102   3.504
    1C        C  351   4.391   3.981   3.503
    1C        C  352   4.277   4.164   3.624
    1C        C  353   4.311   4.103   3.747
    1C        C  354   4.176   4.266   3.867
    1C        C  355   4.272   4.162   3.869
    1C        C  356   4.123   4.313   3.988
    1C        C  357   4.174   4.268   4.112
    1C        C  358   4.010   4.404   4.232
    1C        C  359   4.125   4.322   4.233
    1C        C  360   3.952   4.451   4.351
    1C        C  361   4.015   4.415   4.473
    1C        C  362   3.828   4.516   4.594
    1C        C  363   3.958   4.462   4.594
    1C        C  364   3.758   4.544   4.714
    1C        C  365   3.836   4.542   4.832
    1C        C  366   3.629   4.599   4.952
    1C        C  367   3.765   4.572   4.949
    1C        C  368   4.515   3.563   2.050
    1C        C  369   4.527   3.490   2.169
    1C        C  370   4.500   3.704   2.286
    1C        C  371   4.514   3.564   2.289
    1C        C  372   4.486   3.777   2.407
    1C        C  373   4.502   3.708   2.529
    1C        C  374   4.426   3.908   2.648
    1C        C  375   4.478   3.777   2.649
    1C        C  376   4.396   3.973   2.770
    1C        C  377   4.422   3.910   2.893
    1C        C  378   4.313   4.092   3.011
    1C        C  379   4.392   3.975   3.016
    1C        C  380   4.271   4.151   3.132
    1C        C  381   4.311   4.098   3.257
    1C        C  382   4.175   4.256   3.379
    1C        C  383   4.273   4.154   3.381
    1C        C  384   4.120   4.306   3.499
    1C        C  385   4.175   4.261   3.622
    1C        C  386   4.010   4.395   3.743
    1C        C  387   4.122   4.310   3.744
    1C        C  388   3.948   4.431   3.865
    1C        C  389   4.009   4.396   3.987
    1C        C  390   3.817   4.488   4.108
    1C        C  391   3.949   4.437   4.109
    1C        C  392   3.750   4.513   4.230
    1C        C  393   3.820   4.501   4.352
    1C        C  394   3.616   4.553   4.476
    1C        C  395   3.755   4.532   4.474
    1C        C  396   3.544   4.563   4.597
    1C        C  397   3.618   4.562   4.717
    1C        C  398   3.410   4.550   4.840
    1C        C  399   3.549   4.577   4.839
    1C        C  400   3.342   4.522   4.959
    1C        C  401   4.501   3.702   2.049
    1C        C  402   4.453   3.915   2.167
    1C        C  403   4.483   3.777   2.166
    1C        C  404   4.413   3.979   2.286
    1C        C  405   4.437   3.909   2.407
    1C        C  406   4.325   4.095   2.526
    1C        C  407   4.402   3.976   2.526
    1C        C  408   4.274   4.145   2.648
    1C        C  409   4.323   4.094   2.770
    1C        C  410   4.178   4.256   2.889
    1C        C  411   4.274   4.152   2.890
    1C        C  412   4.125   4.302   3.011
    1C        C  413   4.175   4.255   3.135
    1C        C  414   4.002   4.378   3.254
    1C        C  415   4.119   4.300   3.257
    1C        C  416   3.944   4.419   3.377
    1C        C  417   4.004   4.387   3.501
    1C        C  418   3.815   4.483   3.619
    1C        C  419   3.946   4.429   3.622
    1C        C  420   3.748   4.502   3.741
    1C        C  421   3.815   4.481   3.863
    1C        C  422   3.612   4.538   3.986
    1C        C  423   3.751   4.510   3.986
    1C        C  424   3.543   4.545   4.109
    1C        C  425   3.611   4.538   4.232
    1C        C  426   3.403   4.548   4.358
    1C        C  427   3.543   4.559   4.354
    1C        C  428   3.331   4.548   4.479
    1C        C  429   3.403   4.558   4.600
    1C        C  430   3.194   4.514   4.725
    1C        C  431   3.333   4.545   4.722
    1C        C  432   3.126   4.492   4.847
    1C        C  433   3.205   4.497   4.963
    1C        C  434   4.385   4.123   2.050
    1C        C  435   4.456   4.002   2.057
    1C        C  436   4.306   4.162   2.162
    1C        C  437   4.333   4.096   2.285
    1C        C  438   4.180   4.249   2.402
    1C        C  439   4.281   4.151   2.404
    1C        C  440   4.127   4.297   2.524
    1C        C  441   4.177   4.248   2.646
    1C        C  442   4.008   4.381   2.767
    1C        C  443   4.122   4.297   2.767
    1C        C  444   3.945   4.415   2.889
    1C        C  445   4.007   4.379   3.011
    1C        C  446   3.815   4.475   3.129
    1C        C  447   3.942   4.415   3.131
    1C        C  448   3.750   4.501   3.252
    1C        C  449   3.817   4.480   3.375
    1C        C  450   3.609   4.527   3.497
    1C        C  451   3.748   4.503   3.496
    1C        C  452   3.542   4.544   3.620
    1C        C  453   3.612   4.541   3.743
    1C        C  454   3.400   4.552   3.867
    1C        C  455   3.541   4.552   3.865
    1C        C  456   3.331   4.537   3.989
    1C        C  457   3.402   4.542   4.111
    1C        C  458   3.196   4.505   4.236
    1C        C  459   3.335   4.533   4.235
    1C        C  460   3.129   4.482   4.359
    1C        C  461   3.193   4.515   4.480
    1C        C  462   2.998   4.432   4.605
    1C        C  463   3.127   4.491   4.602
    1C        C  464   2.931   4.401   4.725
    1C        C  465   2.992   4.439   4.847
    1C        C  466   2.800   4.333   4.961
    1C        C  467   2.910   4.420   4.963
    1C        C  468   4.126   4.286   2.043
    1C        C  469   4.187   4.242   2.161
    1C        C  470   4.010   4.375   2.280
    1C        C  471   4.127   4.295   2.279
    1C        C  472   3.945   4.407   2.402
    1C        C  473   4.006   4.370   2.524
    1C        C  474   3.817   4.473   2.642
    1C        C  475   3.944   4.412   2.644
    1C        C  476   3.750   4.498   2.764
    1C        C  477   3.817   4.474   2.886
    1C        C  478   3.609   4.524   3.010
    1C        C  479   3.747   4.497   3.006
    1C        C  480   3.539   4.535   3.132
    1C        C  481   3.611   4.524   3.253
    1C        C  482   3.398   4.540   3.375
    1C        C  483   3.539   4.536   3.374
    1C        C  484   3.331   4.532   3.499
    1C        C  485   3.401   4.545   3.621
    1C        C  486   3.194   4.504   3.745
    1C        C  487   3.330   4.541   3.744
    1C        C  488   3.129   4.478   3.867
    1C        C  489   3.195   4.497   3.990
    1C        C  490   3.010   4.405   4.115
    1C        C  491   3.130   4.480   4.114
    1C        C  492   2.948   4.374   4.239
    1C        C  493   3.005   4.415   4.362
    1C        C  494   2.832   4.296   4.485
    1C        C  495   2.941   4.387   4.484
    1C        C  496   2.774   4.252   4.606
    1C        C  497   2.820   4.312   4.726
    1C        C  498   2.661   4.166   4.841
    1C        C  499   2.753   4.273   4.843
    1C        C  500   2.595   4.117   4.955
    1C        C  501   4.004   4.353   2.041
    1C        C  502   3.819   4.468   2.155
    1C        C  503   3.944   4.402   2.158
    1C        C  504   3.748   4.485   2.276
    1C        C  505   3.816   4.463   2.399
    1C        C  506   3.609   4.515   2.520
    1C        C  507   3.747   4.485   2.520
    1C        C  508   3.540   4.520   2.644
    1C        C  509   3.610   4.518   2.766
    1C        C  510   3.397   4.521   2.886
    1C        C  511   3.538   4.525   2.887
    1C        C  512   3.326   4.522   3.008
    1C        C  513   3.398   4.536   3.129
    1C        C  514   3.193   4.490   3.255
    1C        C  515   3.329   4.527   3.253
    1C        C  516   3.128   4.466   3.379
    1C        C  517   3.194   4.496   3.500
    1C        C  518   3.005   4.406   3.627
    1C        C  519   3.128   4.476   3.623
    1C        C  520   2.946   4.368   3.749
    1C        C  521   3.005   4.409   3.871
    1C        C  522   2.845   4.272   3.998
    1C        C  523   2.952   4.363   3.993
    1C        C  524   2.793   4.226   4.121
    1C        C  525   2.839   4.285   4.241
    1C        C  526   2.696   4.131   4.363
    1C        C  527   2.786   4.239   4.364
    1C        C  528   2.653   4.073   4.484
    1C        C  529   2.689   4.139   4.603
    1C        C  530   2.585   3.957   4.732
    1C        C  531   2.636   4.090   4.725
    1C        C  532   2.542   3.899   4.854
    1C        C  533   2.536   3.991   4.964
    1C        C  534   3.621   4.560   2.042
    1C        C  535   3.750   4.506   2.039
    1C        C  536   3.539   4.539   2.158
    1C        C  537   3.608   4.506   2.278
    1C        C  538   3.395   4.517   2.400
    1C        C  539   3.537   4.519   2.399
    1C        C  540   3.325   4.506   2.522
    1C        C  541   3.399   4.513   2.642
    1C        C  542   3.189   4.483   2.766
    1C        C  543   3.327   4.512   2.763
    1C        C  544   3.123   4.457   2.888
    1C        C  545   3.190   4.483   3.010
    1C        C  546   3.002   4.396   3.136
    1C        C  547   3.126   4.464   3.134
    1C        C  548   2.946   4.355   3.259
    1C        C  549   3.004   4.399   3.380
    1C        C  550   2.842   4.270   3.506
    1C        C  551   2.947   4.363   3.505
    1C        C  552   2.790   4.223   3.629
    1C        C  553   2.839   4.276   3.751
    1C        C  554   2.703   4.117   3.874
    1C        C  555   2.793   4.226   3.875
    1C        C  556   2.660   4.062   3.997
    1C        C  557   2.699   4.121   4.119
    1C        C  558   2.591   3.942   4.246
    1C        C  559   2.659   4.066   4.243
    1C        C  560   2.556   3.880   4.369
    1C        C  561   2.586   3.948   4.489
    1C        C  562   2.529   3.748   4.616
    1C        C  563   2.562   3.885   4.612
    1C        C  564   2.508   3.680   4.738
    1C        C  565   2.518   3.758   4.856
    1C        C  566   2.531   3.543   4.978
    1C        C  567   2.525   3.682   4.974
    1C        C  568   3.330   4.474   2.041
    1C        C  569   3.401   4.507   2.157
    1C        C  570   3.187   4.471   2.280
    1C        C  571   3.326   4.500   2.278
    1C        C  572   3.118   4.454   2.402
    1C        C  573   3.186   4.480   2.523
    1C        C  574   2.991   4.400   2.649
    1C        C  575   3.118   4.461   2.645
    1C        C  576   2.935   4.354   2.770
    1C        C  577   3.000   4.389   2.891
    1C        C  578   2.830   4.268   3.016
    1C        C  579   2.941   4.356   3.016
    1C        C  580   2.777   4.219   3.138
    1C        C  581   2.837   4.265   3.258
    1C        C  582   2.704   4.108   3.385
    1C        C  583   2.794   4.217   3.383
    1C        C  584   2.664   4.052   3.509
    1C        C  585   2.703   4.113   3.630
    1C        C  586   2.595   3.932   3.756
    1C        C  587   2.662   4.056   3.753
    1C        C  588   2.562   3.872   3.879
    1C        C  589   2.595   3.937   4.000
    1C        C  590   2.530   3.738   4.126
    1C        C  591   2.573   3.873   4.124
    1C        C  592   2.512   3.673   4.250
    1C        C  593   2.522   3.743   4.372
    1C        C  594   2.512   3.533   4.497
    1C        C  595   2.519   3.674   4.496
    1C        C  596   2.518   3.463   4.620
    1C        C  597   2.510   3.537   4.740
    1C        C  598   2.529   3.325   4.865
    1C        C  599   2.522   3.466   4.861
    1C        C  600   2.534   3.247   4.981
    1C        C  601   3.198   4.434   2.042
    1C        C  602   2.984   4.394   2.159
    1C        C  603   3.121   4.437   2.159
    1C        C  604   2.925   4.359   2.283
    1C        C  605   2.989   4.396   2.404
    1C        C  606   2.826   4.264   2.531
    1C        C  607   2.932   4.358   2.527
    1C        C  608   2.770   4.217   2.651
    1C        C  609   2.823   4.268   2.772
    1C        C  610   2.686   4.110   2.895
    1C        C  611   2.776   4.218   2.895
    1C        C  612   2.655   4.050   3.020
    1C        C  613   2.690   4.109   3.143
    1C        C  614   2.581   3.928   3.265
    1C        C  615   2.653   4.050   3.267
    1C        C  616   2.556   3.867   3.390
    1C        C  617   2.588   3.933   3.511
    1C        C  618   2.524   3.732   3.637
    1C        C  619   2.564   3.867   3.634
    1C        C  620   2.515   3.664   3.761
    1C        C  621   2.527   3.735   3.882
    1C        C  622   2.506   3.525   4.005
    1C        C  623   2.521   3.665   4.005
    1C        C  624   2.507   3.459   4.130
    1C        C  625   2.506   3.532   4.251
    1C        C  626   2.536   3.324   4.379
    1C        C  627   2.511   3.463   4.374
    1C        C  628   2.555   3.254   4.500
    1C        C  629   2.540   3.324   4.622
    1C        C  630   2.595   3.119   4.743
    1C        C  631   2.549   3.254   4.744
    1C        C  632   2.615   3.049   4.864
    1C        C  633   2.560   3.109   4.982
    1C        C  634   2.781   4.302   2.053
    1C        C  635   2.894   4.385   2.048
    1C        C  636   2.748   4.231   2.170
    1C        C  637   2.815   4.269   2.288
    1C        C  638   2.683   4.105   2.412
    1C        C  639   2.768   4.217   2.411
    1C        C  640   2.638   4.048   2.533
    1C        C  641   2.683   4.105   2.653
    1C        C  642   2.581   3.920   2.776
    1C        C  643   2.645   4.047   2.776
    1C        C  644   2.556   3.859   2.901
    1C        C  645   2.586   3.927   3.022
    1C        C  646   2.513   3.727   3.148
    1C        C  647   2.555   3.862   3.143
    1C        C  648   2.496   3.660   3.271
    1C        C  649   2.520   3.730   3.391
    1C        C  650   2.502   3.521   3.516
    1C        C  651   2.511   3.662   3.515
    1C        C  652   2.516   3.453   3.639
    1C        C  653   2.508   3.523   3.762
    1C        C  654   2.527   3.312   3.889
    1C        C  655   2.504   3.452   3.884
    1C        C  656   2.547   3.249   4.014
    1C        C  657   2.530   3.320   4.135
    1C        C  658   2.606   3.123   4.257
    1C        C  659   2.552   3.254   4.258
    1C        C  660   2.635   3.058   4.379
    1C        C  661   2.604   3.121   4.501
    1C        C  662   2.707   2.936   4.625
    1C        C  663   2.630   3.054   4.622
    1C        C  664   2.748   2.875   4.745
    1C        C  665   2.694   2.929   4.865
    1C        C  666   2.744   2.870   4.981
    1C        C  667   2.684   4.022   2.058
    1C        C  668   2.683   4.106   2.170
    1C        C  669   2.591   3.911   2.290
    1C        C  670   2.645   4.043   2.290
    1C        C  671   2.559   3.847   2.412
    1C        C  672   2.580   3.919   2.532
    1C        C  673   2.513   3.719   2.659
    1C        C  674   2.552   3.855   2.655
    1C        C  675   2.502   3.651   2.782
    1C        C  676   2.522   3.722   2.902
    1C        C  677   2.492   3.516   3.032
    1C        C  678   2.503   3.657   3.026
    1C        C  679   2.503   3.446   3.154
    1C        C  680   2.496   3.519   3.275
    1C        C  681   2.526   3.308   3.400
    1C        C  682   2.498   3.446   3.396
    1C        C  683   2.549   3.243   3.524
    1C        C  684   2.531   3.313   3.645
    1C        C  685   2.607   3.116   3.770
    1C        C  686   2.545   3.242   3.767
    1C        C  687   2.640   3.055   3.893
    1C        C  688   2.602   3.119   4.013
    1C        C  689   2.715   2.940   4.138
    1C        C  690   2.637   3.057   4.136
    1C        C  691   2.756   2.882   4.260
    1C        C  692   2.716   2.942   4.381
    1C        C  693   2.752   2.880   4.503
    1C        C  694   2.627   3.894   2.057
    1C        C  695   2.526   3.702   2.174
    1C        C  696   2.575   3.834   2.173
    1C        C  697   2.502   3.638   2.297
    1C        C  698   2.514   3.713   2.416
    1C        C  699   2.482   3.505   2.543
    1C        C  700   2.497   3.646   2.539
    1C        C  701   2.497   3.439   2.667
    1C        C  702   2.490   3.510   2.789
    1C        C  703   2.524   3.304   2.910
    1C        C  704   2.490   3.441   2.912
    1C        C  705   2.550   3.239   3.033
    1C        C  706   2.530   3.307   3.156
    1C        C  707   2.606   3.111   3.278
    1C        C  708   2.549   3.240   3.278
    1C        C  709   2.640   3.052   3.402
    1C        C  710   2.608   3.115   3.524
    1C        C  711   2.712   2.933   3.648
    1C        C  712   2.636   3.052   3.647
    1C        C  713   2.758   2.880   3.771
    1C        C  714   2.715   2.936   3.893
    1C        C  715   2.760   2.883   4.016
    1C        C  716   2.447   3.498   2.064
    1C        C  717   2.494   3.630   2.058
    1C        C  718   2.454   3.421   2.184
    1C        C  719   2.477   3.498   2.301
    1C        C  720   2.520   3.293   2.425
    1C        C  721   2.486   3.430   2.424
    1C        C  722   2.539   3.226   2.548
    1C        C  723   2.525   3.300   2.668
    1C        C  724   2.590   3.099   2.788
    1C        C  725   2.540   3.231   2.790
    1C        C  726   2.625   3.040   2.912
    1C        C  727   2.599   3.107   3.033
    1C        C  728   2.716   2.930   3.158
    1C        C  729   2.637   3.048   3.155
    1C        C  730   2.760   2.878   3.282
    1C        C  731   2.714   2.931   3.404
    1C        C  732   2.757   2.876   3.527
    1C        C  733   2.492   3.197   2.074
    1C        C  734   2.486   3.281   2.186
    1C        C  735   2.588   3.089   2.306
    1C        C  736   2.529   3.218   2.306
    1C        C  737   2.615   3.023   2.428
    1C        C  738   2.583   3.092   2.547
    1C        C  739   2.701   2.914   2.669
    1C        C  740   2.624   3.032   2.669
    1C        C  741   2.748   2.863   2.792
    1C        C  742   2.706   2.924   2.913
    1C        C  743   2.759   2.877   3.035
    1C        C  744   2.550   3.071   2.073
    1C        C  745   2.689   2.900   2.183
    1C        C  746   2.614   3.019   2.186
    1C        C  747   2.731   2.843   2.306
    1C        C  748   2.685   2.900   2.426
    1C        C  749   2.733   2.848   2.548
    1C        C  750   2.735   2.839   2.066
    1C        C  751   3.644   2.288   2.010
    1C        O  752   3.654   2.183   2.079
    1C        O  753   3.721   2.275   1.894
    1C        C  754   4.576   3.078   1.930
    1C        O  755   4.494   3.093   1.835
    1C        O  756   4.710   3.068   1.890
    1C        C  757   4.424   4.206   1.934
    1C        O  758   4.520   4.287   1.949
    1C        O  759   4.343   4.230   1.822
    1C        C  760   3.588   4.673   1.954
    1C        O  761   3.679   4.760   1.943
    1C        O  762   3.543   4.641   1.825
    1C        C  763   2.885   4.482   1.937
    1C        O  764   2.924   4.455   1.820
    1C        O  765   2.804   4.596   1.942
    1C        C  766   2.336   3.477   1.968
    1C        O  767   2.346   3.457   1.844
    1C        O  768   2.202   3.451   2.003
    1C        C  769   4.695   3.584   5.049
    1C        O  770   4.678   3.583   5.174
    1C        O  771   4.817   3.649   5.026
    1C        C  772   4.282   4.465   5.024
    1C        O  773   4.263   4.500   5.143
    1C        O  774   4.370   4.547   4.952
    1C        C  775   4.140   2.520   5.073
    1C        O  776   4.246   2.457   5.047
    1C        O  777   4.123   2.542   5.210
    1C        C  778   2.883   4.520   5.069
    1C        O  779   2.823   4.630   5.058
    1C        O  780   2.916   4.482   5.199
    1C        C  781   2.455   3.035   5.056
    1C        O  782   2.359   2.970   5.007
    1C        O  783   2.425   3.065   5.189
    1C        C  784   2.434   3.989   5.071
    1C        O  785   2.316   3.947   5.056
    1C        O  786   2.475   3.962   5.202
    1C        C  787   2.938   2.412   2.040
    1C        O  788   2.904   2.391   1.920
    1C        O  789   2.896   2.311   2.126
    1C        C  790   3.168   2.355   5.031
    1C        O  791   3.079   2.275   4.993
    1C        O  792   3.194   2.345   5.169
    1C        H  793   4.275   3.029   5.054
    1C        H  794   4.173   2.820   5.070
    1C        H  795   4.509   3.125   5.053
    1C        H  796   4.574   3.353   5.058
    1C        H  797   4.519   3.797   5.054
    1C        H  798   4.397   3.964   5.052
    1C        H  799   4.281   4.161   5.050
    1C        H  800   4.001   4.472   5.036
    1C        H  801   3.823   4.615   5.028
    1C        H  802   3.585   4.635   5.042
    1C        H  803   3.393   4.522   5.053
    1C        H  804   3.154   4.528   5.051
    1C        H  805   3.890   2.480   5.064
    1C        H  806   3.675   2.421   5.056
    1C        H  807   2.990   2.531   5.052
    1C        H  808   3.440   2.455   5.074
    1C        H  809   2.905   2.766   5.073
    1C        H  810   2.711   2.910   5.075
    1C        H  811   2.476   3.285   5.061
    1C        H  812   2.514   3.496   5.072
    1C        H  813   2.524   3.735   5.067
    1C        H  814   2.551   4.193   5.016
    1C        H  815   2.775   4.288   5.054
    1C        H  816   2.691   2.854   1.970
    1C        H  817   2.800   2.655   1.994
    1C        H  818   3.204   2.423   1.989
    1C        H  819   3.439   2.489   1.988
    1C        H  820   3.863   2.502   1.977
    1C        H  821   4.074   2.601   1.972
    1C        H  822   4.248   2.732   1.965
    1C        H  823   4.334   2.950   1.975
    1C        H  824   4.591   3.311   1.977
    1C        H  825   4.540   3.515   1.958
    1C        H  826   4.499   3.753   1.955
    1C        H  827   3.804   4.531   1.950
    1C        H  828   3.967   4.379   1.944
    1C        H  829   4.148   4.231   1.954
    1C        H  830   4.516   3.980   1.972
    1C        H  831   2.660   3.833   1.975
    1C        H  832   2.731   4.052   1.966
    1C        H  833   2.746   4.266   1.959
    1C        H  834   3.367   4.496   1.942
    1C        H  835   3.158   4.383   1.957
    1C        H  836   2.534   3.005   1.990
    1C        H  837   2.435   3.210   1.984
    1C        H  838   2.531   3.667   1.965
    2V3OU   H29  839   2.800   3.546   6.056
    2V3OU   C27  840   2.784   3.501   6.158
    2V3OU   H27  841   2.729   3.576   6.220
    2V3OU   H28  842   2.729   3.404   6.150
    2V3OU   O11  843   2.908   3.485   6.227
    2V3OU   C15  844   2.923   3.394   6.330
    2V3OU   C13  845   3.055   3.372   6.375
    2V3OU   C14  846   3.079   3.266   6.464
    2V3OU   C16  847   2.970   3.187   6.498
    2V3OU    H6  848   2.993   3.101   6.562
    2V3OU   C12  849   3.218   3.222   6.488
    2V3OU    O2  850   3.241   3.118   6.554
    2V3OU   C10  851   3.328   3.313   6.451
    2V3OU    C8  852   3.457   3.272   6.482
    2V3OU   O10  853   3.492   3.149   6.527
    2V3OU   H26  854   3.409   3.106   6.554
    2V3OU    C6  855   3.564   3.352   6.431
    2V3OU    C5  856   3.535   3.468   6.359
    2V3OU    C4  857   3.701   3.294   6.431
    2V3OU    H4  858   3.724   3.231   6.523
    2V3OU    H5  859   3.711   3.227   6.340
    2V3OU    C2  860   3.814   3.397   6.428
    2V3OU    O6  861   3.806   3.471   6.549
    2V3OU   H21  862   3.757   3.550   6.520
    2V3OU    C3  863   3.782   3.494   6.314
    2V3OU    H2  864   3.864   3.569   6.303
    2V3OU    H3  865   3.782   3.433   6.220
    2V3OU   C25  866   3.950   3.329   6.417
    2V3OU    O7  867   4.001   3.299   6.309
    2V3OU   C26  868   4.033   3.292   6.539
    2V3OU   H22  869   4.071   3.376   6.602
    2V3OU   H23  870   4.118   3.226   6.508
    2V3OU    O8  871   3.959   3.213   6.629
    2V3OU   H24  872   3.920   3.265   6.701
    2V3OU    C1  873   3.646   3.562   6.323
    2V3OU    H1  874   3.625   3.623   6.231
    2V3OU    O3  875   3.667   3.651   6.434
    2V3OU   C19  876   3.624   3.787   6.433
    2V3OU    H9  877   3.527   3.807   6.378
    2V3OU    O4  878   3.716   3.850   6.346
    2V3OU   C20  879   3.846   3.875   6.398
    2V3OU   H10  880   3.892   3.774   6.422
    2V3OU   C24  881   3.613   3.858   6.569
    2V3OU   H16  882   3.543   3.793   6.629
    2V3OU   H17  883   3.568   3.957   6.542
    2V3OU   C23  884   3.750   3.877   6.633
    2V3OU   H15  885   3.795   3.774   6.649
    2V3OU    N1  886   3.739   3.956   6.754
    2V3OU   H19  887   3.807   3.927   6.822
    2V3OU   H20  888   3.660   3.919   6.802
    2V3OU   C21  889   3.848   3.947   6.534
    2V3OU   H11  890   3.954   3.927   6.567
    2V3OU    O5  891   3.829   4.088   6.527
    2V3OU   H18  892   3.781   4.101   6.611
    2V3OU   C22  893   3.918   3.949   6.287
    2V3OU   H12  894   3.866   4.046   6.270
    2V3OU   H13  895   3.904   3.890   6.193
    2V3OU   H14  896   4.027   3.955   6.313
    2V3OU   C11  897   3.158   3.471   6.339
    2V3OU    O1  898   3.131   3.585   6.298
    2V3OU    C9  899   3.295   3.429   6.376
    2V3OU    C7  900   3.401   3.508   6.332
    2V3OU    O9  901   3.385   3.617   6.249
    2V3OU   H25  902   3.289   3.630   6.241
    2V3OU   C17  903   2.814   3.315   6.371
    2V3OU    H7  904   2.710   3.345   6.357
    2V3OU   C18  905   2.839   3.210   6.459
    2V3OU    H8  906   2.756   3.140   6.481
    3SOL     OW  907   3.293   2.976   4.406
    3SOL    HW1  908   3.280   3.075   4.394
    3SOL    HW2  909   3.255   2.948   4.494
    4SOL     OW  910   0.174   6.387   0.796
    4SOL    HW1  911   0.154   6.473   0.750
    4SOL    HW2  912   0.109   6.317   0.767
    5SOL     OW  913   3.968   2.498   0.925
    5SOL    HW1  914   4.002   2.419   0.976
    5SOL    HW2  915   3.868   2.493   0.919
    6SOL     OW  916   3.740   1.494   2.614
    6SOL    HW1  917   3.807   1.421   2.598
    6SOL    HW2  918   3.755   1.568   2.549
    7SOL     OW  919   2.195   2.935   4.673
    7SOL    HW1  920   2.277   2.914   4.726
    7SOL    HW2  921   2.208   2.907   4.578
    8SOL     OW  922   1.185   2.273   5.766
    8SOL    HW1  923   1.245   2.297   5.843
    8SOL    HW2  924   1.205   2.334   5.689
    9SOL     OW  925   1.495   2.315   6.702
    9SOL    HW1  926   1.432   2.344   6.629
    9SOL    HW2  927   1.537   2.228   6.677
   10SOL     OW  928   5.264   5.044   1.551
   10SOL    HW1  929   5.284   5.084   1.640
   10SOL    HW2  930   5.348   5.006   1.511
   11SOL     OW  931   2.805   1.990   0.504
   11SOL    HW1  932   2.798   1.906   0.559
   11SOL    HW2  933   2.736   1.989   0.432
   12SOL     OW  934   4.950   5.429   1.855
   12SOL    HW1  935   5.044   5.436   1.823
   12SOL    HW2  936   4.926   5.333   1.867
   13SOL     OW  937   5.548   5.945   2.408
   13SOL    HW1  938   5.464   5.976   2.453
   13SOL    HW2  939   5.614   6.020   2.406
   14SOL     OW  940   4.131   6.369   0.611
   14SOL    HW1  941   4.051   6.320   0.646
   14SOL    HW2  942   4.124   6.378   0.512
   15SOL     OW  943   0.417   6.149   6.751
   15SOL    HW1  944   0.482   6.137   6.827
   15SOL    HW2  945   0.466   6.139   6.664
   16SOL     OW  946   2.135   5.588   4.730
   16SOL    HW1  947   2.191   5.538   4.664
   16SOL    HW2  948   2.068   5.643   4.682
   17SOL     OW  949   6.966   1.773   3.682
   17SOL    HW1  950   7.016   1.856   3.706
   17SOL    HW2  951   6.948   1.720   3.765
   18SOL     OW  952   3.011   1.242   5.354
   18SOL    HW1  953   3.015   1.282   5.445
   18SOL    HW2  954   2.934   1.282   5.304
   19SOL     OW  955   2.937   6.108   3.070
   19SOL    HW1  956   2.900   6.198   3.046
   19SOL    HW2  957   2.937   6.049   2.990
   20SOL     OW  958   0.034   1.771   5.575
   20SOL    HW1  959   7.022   1.757   5.482
   20SOL    HW2  960   0.132   1.791   5.570
   21SOL     OW  961   1.848   3.761   2.059
   21SOL    HW1  962   1.846   3.852   2.019
   21SOL    HW2  963   1.937   3.744   2.100
   22SOL     OW  964   0.567   1.106   0.127
   22SOL    HW1  965   0.481   1.054   0.124
   22SOL    HW2  966   0.595   1.119   0.222
   23SOL     OW  967   6.862   5.322   0.098
   23SOL    HW1  968   6.937   5.323   0.032
   23SOL    HW2  969   6.840   5.228   0.123
   24SOL     OW  970   5.223   1.299   6.730
   24SOL    HW1  971   5.184   1.358   6.659
   24SOL    HW2  972   5.244   1.209   6.691
   25SOL     OW  973   1.360   0.952   4.570
   25SOL    HW1  974   1.326   0.868   4.614
   25SOL    HW2  975   1.293   0.983   4.503
   26SOL     OW  976   2.062   0.247   6.408
   26SOL    HW1  977   2.031   0.334   6.369
   26SOL    HW2  978   2.035   0.242   6.504
   27SOL     OW  979   0.163   6.904   2.104
   27SOL    HW1  980   0.164   6.848   2.021
   27SOL    HW2  981   0.076   6.952   2.110
   28SOL     OW  982   1.797   1.040   5.887
   28SOL    HW1  983   1.892   1.021   5.864
   28SOL    HW2  984   1.739   0.965   5.854
   29SOL     OW  985   5.493   1.019   1.187
   29SOL    HW1  986   5.543   0.949   1.237
   29SOL    HW2  987   5.448   1.080   1.252
   30SOL     OW  988   4.983   0.534   5.206
   30SOL    HW1  989   5.004   0.448   5.159
   30SOL    HW2  990   4.987   0.609   5.140
   31SOL     OW  991   6.222   4.830   4.327
   31SOL    HW1  992   6.130   4.864   4.349
   31SOL    HW2  993   6.234   4.739   4.364
   32SOL     OW  994   2.993   1.081   0.994
   32SOL    HW1  995   3.061   1.089   0.921
   32SOL    HW2  996   2.919   1.146   0.978
   33SOL     OW  997   1.898   5.115   5.450
   33SOL    HW1  998   1.974   5.161   5.495
   33SOL    HW2  999   1.847   5.062   5.518
   34SOL     OW 1000   2.023   6.240   5.473
   34SOL    HW1 1001   2.104   6.210   5.424
   34SOL    HW2 1002   2.043   6.325   5.523
   35SOL     OW 1003   1.320   3.265   4.352
   35SOL    HW1 1004   1.299   3.180   4.401
   35SOL    HW2 1005   1.255   3.336   4.379
   36SOL     OW 1006   5.903   1.295   3.676
   36SOL    HW1 1007   5.809   1.321   3.696
   36SOL    HW2 1008   5.953   1.284   3.763
   37SOL     OW 1009   1.437   6.365   4.607
   37SOL    HW1 1010   1.461   6.454   4.646
   37SOL    HW2 1011   1.516   6.326   4.560
   38SOL     OW 1012   0.853   3.238   1.235
   38SOL    HW1 1013   0.869   3.205   1.328
   38SOL    HW2 1014   0.775   3.301   1.235
   39SOL     OW 1015   6.371   4.926   1.271
   39SOL    HW1 1016   6.436   4.853   1.253
   39SOL    HW2 1017   6.351   4.975   1.186
   40SOL     OW 1018   3.761   0.993   6.747
   40SOL    HW1 1019   3.817   1.018   6.668
   40SOL    HW2 1020   3.772   0.895   6.764
   41SOL     OW 1021   5.438   4.131   1.675
   41SOL    HW1 1022   5.531   4.168   1.668
   41SOL    HW2 1023   5.413   4.087   1.588
   42SOL     OW 1024   2.738   3.906   6.840
   42SOL    HW1 1025   2.694   3.983   6.887
   42SOL    HW2 1026   2.837   3.919   6.841
   43SOL     OW 1027   4.903   6.731   4.945
   43SOL    HW1 1028   4.972   6.794   4.911
   43SOL    HW2 1029   4.936   6.637   4.935
   44SOL     OW 1030   6.687   0.557   6.582
   44SOL    HW1 1031   6.721   0.589   6.671
   44SOL    HW2 1032   6.601   0.508   6.594
   45SOL     OW 1033   2.847   4.246   5.913
   45SOL    HW1 1034   2.886   4.160   5.944
   45SOL    HW2 1035   2.752   4.253   5.944
   46SOL     OW 1036   0.875   4.621   4.386
   46SOL    HW1 1037   0.822   4.624   4.471
   46SOL    HW2 1038   0.918   4.531   4.376
   47SOL     OW 1039   6.181   4.256   6.800
   47SOL    HW1 1040   6.095   4.205   6.806
   47SOL    HW2 1041   6.163   4.353   6.813
   48SOL     OW 1042   0.376   3.951   0.175
   48SOL    HW1 1043   0.332   3.875   0.127
   48SOL    HW2 1044   0.420   4.011   0.108
   49SOL     OW 1045   3.324   2.418   6.713
   49SOL    HW1 1046   3.345   2.360   6.634
   49SOL    HW2 1047   3.268   2.495   6.683
   50SOL     OW 1048   4.993   2.172   0.197
   50SOL    HW1 1049   4.942   2.256   0.216
   50SOL    HW2 1050   5.005   2.161   0.098
   51SOL     OW 1051   1.138   6.370   2.239
   51SOL    HW1 1052   1.079   6.390   2.318
   51SOL    HW2 1053   1.188   6.285   2.256
   52SOL     OW 1054   5.855   1.656   2.269
   52SOL    HW1 1055   5.761   1.650   2.236
   52SOL    HW2 1056   5.880   1.752   2.281
   53SOL     OW 1057   4.558   1.062   0.575
   53SOL    HW1 1058   4.575   0.983   0.634
   53SOL    HW2 1059   4.640   1.081   0.520
   54SOL     OW 1060   6.360   0.587   6.820
   54SOL    HW1 1061   6.418   0.668   6.826
   54SOL    HW2 1062   6.284   0.605   6.759
   55SOL     OW 1063   1.551   3.816   5.421
   55SOL    HW1 1064   1.596   3.828   5.332
   55SOL    HW2 1065   1.609   3.759   5.480
   56SOL     OW 1066   0.525   2.554   6.748
   56SOL    HW1 1067   0.571   2.466   6.759
   56SOL    HW2 1068   0.553   2.616   6.821
   57SOL     OW 1069   4.018   6.126   1.444
   57SOL    HW1 1070   4.103   6.077   1.463
   57SOL    HW2 1071   3.966   6.137   1.528
   58SOL     OW 1072   0.791   0.904   6.674
   58SOL    HW1 1073   0.768   0.923   6.769
   58SOL    HW2 1074   0.748   0.972   6.615
   59SOL     OW 1075   4.151   2.961   6.942
   59SOL    HW1 1076   4.056   2.990   6.958
   59SOL    HW2 1077   4.156   2.908   6.858
   60SOL     OW 1078   6.823   3.269   2.804
   60SOL    HW1 1079   6.901   3.332   2.804
   60SOL    HW2 1080   6.738   3.320   2.817
   61SOL     OW 1081   1.645   5.630   3.051
   61SOL    HW1 1082   1.682   5.633   3.144
   61SOL    HW2 1083   1.549   5.603   3.055
   62SOL     OW 1084   5.234   2.778   3.018
   62SOL    HW1 1085   5.282   2.772   2.931
   62SOL    HW2 1086   5.251   2.696   3.072
   63SOL     OW 1087   3.820   0.296   6.581
   63SOL    HW1 1088   3.841   0.262   6.490
   63SOL    HW2 1089   3.729   0.267   6.608
   64SOL     OW 1090   1.826   2.271   6.707
   64SOL    HW1 1091   1.816   2.228   6.617
   64SOL    HW2 1092   1.919   2.305   6.719
   65SOL     OW 1093   0.992   5.040   5.398
   65SOL    HW1 1094   1.012   5.075   5.306
   65SOL    HW2 1095   1.077   5.007   5.440
   66SOL     OW 1096   4.509   1.220   1.421
   66SOL    HW1 1097   4.439   1.258   1.362
   66SOL    HW2 1098   4.597   1.264   1.402
   67SOL     OW 1099   0.200   3.752   0.920
   67SOL    HW1 1100   0.282   3.788   0.876
   67SOL    HW2 1101   0.119   3.800   0.886
   68SOL     OW 1102   0.549   1.047   6.142
   68SOL    HW1 1103   0.579   1.139   6.166
   68SOL    HW2 1104   0.621   1.000   6.091
   69SOL     OW 1105   1.697   6.943   6.479
   69SOL    HW1 1106   1.693   6.990   6.567
   69SOL    HW2 1107   1.657   7.001   6.409
   70SOL     OW 1108   4.893   4.862   3.257
   70SOL    HW1 1109   4.860   4.946   3.214
   70SOL    HW2 1110   4.865   4.783   3.201
   71SOL     OW 1111   4.729   1.986   5.382
   71SOL    HW1 1112   4.698   1.895   5.357
   71SOL    HW2 1113   4.689   2.053   5.320
   72SOL     OW 1114   6.884   1.044   2.305
   72SOL    HW1 1115   6.953   1.115   2.319
   72SOL    HW2 1116   6.816   1.049   2.378
   73SOL     OW 1117   2.790   0.767   1.279
   73SOL    HW1 1118   2.827   0.852   1.243
   73SOL    HW2 1119   2.831   0.690   1.230
   74SOL     OW 1120   2.369   1.198   6.929
   74SOL    HW1 1121   2.307   1.170   6.856
   74SOL    HW2 1122   2.463   1.185   6.899
   75SOL     OW 1123   2.850   2.858   1.415
   75SOL    HW1 1124   2.908   2.924   1.367
   75SOL    HW2 1125   2.756   2.891   1.416
   76SOL     OW 1126   3.790   5.343   6.342
   76SOL    HW1 1127   3.740   5.357   6.256
   76SOL    HW2 1128   3.837   5.427   6.367
   77SOL     OW 1129   6.935   5.283   4.506
   77SOL    HW1 1130   0.008   5.288   4.534
   77SOL    HW2 1131   6.904   5.188   4.509
   78SOL     OW 1132   5.445   1.381   1.201
   78SOL    HW1 1133   5.390   1.313   1.250
   78SOL    HW2 1134   5.425   1.374   1.103
   79SOL     OW 1135   1.315   4.601   4.262
   79SOL    HW1 1136   1.312   4.626   4.359
   79SOL    HW2 1137   1.223   4.609   4.223
   80SOL     OW 1138   3.947   2.122   5.484
   80SOL    HW1 1139   3.884   2.062   5.534
   80SOL    HW2 1140   3.897   2.201   5.450
   81SOL     OW 1141   3.462   4.980   2.849
   81SOL    HW1 1142   3.505   5.070   2.851
   81SOL    HW2 1143   3.529   4.910   2.870
   82SOL     OW 1144   3.382   0.270   1.990
   82SOL    HW1 1145   3.436   0.336   2.042
   82SOL    HW2 1146   3.343   0.315   1.910
   83SOL     OW 1147   5.457   1.307   3.767
   83SOL    HW1 1148   5.385   1.363   3.725
   83SOL    HW2 1149   5.464   1.331   3.864
   84SOL     OW 1150   5.659   2.479   2.819
   84SOL    HW1 1151   5.620   2.534   2.745
   84SOL    HW2 1152   5.605   2.396   2.832
   85SOL     OW 1153   2.594   5.561   3.472
   85SOL    HW1 1154   2.534   5.632   3.435
   85SOL    HW2 1155   2.649   5.599   3.546
   86SOL     OW 1156   4.996   1.038   0.520
   86SOL    HW1 1157   4.907   1.029   0.474
   86SOL    HW2 1158   5.048   0.953   0.509
   87SOL     OW 1159   3.073   3.044   6.798
   87SOL    HW1 1160   3.094   3.127   6.850
   87SOL    HW2 1161   3.153   3.017   6.744
   88SOL     OW 1162   1.617   2.432   1.064
   88SOL    HW1 1163   1.542   2.465   1.008
   88SOL    HW2 1164   1.666   2.509   1.105
   89SOL     OW 1165   3.381   4.159   4.988
   89SOL    HW1 1166   3.287   4.130   4.972
   89SOL    HW2 1167   3.388   4.201   5.078
   90SOL     OW 1168   6.767   4.007   2.052
   90SOL    HW1 1169   6.832   3.967   2.117
   90SOL    HW2 1170   6.813   4.024   1.966
   91SOL     OW 1171   4.635   5.798   0.953
   91SOL    HW1 1172   4.595   5.751   1.031
   91SOL    HW2 1173   4.602   5.892   0.949
   92SOL     OW 1174   5.521   5.470   0.077
   92SOL    HW1 1175   5.431   5.433   0.055
   92SOL    HW2 1176   5.542   5.451   0.173
   93SOL     OW 1177   3.072   3.789   2.114
   93SOL    HW1 1178   3.154   3.732   2.106
   93SOL    HW2 1179   3.087   3.860   2.182
   94SOL     OW 1180   2.740   1.490   4.303
   94SOL    HW1 1181   2.659   1.439   4.272
   94SOL    HW2 1182   2.798   1.511   4.224
   95SOL     OW 1183   1.000   6.060   4.085
   95SOL    HW1 1184   1.049   5.974   4.075
   95SOL    HW2 1185   0.920   6.060   4.026
   96SOL     OW 1186   0.149   6.151   0.022
   96SOL    HW1 1187   0.207   6.193   6.975
   96SOL    HW2 1188   0.091   6.082   7.002
   97SOL     OW 1189   3.871   4.587   5.281
   97SOL    HW1 1190   3.809   4.518   5.319
   97SOL    HW2 1191   3.823   4.674   5.270
   98SOL     OW 1192   0.998   3.068   4.613
   98SOL    HW1 1193   0.963   2.978   4.639
   98SOL    HW2 1194   1.060   3.059   4.535
   99SOL     OW 1195   4.324   4.741   4.754
   99SOL    HW1 1196   4.301   4.665   4.815
   99SOL    HW2 1197   4.241   4.793   4.733
  100SOL     OW 1198   1.558   1.055   5.291
  100SOL    HW1 1199   1.542   0.957   5.294
  100SOL    HW2 1200   1.648   1.074   5.251
  101SOL     OW 1201   5.306   3.246   2.936
  101SOL    HW1 1202   5.274   3.193   3.015
  101SOL    HW2 1203   5.396   3.283   2.956
  102SOL     OW 1204   3.624   7.000   0.088
  102SOL    HW1 1205   3.558   6.945   0.038
  102SOL    HW2 1206   3.601   0.074   0.080
  103SOL     OW 1207   1.662   1.878   1.402
  103SOL    HW1 1208   1.726   1.862   1.327
  103SOL    HW2 1209   1.709   1.927   1.476
  104SOL     OW 1210   0.315   4.753   1.216
  104SOL    HW1 1211   0.216   4.758   1.203
  104SOL    HW2 1212   0.355   4.694   1.146
  105SOL     OW 1213   6.809   1.479   5.140
  105SOL    HW1 1214   6.815   1.379   5.136
  105SOL    HW2 1215   6.797   1.515   5.047
  106SOL     OW 1216   4.493   3.302   1.618
  106SOL    HW1 1217   4.567   3.362   1.649
  106SOL    HW2 1218   4.491   3.219   1.674
  107SOL     OW 1219   4.191   6.657   2.480
  107SOL    HW1 1220   4.272   6.673   2.424
  107SOL    HW2 1221   4.140   6.579   2.443
  108SOL     OW 1222   3.518   1.423   5.069
  108SOL    HW1 1223   3.490   1.519   5.063
  108SOL    HW2 1224   3.460   1.367   5.010
  109SOL     OW 1225   1.949   1.699   5.176
  109SOL    HW1 1226   1.855   1.675   5.200
  109SOL    HW2 1227   2.008   1.685   5.255
  110SOL     OW 1228   4.371   4.664   5.715
  110SOL    HW1 1229   4.322   4.602   5.654
  110SOL    HW2 1230   4.448   4.616   5.757
  111SOL     OW 1231   5.828   3.092   1.376
  111SOL    HW1 1232   5.878   3.178   1.370
  111SOL    HW2 1233   5.879   3.020   1.328
  112SOL     OW 1234   4.649   6.650   4.990
  112SOL    HW1 1235   4.743   6.682   4.976
  112SOL    HW2 1236   4.624   6.664   5.086
  113SOL     OW 1237   1.098   5.022   2.060
  113SOL    HW1 1238   1.086   5.110   2.107
  113SOL    HW2 1239   1.185   5.022   2.011
  114SOL     OW 1240   6.686   1.595   2.285
  114SOL    HW1 1241   6.703   1.669   2.220
  114SOL    HW2 1242   6.770   1.544   2.301
  115SOL     OW 1243   4.340   1.079   2.960
  115SOL    HW1 1244   4.245   1.068   2.990
  115SOL    HW2 1245   4.347   1.052   2.864
  116SOL     OW 1246   6.152   5.612   0.864
  116SOL    HW1 1247   6.112   5.524   0.888
  116SOL    HW2 1248   6.090   5.686   0.890
  117SOL     OW 1249   2.571   1.747   0.460
  117SOL    HW1 1250   2.486   1.791   0.490
  117SOL    HW2 1251   2.591   1.669   0.519
  118SOL     OW 1252   0.003   2.321   2.331
  118SOL    HW1 1253   0.037   2.339   2.239
  118SOL    HW2 1254   0.040   2.388   2.394
  119SOL     OW 1255   5.885   6.018   5.043
  119SOL    HW1 1256   5.856   6.088   5.109
  119SOL    HW2 1257   5.848   5.929   5.071
  120SOL     OW 1258   4.573   1.518   4.671
  120SOL    HW1 1259   4.576   1.604   4.620
  120SOL    HW2 1260   4.482   1.507   4.713
  121SOL     OW 1261   6.858   5.600   6.043
  121SOL    HW1 1262   6.896   5.511   6.020
  121SOL    HW2 1263   6.930   5.669   6.041
  122SOL     OW 1264   0.011   4.965   5.874
  122SOL    HW1 1265   7.004   4.939   5.782
  122SOL    HW2 1266   6.999   4.899   5.940
  123SOL     OW 1267   1.190   2.770   0.912
  123SOL    HW1 1268   1.144   2.685   0.886
  123SOL    HW2 1269   1.210   2.824   0.830
  124SOL     OW 1270   2.192   3.883   6.467
  124SOL    HW1 1271   2.254   3.831   6.525
  124SOL    HW2 1272   2.097   3.857   6.486
  125SOL     OW 1273   4.485   2.210   0.361
  125SOL    HW1 1274   4.543   2.170   0.433
  125SOL    HW2 1275   4.392   2.222   0.397
  126SOL     OW 1276   3.859   3.546   4.840
  126SOL    HW1 1277   3.805   3.465   4.815
  126SOL    HW2 1278   3.956   3.527   4.824
  127SOL     OW 1279   0.085   5.239   6.160
  127SOL    HW1 1280   0.029   5.230   6.078
  127SOL    HW2 1281   0.027   5.231   6.241
  128SOL     OW 1282   4.739   4.262   5.953
  128SOL    HW1 1283   4.826   4.256   6.002
  128SOL    HW2 1284   4.705   4.170   5.934
  129SOL     OW 1285   0.694   4.440   1.257
  129SOL    HW1 1286   0.704   4.537   1.236
  129SOL    HW2 1287   0.785   4.397   1.260
  130SOL     OW 1288   6.022   3.728   4.889
  130SOL    HW1 1289   6.098   3.702   4.949
  130SOL    HW2 1290   5.957   3.783   4.941
  131SOL     OW 1291   1.072   3.932   2.464
  131SOL    HW1 1292   1.139   3.917   2.392
  131SOL    HW2 1293   1.043   3.844   2.502
  132SOL     OW 1294   4.220   2.433   1.570
  132SOL    HW1 1295   4.124   2.457   1.555
  132SOL    HW2 1296   4.228   2.334   1.583
  133SOL     OW 1297   4.303   4.566   5.988
  133SOL    HW1 1298   4.382   4.508   5.967
  133SOL    HW2 1299   4.291   4.634   5.916
  134SOL     OW 1300   6.351   1.967   6.851
  134SOL    HW1 1301   6.298   1.917   6.782
  134SOL    HW2 1302   6.434   1.917   6.872
  135SOL     OW 1303   4.576   4.381   3.754
  135SOL    HW1 1304   4.545   4.436   3.832
  135SOL    HW2 1305   4.551   4.285   3.770
  136SOL     OW 1306   3.948   6.695   6.200
  136SOL    HW1 1307   3.916   6.632   6.271
  136SOL    HW2 1308   3.942   6.649   6.111
  137SOL     OW 1309   1.723   4.509   7.019
  137SOL    HW1 1310   1.789   4.466   0.057
  137SOL    HW2 1311   1.768   4.537   6.934
  138SOL     OW 1312   1.170   5.691   0.341
  138SOL    HW1 1313   1.139   5.666   0.432
  138SOL    HW2 1314   1.166   5.791   0.331
  139SOL     OW 1315   0.661   1.275   1.048
  139SOL    HW1 1316   0.594   1.346   1.072
  139SOL    HW2 1317   0.648   1.196   1.108
  140SOL     OW 1318   3.905   0.356   2.033
  140SOL    HW1 1319   3.850   0.300   2.095
  140SOL    HW2 1320   3.940   0.436   2.082
  141SOL     OW 1321   1.149   1.743   0.192
  141SOL    HW1 1322   1.229   1.801   0.174
  141SOL    HW2 1323   1.097   1.732   0.108
  142SOL     OW 1324   2.201   4.086   6.824
  142SOL    HW1 1325   2.159   4.169   6.859
  142SOL    HW2 1326   2.195   4.085   6.724
  143SOL     OW 1327   5.335   5.770   1.913
  143SOL    HW1 1328   5.389   5.825   1.977
  143SOL    HW2 1329   5.334   5.675   1.943
  144SOL     OW 1330   3.284   5.354   2.912
  144SOL    HW1 1331   3.238   5.287   2.971
  144SOL    HW2 1332   3.378   5.323   2.893
  145SOL     OW 1333   0.124   5.611   3.457
  145SOL    HW1 1334   0.192   5.551   3.499
  145SOL    HW2 1335   0.166   5.700   3.439
  146SOL     OW 1336   0.499   0.842   5.826
  146SOL    HW1 1337   0.580   0.861   5.882
  146SOL    HW2 1338   0.527   0.791   5.745
  147SOL     OW 1339   5.770   0.961   5.057
  147SOL    HW1 1340   5.850   0.976   4.998
  147SOL    HW2 1341   5.801   0.948   5.151
  148SOL     OW 1342   1.929   6.759   1.854
  148SOL    HW1 1343   1.931   6.792   1.949
  148SOL    HW2 1344   1.873   6.676   1.849
  149SOL     OW 1345   1.555   2.710   4.869
  149SOL    HW1 1346   1.633   2.744   4.816
  149SOL    HW2 1347   1.515   2.785   4.921
  150SOL     OW 1348   4.999   3.100   5.358
  150SOL    HW1 1349   4.938   3.077   5.282
  150SOL    HW2 1350   5.091   3.067   5.336
  151SOL     OW 1351   6.355   2.739   1.657
  151SOL    HW1 1352   6.263   2.749   1.619
  151SOL    HW2 1353   6.420   2.793   1.602
  152SOL     OW 1354   7.004   2.854   0.104
  152SOL    HW1 1355   6.935   2.794   0.064
  152SOL    HW2 1356   6.998   2.944   0.061
  153SOL     OW 1357   1.732   1.934   3.949
  153SOL    HW1 1358   1.712   1.880   4.031
  153SOL    HW2 1359   1.757   1.874   3.874
  154SOL     OW 1360   0.354   1.296   3.876
  154SOL    HW1 1361   0.452   1.317   3.877
  154SOL    HW2 1362   0.309   1.345   3.950
  155SOL     OW 1363   5.494   4.455   3.272
  155SOL    HW1 1364   5.474   4.357   3.261
  155SOL    HW2 1365   5.592   4.466   3.291
  156SOL     OW 1366   4.429   0.385   1.188
  156SOL    HW1 1367   4.422   0.315   1.117
  156SOL    HW2 1368   4.399   0.348   1.276
  157SOL     OW 1369   5.228   0.092   1.385
  157SOL    HW1 1370   5.128   0.089   1.380
  157SOL    HW2 1371   5.267   0.045   1.306
  158SOL     OW 1372   1.044   3.288   4.206
  158SOL    HW1 1373   1.002   3.320   4.121
  158SOL    HW2 1374   0.980   3.228   4.254
  159SOL     OW 1375   6.793   5.056   6.946
  159SOL    HW1 1376   6.773   5.091   6.855
  159SOL    HW2 1377   6.883   5.011   6.946
  160SOL     OW 1378   4.171   0.406   0.972
  160SOL    HW1 1379   4.119   0.440   0.893
  160SOL    HW2 1380   4.257   0.367   0.941
  161SOL     OW 1381   0.078   0.394   0.410
  161SOL    HW1 1382   0.082   0.366   0.506
  161SOL    HW2 1383   0.153   0.351   0.360
  162SOL     OW 1384   4.340   0.025   5.334
  162SOL    HW1 1385   4.358   6.989   5.255
  162SOL    HW2 1386   4.415   0.089   5.345
  163SOL     OW 1387   0.816   3.610   2.575
  163SOL    HW1 1388   0.879   3.681   2.606
  163SOL    HW2 1389   0.765   3.643   2.496
  164SOL     OW 1390   2.143   2.133   2.683
  164SOL    HW1 1391   2.232   2.143   2.639
  164SOL    HW2 1392   2.150   2.061   2.753
  165SOL     OW 1393   0.140   6.285   4.212
  165SOL    HW1 1394   0.072   6.220   4.179
  165SOL    HW2 1395   0.143   6.364   4.150
  166SOL     OW 1396   0.623   4.541   3.491
  166SOL    HW1 1397   0.637   4.530   3.590
  166SOL    HW2 1398   0.706   4.514   3.442
  167SOL     OW 1399   1.060   1.108   2.961
  167SOL    HW1 1400   1.106   1.115   3.050
  167SOL    HW2 1401   1.010   1.192   2.943
  168SOL     OW 1402   3.322   3.543   3.264
  168SOL    HW1 1403   3.263   3.608   3.313
  168SOL    HW2 1404   3.410   3.587   3.244
  169SOL     OW 1405   5.311   2.636   6.875
  169SOL    HW1 1406   5.391   2.584   6.846
  169SOL    HW2 1407   5.307   2.722   6.825
  170SOL     OW 1408   0.014   4.940   2.249
  170SOL    HW1 1409   6.985   4.863   2.213
  170SOL    HW2 1410   0.103   4.909   2.282
  171SOL     OW 1411   3.067   2.241   0.726
  171SOL    HW1 1412   2.976   2.251   0.768
  171SOL    HW2 1413   3.096   2.145   0.733
  172SOL     OW 1414   1.387   1.276   6.914
  172SOL    HW1 1415   1.375   1.254   7.011
  172SOL    HW2 1416   1.347   1.203   6.858
  173SOL     OW 1417   5.811   0.604   5.056
  173SOL    HW1 1418   5.842   0.567   5.143
  173SOL    HW2 1419   5.716   0.633   5.063
  174SOL     OW 1420   6.366   3.737   5.465
  174SOL    HW1 1421   6.442   3.746   5.529
  174SOL    HW2 1422   6.396   3.686   5.384
  175SOL     OW 1423   0.727   6.342   2.989
  175SOL    HW1 1424   0.718   6.440   2.971
  175SOL    HW2 1425   0.822   6.315   2.972
  176SOL     OW 1426   6.544   3.914   0.885
  176SOL    HW1 1427   6.469   3.915   0.819
  176SOL    HW2 1428   6.537   3.994   0.945
  177SOL     OW 1429   6.653   2.558   3.608
  177SOL    HW1 1430   6.619   2.557   3.514
  177SOL    HW2 1431   6.608   2.631   3.660
  178SOL     OW 1432   1.795   5.771   4.913
  178SOL    HW1 1433   1.779   5.673   4.913
  178SOL    HW2 1434   1.852   5.796   4.991
  179SOL     OW 1435   3.554   4.117   2.239
  179SOL    HW1 1436   3.531   4.205   2.281
  179SOL    HW2 1437   3.535   4.043   2.303
  180SOL     OW 1438   4.995   1.333   6.404
  180SOL    HW1 1439   4.948   1.346   6.317
  180SOL    HW2 1440   4.984   1.415   6.461
  181SOL     OW 1441   3.496   0.283   5.712
  181SOL    HW1 1442   3.474   0.237   5.626
  181SOL    HW2 1443   3.503   0.215   5.785
  182SOL     OW 1444   2.926   3.129   5.586
  182SOL    HW1 1445   2.943   3.226   5.568
  182SOL    HW2 1446   2.851   3.097   5.528
  183SOL     OW 1447   3.255   1.409   3.641
  183SOL    HW1 1448   3.181   1.348   3.612
  183SOL    HW2 1449   3.316   1.427   3.564
  184SOL     OW 1450   4.701   5.984   3.381
  184SOL    HW1 1451   4.773   5.995   3.312
  184SOL    HW2 1452   4.663   5.892   3.376
  185SOL     OW 1453   0.178   6.722   4.953
  185SOL    HW1 1454   0.235   6.640   4.954
  185SOL    HW2 1455   0.084   6.698   4.974
  186SOL     OW 1456   2.496   5.968   6.037
  186SOL    HW1 1457   2.520   5.926   6.125
  186SOL    HW2 1458   2.448   5.901   5.981
  187SOL     OW 1459   3.877   5.350   0.795
  187SOL    HW1 1460   3.811   5.334   0.722
  187SOL    HW2 1461   3.881   5.448   0.816
  188SOL     OW 1462   1.640   3.696   3.658
  188SOL    HW1 1463   1.694   3.767   3.612
  188SOL    HW2 1464   1.662   3.607   3.618
  189SOL     OW 1465   5.503   4.811   5.977
  189SOL    HW1 1466   5.416   4.845   6.015
  189SOL    HW2 1467   5.540   4.741   6.037
  190SOL     OW 1468   5.943   6.532   0.687
  190SOL    HW1 1469   5.851   6.507   0.719
  190SOL    HW2 1470   5.969   6.620   0.727
  191SOL     OW 1471   2.175   3.024   5.780
  191SOL    HW1 1472   2.257   2.996   5.729
  191SOL    HW2 1473   2.115   3.076   5.720
  192SOL     OW 1474   6.995   6.794   1.228
  192SOL    HW1 1475   0.052   6.798   1.288
  192SOL    HW2 1476   6.986   6.702   1.190
  193SOL     OW 1477   3.265   0.217   1.536
  193SOL    HW1 1478   3.292   0.293   1.477
  193SOL    HW2 1479   3.276   0.131   1.487
  194SOL     OW 1480   4.079   5.979   3.200
  194SOL    HW1 1481   4.039   6.071   3.198
  194SOL    HW2 1482   4.177   5.985   3.219
  195SOL     OW 1483   2.920   0.809   0.890
  195SOL    HW1 1484   2.929   0.852   0.800
  195SOL    HW2 1485   2.965   0.866   0.958
  196SOL     OW 1486   4.377   2.674   1.490
  196SOL    HW1 1487   4.396   2.723   1.575
  196SOL    HW2 1488   4.327   2.590   1.510
  197SOL     OW 1489   1.375   6.051   1.112
  197SOL    HW1 1490   1.385   6.005   1.024
  197SOL    HW2 1491   1.462   6.050   1.160
  198SOL     OW 1492   5.356   6.814   6.431
  198SOL    HW1 1493   5.365   6.873   6.350
  198SOL    HW2 1494   5.422   6.739   6.425
  199SOL     OW 1495   2.194   0.687   3.082
  199SOL    HW1 1496   2.124   0.709   3.014
  199SOL    HW2 1497   2.235   0.598   3.060
  200SOL     OW 1498   1.471   3.539   4.139
  200SOL    HW1 1499   1.487   3.596   4.059
  200SOL    HW2 1500   1.403   3.469   4.118
  201SOL     OW 1501   4.754   1.480   6.989
  201SOL    HW1 1502   4.781   1.384   6.983
  201SOL    HW2 1503   4.670   1.494   6.936
  202SOL     OW 1504   4.468   0.240   3.307
  202SOL    HW1 1505   4.485   0.205   3.399
  202SOL    HW2 1506   4.517   0.326   3.295
  203SOL     OW 1507   5.704   2.568   0.159
  203SOL    HW1 1508   5.758   2.485   0.144
  203SOL    HW2 1509   5.607   2.546   0.161
  204SOL     OW 1510   1.997   5.996   1.079
  204SOL    HW1 1511   1.951   6.081   1.106
  204SOL    HW2 1512   2.000   5.934   1.157
  205SOL     OW 1513   5.115   0.777   1.402
  205SOL    HW1 1514   5.091   0.759   1.498
  205SOL    HW2 1515   5.035   0.815   1.355
  206SOL     OW 1516   0.109   6.436   1.336
  206SOL    HW1 1517   0.193   6.479   1.369
  206SOL    HW2 1518   0.123   6.338   1.327
  207SOL     OW 1519   6.339   2.137   5.523
  207SOL    HW1 1520   6.272   2.179   5.461
  207SOL    HW2 1521   6.318   2.040   5.535
  208SOL     OW 1522   4.154   4.016   6.846
  208SOL    HW1 1523   4.235   4.017   6.905
  208SOL    HW2 1524   4.149   4.103   6.796
  209SOL     OW 1525   0.052   6.525   3.867
  209SOL    HW1 1526   0.068   6.500   3.772
  209SOL    HW2 1527   0.115   6.598   3.894
  210SOL     OW 1528   4.084   2.229   1.020
  210SOL    HW1 1529   4.136   2.152   1.059
  210SOL    HW2 1530   3.996   2.197   0.986
  211SOL     OW 1531   1.100   3.038   1.874
  211SOL    HW1 1532   1.157   2.958   1.856
  211SOL    HW2 1533   1.005   3.009   1.886
  212SOL     OW 1534   1.143   5.248   5.246
  212SOL    HW1 1535   1.070   5.306   5.283
  212SOL    HW2 1536   1.213   5.236   5.316
  213SOL     OW 1537   3.704   2.408   0.862
  213SOL    HW1 1538   3.709   2.364   0.952
  213SOL    HW2 1539   3.629   2.473   0.860
  214SOL     OW 1540   1.418   6.093   3.633
  214SOL    HW1 1541   1.363   6.034   3.693
  214SOL    HW2 1542   1.370   6.106   3.546
  215SOL     OW 1543   3.194   4.017   3.038
  215SOL    HW1 1544   3.167   4.110   3.061
  215SOL    HW2 1545   3.272   4.019   2.976
  216SOL     OW 1546   3.086   0.651   5.669
  216SOL    HW1 1547   3.169   0.699   5.643
  216SOL    HW2 1548   3.062   0.585   5.597
  217SOL     OW 1549   0.036   2.149   5.159
  217SOL    HW1 1550   7.008   2.087   5.099
  217SOL    HW2 1551   0.068   2.100   5.240
  218SOL     OW 1552   2.555   3.771   5.835
  218SOL    HW1 1553   2.509   3.762   5.746
  218SOL    HW2 1554   2.547   3.866   5.866
  219SOL     OW 1555   2.725   5.608   6.696
  219SOL    HW1 1556   2.808   5.552   6.708
  219SOL    HW2 1557   2.645   5.553   6.716
  220SOL     OW 1558   1.313   5.109   0.406
  220SOL    HW1 1559   1.275   5.047   0.337
  220SOL    HW2 1560   1.260   5.102   0.490
  221SOL     OW 1561   5.800   2.643   4.963
  221SOL    HW1 1562   5.812   2.680   5.055
  221SOL    HW2 1563   5.768   2.716   4.902
  222SOL     OW 1564   2.151   6.981   4.337
  222SOL    HW1 1565   2.215   6.910   4.309
  222SOL    HW2 1566   2.131   6.972   4.434
  223SOL     OW 1567   5.605   4.743   2.504
  223SOL    HW1 1568   5.664   4.735   2.423
  223SOL    HW2 1569   5.538   4.669   2.503
  224SOL     OW 1570   4.870   2.425   2.288
  224SOL    HW1 1571   4.800   2.469   2.344
  224SOL    HW2 1572   4.887   2.479   2.206
  225SOL     OW 1573   4.828   6.293   1.339
  225SOL    HW1 1574   4.901   6.361   1.348
  225SOL    HW2 1575   4.860   6.204   1.372
  226SOL     OW 1576   0.528   5.876   2.164
  226SOL    HW1 1577   0.569   5.952   2.214
  226SOL    HW2 1578   0.501   5.906   2.073
  227SOL     OW 1579   1.435   3.667   3.282
  227SOL    HW1 1580   1.377   3.651   3.202
  227SOL    HW2 1581   1.508   3.731   3.258
  228SOL     OW 1582   4.056   6.551   2.764
  228SOL    HW1 1583   3.973   6.577   2.715
  228SOL    HW2 1584   4.136   6.587   2.716
  229SOL     OW 1585   6.705   5.572   3.268
  229SOL    HW1 1586   6.701   5.499   3.337
  229SOL    HW2 1587   6.798   5.581   3.234
  230SOL     OW 1588   0.662   4.572   6.149
  230SOL    HW1 1589   0.619   4.591   6.237
  230SOL    HW2 1590   0.727   4.497   6.159
  231SOL     OW 1591   0.374   2.319   6.377
  231SOL    HW1 1592   0.355   2.331   6.474
  231SOL    HW2 1593   0.473   2.325   6.361
  232SOL     OW 1594   1.276   4.244   6.008
  232SOL    HW1 1595   1.205   4.313   6.021
  232SOL    HW2 1596   1.366   4.287   6.017
  233SOL     OW 1597   3.362   0.114   6.803
  233SOL    HW1 1598   3.317   0.115   6.714
  233SOL    HW2 1599   3.308   0.169   6.868
  234SOL     OW 1600   2.037   4.753   6.941
  234SOL    HW1 1601   1.958   4.739   6.881
  234SOL    HW2 1602   2.030   4.692   7.020
  235SOL     OW 1603   3.638   3.209   6.035
  235SOL    HW1 1604   3.661   3.131   5.978
  235SOL    HW2 1605   3.542   3.201   6.064
  236SOL     OW 1606   0.197   1.747   5.862
  236SOL    HW1 1607   0.156   1.655   5.861
  236SOL    HW2 1608   0.231   1.769   5.771
  237SOL     OW 1609   6.713   6.529   2.039
  237SOL    HW1 1610   6.726   6.480   1.952
  237SOL    HW2 1611   6.677   6.621   2.020
  238SOL     OW 1612   6.934   1.900   2.451
  238SOL    HW1 1613   6.958   1.951   2.533
  238SOL    HW2 1614   6.962   1.951   2.370
  239SOL     OW 1615   6.129   5.135   0.619
  239SOL    HW1 1616   6.171   5.184   0.696
  239SOL    HW2 1617   6.032   5.159   0.613
  240SOL     OW 1618   0.049   2.398   5.028
  240SOL    HW1 1619   0.134   2.449   5.040
  240SOL    HW2 1620   0.060   2.306   5.065
  241SOL     OW 1621   5.391   1.931   5.011
  241SOL    HW1 1622   5.315   1.981   4.970
  241SOL    HW2 1623   5.458   1.909   4.941
  242SOL     OW 1624   2.783   2.053   4.237
  242SOL    HW1 1625   2.734   1.966   4.246
  242SOL    HW2 1626   2.880   2.038   4.252
  243SOL     OW 1627   5.035   1.073   6.819
  243SOL    HW1 1628   5.004   0.998   6.760
  243SOL    HW2 1629   5.120   1.111   6.783
  244SOL     OW 1630   0.530   1.884   5.800
  244SOL    HW1 1631   0.570   1.964   5.755
  244SOL    HW2 1632   0.601   1.817   5.819
  245SOL     OW 1633   4.651   2.625   3.760
  245SOL    HW1 1634   4.675   2.705   3.816
  245SOL    HW2 1635   4.564   2.588   3.790
  246SOL     OW 1636   5.073   3.302   4.131
  246SOL    HW1 1637   5.012   3.349   4.068
  246SOL    HW2 1638   5.156   3.275   4.083
  247SOL     OW 1639   3.051   0.428   2.928
  247SOL    HW1 1640   3.144   0.413   2.896
  247SOL    HW2 1641   3.038   0.382   3.016
  248SOL     OW 1642   0.314   2.325   2.557
  248SOL    HW1 1643   0.390   2.318   2.622
  248SOL    HW2 1644   0.258   2.405   2.580
  249SOL     OW 1645   1.869   5.562   5.326
  249SOL    HW1 1646   1.773   5.587   5.320
  249SOL    HW2 1647   1.905   5.586   5.417
  250SOL     OW 1648   5.100   2.495   0.375
  250SOL    HW1 1649   5.044   2.562   0.327
  250SOL    HW2 1650   5.115   2.525   0.470
  251SOL     OW 1651   2.039   1.112   1.161
  251SOL    HW1 1652   2.002   1.139   1.072
  251SOL    HW2 1653   2.023   1.014   1.175
  252SOL     OW 1654   0.449   2.213   6.825
  252SOL    HW1 1655   0.498   2.127   6.809
  252SOL    HW2 1656   0.421   2.219   6.921
  253SOL     OW 1657   1.840   4.503   6.550
  253SOL    HW1 1658   1.877   4.485   6.459
  253SOL    HW2 1659   1.758   4.447   6.564
  254SOL     OW 1660   4.735   3.771   6.547
  254SOL    HW1 1661   4.794   3.811   6.618
  254SOL    HW2 1662   4.722   3.838   6.474
  255SOL     OW 1663   4.383   2.139   2.125
  255SOL    HW1 1664   4.437   2.208   2.076
  255SOL    HW2 1665   4.445   2.074   2.169
  256SOL     OW 1666   6.392   6.101   1.440
  256SOL    HW1 1667   6.430   6.189   1.410
  256SOL    HW2 1668   6.351   6.112   1.531
  257SOL     OW 1669   3.216   5.669   5.575
  257SOL    HW1 1670   3.267   5.735   5.631
  257SOL    HW2 1671   3.135   5.639   5.626
  258SOL     OW 1672   4.243   5.314   3.976
  258SOL    HW1 1673   4.285   5.232   3.939
  258SOL    HW2 1674   4.147   5.318   3.949
  259SOL     OW 1675   0.557   1.524   2.689
  259SOL    HW1 1676   0.656   1.519   2.705
  259SOL    HW2 1677   0.540   1.575   2.605
  260SOL     OW 1678   6.364   0.026   5.052
  260SOL    HW1 1679   6.380   6.970   5.111
  260SOL    HW2 1680   6.278   0.070   5.077
  261SOL     OW 1681   0.504   0.573   4.392
  261SOL    HW1 1682   0.595   0.612   4.378
  261SOL    HW2 1683   0.451   0.634   4.452
  262SOL     OW 1684   1.319   5.413   1.729
  262SOL    HW1 1685   1.381   5.486   1.698
  262SOL    HW2 1686   1.306   5.347   1.655
  263SOL     OW 1687   0.733   4.272   4.006
  263SOL    HW1 1688   0.758   4.176   3.993
  263SOL    HW2 1689   0.642   4.289   3.969
  264SOL     OW 1690   3.051   4.205   0.379
  264SOL    HW1 1691   3.127   4.267   0.395
  264SOL    HW2 1692   3.071   4.148   0.299
  265SOL     OW 1693   3.903   5.532   3.432
  265SOL    HW1 1694   3.981   5.469   3.429
  265SOL    HW2 1695   3.921   5.610   3.373
  266SOL     OW 1696   4.160   3.520   6.788
  266SOL    HW1 1697   4.127   3.615   6.780
  266SOL    HW2 1698   4.254   3.521   6.823
  267SOL     OW 1699   2.532   2.811   5.736
  267SOL    HW1 1700   2.472   2.737   5.767
  267SOL    HW2 1701   2.478   2.877   5.683
  268SOL     OW 1702   2.231   4.603   3.608
  268SOL    HW1 1703   2.325   4.587   3.638
  268SOL    HW2 1704   2.167   4.559   3.672
  269SOL     OW 1705   3.049   1.944   5.738
  269SOL    HW1 1706   3.101   1.923   5.821
  269SOL    HW2 1707   3.092   2.021   5.691
  270SOL     OW 1708   5.334   6.305   4.823
  270SOL    HW1 1709   5.312   6.384   4.766
  270SOL    HW2 1710   5.329   6.222   4.767
  271SOL     OW 1711   2.150   1.796   0.417
  271SOL    HW1 1712   2.202   1.841   0.345
  271SOL    HW2 1713   2.077   1.740   0.376
  272SOL     OW 1714   4.394   5.520   0.202
  272SOL    HW1 1715   4.450   5.502   0.121
  272SOL    HW2 1716   4.396   5.440   0.262
  273SOL     OW 1717   1.697   6.063   4.046
  273SOL    HW1 1718   1.631   6.003   4.092
  273SOL    HW2 1719   1.715   6.027   3.954
  274SOL     OW 1720   5.991   2.354   2.270
  274SOL    HW1 1721   5.907   2.318   2.310
  274SOL    HW2 1722   6.025   2.430   2.326
  275SOL     OW 1723   6.141   5.663   5.766
  275SOL    HW1 1724   6.154   5.627   5.858
  275SOL    HW2 1725   6.152   5.763   5.768
  276SOL     OW 1726   1.049   6.963   4.290
  276SOL    HW1 1727   1.067   7.007   4.202
  276SOL    HW2 1728   0.987   7.020   4.344
  277SOL     OW 1729   3.717   3.017   5.165
  277SOL    HW1 1730   3.757   2.972   5.085
  277SOL    HW2 1731   3.641   3.074   5.136
  278SOL     OW 1732   5.922   4.665   2.919
  278SOL    HW1 1733   5.887   4.633   2.831
  278SOL    HW2 1734   5.846   4.699   2.975
  279SOL     OW 1735   0.136   4.111   3.706
  279SOL    HW1 1736   0.073   4.166   3.761
  279SOL    HW2 1737   0.167   4.032   3.759
  280SOL     OW 1738   4.188   1.919   3.679
  280SOL    HW1 1739   4.165   1.823   3.696
  280SOL    HW2 1740   4.104   1.973   3.676
  281SOL     OW 1741   5.220   5.618   4.946
  281SOL    HW1 1742   5.250   5.525   4.926
  281SOL    HW2 1743   5.161   5.616   5.027
  282SOL     OW 1744   0.715   2.523   0.053
  282SOL    HW1 1745   0.647   2.449   0.058
  282SOL    HW2 1746   0.798   2.495   0.103
  283SOL     OW 1747   5.958   3.783   3.386
  283SOL    HW1 1748   6.038   3.727   3.361
  283SOL    HW2 1749   5.988   3.864   3.437
  284SOL     OW 1750   5.397   6.515   3.061
  284SOL    HW1 1751   5.303   6.483   3.053
  284SOL    HW2 1752   5.447   6.494   2.977
  285SOL     OW 1753   4.170   6.183   6.118
  285SOL    HW1 1754   4.185   6.092   6.157
  285SOL    HW2 1755   4.222   6.250   6.171
  286SOL     OW 1756   2.711   5.010   5.471
  286SOL    HW1 1757   2.757   5.095   5.497
  286SOL    HW2 1758   2.771   4.932   5.487
  287SOL     OW 1759   3.259   6.116   0.645
  287SOL    HW1 1760   3.165   6.101   0.674
  287SOL    HW2 1761   3.269   6.092   0.548
  288SOL     OW 1762   4.541   1.518   6.841
  288SOL    HW1 1763   4.493   1.442   6.883
  288SOL    HW2 1764   4.496   1.545   6.756
  289SOL     OW 1765   5.326   5.184   4.638
  289SOL    HW1 1766   5.260   5.135   4.580
  289SOL    HW2 1767   5.384   5.242   4.581
  290SOL     OW 1768   3.715   0.697   5.232
  290SOL    HW1 1769   3.643   0.738   5.177
  290SOL    HW2 1770   3.679   0.616   5.279
  291SOL     OW 1771   5.587   0.769   5.062
  291SOL    HW1 1772   5.642   0.850   5.045
  291SOL    HW2 1773   5.560   0.728   4.975
  292SOL     OW 1774   3.389   0.524   3.764
  292SOL    HW1 1775   3.290   0.528   3.767
  292SOL    HW2 1776   3.427   0.578   3.839
  293SOL     OW 1777   5.413   0.512   2.470
  293SOL    HW1 1778   5.341   0.573   2.438
  293SOL    HW2 1779   5.469   0.482   2.392
  294SOL     OW 1780   6.684   1.628   6.041
  294SOL    HW1 1781   6.646   1.719   6.051
  294SOL    HW2 1782   6.674   1.577   6.127
  295SOL     OW 1783   0.546   0.317   4.889
  295SOL    HW1 1784   0.508   0.322   4.981
  295SOL    HW2 1785   0.643   0.342   4.891
  296SOL     OW 1786   0.900   1.599   1.646
  296SOL    HW1 1787   0.917   1.624   1.551
  296SOL    HW2 1788   0.852   1.673   1.692
  297SOL     OW 1789   5.096   3.231   3.549
  297SOL    HW1 1790   5.174   3.286   3.521
  297SOL    HW2 1791   5.071   3.169   3.475
  298SOL     OW 1792   4.370   0.668   5.282
  298SOL    HW1 1793   4.392   0.662   5.379
  298SOL    HW2 1794   4.454   0.654   5.228
  299SOL     OW 1795   0.581   1.257   5.940
  299SOL    HW1 1796   0.544   1.165   5.948
  299SOL    HW2 1797   0.540   1.316   6.010
  300SOL     OW 1798   4.480   5.983   4.151
  300SOL    HW1 1799   4.551   6.030   4.205
  300SOL    HW2 1800   4.480   6.019   4.058
  301SOL     OW 1801   0.281   6.050   5.509
  301SOL    HW1 1802   0.306   6.081   5.601
  301SOL    HW2 1803   0.219   6.117   5.467
  302SOL     OW 1804   6.961   6.662   2.102
  302SOL    HW1 1805   7.012   6.675   2.017
  302SOL    HW2 1806   6.898   6.585   2.092
  303SOL     OW 1807   5.534   5.464   2.263
  303SOL    HW1 1808   5.526   5.530   2.337
  303SOL    HW2 1809   5.551   5.373   2.301
  304SOL     OW 1810   1.791   7.007   3.829
  304SOL    HW1 1811   1.788   6.941   3.904
  304SOL    HW2 1812   1.819   0.073   3.863
  305SOL     OW 1813   1.861   1.837   1.219
  305SOL    HW1 1814   1.876   1.925   1.174
  305SOL    HW2 1815   1.948   1.806   1.259
  306SOL     OW 1816   0.362   0.294   2.062
  306SOL    HW1 1817   0.413   0.380   2.057
  306SOL    HW2 1818   0.296   0.299   2.138
  307SOL     OW 1819   3.558   3.929   3.995
  307SOL    HW1 1820   3.642   3.878   3.976
  307SOL    HW2 1821   3.575   3.997   4.067
  308SOL     OW 1822   5.932   1.334   2.081
  308SOL    HW1 1823   5.833   1.348   2.084
  308SOL    HW2 1824   5.959   1.268   2.151
  309SOL     OW 1825   1.504   4.791   0.340
  309SOL    HW1 1826   1.550   4.704   0.323
  309SOL    HW2 1827   1.410   4.773   0.370
  310SOL     OW 1828   4.634   6.742   5.244
  310SOL    HW1 1829   4.652   6.665   5.304
  310SOL    HW2 1830   4.678   6.825   5.281
  311SOL     OW 1831   1.466   6.842   2.017
  311SOL    HW1 1832   1.448   6.940   2.010
  311SOL    HW2 1833   1.561   6.827   2.045
  312SOL     OW 1834   3.520   0.485   4.577
  312SOL    HW1 1835   3.611   0.487   4.536
  312SOL    HW2 1836   3.492   0.578   4.601
  313SOL     OW 1837   3.156   3.080   3.005
  313SOL    HW1 1838   3.183   3.176   3.010
  313SOL    HW2 1839   3.155   3.040   3.097
  314SOL     OW 1840   2.851   5.192   6.369
  314SOL    HW1 1841   2.784   5.219   6.439
  314SOL    HW2 1842   2.902   5.273   6.339
  315SOL     OW 1843   6.302   0.617   4.489
  315SOL    HW1 1844   6.232   0.572   4.545
  315SOL    HW2 1845   6.269   0.708   4.463
  316SOL     OW 1846   3.862   1.498   5.855
  316SOL    HW1 1847   3.951   1.543   5.854
  316SOL    HW2 1848   3.803   1.541   5.787
  317SOL     OW 1849   0.598   2.263   1.269
  317SOL    HW1 1850   0.608   2.214   1.356
  317SOL    HW2 1851   0.553   2.204   1.202
  318SOL     OW 1852   0.982   0.295   3.103
  318SOL    HW1 1853   0.944   0.293   3.196
  318SOL    HW2 1854   1.081   0.286   3.107
  319SOL     OW 1855   1.131   0.624   2.495
  319SOL    HW1 1856   1.046   0.656   2.454
  319SOL    HW2 1857   1.113   0.594   2.589
  320SOL     OW 1858   5.091   1.219   0.068
  320SOL    HW1 1859   5.106   1.201   6.994
  320SOL    HW2 1860   5.061   1.313   0.081
  321SOL     OW 1861   4.574   3.256   0.919
  321SOL    HW1 1862   4.477   3.231   0.922
  321SOL    HW2 1863   4.594   3.325   0.989
  322SOL     OW 1864   3.238   2.639   0.068
  322SOL    HW1 1865   3.196   2.626   0.157
  322SOL    HW2 1866   3.338   2.633   0.077
  323SOL     OW 1867   1.448   3.573   2.046
  323SOL    HW1 1868   1.358   3.529   2.052
  323SOL    HW2 1869   1.519   3.505   2.067
  324SOL     OW 1870   0.014   0.799   3.456
  324SOL    HW1 1871   0.098   0.756   3.423
  324SOL    HW2 1872   6.962   0.734   3.449
  325SOL     OW 1873   6.010   3.569   1.098
  325SOL    HW1 1874   6.073   3.517   1.155
  325SOL    HW2 1875   5.917   3.556   1.132
  326SOL     OW 1876   6.948   5.754   7.012
  326SOL    HW1 1877   6.857   5.790   6.990
  326SOL    HW2 1878   6.949   5.724   0.085
  327SOL     OW 1879   3.970   6.274   6.370
  327SOL    HW1 1880   4.059   6.299   6.409
  327SOL    HW2 1881   3.928   6.202   6.425
  328SOL     OW 1882   1.374   4.900   3.447
  328SOL    HW1 1883   1.373   4.810   3.489
  328SOL    HW2 1884   1.296   4.953   3.479
  329SOL     OW 1885   3.510   2.788   2.039
  329SOL    HW1 1886   3.411   2.803   2.029
  329SOL    HW2 1887   3.545   2.739   1.959
  330SOL     OW 1888   2.537   3.406   6.710
  330SOL    HW1 1889   2.504   3.455   6.791
  330SOL    HW2 1890   2.516   3.308   6.720
  331SOL     OW 1891   5.186   4.927   4.508
  331SOL    HW1 1892   5.146   4.960   4.593
  331SOL    HW2 1893   5.171   4.829   4.499
  332SOL     OW 1894   5.592   1.627   2.924
  332SOL    HW1 1895   5.601   1.724   2.900
  332SOL    HW2 1896   5.559   1.619   3.018
  333SOL     OW 1897   4.074   6.504   3.883
  333SOL    HW1 1898   4.042   6.591   3.847
  333SOL    HW2 1899   3.999   6.456   3.928
  334SOL     OW 1900   3.634   3.702   4.471
  334SOL    HW1 1901   3.572   3.769   4.512
  334SOL    HW2 1902   3.593   3.664   4.388
  335SOL     OW 1903   3.672   1.057   0.946
  335SOL    HW1 1904   3.574   1.073   0.943
  335SOL    HW2 1905   3.702   1.049   1.041
  336SOL     OW 1906   4.162   2.150   4.959
  336SOL    HW1 1907   4.077   2.121   5.005
  336SOL    HW2 1908   4.181   2.245   4.982
  337SOL     OW 1909   7.020   0.960   5.219
  337SOL    HW1 1910   7.003   0.905   5.300
  337SOL    HW2 1911   0.065   0.914   5.161
  338SOL     OW 1912   4.724   1.075   1.830
  338SOL    HW1 1913   4.802   1.104   1.774
  338SOL    HW2 1914   4.706   1.145   1.899
  339SOL     OW 1915   4.286   5.445   5.736
  339SOL    HW1 1916   4.327   5.448   5.645
  339SOL    HW2 1917   4.306   5.356   5.779
  340SOL     OW 1918   4.841   3.093   5.157
  340SOL    HW1 1919   4.908   3.082   5.085
  340SOL    HW2 1920   4.765   3.030   5.142
  341SOL     OW 1921   6.834   0.285   1.976
  341SOL    HW1 1922   6.778   0.343   1.916
  341SOL    HW2 1923   6.819   0.189   1.952
  342SOL     OW 1924   4.774   1.392   1.848
  342SOL    HW1 1925   4.867   1.422   1.870
  342SOL    HW2 1926   4.729   1.360   1.931
  343SOL     OW 1927   5.381   0.085   1.091
  343SOL    HW1 1928   5.418   0.175   1.112
  343SOL    HW2 1929   5.300   0.094   1.033
  344SOL     OW 1930   6.333   3.200   1.447
  344SOL    HW1 1931   6.292   3.209   1.538
  344SOL    HW2 1932   6.418   3.252   1.444
  345SOL     OW 1933   0.295   2.070   4.318
  345SOL    HW1 1934   0.233   2.148   4.330
  345SOL    HW2 1935   0.390   2.101   4.326
  346SOL     OW 1936   2.140   5.891   2.845
  346SOL    HW1 1937   2.083   5.969   2.819
  346SOL    HW2 1938   2.107   5.809   2.799
  347SOL     OW 1939   2.601   4.796   1.301
  347SOL    HW1 1940   2.543   4.776   1.223
  347SOL    HW2 1941   2.691   4.826   1.269
  348SOL     OW 1942   5.217   4.792   1.721
  348SOL    HW1 1943   5.147   4.811   1.790
  348SOL    HW2 1944   5.252   4.878   1.685
  349SOL     OW 1945   5.739   4.871   1.084
  349SOL    HW1 1946   5.773   4.880   0.990
  349SOL    HW2 1947   5.641   4.891   1.086
  350SOL     OW 1948   2.354   1.882   0.578
  350SOL    HW1 1949   2.389   1.964   0.534
  350SOL    HW2 1950   2.254   1.883   0.578
  351SOL     OW 1951   3.645   4.138   1.335
  351SOL    HW1 1952   3.697   4.194   1.271
  351SOL    HW2 1953   3.558   4.183   1.356
  352SOL     OW 1954   4.025   6.501   2.313
  352SOL    HW1 1955   4.020   6.402   2.324
  352SOL    HW2 1956   4.027   6.524   2.216
  353SOL     OW 1957   1.856   0.088   0.597
  353SOL    HW1 1958   1.805   0.012   0.637
  353SOL    HW2 1959   1.795   0.144   0.542
  354SOL     OW 1960   1.815   2.342   0.873
  354SOL    HW1 1961   1.762   2.306   0.796
  354SOL    HW2 1962   1.753   2.387   0.937
  355SOL     OW 1963   0.369   2.908   3.370
  355SOL    HW1 1964   0.306   2.837   3.337
  355SOL    HW2 1965   0.458   2.896   3.326
  356SOL     OW 1966   2.909   1.013   5.437
  356SOL    HW1 1967   2.811   1.026   5.419
  356SOL    HW2 1968   2.962   1.076   5.379
  357SOL     OW 1969   5.799   6.201   4.096
  357SOL    HW1 1970   5.793   6.298   4.073
  357SOL    HW2 1971   5.824   6.191   4.193
  358SOL     OW 1972   3.206   6.000   6.861
  358SOL    HW1 1973   3.123   6.019   6.809
  358SOL    HW2 1974   3.209   6.057   6.943
  359SOL     OW 1975   1.331   2.016   2.075
  359SOL    HW1 1976   1.261   1.947   2.055
  359SOL    HW2 1977   1.410   2.002   2.014
  360SOL     OW 1978   2.097   3.692   3.323
  360SOL    HW1 1979   2.050   3.657   3.404
  360SOL    HW2 1980   2.140   3.780   3.344
  361SOL     OW 1981   0.124   1.742   2.286
  361SOL    HW1 1982   0.058   1.792   2.343
  361SOL    HW2 1983   0.202   1.715   2.343
  362SOL     OW 1984   4.031   3.835   2.564
  362SOL    HW1 1985   4.014   3.870   2.657
  362SOL    HW2 1986   3.959   3.867   2.503
  363SOL     OW 1987   4.524   5.409   0.697
  363SOL    HW1 1988   4.518   5.473   0.621
  363SOL    HW2 1989   4.620   5.395   0.722
  364SOL     OW 1990   1.049   0.594   0.302
  364SOL    HW1 1991   1.098   0.549   0.377
  364SOL    HW2 1992   1.090   0.565   0.215
  365SOL     OW 1993   6.020   0.668   4.050
  365SOL    HW1 1994   5.982   0.732   4.117
  365SOL    HW2 1995   6.119   0.685   4.041
  366SOL     OW 1996   4.931   1.669   7.009
  366SOL    HW1 1997   4.875   1.586   7.006
  366SOL    HW2 1998   4.873   1.748   0.006
  367SOL     OW 1999   5.401   0.964   6.938
  367SOL    HW1 2000   5.440   0.918   6.858
  367SOL    HW2 2001   5.412   1.063   6.929
  368SOL     OW 2002   2.461   1.902   6.400
  368SOL    HW1 2003   2.390   1.945   6.456
  368SOL    HW2 2004   2.519   1.973   6.361
  369SOL     OW 2005   5.539   4.677   0.267
  369SOL    HW1 2006   5.602   4.742   0.310
  369SOL    HW2 2007   5.488   4.723   0.195
  370SOL     OW 2008   2.378   2.464   3.374
  370SOL    HW1 2009   2.388   2.494   3.468
  370SOL    HW2 2010   2.351   2.541   3.316
  371SOL     OW 2011   2.123   5.743   0.242
  371SOL    HW1 2012   2.083   5.776   0.328
  371SOL    HW2 2013   2.054   5.693   0.190
  372SOL     OW 2014   2.308   5.740   6.024
  372SOL    HW1 2015   2.307   5.745   6.124
  372SOL    HW2 2016   2.214   5.741   5.989
  373SOL     OW 2017   6.282   4.591   3.109
  373SOL    HW1 2018   6.359   4.639   3.151
  373SOL    HW2 2019   6.276   4.499   3.148
  374SOL     OW 2020   2.799   2.280   2.363
  374SOL    HW1 2021   2.748   2.195   2.347
  374SOL    HW2 2022   2.846   2.306   2.278
  375SOL     OW 2023   0.831   5.910   4.353
  375SOL    HW1 2024   0.838   5.937   4.449
  375SOL    HW2 2025   0.816   5.991   4.297
  376SOL     OW 2026   4.506   0.224   3.584
  376SOL    HW1 2027   4.493   0.146   3.645
  376SOL    HW2 2028   4.481   0.309   3.632
  377SOL     OW 2029   2.748   2.446   6.572
  377SOL    HW1 2030   2.714   2.470   6.481
  377SOL    HW2 2031   2.776   2.529   6.620
  378SOL     OW 2032   4.014   1.254   2.227
  378SOL    HW1 2033   3.933   1.235   2.283
  378SOL    HW2 2034   3.994   1.236   2.131
  379SOL     OW 2035   3.860   2.961   6.630
  379SOL    HW1 2036   3.886   3.051   6.664
  379SOL    HW2 2037   3.911   2.942   6.546
  380SOL     OW 2038   4.651   2.111   0.574
  380SOL    HW1 2039   4.716   2.153   0.637
  380SOL    HW2 2040   4.693   2.031   0.531
  381SOL     OW 2041   2.070   4.430   2.924
  381SOL    HW1 2042   1.992   4.396   2.871
  381SOL    HW2 2043   2.138   4.357   2.933
  382SOL     OW 2044   6.273   6.797   0.519
  382SOL    HW1 2045   6.274   6.892   0.488
  382SOL    HW2 2046   6.183   6.776   0.557
  383SOL     OW 2047   4.399   3.677   0.322
  383SOL    HW1 2048   4.475   3.611   0.328
  383SOL    HW2 2049   4.394   3.730   0.406
  384SOL     OW 2050   0.558   3.264   5.341
  384SOL    HW1 2051   0.588   3.207   5.265
  384SOL    HW2 2052   0.609   3.240   5.423
  385SOL     OW 2053   4.605   2.360   0.128
  385SOL    HW1 2054   4.557   2.306   0.197
  385SOL    HW2 2055   4.703   2.359   0.147
  386SOL     OW 2056   4.320   6.463   5.090
  386SOL    HW1 2057   4.293   6.479   5.185
  386SOL    HW2 2058   4.246   6.492   5.029
  387SOL     OW 2059   2.964   5.874   4.637
  387SOL    HW1 2060   2.928   5.964   4.612
  387SOL    HW2 2061   3.028   5.843   4.566
  388SOL     OW 2062   1.314   5.197   5.806
  388SOL    HW1 2063   1.220   5.225   5.784
  388SOL    HW2 2064   1.355   5.263   5.869
  389SOL     OW 2065   2.935   3.538   1.512
  389SOL    HW1 2066   2.941   3.614   1.449
  389SOL    HW2 2067   2.872   3.561   1.586
  390SOL     OW 2068   2.716   0.946   4.793
  390SOL    HW1 2069   2.720   0.885   4.872
  390SOL    HW2 2070   2.725   0.893   4.709
  391SOL     OW 2071   1.675   2.142   6.897
  391SOL    HW1 2072   1.731   2.209   6.848
  391SOL    HW2 2073   1.619   2.190   6.965
  392SOL     OW 2074   3.312   5.404   4.884
  392SOL    HW1 2075   3.333   5.389   4.981
  392SOL    HW2 2076   3.220   5.373   4.865
  393SOL     OW 2077   6.239   4.408   5.471
  393SOL    HW1 2078   6.263   4.314   5.445
  393SOL    HW2 2079   6.276   4.427   5.563
  394SOL     OW 2080   2.162   1.264   6.255
  394SOL    HW1 2081   2.095   1.201   6.217
  394SOL    HW2 2082   2.247   1.215   6.276
  395SOL     OW 2083   6.766   2.993   0.714
  395SOL    HW1 2084   6.729   2.991   0.807
  395SOL    HW2 2085   6.865   2.980   0.717
  396SOL     OW 2086   3.372   3.109   5.306
  396SOL    HW1 2087   3.273   3.091   5.300
  396SOL    HW2 2088   3.391   3.158   5.391
  397SOL     OW 2089   4.337   1.566   6.646
  397SOL    HW1 2090   4.262   1.507   6.676
  397SOL    HW2 2091   4.397   1.514   6.584
  398SOL     OW 2092   0.492   4.311   2.356
  398SOL    HW1 2093   0.480   4.220   2.316
  398SOL    HW2 2094   0.529   4.302   2.448
  399SOL     OW 2095   4.843   4.804   2.118
  399SOL    HW1 2096   4.754   4.768   2.092
  399SOL    HW2 2097   4.856   4.795   2.216
  400SOL     OW 2098   2.231   4.641   4.396
  400SOL    HW1 2099   2.304   4.692   4.442
  400SOL    HW2 2100   2.170   4.600   4.464
  401SOL     OW 2101   5.933   1.533   0.628
  401SOL    HW1 2102   6.021   1.562   0.666
  401SOL    HW2 2103   5.882   1.482   0.696
  402SOL     OW 2104   6.970   4.442   0.860
  402SOL    HW1 2105   6.921   4.528   0.875
  402SOL    HW2 2106   6.971   4.422   0.762
  403SOL     OW 2107   4.722   4.762   0.730
  403SOL    HW1 2108   4.751   4.825   0.658
  403SOL    HW2 2109   4.789   4.764   0.804
  404SOL     OW 2110   0.423   6.255   4.617
  404SOL    HW1 2111   0.475   6.189   4.562
  404SOL    HW2 2112   0.346   6.290   4.564
  405SOL     OW 2113   0.929   2.436   1.240
  405SOL    HW1 2114   0.905   2.533   1.229
  405SOL    HW2 2115   1.028   2.425   1.228
  406SOL     OW 2116   1.272   2.637   3.540
  406SOL    HW1 2117   1.335   2.638   3.618
  406SOL    HW2 2118   1.324   2.633   3.455
  407SOL     OW 2119   3.393   1.996   4.318
  407SOL    HW1 2120   3.485   2.031   4.331
  407SOL    HW2 2121   3.352   1.974   4.406
  408SOL     OW 2122   2.662   0.810   4.142
  408SOL    HW1 2123   2.626   0.845   4.056
  408SOL    HW2 2124   2.710   0.723   4.124
  409SOL     OW 2125   6.905   3.648   4.114
  409SOL    HW1 2126   6.969   3.703   4.167
  409SOL    HW2 2127   6.814   3.652   4.156
  410SOL     OW 2128   2.895   6.969   6.223
  410SOL    HW1 2129   2.963   6.952   6.295
  410SOL    HW2 2130   2.941   6.970   6.134
  411SOL     OW 2131   0.457   3.471   4.912
  411SOL    HW1 2132   0.411   3.547   4.867
  411SOL    HW2 2133   0.533   3.506   4.967
  412SOL     OW 2134   4.579   0.250   2.333
  412SOL    HW1 2135   4.673   0.281   2.316
  412SOL    HW2 2136   4.518   0.329   2.339
  413SOL     OW 2137   2.164   0.420   2.531
  413SOL    HW1 2138   2.099   0.428   2.607
  413SOL    HW2 2139   2.248   0.378   2.564
  414SOL     OW 2140   4.722   4.467   1.030
  414SOL    HW1 2141   4.748   4.474   0.933
  414SOL    HW2 2142   4.694   4.557   1.063
  415SOL     OW 2143   3.955   6.827   2.517
  415SOL    HW1 2144   4.044   6.793   2.489
  415SOL    HW2 2145   3.918   6.887   2.446
  416SOL     OW 2146   3.448   5.489   0.382
  416SOL    HW1 2147   3.449   5.404   0.435
  416SOL    HW2 2148   3.473   5.469   0.287
  417SOL     OW 2149   4.890   4.884   1.707
  417SOL    HW1 2150   4.830   4.947   1.658
  417SOL    HW2 2151   4.917   4.924   1.794
  418SOL     OW 2152   6.494   5.145   6.653
  418SOL    HW1 2153   6.554   5.186   6.584
  418SOL    HW2 2154   6.533   5.160   6.744
  419SOL     OW 2155   5.597   5.891   0.690
  419SOL    HW1 2156   5.543   5.876   0.773
  419SOL    HW2 2157   5.540   5.935   0.621
  420SOL     OW 2158   5.080   4.069   6.896
  420SOL    HW1 2159   5.071   4.008   6.818
  420SOL    HW2 2160   5.177   4.093   6.908
  421SOL     OW 2161   1.355   6.625   6.574
  421SOL    HW1 2162   1.368   6.668   6.663
  421SOL    HW2 2163   1.304   6.540   6.585
  422SOL     OW 2164   5.716   4.399   6.685
  422SOL    HW1 2165   5.746   4.495   6.687
  422SOL    HW2 2166   5.706   4.366   6.779
  423SOL     OW 2167   1.204   3.427   5.942
  423SOL    HW1 2168   1.205   3.397   5.846
  423SOL    HW2 2169   1.214   3.348   6.002
  424SOL     OW 2170   2.030   4.006   0.181
  424SOL    HW1 2171   2.075   4.089   0.213
  424SOL    HW2 2172   2.041   3.998   0.082
  425SOL     OW 2173   2.988   6.854   0.146
  425SOL    HW1 2174   3.050   6.822   0.218
  425SOL    HW2 2175   2.911   6.791   0.137
  426SOL     OW 2176   6.585   3.943   6.066
  426SOL    HW1 2177   6.564   3.924   6.162
  426SOL    HW2 2178   6.501   3.942   6.013
  427SOL     OW 2179   4.651   3.094   0.667
  427SOL    HW1 2180   4.742   3.077   0.628
  427SOL    HW2 2181   4.656   3.169   0.732
  428SOL     OW 2182   3.410   1.704   6.031
  428SOL    HW1 2183   3.496   1.684   6.078
  428SOL    HW2 2184   3.408   1.655   5.944
  429SOL     OW 2185   2.878   6.563   0.743
  429SOL    HW1 2186   2.916   6.625   0.811
  429SOL    HW2 2187   2.887   6.603   0.652
  430SOL     OW 2188   2.672   0.117   4.218
  430SOL    HW1 2189   2.722   0.118   4.305
  430SOL    HW2 2190   2.715   0.182   4.155
  431SOL     OW 2191   3.433   1.700   6.736
  431SOL    HW1 2192   3.532   1.711   6.742
  431SOL    HW2 2193   3.412   1.606   6.708
  432SOL     OW 2194   6.844   1.556   1.037
  432SOL    HW1 2195   6.882   1.511   1.118
  432SOL    HW2 2196   6.759   1.509   1.010
  433SOL     OW 2197   2.799   5.701   4.837
  433SOL    HW1 2198   2.858   5.760   4.782
  433SOL    HW2 2199   2.854   5.651   4.903
  434SOL     OW 2200   6.013   3.287   1.390
  434SOL    HW1 2201   6.064   3.292   1.476
  434SOL    HW2 2202   6.056   3.346   1.322
  435SOL     OW 2203   3.654   3.193   0.932
  435SOL    HW1 2204   3.665   3.291   0.914
  435SOL    HW2 2205   3.731   3.161   0.986
  436SOL     OW 2206   2.816   0.623   0.515
  436SOL    HW1 2207   2.815   0.645   0.613
  436SOL    HW2 2208   2.726   0.643   0.476
  437SOL     OW 2209   6.438   0.438   5.305
  437SOL    HW1 2210   6.479   0.349   5.322
  437SOL    HW2 2211   6.342   0.437   5.334
  438SOL     OW 2212   1.919   3.389   1.409
  438SOL    HW1 2213   2.009   3.346   1.405
  438SOL    HW2 2214   1.900   3.435   1.323
  439SOL     OW 2215   6.192   4.204   1.841
  439SOL    HW1 2216   6.174   4.231   1.936
  439SOL    HW2 2217   6.235   4.114   1.840
  440SOL     OW 2218   1.585   3.328   2.947
  440SOL    HW1 2219   1.567   3.420   2.981
  440SOL    HW2 2220   1.603   3.266   3.024
  441SOL     OW 2221   0.815   0.637   3.505
  441SOL    HW1 2222   0.795   0.580   3.425
  441SOL    HW2 2223   0.807   0.734   3.479
  442SOL     OW 2224   0.022   4.650   6.543
  442SOL    HW1 2225   6.955   4.659   6.501
  442SOL    HW2 2226   0.023   4.697   6.631
  443SOL     OW 2227   0.757   4.114   5.273
  443SOL    HW1 2228   0.736   4.088   5.367
  443SOL    HW2 2229   0.743   4.213   5.262
  444SOL     OW 2230   4.989   2.992   6.847
  444SOL    HW1 2231   4.943   3.079   6.829
  444SOL    HW2 2232   5.084   3.010   6.875
  445SOL     OW 2233   1.734   4.656   3.265
  445SOL    HW1 2234   1.824   4.627   3.233
  445SOL    HW2 2235   1.736   4.670   3.364
  446SOL     OW 2236   3.150   4.838   4.212
  446SOL    HW1 2237   3.162   4.918   4.271
  446SOL    HW2 2238   3.208   4.763   4.245
  447SOL     OW 2239   0.113   5.792   0.256
  447SOL    HW1 2240   0.131   5.793   0.157
  447SOL    HW2 2241   0.015   5.777   0.271
  448SOL     OW 2242   4.536   0.813   6.155
  448SOL    HW1 2243   4.479   0.895   6.140
  448SOL    HW2 2244   4.504   0.739   6.097
  449SOL     OW 2245   5.532   6.932   4.324
  449SOL    HW1 2246   5.524   6.833   4.319
  449SOL    HW2 2247   5.497   6.964   4.412
  450SOL     OW 2248   6.623   6.111   3.543
  450SOL    HW1 2249   6.646   6.146   3.634
  450SOL    HW2 2250   6.547   6.047   3.550
  451SOL     OW 2251   6.198   2.432   3.421
  451SOL    HW1 2252   6.244   2.502   3.475
  451SOL    HW2 2253   6.132   2.384   3.479
  452SOL     OW 2254   6.659   5.276   6.395
  452SOL    HW1 2255   6.717   5.198   6.375
  452SOL    HW2 2256   6.621   5.313   6.310
  453SOL     OW 2257   3.086   1.307   5.637
  453SOL    HW1 2258   3.150   1.261   5.699
  453SOL    HW2 2259   3.017   1.355   5.690
  454SOL     OW 2260   0.935   6.160   0.615
  454SOL    HW1 2261   0.956   6.138   0.710
  454SOL    HW2 2262   0.958   6.082   0.556
  455SOL     OW 2263   4.965   0.723   5.013
  455SOL    HW1 2264   4.958   0.711   4.914
  455SOL    HW2 2265   4.928   0.813   5.038
  456SOL     OW 2266   4.506   5.457   6.940
  456SOL    HW1 2267   4.462   5.372   6.913
  456SOL    HW2 2268   4.570   5.486   6.869
  457SOL     OW 2269   0.671   4.332   1.893
  457SOL    HW1 2270   0.740   4.259   1.902
  457SOL    HW2 2271   0.682   4.376   1.804
  458SOL     OW 2272   6.878   6.455   5.469
  458SOL    HW1 2273   6.806   6.501   5.521
  458SOL    HW2 2274   6.951   6.521   5.448
  459SOL     OW 2275   1.822   0.747   3.761
  459SOL    HW1 2276   1.725   0.733   3.738
  459SOL    HW2 2277   1.833   0.835   3.807
  460SOL     OW 2278   6.665   1.750   3.933
  460SOL    HW1 2279   6.660   1.819   3.861
  460SOL    HW2 2280   6.611   1.670   3.906
  461SOL     OW 2281   4.941   5.706   5.381
  461SOL    HW1 2282   4.910   5.657   5.462
  461SOL    HW2 2283   5.011   5.773   5.406
  462SOL     OW 2284   3.034   2.426   6.777
  462SOL    HW1 2285   2.956   2.388   6.827
  462SOL    HW2 2286   3.093   2.352   6.746
  463SOL     OW 2287   0.164   6.095   1.827
  463SOL    HW1 2288   0.106   6.075   1.906
  463SOL    HW2 2289   0.107   6.111   1.747
  464SOL     OW 2290   2.134   1.616   5.774
  464SOL    HW1 2291   2.185   1.634   5.858
  464SOL    HW2 2292   2.110   1.703   5.731
  465SOL     OW 2293   0.010   3.286   5.342
  465SOL    HW1 2294   6.998   3.359   5.400
  465SOL    HW2 2295   0.094   3.250   5.381
  466SOL     OW 2296   2.878   0.435   3.325
  466SOL    HW1 2297   2.834   0.408   3.411
  466SOL    HW2 2298   2.816   0.420   3.249
  467SOL     OW 2299   1.653   1.616   5.147
  467SOL    HW1 2300   1.621   1.668   5.225
  467SOL    HW2 2301   1.620   1.522   5.153
  468SOL     OW 2302   3.339   4.028   2.098
  468SOL    HW1 2303   3.391   4.106   2.132
  468SOL    HW2 2304   3.253   4.020   2.147
  469SOL     OW 2305   2.923   5.288   0.205
  469SOL    HW1 2306   2.987   5.268   0.279
  469SOL    HW2 2307   2.973   5.298   0.119
  470SOL     OW 2308   4.098   0.230   3.019
  470SOL    HW1 2309   4.133   0.211   3.111
  470SOL    HW2 2310   4.160   0.294   2.973
  471SOL     OW 2311   2.823   1.942   4.683
  471SOL    HW1 2312   2.787   1.849   4.673
  471SOL    HW2 2313   2.747   2.006   4.690
  472SOL     OW 2314   4.027   4.359   5.323
  472SOL    HW1 2315   3.951   4.418   5.297
  472SOL    HW2 2316   4.077   4.331   5.241
  473SOL     OW 2317   1.141   3.812   3.996
  473SOL    HW1 2318   1.125   3.743   4.066
  473SOL    HW2 2319   1.218   3.869   4.022
  474SOL     OW 2320   4.680   4.673   5.017
  474SOL    HW1 2321   4.683   4.752   4.956
  474SOL    HW2 2322   4.771   4.653   5.051
  475SOL     OW 2323   1.337   0.004   6.756
  475SOL    HW1 2324   1.268   0.040   6.693
  475SOL    HW2 2325   1.413   0.069   6.763
  476SOL     OW 2326   0.512   5.299   1.922
  476SOL    HW1 2327   0.435   5.363   1.931
  476SOL    HW2 2328   0.531   5.257   2.010
  477SOL     OW 2329   1.908   5.276   3.842
  477SOL    HW1 2330   1.929   5.227   3.927
  477SOL    HW2 2331   1.893   5.372   3.862
  478SOL     OW 2332   1.551   5.203   3.048
  478SOL    HW1 2333   1.595   5.258   2.977
  478SOL    HW2 2334   1.588   5.110   3.047
  479SOL     OW 2335   3.376   1.427   1.424
  479SOL    HW1 2336   3.303   1.398   1.363
  479SOL    HW2 2337   3.339   1.444   1.515
  480SOL     OW 2338   1.526   6.296   2.560
  480SOL    HW1 2339   1.506   6.367   2.627
  480SOL    HW2 2340   1.468   6.216   2.578
  481SOL     OW 2341   2.719   6.588   1.541
  481SOL    HW1 2342   2.706   6.605   1.638
  481SOL    HW2 2343   2.697   6.493   1.520
  482SOL     OW 2344   5.418   5.341   1.133
  482SOL    HW1 2345   5.359   5.372   1.208
  482SOL    HW2 2346   5.414   5.242   1.126
  483SOL     OW 2347   5.632   1.686   1.156
  483SOL    HW1 2348   5.697   1.657   1.226
  483SOL    HW2 2349   5.680   1.697   1.069
  484SOL     OW 2350   6.797   2.839   4.867
  484SOL    HW1 2351   6.854   2.759   4.888
  484SOL    HW2 2352   6.712   2.809   4.824
  485SOL     OW 2353   3.891   5.897   2.343
  485SOL    HW1 2354   3.982   5.889   2.304
  485SOL    HW2 2355   3.887   5.848   2.430
  486SOL     OW 2356   0.274   0.069   6.368
  486SOL    HW1 2357   0.223   0.004   6.424
  486SOL    HW2 2358   0.359   0.094   6.414
  487SOL     OW 2359   6.503   3.011   6.502
  487SOL    HW1 2360   6.540   3.095   6.540
  487SOL    HW2 2361   6.510   2.938   6.569
  488SOL     OW 2362   0.664   3.364   2.219
  488SOL    HW1 2363   0.659   3.444   2.158
  488SOL    HW2 2364   0.758   3.349   2.247
  489SOL     OW 2365   3.321   6.124   6.045
  489SOL    HW1 2366   3.305   6.188   5.971
  489SOL    HW2 2367   3.369   6.043   6.009
  490SOL     OW 2368   5.433   5.935   4.302
  490SOL    HW1 2369   5.462   5.851   4.257
  490SOL    HW2 2370   5.342   5.922   4.341
  491SOL     OW 2371   0.255   2.078   3.328
  491SOL    HW1 2372   0.305   1.996   3.298
  491SOL    HW2 2373   0.307   2.124   3.400
  492SOL     OW 2374   2.067   1.125   4.889
  492SOL    HW1 2375   2.147   1.122   4.828
  492SOL    HW2 2376   1.984   1.107   4.836
  493SOL     OW 2377   6.022   3.926   4.178
  493SOL    HW1 2378   6.110   3.896   4.142
  493SOL    HW2 2379   6.023   4.025   4.190
  494SOL     OW 2380   6.226   1.842   0.064
  494SOL    HW1 2381   6.130   1.857   0.039
  494SOL    HW2 2382   6.283   1.849   7.005
  495SOL     OW 2383   4.418   4.676   0.953
  495SOL    HW1 2384   4.323   4.700   0.973
  495SOL    HW2 2385   4.427   4.653   0.856
  496SOL     OW 2386   6.098   2.648   2.830
  496SOL    HW1 2387   6.117   2.729   2.775
  496SOL    HW2 2388   6.032   2.590   2.783
  497SOL     OW 2389   3.934   0.038   4.486
  497SOL    HW1 2390   3.996   0.035   4.408
  497SOL    HW2 2391   3.985   0.018   4.569
  498SOL     OW 2392   1.099   3.168   2.631
  498SOL    HW1 2393   1.158   3.209   2.561
  498SOL    HW2 2394   1.063   3.240   2.691
  499SOL     OW 2395   3.452   1.435   5.369
  499SOL    HW1 2396   3.405   1.520   5.390
  499SOL    HW2 2397   3.504   1.446   5.285
  500SOL     OW 2398   1.268   4.182   2.285
  500SOL    HW1 2399   1.353   4.139   2.254
  500SOL    HW2 2400   1.279   4.212   2.380
  501SOL     OW 2401   1.446   5.436   0.081
  501SOL    HW1 2402   1.461   5.337   0.075
  501SOL    HW2 2403   1.397   5.457   0.165
  502SOL     OW 2404   3.476   5.407   6.276
  502SOL    HW1 2405   3.468   5.308   6.276
  502SOL    HW2 2406   3.545   5.435   6.209
  503SOL     OW 2407   5.726   5.864   5.328
  503SOL    HW1 2408   5.758   5.832   5.239
  503SOL    HW2 2409   5.795   5.925   5.368
  504SOL     OW 2410   2.203   5.399   4.540
  504SOL    HW1 2411   2.235   5.305   4.554
  504SOL    HW2 2412   2.117   5.397   4.488
  505SOL     OW 2413   3.918   6.947   5.079
  505SOL    HW1 2414   3.904   6.895   4.994
  505SOL    HW2 2415   3.907   6.887   5.158
  506SOL     OW 2416   2.317   3.906   0.015
  506SOL    HW1 2417   2.248   3.944   6.976
  506SOL    HW2 2418   2.372   3.838   6.988
  507SOL     OW 2419   3.725   1.892   4.135
  507SOL    HW1 2420   3.687   1.811   4.090
  507SOL    HW2 2421   3.709   1.886   4.234
  508SOL     OW 2422   6.272   3.909   4.003
  508SOL    HW1 2423   6.316   3.895   3.915
  508SOL    HW2 2424   6.333   3.961   4.064
  509SOL     OW 2425   4.615   2.585   1.357
  509SOL    HW1 2426   4.635   2.622   1.266
  509SOL    HW2 2427   4.539   2.636   1.397
  510SOL     OW 2428   0.781   3.522   4.456
  510SOL    HW1 2429   0.738   3.541   4.544
  510SOL    HW2 2430   0.783   3.424   4.440
  511SOL     OW 2431   0.392   6.516   1.310
  511SOL    HW1 2432   0.387   6.442   1.243
  511SOL    HW2 2433   0.487   6.526   1.341
  512SOL     OW 2434   0.902   3.783   6.586
  512SOL    HW1 2435   0.970   3.777   6.513
  512SOL    HW2 2436   0.935   3.735   6.667
  513SOL     OW 2437   0.347   5.140   4.418
  513SOL    HW1 2438   0.443   5.113   4.422
  513SOL    HW2 2439   0.311   5.121   4.327
  514SOL     OW 2440   6.260   1.760   3.258
  514SOL    HW1 2441   6.340   1.720   3.212
  514SOL    HW2 2442   6.182   1.760   3.196
  515SOL     OW 2443   2.011   5.945   0.072
  515SOL    HW1 2444   2.055   5.908   7.013
  515SOL    HW2 2445   2.039   5.892   0.152
  516SOL     OW 2446   1.023   5.495   2.464
  516SOL    HW1 2447   1.061   5.533   2.379
  516SOL    HW2 2448   0.984   5.405   2.446
  517SOL     OW 2449   4.862   0.513   6.684
  517SOL    HW1 2450   4.769   0.503   6.651
  517SOL    HW2 2451   4.921   0.542   6.609
  518SOL     OW 2452   2.817   1.794   0.686
  518SOL    HW1 2453   2.842   1.798   0.782
  518SOL    HW2 2454   2.764   1.710   0.669
  519SOL     OW 2455   0.636   0.075   0.914
  519SOL    HW1 2456   0.713   0.035   0.963
  519SOL    HW2 2457   0.661   0.090   0.818
  520SOL     OW 2458   6.785   4.276   4.477
  520SOL    HW1 2459   6.798   4.191   4.528
  520SOL    HW2 2460   6.867   4.293   4.421
  521SOL     OW 2461   6.259   0.458   1.075
  521SOL    HW1 2462   6.244   0.364   1.045
  521SOL    HW2 2463   6.291   0.458   1.170
  522SOL     OW 2464   3.354   3.782   5.708
  522SOL    HW1 2465   3.442   3.820   5.736
  522SOL    HW2 2466   3.324   3.714   5.775
  523SOL     OW 2467   6.685   6.703   4.876
  523SOL    HW1 2468   6.614   6.677   4.942
  523SOL    HW2 2469   6.646   6.766   4.808
  524SOL     OW 2470   4.525   1.816   6.170
  524SOL    HW1 2471   4.460   1.852   6.103
  524SOL    HW2 2472   4.504   1.721   6.190
  525SOL     OW 2473   2.827   2.923   6.904
  525SOL    HW1 2474   2.898   2.974   6.856
  525SOL    HW2 2475   2.867   2.844   6.951
  526SOL     OW 2476   4.181   5.584   4.664
  526SOL    HW1 2477   4.279   5.571   4.684
  526SOL    HW2 2478   4.129   5.572   4.748
  527SOL     OW 2479   1.053   2.041   0.193
  527SOL    HW1 2480   0.962   2.065   0.227
  527SOL    HW2 2481   1.067   1.942   0.202
  528SOL     OW 2482   2.228   0.877   5.674
  528SOL    HW1 2483   2.210   0.779   5.678
  528SOL    HW2 2484   2.323   0.895   5.700
  529SOL     OW 2485   6.848   4.239   4.186
  529SOL    HW1 2486   6.773   4.288   4.143
  529SOL    HW2 2487   6.905   4.303   4.238
  530SOL     OW 2488   0.863   2.143   5.217
  530SOL    HW1 2489   0.961   2.132   5.205
  530SOL    HW2 2490   0.815   2.072   5.166
  531SOL     OW 2491   0.183   0.882   0.426
  531SOL    HW1 2492   0.207   0.955   0.361
  531SOL    HW2 2493   0.192   0.793   0.381
  532SOL     OW 2494   1.791   0.191   5.810
  532SOL    HW1 2495   1.782   0.203   5.909
  532SOL    HW2 2496   1.885   0.208   5.783
  533SOL     OW 2497   5.155   0.162   4.908
  533SOL    HW1 2498   5.205   0.204   4.832
  533SOL    HW2 2499   5.218   0.107   4.962
  534SOL     OW 2500   3.421   5.296   2.579
  534SOL    HW1 2501   3.410   5.229   2.505
  534SOL    HW2 2502   3.356   5.371   2.565
  535SOL     OW 2503   6.205   4.345   2.706
  535SOL    HW1 2504   6.230   4.407   2.780
  535SOL    HW2 2505   6.249   4.374   2.621
  536SOL     OW 2506   0.818   6.281   0.946
  536SOL    HW1 2507   0.808   6.290   1.045
  536SOL    HW2 2508   0.914   6.267   0.922
  537SOL     OW 2509   2.196   0.538   3.476
  537SOL    HW1 2510   2.104   0.499   3.483
  537SOL    HW2 2511   2.239   0.506   3.392
  538SOL     OW 2512   1.213   4.736   4.030
  538SOL    HW1 2513   1.268   4.775   4.104
  538SOL    HW2 2514   1.230   4.786   3.945
  539SOL     OW 2515   1.023   5.423   1.467
  539SOL    HW1 2516   0.990   5.484   1.395
  539SOL    HW2 2517   0.963   5.343   1.472
  540SOL     OW 2518   1.300   2.602   1.581
  540SOL    HW1 2519   1.287   2.583   1.484
  540SOL    HW2 2520   1.264   2.526   1.635
  541SOL     OW 2521   3.718   4.801   5.252
  541SOL    HW1 2522   3.622   4.774   5.263
  541SOL    HW2 2523   3.725   4.869   5.179
  542SOL     OW 2524   5.815   6.347   6.711
  542SOL    HW1 2525   5.730   6.320   6.666
  542SOL    HW2 2526   5.795   6.384   6.802
  543SOL     OW 2527   6.592   5.990   0.638
  543SOL    HW1 2528   6.526   5.982   0.563
  543SOL    HW2 2529   6.542   5.991   0.725
  544SOL     OW 2530   0.997   5.957   0.449
  544SOL    HW1 2531   0.928   5.984   0.383
  544SOL    HW2 2532   0.966   5.877   0.500
  545SOL     OW 2533   3.376   1.860   3.957
  545SOL    HW1 2534   3.413   1.889   3.869
  545SOL    HW2 2535   3.410   1.921   4.029
  546SOL     OW 2536   1.792   3.212   0.232
  546SOL    HW1 2537   1.855   3.152   0.183
  546SOL    HW2 2538   1.721   3.244   0.170
  547SOL     OW 2539   2.662   2.525   0.044
  547SOL    HW1 2540   2.679   2.449   7.004
  547SOL    HW2 2541   2.589   2.500   0.107
  548SOL     OW 2542   3.074   3.053   5.221
  548SOL    HW1 2543   2.996   3.013   5.268
  548SOL    HW2 2544   3.122   2.982   5.170
  549SOL     OW 2545   0.857   4.026   1.319
  549SOL    HW1 2546   0.934   4.003   1.379
  549SOL    HW2 2547   0.857   3.964   1.240
  550SOL     OW 2548   6.769   3.386   1.315
  550SOL    HW1 2549   6.701   3.390   1.242
  550SOL    HW2 2550   6.859   3.363   1.277
  551SOL     OW 2551   0.299   1.570   6.865
  551SOL    HW1 2552   0.313   1.660   6.905
  551SOL    HW2 2553   0.211   1.569   6.816
  552SOL     OW 2554   4.773   4.924   0.507
  552SOL    HW1 2555   4.846   4.857   0.494
  552SOL    HW2 2556   4.687   4.887   0.473
  553SOL     OW 2557   1.339   2.133   1.241
  553SOL    HW1 2558   1.359   2.155   1.337
  553SOL    HW2 2559   1.251   2.086   1.236
  554SOL     OW 2560   4.898   5.332   4.660
  554SOL    HW1 2561   4.995   5.356   4.658
  554SOL    HW2 2562   4.850   5.384   4.590
  555SOL     OW 2563   1.733   4.176   4.980
  555SOL    HW1 2564   1.677   4.147   4.903
  555SOL    HW2 2565   1.808   4.111   4.994
  556SOL     OW 2566   5.924   3.348   2.561
  556SOL    HW1 2567   5.878   3.263   2.585
  556SOL    HW2 2568   5.857   3.422   2.557
  557SOL     OW 2569   0.075   5.682   6.593
  557SOL    HW1 2570   0.138   5.620   6.547
  557SOL    HW2 2571   0.052   5.758   6.533
  558SOL     OW 2572   4.597   3.634   5.555
  558SOL    HW1 2573   4.602   3.562   5.624
  558SOL    HW2 2574   4.537   3.604   5.481
  559SOL     OW 2575   5.998   5.888   6.226
  559SOL    HW1 2576   6.096   5.885   6.207
  559SOL    HW2 2577   5.956   5.803   6.196
  560SOL     OW 2578   4.023   6.724   6.930
  560SOL    HW1 2579   4.099   6.771   6.976
  560SOL    HW2 2580   4.004   6.769   6.843
  561SOL     OW 2581   5.514   6.741   1.743
  561SOL    HW1 2582   5.527   6.690   1.659
  561SOL    HW2 2583   5.446   6.695   1.800
  562SOL     OW 2584   6.765   0.668   0.215
  562SOL    HW1 2585   6.680   0.677   0.267
  562SOL    HW2 2586   6.807   0.580   0.236
  563SOL     OW 2587   3.195   0.593   5.010
  563SOL    HW1 2588   3.205   0.655   4.931
  563SOL    HW2 2589   3.178   0.647   5.092
  564SOL     OW 2590   0.468   1.852   6.203
  564SOL    HW1 2591   0.419   1.891   6.125
  564SOL    HW2 2592   0.562   1.831   6.176
  565SOL     OW 2593   4.433   4.373   5.347
  565SOL    HW1 2594   4.396   4.289   5.388
  565SOL    HW2 2595   4.360   4.421   5.298
  566SOL     OW 2596   5.615   4.963   1.987
  566SOL    HW1 2597   5.624   4.968   1.888
  566SOL    HW2 2598   5.569   4.878   2.011
  567SOL     OW 2599   3.615   4.100   4.544
  567SOL    HW1 2600   3.667   4.175   4.503
  567SOL    HW2 2601   3.661   4.068   4.627
  568SOL     OW 2602   2.201   1.304   5.828
  568SOL    HW1 2603   2.203   1.347   5.918
  568SOL    HW2 2604   2.157   1.366   5.763
  569SOL     OW 2605   2.313   3.673   6.584
  569SOL    HW1 2606   2.272   3.619   6.658
  569SOL    HW2 2607   2.391   3.623   6.547
  570SOL     OW 2608   0.202   6.117   1.001
  570SOL    HW1 2609   0.236   6.149   0.912
  570SOL    HW2 2610   0.274   6.126   1.069
  571SOL     OW 2611   4.025   5.486   3.061
  571SOL    HW1 2612   4.066   5.527   3.142
  571SOL    HW2 2613   3.925   5.490   3.068
  572SOL     OW 2614   1.829   4.030   4.735
  572SOL    HW1 2615   1.840   4.004   4.832
  572SOL    HW2 2616   1.734   4.013   4.707
  573SOL     OW 2617   3.538   2.606   0.094
  573SOL    HW1 2618   3.581   2.664   0.025
  573SOL    HW2 2619   3.533   2.655   0.180
  574SOL     OW 2620   2.308   1.425   4.215
  574SOL    HW1 2621   2.212   1.425   4.186
  574SOL    HW2 2622   2.313   1.454   4.311
  575SOL     OW 2623   5.414   2.417   6.499
  575SOL    HW1 2624   5.437   2.439   6.594
  575SOL    HW2 2625   5.438   2.322   6.480
  576SOL     OW 2626   0.862   2.631   2.754
  576SOL    HW1 2627   0.959   2.608   2.759
  576SOL    HW2 2628   0.840   2.665   2.663
  577SOL     OW 2629   3.661   2.088   4.386
  577SOL    HW1 2630   3.752   2.099   4.347
  577SOL    HW2 2631   3.669   2.069   4.484
  578SOL     OW 2632   0.368   3.454   4.361
  578SOL    HW1 2633   0.281   3.406   4.365
  578SOL    HW2 2634   0.393   3.472   4.266
  579SOL     OW 2635   3.806   3.382   0.698
  579SOL    HW1 2636   3.884   3.418   0.751
  579SOL    HW2 2637   3.721   3.403   0.746
  580SOL     OW 2638   0.706   6.364   0.010
  580SOL    HW1 2639   0.639   6.331   0.075
  580SOL    HW2 2640   0.798   6.355   0.049
  581SOL     OW 2641   4.126   3.396   2.509
  581SOL    HW1 2642   4.143   3.488   2.472
  581SOL    HW2 2643   4.155   3.327   2.443
  582SOL     OW 2644   6.766   4.473   1.316
  582SOL    HW1 2645   6.718   4.438   1.397
  582SOL    HW2 2646   6.846   4.417   1.298
  583SOL     OW 2647   2.594   5.965   6.681
  583SOL    HW1 2648   2.589   5.922   6.771
  583SOL    HW2 2649   2.689   5.961   6.648
  584SOL     OW 2650   0.765   5.440   4.964
  584SOL    HW1 2651   0.677   5.396   4.981
  584SOL    HW2 2652   0.814   5.389   4.893
  585SOL     OW 2653   6.281   0.806   5.841
  585SOL    HW1 2654   6.269   0.905   5.837
  585SOL    HW2 2655   6.378   0.785   5.855
  586SOL     OW 2656   2.547   5.709   1.444
  586SOL    HW1 2657   2.570   5.702   1.347
  586SOL    HW2 2658   2.629   5.690   1.499
  587SOL     OW 2659   1.269   3.837   5.764
  587SOL    HW1 2660   1.365   3.834   5.794
  587SOL    HW2 2661   1.222   3.754   5.794
  588SOL     OW 2662   2.134   0.185   1.696
  588SOL    HW1 2663   2.229   0.156   1.710
  588SOL    HW2 2664   2.132   0.283   1.677
  589SOL     OW 2665   4.405   5.258   2.159
  589SOL    HW1 2666   4.329   5.200   2.190
  589SOL    HW2 2667   4.490   5.205   2.160
  590SOL     OW 2668   6.420   2.521   2.172
  590SOL    HW1 2669   6.388   2.497   2.080
  590SOL    HW2 2670   6.471   2.607   2.167
  591SOL     OW 2671   2.921   6.752   3.084
  591SOL    HW1 2672   3.011   6.713   3.103
  591SOL    HW2 2673   2.859   6.732   3.159
  592SOL     OW 2674   5.168   6.930   6.233
  592SOL    HW1 2675   5.082   6.939   6.283
  592SOL    HW2 2676   5.197   7.019   6.199
  593SOL     OW 2677   6.296   1.225   4.727
  593SOL    HW1 2678   6.393   1.233   4.748
  593SOL    HW2 2679   6.275   1.275   4.644
  594SOL     OW 2680   5.360   2.431   1.357
  594SOL    HW1 2681   5.379   2.338   1.389
  594SOL    HW2 2682   5.300   2.426   1.277
  595SOL     OW 2683   4.614   6.572   3.890
  595SOL    HW1 2684   4.524   6.560   3.848
  595SOL    HW2 2685   4.685   6.532   3.831
  596SOL     OW 2686   0.834   3.785   1.870
  596SOL    HW1 2687   0.871   3.699   1.905
  596SOL    HW2 2688   0.906   3.835   1.822
  597SOL     OW 2689   4.372   2.420   5.999
  597SOL    HW1 2690   4.294   2.454   5.947
  597SOL    HW2 2691   4.450   2.409   5.937
  598SOL     OW 2692   3.102   4.111   1.351
  598SOL    HW1 2693   3.111   4.044   1.277
  598SOL    HW2 2694   3.006   4.134   1.363
  599SOL     OW 2695   6.668   6.550   3.854
  599SOL    HW1 2696   6.705   6.606   3.928
  599SOL    HW2 2697   6.721   6.564   3.771
  600SOL     OW 2698   2.783   1.677   1.378
  600SOL    HW1 2699   2.708   1.737   1.351
  600SOL    HW2 2700   2.832   1.719   1.454
  601SOL     OW 2701   2.173   4.978   3.166
  601SOL    HW1 2702   2.234   4.899   3.166
  601SOL    HW2 2703   2.212   5.050   3.107
  602SOL     OW 2704   6.559   0.729   2.069
  602SOL    HW1 2705   6.538   0.631   2.066
  602SOL    HW2 2706   6.588   0.754   2.161
  603SOL     OW 2707   3.781   1.888   3.311
  603SOL    HW1 2708   3.849   1.855   3.377
  603SOL    HW2 2709   3.739   1.972   3.346
  604SOL     OW 2710   1.021   3.777   5.969
  604SOL    HW1 2711   0.959   3.699   5.968
  604SOL    HW2 2712   1.106   3.752   6.014
  605SOL     OW 2713   6.083   0.027   4.810
  605SOL    HW1 2714   6.060   0.079   4.893
  605SOL    HW2 2715   6.107   6.957   4.836
  606SOL     OW 2716   3.828   6.863   2.849
  606SOL    HW1 2717   3.761   6.914   2.903
  606SOL    HW2 2718   3.903   6.924   2.823
  607SOL     OW 2719   4.314   0.665   4.345
  607SOL    HW1 2720   4.306   0.693   4.440
  607SOL    HW2 2721   4.268   0.576   4.332
  608SOL     OW 2722   5.628   2.789   1.749
  608SOL    HW1 2723   5.724   2.771   1.772
  608SOL    HW2 2724   5.576   2.807   1.832
  609SOL     OW 2725   3.026   3.842   4.887
  609SOL    HW1 2726   2.982   3.775   4.827
  609SOL    HW2 2727   2.973   3.852   4.970
  610SOL     OW 2728   5.966   1.729   4.373
  610SOL    HW1 2729   5.938   1.781   4.293
  610SOL    HW2 2730   6.066   1.722   4.375
  611SOL     OW 2731   5.689   6.758   0.296
  611SOL    HW1 2732   5.788   6.744   0.285
  611SOL    HW2 2733   5.639   6.687   0.247
  612SOL     OW 2734   2.173   5.468   5.752
  612SOL    HW1 2735   2.240   5.435   5.818
  612SOL    HW2 2736   2.206   5.452   5.659
  613SOL     OW 2737   3.905   1.529   6.518
  613SOL    HW1 2738   3.807   1.507   6.517
  613SOL    HW2 2739   3.916   1.628   6.526
  614SOL     OW 2740   5.232   3.114   1.397
  614SOL    HW1 2741   5.246   3.015   1.407
  614SOL    HW2 2742   5.158   3.143   1.457
  615SOL     OW 2743   5.148   6.562   0.627
  615SOL    HW1 2744   5.088   6.641   0.614
  615SOL    HW2 2745   5.227   6.569   0.566
  616SOL     OW 2746   4.948   0.460   4.618
  616SOL    HW1 2747   4.948   0.559   4.631
  616SOL    HW2 2748   4.853   0.427   4.613
  617SOL     OW 2749   0.178   6.195   5.261
  617SOL    HW1 2750   0.166   6.097   5.243
  617SOL    HW2 2751   0.275   6.217   5.263
  618SOL     OW 2752   5.463   4.759   0.697
  618SOL    HW1 2753   5.438   4.733   0.790
  618SOL    HW2 2754   5.380   4.785   0.647
  619SOL     OW 2755   2.169   6.254   5.871
  619SOL    HW1 2756   2.096   6.211   5.924
  619SOL    HW2 2757   2.251   6.263   5.927
  620SOL     OW 2758   4.497   1.919   2.273
  620SOL    HW1 2759   4.504   1.861   2.192
  620SOL    HW2 2760   4.409   1.902   2.318
  621SOL     OW 2761   3.243   0.697   6.866
  621SOL    HW1 2762   3.271   0.683   6.772
  621SOL    HW2 2763   3.302   0.645   6.927
  622SOL     OW 2764   0.229   3.588   5.843
  622SOL    HW1 2765   0.209   3.581   5.745
  622SOL    HW2 2766   0.321   3.551   5.861
  623SOL     OW 2767   6.867   0.477   2.994
  623SOL    HW1 2768   6.855   0.405   2.926
  623SOL    HW2 2769   6.780   0.525   3.008
  624SOL     OW 2770   6.327   1.700   6.020
  624SOL    HW1 2771   6.355   1.607   5.998
  624SOL    HW2 2772   6.341   1.716   6.118
  625SOL     OW 2773   3.376   1.121   1.335
  625SOL    HW1 2774   3.473   1.124   1.359
  625SOL    HW2 2775   3.341   1.214   1.325
  626SOL     OW 2776   0.959   5.838   3.435
  626SOL    HW1 2777   0.967   5.838   3.335
  626SOL    HW2 2778   0.905   5.916   3.465
  627SOL     OW 2779   6.601   5.427   6.781
  627SOL    HW1 2780   6.599   5.345   6.839
  627SOL    HW2 2781   6.544   5.498   6.823
  628SOL     OW 2782   3.677   5.079   6.347
  628SOL    HW1 2783   3.753   5.143   6.359
  628SOL    HW2 2784   3.706   4.987   6.375
  629SOL     OW 2785   1.036   6.790   0.093
  629SOL    HW1 2786   1.075   6.739   0.169
  629SOL    HW2 2787   0.941   6.812   0.113
  630SOL     OW 2788   6.609   1.909   1.172
  630SOL    HW1 2789   6.672   1.870   1.240
  630SOL    HW2 2790   6.645   1.892   1.080
  631SOL     OW 2791   1.997   2.836   3.223
  631SOL    HW1 2792   1.960   2.770   3.289
  631SOL    HW2 2793   2.027   2.918   3.271
  632SOL     OW 2794   2.765   4.097   1.145
  632SOL    HW1 2795   2.762   4.108   1.244
  632SOL    HW2 2796   2.852   4.055   1.119
  633SOL     OW 2797   1.470   5.915   0.899
  633SOL    HW1 2798   1.555   5.899   0.848
  633SOL    HW2 2799   1.412   5.834   0.895
  634SOL     OW 2800   2.981   3.410   4.879
  634SOL    HW1 2801   2.973   3.312   4.898
  634SOL    HW2 2802   3.055   3.449   4.934
  635SOL     OW 2803   5.728   6.838   6.490
  635SOL    HW1 2804   5.781   6.797   6.564
  635SOL    HW2 2805   5.648   6.883   6.528
  636SOL     OW 2806   2.441   1.019   4.805
  636SOL    HW1 2807   2.418   0.966   4.887
  636SOL    HW2 2808   2.537   1.004   4.781
  637SOL     OW 2809   0.041   1.488   2.591
  637SOL    HW1 2810   0.061   1.583   2.612
  637SOL    HW2 2811   0.116   1.448   2.538
  638SOL     OW 2812   0.044   3.500   4.904
  638SOL    HW1 2813   6.968   3.507   4.888
  638SOL    HW2 2814   0.062   3.427   4.970
  639SOL     OW 2815   5.938   3.242   1.913
  639SOL    HW1 2816   5.913   3.314   1.849
  639SOL    HW2 2817   5.873   3.166   1.905
  640SOL     OW 2818   0.005   3.423   2.855
  640SOL    HW1 2819   0.083   3.460   2.805
  640SOL    HW2 2820   6.954   3.491   2.856
  641SOL     OW 2821   2.427   5.114   4.445
  641SOL    HW1 2822   2.344   5.076   4.486
  641SOL    HW2 2823   2.507   5.084   4.498
  642SOL     OW 2824   0.654   5.255   4.569
  642SOL    HW1 2825   0.752   5.249   4.547
  642SOL    HW2 2826   0.617   5.163   4.580
  643SOL     OW 2827   4.038   5.547   0.455
  643SOL    HW1 2828   3.959   5.582   0.507
  643SOL    HW2 2829   4.082   5.473   0.507
  644SOL     OW 2830   6.931   6.705   4.984
  644SOL    HW1 2831   6.919   6.789   5.036
  644SOL    HW2 2832   6.845   6.681   4.939
  645SOL     OW 2833   4.413   6.056   2.329
  645SOL    HW1 2834   4.489   6.028   2.270
  645SOL    HW2 2835   4.397   6.154   2.318
  646SOL     OW 2836   3.216   1.857   4.976
  646SOL    HW1 2837   3.199   1.936   5.035
  646SOL    HW2 2838   3.139   1.845   4.913
  647SOL     OW 2839   3.082   2.578   0.289
  647SOL    HW1 2840   3.030   2.506   0.244
  647SOL    HW2 2841   3.022   2.630   0.350
  648SOL     OW 2842   6.128   1.321   3.849
  648SOL    HW1 2843   6.124   1.249   3.917
  648SOL    HW2 2844   6.147   1.409   3.894
  649SOL     OW 2845   2.779   5.369   0.659
  649SOL    HW1 2846   2.728   5.452   0.680
  649SOL    HW2 2847   2.868   5.372   0.705
  650SOL     OW 2848   1.318   3.052   0.719
  650SOL    HW1 2849   1.312   2.960   0.682
  650SOL    HW2 2850   1.399   3.098   0.682
  651SOL     OW 2851   0.371   0.885   3.795
  651SOL    HW1 2852   0.394   0.912   3.888
  651SOL    HW2 2853   0.435   0.815   3.764
  652SOL     OW 2854   3.830   5.667   0.563
  652SOL    HW1 2855   3.741   5.707   0.544
  652SOL    HW2 2856   3.841   5.655   0.662
  653SOL     OW 2857   1.588   6.667   2.513
  653SOL    HW1 2858   1.596   6.665   2.414
  653SOL    HW2 2859   1.566   6.761   2.543
  654SOL     OW 2860   1.021   6.757   5.540
  654SOL    HW1 2861   1.070   6.845   5.544
  654SOL    HW2 2862   0.932   6.771   5.498
  655SOL     OW 2863   0.810   3.248   0.889
  655SOL    HW1 2864   0.830   3.336   0.844
  655SOL    HW2 2865   0.859   3.243   0.976
  656SOL     OW 2866   2.646   6.598   6.512
  656SOL    HW1 2867   2.609   6.664   6.447
  656SOL    HW2 2868   2.571   6.547   6.555
  657SOL     OW 2869   3.856   3.560   3.922
  657SOL    HW1 2870   3.784   3.583   3.857
  657SOL    HW2 2871   3.944   3.555   3.875
  658SOL     OW 2872   1.581   0.955   4.384
  658SOL    HW1 2873   1.557   0.882   4.448
  658SOL    HW2 2874   1.498   0.996   4.348
  659SOL     OW 2875   1.479   5.666   6.320
  659SOL    HW1 2876   1.447   5.761   6.319
  659SOL    HW2 2877   1.577   5.664   6.298
  660SOL     OW 2878   5.918   4.309   2.777
  660SOL    HW1 2879   5.882   4.397   2.746
  660SOL    HW2 2880   6.017   4.307   2.765
  661SOL     OW 2881   4.360   5.119   3.792
  661SOL    HW1 2882   4.400   5.065   3.865
  661SOL    HW2 2883   4.418   5.113   3.710
  662SOL     OW 2884   5.219   4.027   0.365
  662SOL    HW1 2885   5.217   3.927   0.371
  662SOL    HW2 2886   5.177   4.066   0.446
  663SOL     OW 2887   0.292   4.647   6.473
  663SOL    HW1 2888   0.340   4.563   6.500
  663SOL    HW2 2889   0.195   4.638   6.497
  664SOL     OW 2890   1.722   6.795   6.200
  664SOL    HW1 2891   1.687   6.714   6.247
  664SOL    HW2 2892   1.698   6.877   6.253
  665SOL     OW 2893   2.493   4.458   2.935
  665SOL    HW1 2894   2.458   4.552   2.930
  665SOL    HW2 2895   2.588   4.457   2.904
  666SOL     OW 2896   3.125   1.408   6.783
  666SOL    HW1 2897   3.105   1.502   6.812
  666SOL    HW2 2898   3.041   1.365   6.750
  667SOL     OW 2899   1.377   3.275   2.174
  667SOL    HW1 2900   1.347   3.361   2.214
  667SOL    HW2 2901   1.376   3.204   2.244
  668SOL     OW 2902   5.110   0.099   0.872
  668SOL    HW1 2903   5.117   0.067   0.777
  668SOL    HW2 2904   5.116   0.198   0.873
  669SOL     OW 2905   0.574   5.446   2.958
  669SOL    HW1 2906   0.586   5.543   2.938
  669SOL    HW2 2907   0.477   5.427   2.972
  670SOL     OW 2908   4.073   3.708   3.086
  670SOL    HW1 2909   4.123   3.672   3.165
  670SOL    HW2 2910   4.030   3.795   3.111
  671SOL     OW 2911   1.845   0.797   6.603
  671SOL    HW1 2912   1.810   0.860   6.672
  671SOL    HW2 2913   1.945   0.800   6.604
  672SOL     OW 2914   1.425   2.314   3.007
  672SOL    HW1 2915   1.362   2.325   3.085
  672SOL    HW2 2916   1.451   2.404   2.973
  673SOL     OW 2917   4.759   0.294   0.287
  673SOL    HW1 2918   4.832   0.248   0.236
  673SOL    HW2 2919   4.710   0.227   0.343
  674SOL     OW 2920   0.273   2.383   4.497
  674SOL    HW1 2921   0.208   2.400   4.571
  674SOL    HW2 2922   0.238   2.423   4.412
  675SOL     OW 2923   6.121   6.353   3.670
  675SOL    HW1 2924   6.032   6.354   3.624
  675SOL    HW2 2925   6.174   6.433   3.641
  676SOL     OW 2926   3.089   5.505   4.655
  676SOL    HW1 2927   2.994   5.484   4.679
  676SOL    HW2 2928   3.095   5.599   4.622
  677SOL     OW 2929   4.304   6.719   0.329
  677SOL    HW1 2930   4.226   6.765   0.371
  677SOL    HW2 2931   4.382   6.722   0.392
  678SOL     OW 2932   2.164   1.378   5.493
  678SOL    HW1 2933   2.156   1.301   5.555
  678SOL    HW2 2934   2.260   1.392   5.468
  679SOL     OW 2935   6.224   0.683   2.157
  679SOL    HW1 2936   6.274   0.623   2.221
  679SOL    HW2 2937   6.259   0.777   2.166
  680SOL     OW 2938   5.547   4.066   4.502
  680SOL    HW1 2939   5.596   4.001   4.560
  680SOL    HW2 2940   5.508   4.018   4.424
  681SOL     OW 2941   0.947   6.791   1.880
  681SOL    HW1 2942   1.018   6.824   1.818
  681SOL    HW2 2943   0.988   6.733   1.950
  682SOL     OW 2944   0.360   0.170   6.132
  682SOL    HW1 2945   0.342   0.115   6.214
  682SOL    HW2 2946   0.308   0.255   6.137
  683SOL     OW 2947   4.776   1.284   1.395
  683SOL    HW1 2948   4.864   1.287   1.347
  683SOL    HW2 2949   4.770   1.361   1.459
  684SOL     OW 2950   0.217   6.087   6.465
  684SOL    HW1 2951   0.315   6.076   6.448
  684SOL    HW2 2952   0.191   6.182   6.444
  685SOL     OW 2953   6.490   0.852   6.620
  685SOL    HW1 2954   6.527   0.836   6.711
  685SOL    HW2 2955   6.533   0.791   6.555
  686SOL     OW 2956   5.475   4.942   2.638
  686SOL    HW1 2957   5.515   4.877   2.574
  686SOL    HW2 2958   5.548   4.995   2.682
  687SOL     OW 2959   5.481   1.843   5.581
  687SOL    HW1 2960   5.435   1.921   5.624
  687SOL    HW2 2961   5.411   1.779   5.546
  688SOL     OW 2962   6.462   3.847   4.659
  688SOL    HW1 2963   6.433   3.835   4.754
  688SOL    HW2 2964   6.390   3.815   4.598
  689SOL     OW 2965   6.013   4.195   4.291
  689SOL    HW1 2966   5.945   4.240   4.350
  689SOL    HW2 2967   6.105   4.223   4.319
  690SOL     OW 2968   0.238   3.466   3.874
  690SOL    HW1 2969   0.176   3.535   3.836
  690SOL    HW2 2970   0.242   3.388   3.812
  691SOL     OW 2971   0.180   2.989   6.507
  691SOL    HW1 2972   0.122   2.985   6.426
  691SOL    HW2 2973   0.157   3.069   6.562
  692SOL     OW 2974   2.497   0.094   3.344
  692SOL    HW1 2975   2.428   0.054   3.404
  692SOL    HW2 2976   2.587   0.086   3.386
  693SOL     OW 2977   6.364   1.447   2.832
  693SOL    HW1 2978   6.328   1.396   2.754
  693SOL    HW2 2979   6.292   1.505   2.870
  694SOL     OW 2980   1.480   0.475   2.268
  694SOL    HW1 2981   1.412   0.476   2.194
  694SOL    HW2 2982   1.540   0.554   2.259
  695SOL     OW 2983   4.679   5.515   6.722
  695SOL    HW1 2984   4.666   5.527   6.624
  695SOL    HW2 2985   4.690   5.605   6.765
  696SOL     OW 2986   5.170   6.420   2.279
  696SOL    HW1 2987   5.246   6.483   2.296
  696SOL    HW2 2988   5.115   6.453   2.203
  697SOL     OW 2989   1.539   3.690   3.900
  697SOL    HW1 2990   1.605   3.740   3.956
  697SOL    HW2 2991   1.574   3.682   3.806
  698SOL     OW 2992   5.118   5.829   4.052
  698SOL    HW1 2993   5.077   5.738   4.051
  698SOL    HW2 2994   5.134   5.858   4.146
  699SOL     OW 2995   1.035   4.399   6.282
  699SOL    HW1 2996   1.000   4.463   6.350
  699SOL    HW2 2997   0.958   4.350   6.240
  700SOL     OW 2998   1.989   1.801   4.488
  700SOL    HW1 2999   1.936   1.720   4.466
  700SOL    HW2 3000   2.029   1.839   4.404
  701SOL     OW 3001   0.949   4.647   5.611
  701SOL    HW1 3002   0.955   4.573   5.678
  701SOL    HW2 3003   0.854   4.655   5.579
  702SOL     OW 3004   5.323   5.727   5.246
  702SOL    HW1 3005   5.421   5.722   5.227
  702SOL    HW2 3006   5.275   5.661   5.189
  703SOL     OW 3007   4.997   4.141   6.332
  703SOL    HW1 3008   4.949   4.225   6.360
  703SOL    HW2 3009   5.079   4.130   6.389
  704SOL     OW 3010   2.414   6.869   1.768
  704SOL    HW1 3011   2.321   6.834   1.783
  704SOL    HW2 3012   2.423   6.900   1.674
  705SOL     OW 3013   0.451   1.951   3.582
  705SOL    HW1 3014   0.513   2.013   3.631
  705SOL    HW2 3015   0.359   1.957   3.620
  706SOL     OW 3016   4.874   3.112   3.842
  706SOL    HW1 3017   4.834   3.184   3.898
  706SOL    HW2 3018   4.935   3.152   3.774
  707SOL     OW 3019   4.857   2.246   2.512
  707SOL    HW1 3020   4.827   2.173   2.452
  707SOL    HW2 3021   4.915   2.310   2.461
  708SOL     OW 3022   3.865   0.520   2.429
  708SOL    HW1 3023   3.820   0.596   2.382
  708SOL    HW2 3024   3.823   0.433   2.401
  709SOL     OW 3025   0.809   5.450   6.963
  709SOL    HW1 3026   0.795   5.430   0.037
  709SOL    HW2 3027   0.830   5.365   6.914
  710SOL     OW 3028   3.597   3.619   3.159
  710SOL    HW1 3029   3.572   3.703   3.110
  710SOL    HW2 3030   3.689   3.591   3.132
  711SOL     OW 3031   0.620   0.894   5.049
  711SOL    HW1 3032   0.528   0.933   5.052
  711SOL    HW2 3033   0.687   0.968   5.059
  712SOL     OW 3034   0.979   3.560   2.245
  712SOL    HW1 3035   1.032   3.571   2.329
  712SOL    HW2 3036   0.895   3.613   2.251
  713SOL     OW 3037   2.968   3.731   4.246
  713SOL    HW1 3038   2.955   3.818   4.294
  713SOL    HW2 3039   2.942   3.656   4.307
  714SOL     OW 3040   4.937   4.623   5.208
  714SOL    HW1 3041   4.930   4.694   5.139
  714SOL    HW2 3042   4.956   4.664   5.297
  715SOL     OW 3043   5.691   0.028   6.024
  715SOL    HW1 3044   5.608   0.084   6.031
  715SOL    HW2 3045   5.768   0.086   5.999
  716SOL     OW 3046   6.669   5.241   1.640
  716SOL    HW1 3047   6.578   5.212   1.667
  716SOL    HW2 3048   6.711   5.170   1.583
  717SOL     OW 3049   6.546   2.778   6.153
  717SOL    HW1 3050   6.551   2.797   6.055
  717SOL    HW2 3051   6.602   2.845   6.203
  718SOL     OW 3052   2.602   3.118   6.754
  718SOL    HW1 3053   2.540   3.041   6.739
  718SOL    HW2 3054   2.695   3.085   6.767
  719SOL     OW 3055   4.958   5.143   0.607
  719SOL    HW1 3056   4.927   5.061   0.558
  719SOL    HW2 3057   4.941   5.132   0.705
  720SOL     OW 3058   3.374   1.074   6.021
  720SOL    HW1 3059   3.395   1.018   6.101
  720SOL    HW2 3060   3.447   1.141   6.007
  721SOL     OW 3061   1.431   6.766   5.569
  721SOL    HW1 3062   1.394   6.772   5.476
  721SOL    HW2 3063   1.365   6.804   5.633
  722SOL     OW 3064   4.271   6.572   5.346
  722SOL    HW1 3065   4.329   6.596   5.423
  722SOL    HW2 3066   4.218   6.490   5.368
  723SOL     OW 3067   1.552   3.404   1.792
  723SOL    HW1 3068   1.542   3.316   1.745
  723SOL    HW2 3069   1.470   3.459   1.777
  724SOL     OW 3070   6.828   0.838   4.922
  724SOL    HW1 3071   6.846   0.802   5.014
  724SOL    HW2 3072   6.786   0.929   4.929
  725SOL     OW 3073   2.373   4.748   1.740
  725SOL    HW1 3074   2.304   4.726   1.808
  725SOL    HW2 3075   2.333   4.807   1.670
  726SOL     OW 3076   4.928   6.626   5.627
  726SOL    HW1 3077   5.008   6.579   5.664
  726SOL    HW2 3078   4.958   6.702   5.569
  727SOL     OW 3079   2.027   4.251   4.001
  727SOL    HW1 3080   2.026   4.314   4.079
  727SOL    HW2 3081   1.934   4.227   3.977
  728SOL     OW 3082   6.970   3.654   5.511
  728SOL    HW1 3083   0.043   3.639   5.488
  728SOL    HW2 3084   6.919   3.671   5.427
  729SOL     OW 3085   3.332   1.120   0.575
  729SOL    HW1 3086   3.424   1.158   0.576
  729SOL    HW2 3087   3.335   1.024   0.548
  730SOL     OW 3088   5.432   1.220   4.773
  730SOL    HW1 3089   5.371   1.159   4.825
  730SOL    HW2 3090   5.481   1.166   4.705
  731SOL     OW 3091   6.715   2.548   4.207
  731SOL    HW1 3092   6.672   2.513   4.124
  731SOL    HW2 3093   6.765   2.632   4.186
  732SOL     OW 3094   0.229   3.411   3.482
  732SOL    HW1 3095   0.292   3.489   3.473
  732SOL    HW2 3096   0.275   3.336   3.530
  733SOL     OW 3097   4.644   5.185   4.548
  733SOL    HW1 3098   4.611   5.190   4.642
  733SOL    HW2 3099   4.715   5.254   4.533
  734SOL     OW 3100   0.686   5.859   6.655
  734SOL    HW1 3101   0.592   5.827   6.666
  734SOL    HW2 3102   0.740   5.834   6.736
  735SOL     OW 3103   3.004   4.492   0.144
  735SOL    HW1 3104   2.978   4.569   0.202
  735SOL    HW2 3105   3.051   4.526   0.063
  736SOL     OW 3106   5.596   0.719   2.629
  736SOL    HW1 3107   5.598   0.702   2.531
  736SOL    HW2 3108   5.684   0.759   2.658
  737SOL     OW 3109   5.463   4.155   0.475
  737SOL    HW1 3110   5.383   4.117   0.429
  737SOL    HW2 3111   5.439   4.242   0.518
  738SOL     OW 3112   0.802   4.656   2.736
  738SOL    HW1 3113   0.721   4.637   2.792
  738SOL    HW2 3114   0.791   4.610   2.647
  739SOL     OW 3115   4.785   6.328   6.467
  739SOL    HW1 3116   4.716   6.382   6.418
  739SOL    HW2 3117   4.876   6.359   6.440
  740SOL     OW 3118   5.223   0.208   0.276
  740SOL    HW1 3119   5.298   0.245   0.222
  740SOL    HW2 3120   5.234   0.237   0.371
  741SOL     OW 3121   3.135   0.540   4.069
  741SOL    HW1 3122   3.118   0.457   4.016
  741SOL    HW2 3123   3.184   0.516   4.153
  742SOL     OW 3124   1.030   6.636   2.090
  742SOL    HW1 3125   1.054   6.704   2.160
  742SOL    HW2 3126   0.961   6.574   2.128
  743SOL     OW 3127   1.608   3.081   4.147
  743SOL    HW1 3128   1.621   3.003   4.086
  743SOL    HW2 3129   1.634   3.166   4.100
  744SOL     OW 3130   6.979   5.079   0.680
  744SOL    HW1 3131   0.026   5.149   0.666
  744SOL    HW2 3132   6.968   5.061   0.778
  745SOL     OW 3133   1.820   5.937   3.533
  745SOL    HW1 3134   1.781   5.955   3.442
  745SOL    HW2 3135   1.898   5.997   3.548
  746SOL     OW 3136   3.101   0.606   3.772
  746SOL    HW1 3137   3.007   0.639   3.772
  746SOL    HW2 3138   3.128   0.580   3.865
  747SOL     OW 3139   6.559   3.677   1.039
  747SOL    HW1 3140   6.533   3.598   0.983
  747SOL    HW2 3141   6.537   3.761   0.990
  748SOL     OW 3142   3.876   2.980   2.714
  748SOL    HW1 3143   3.797   2.928   2.680
  748SOL    HW2 3144   3.931   3.011   2.637
  749SOL     OW 3145   6.303   2.637   5.115
  749SOL    HW1 3146   6.302   2.684   5.027
  749SOL    HW2 3147   6.375   2.568   5.115
  750SOL     OW 3148   3.152   3.343   2.010
  750SOL    HW1 3149   3.224   3.347   1.940
  750SOL    HW2 3150   3.191   3.313   2.097
  751SOL     OW 3151   5.375   1.299   0.561
  751SOL    HW1 3152   5.391   1.398   0.555
  751SOL    HW2 3153   5.459   1.250   0.539
  752SOL     OW 3154   4.447   1.084   1.779
  752SOL    HW1 3155   4.543   1.109   1.792
  752SOL    HW2 3156   4.439   1.017   1.705
  753SOL     OW 3157   2.889   1.149   3.014
  753SOL    HW1 3158   2.976   1.173   2.972
  753SOL    HW2 3159   2.851   1.229   3.062
  754SOL     OW 3160   5.259   5.469   0.394
  754SOL    HW1 3161   5.218   5.389   0.353
  754SOL    HW2 3162   5.247   5.548   0.333
  755SOL     OW 3163   6.383   5.833   2.910
  755SOL    HW1 3164   6.420   5.746   2.878
  755SOL    HW2 3165   6.329   5.817   2.993
  756SOL     OW 3166   3.505   6.179   3.906
  756SOL    HW1 3167   3.555   6.230   3.976
  756SOL    HW2 3168   3.494   6.237   3.825
  757SOL     OW 3169   6.513   1.415   4.119
  757SOL    HW1 3170   6.600   1.368   4.103
  757SOL    HW2 3171   6.447   1.349   4.155
  758SOL     OW 3172   4.513   2.102   1.311
  758SOL    HW1 3173   4.479   2.092   1.217
  758SOL    HW2 3174   4.603   2.060   1.319
  759SOL     OW 3175   1.956   0.791   1.058
  759SOL    HW1 3176   2.038   0.797   1.114
  759SOL    HW2 3177   1.896   0.719   1.092
  760SOL     OW 3178   4.489   2.118   5.864
  760SOL    HW1 3179   4.556   2.125   5.938
  760SOL    HW2 3180   4.405   2.079   5.900
  761SOL     OW 3181   5.118   1.747   6.795
  761SOL    HW1 3182   5.207   1.764   6.838
  761SOL    HW2 3183   5.056   1.705   6.861
  762SOL     OW 3184   2.020   4.868   4.470
  762SOL    HW1 3185   2.081   4.789   4.466
  762SOL    HW2 3186   1.982   4.875   4.563
  763SOL     OW 3187   6.075   5.328   6.842
  763SOL    HW1 3188   6.118   5.385   6.771
  763SOL    HW2 3189   6.138   5.319   6.919
  764SOL     OW 3190   5.024   0.887   2.839
  764SOL    HW1 3191   5.005   0.973   2.886
  764SOL    HW2 3192   5.122   0.875   2.830
  765SOL     OW 3193   6.900   6.801   3.324
  765SOL    HW1 3194   6.950   6.794   3.238
  765SOL    HW2 3195   6.955   6.850   3.391
  766SOL     OW 3196   0.171   6.679   0.166
  766SOL    HW1 3197   0.249   6.672   0.228
  766SOL    HW2 3198   0.107   6.748   0.200
  767SOL     OW 3199   6.214   6.714   1.226
  767SOL    HW1 3200   6.210   6.628   1.176
  767SOL    HW2 3201   6.280   6.706   1.300
  768SOL     OW 3202   3.443   6.740   3.905
  768SOL    HW1 3203   3.431   6.660   3.963
  768SOL    HW2 3204   3.384   6.814   3.937
  769SOL     OW 3205   3.400   0.824   0.101
  769SOL    HW1 3206   3.450   0.745   0.067
  769SOL    HW2 3207   3.465   0.897   0.123
  770SOL     OW 3208   3.030   4.895   3.695
  770SOL    HW1 3209   3.128   4.908   3.681
  770SOL    HW2 3210   3.014   4.869   3.791
  771SOL     OW 3211   0.892   5.540   4.612
  771SOL    HW1 3212   0.859   5.605   4.543
  771SOL    HW2 3213   0.893   5.448   4.574
  772SOL     OW 3214   0.025   4.715   5.364
  772SOL    HW1 3215   7.012   4.655   5.435
  772SOL    HW2 3216   0.045   4.660   5.282
  773SOL     OW 3217   0.157   3.418   1.991
  773SOL    HW1 3218   0.164   3.349   1.919
  773SOL    HW2 3219   0.069   3.464   1.984
  774SOL     OW 3220   1.165   1.314   1.658
  774SOL    HW1 3221   1.213   1.236   1.698
  774SOL    HW2 3222   1.223   1.357   1.588
  775SOL     OW 3223   1.174   2.737   4.329
  775SOL    HW1 3224   1.182   2.679   4.248
  775SOL    HW2 3225   1.216   2.692   4.407
  776SOL     OW 3226   2.362   0.048   5.654
  776SOL    HW1 3227   2.388   0.121   5.717
  776SOL    HW2 3228   2.316   6.998   5.704
  777SOL     OW 3229   4.426   0.178   0.619
  777SOL    HW1 3230   4.357   0.138   0.558
  777SOL    HW2 3231   4.510   0.123   0.614
  778SOL     OW 3232   4.101   5.642   5.017
  778SOL    HW1 3233   4.080   5.733   4.982
  778SOL    HW2 3234   4.074   5.636   5.113
  779SOL     OW 3235   1.272   0.116   3.191
  779SOL    HW1 3236   1.281   0.167   3.105
  779SOL    HW2 3237   1.226   0.029   3.174
  780SOL     OW 3238   5.221   3.308   4.930
  780SOL    HW1 3239   5.257   3.375   4.995
  780SOL    HW2 3240   5.122   3.301   4.940
  781SOL     OW 3241   0.895   2.304   6.573
  781SOL    HW1 3242   0.825   2.346   6.516
  781SOL    HW2 3243   0.966   2.264   6.515
  782SOL     OW 3244   0.391   4.309   0.233
  782SOL    HW1 3245   0.465   4.244   0.252
  782SOL    HW2 3246   0.427   4.402   0.238
  783SOL     OW 3247   2.540   4.464   0.150
  783SOL    HW1 3248   2.516   4.455   0.247
  783SOL    HW2 3249   2.547   4.561   0.126
  784SOL     OW 3250   5.009   5.317   3.704
  784SOL    HW1 3251   5.069   5.396   3.701
  784SOL    HW2 3252   4.914   5.347   3.717
  785SOL     OW 3253   6.159   1.999   3.845
  785SOL    HW1 3254   6.083   1.991   3.910
  785SOL    HW2 3255   6.136   2.068   3.776
  786SOL     OW 3256   6.472   6.605   0.436
  786SOL    HW1 3257   6.509   6.598   0.343
  786SOL    HW2 3258   6.398   6.673   0.437
  787SOL     OW 3259   4.557   1.167   6.750
  787SOL    HW1 3260   4.564   1.187   6.653
  787SOL    HW2 3261   4.461   1.166   6.778
  788SOL     OW 3262   0.659   4.380   3.132
  788SOL    HW1 3263   0.735   4.425   3.085
  788SOL    HW2 3264   0.588   4.447   3.151
  789SOL     OW 3265   5.452   3.295   1.395
  789SOL    HW1 3266   5.537   3.249   1.368
  789SOL    HW2 3267   5.380   3.228   1.409
  790SOL     OW 3268   3.495   0.314   3.982
  790SOL    HW1 3269   3.506   0.398   4.034
  790SOL    HW2 3270   3.584   0.285   3.946
  791SOL     OW 3271   3.729   1.743   5.020
  791SOL    HW1 3272   3.633   1.714   5.023
  791SOL    HW2 3273   3.746   1.793   4.935
  792SOL     OW 3274   5.155   0.277   3.778
  792SOL    HW1 3275   5.197   0.251   3.691
  792SOL    HW2 3276   5.075   0.334   3.760
  793SOL     OW 3277   0.116   0.107   6.656
  793SOL    HW1 3278   0.139   0.023   6.605
  793SOL    HW2 3279   0.156   0.103   6.747
  794SOL     OW 3280   3.787   5.204   4.736
  794SOL    HW1 3281   3.781   5.288   4.683
  794SOL    HW2 3282   3.806   5.227   4.832
  795SOL     OW 3283   4.921   5.112   6.639
  795SOL    HW1 3284   4.964   5.168   6.568
  795SOL    HW2 3285   4.870   5.171   6.701
  796SOL     OW 3286   0.288   1.871   5.595
  796SOL    HW1 3287   0.318   1.965   5.579
  796SOL    HW2 3288   0.367   1.811   5.604
  797SOL     OW 3289   6.096   2.666   5.310
  797SOL    HW1 3290   6.168   2.645   5.243
  797SOL    HW2 3291   6.110   2.759   5.344
  798SOL     OW 3292   6.677   0.602   5.293
  798SOL    HW1 3293   6.607   0.549   5.244
  798SOL    HW2 3294   6.661   0.700   5.278
  799SOL     OW 3295   6.627   3.346   3.649
  799SOL    HW1 3296   6.551   3.287   3.674
  799SOL    HW2 3297   6.616   3.376   3.554
  800SOL     OW 3298   6.678   1.600   1.910
  800SOL    HW1 3299   6.777   1.604   1.894
  800SOL    HW2 3300   6.630   1.606   1.823
  801SOL     OW 3301   0.693   2.461   3.577
  801SOL    HW1 3302   0.652   2.527   3.514
  801SOL    HW2 3303   0.784   2.435   3.543
  802SOL     OW 3304   5.889   1.529   1.123
  802SOL    HW1 3305   5.813   1.464   1.121
  802SOL    HW2 3306   5.896   1.569   1.214
  803SOL     OW 3307   1.535   0.185   4.825
  803SOL    HW1 3308   1.538   0.086   4.811
  803SOL    HW2 3309   1.473   0.206   4.901
  804SOL     OW 3310   6.762   6.744   0.727
  804SOL    HW1 3311   6.770   6.835   0.768
  804SOL    HW2 3312   6.669   6.709   0.740
  805SOL     OW 3313   1.254   3.014   5.457
  805SOL    HW1 3314   1.301   2.926   5.464
  805SOL    HW2 3315   1.322   3.088   5.457
  806SOL     OW 3316   4.922   0.319   0.531
  806SOL    HW1 3317   4.926   0.353   0.625
  806SOL    HW2 3318   4.901   0.395   0.469
  807SOL     OW 3319   1.298   6.679   2.811
  807SOL    HW1 3320   1.239   6.755   2.784
  807SOL    HW2 3321   1.390   6.714   2.831
  808SOL     OW 3322   6.014   3.611   5.213
  808SOL    HW1 3323   5.941   3.548   5.187
  808SOL    HW2 3324   5.991   3.655   5.300
  809SOL     OW 3325   0.738   5.582   6.038
  809SOL    HW1 3326   0.755   5.514   5.967
  809SOL    HW2 3327   0.640   5.601   6.044
  810SOL     OW 3328   6.595   4.863   6.307
  810SOL    HW1 3329   6.545   4.934   6.257
  810SOL    HW2 3330   6.566   4.864   6.403
  811SOL     OW 3331   4.204   5.558   3.284
  811SOL    HW1 3332   4.206   5.645   3.333
  811SOL    HW2 3333   4.193   5.483   3.349
  812SOL     OW 3334   0.171   0.285   2.267
  812SOL    HW1 3335   0.223   0.348   2.324
  812SOL    HW2 3336   0.202   0.191   2.285
  813SOL     OW 3337   5.676   5.689   2.148
  813SOL    HW1 3338   5.627   5.606   2.171
  813SOL    HW2 3339   5.611   5.761   2.123
  814SOL     OW 3340   5.431   5.640   1.461
  814SOL    HW1 3341   5.356   5.706   1.474
  814SOL    HW2 3342   5.431   5.574   1.536
  815SOL     OW 3343   0.522   1.153   0.434
  815SOL    HW1 3344   0.587   1.229   0.440
  815SOL    HW2 3345   0.436   1.186   0.395
  816SOL     OW 3346   5.660   0.197   0.826
  816SOL    HW1 3347   5.719   0.162   0.753
  816SOL    HW2 3348   5.697   0.283   0.860
  817SOL     OW 3349   0.651   2.096   1.522
  817SOL    HW1 3350   0.591   2.042   1.580
  817SOL    HW2 3351   0.665   2.186   1.563
  818SOL     OW 3352   5.873   1.313   2.451
  818SOL    HW1 3353   5.903   1.398   2.494
  818SOL    HW2 3354   5.942   1.283   2.385
  819SOL     OW 3355   0.195   5.331   2.343
  819SOL    HW1 3356   0.288   5.297   2.329
  819SOL    HW2 3357   0.199   5.414   2.400
  820SOL     OW 3358   1.432   2.856   4.565
  820SOL    HW1 3359   1.526   2.846   4.596
  820SOL    HW2 3360   1.370   2.816   4.632
  821SOL     OW 3361   1.243   4.006   0.226
  821SOL    HW1 3362   1.276   4.011   0.320
  821SOL    HW2 3363   1.192   3.920   0.213
  822SOL     OW 3364   1.357   3.484   4.900
  822SOL    HW1 3365   1.360   3.409   4.834
  822SOL    HW2 3366   1.398   3.455   4.986
  823SOL     OW 3367   3.647   3.455   1.460
  823SOL    HW1 3368   3.619   3.551   1.470
  823SOL    HW2 3369   3.700   3.428   1.540
  824SOL     OW 3370   5.988   2.492   5.774
  824SOL    HW1 3371   5.949   2.540   5.852
  824SOL    HW2 3372   5.980   2.549   5.692
  825SOL     OW 3373   1.163   3.785   1.864
  825SOL    HW1 3374   1.138   3.765   1.769
  825SOL    HW2 3375   1.239   3.850   1.865
  826SOL     OW 3376   1.067   4.247   5.581
  826SOL    HW1 3377   1.145   4.207   5.629
  826SOL    HW2 3378   1.020   4.312   5.641
  827SOL     OW 3379   3.624   5.114   0.705
  827SOL    HW1 3380   3.623   5.175   0.784
  827SOL    HW2 3381   3.541   5.057   0.707
  828SOL     OW 3382   6.493   0.381   5.844
  828SOL    HW1 3383   6.454   0.305   5.792
  828SOL    HW2 3384   6.527   0.451   5.781
  829SOL     OW 3385   3.420   3.110   4.813
  829SOL    HW1 3386   3.322   3.106   4.834
  829SOL    HW2 3387   3.458   3.017   4.812
  830SOL     OW 3388   4.344   3.553   5.967
  830SOL    HW1 3389   4.247   3.556   5.943
  830SOL    HW2 3390   4.397   3.601   5.897
  831SOL     OW 3391   6.074   0.000   4.555
  831SOL    HW1 3392   6.059   7.022   4.654
  831SOL    HW2 3393   6.004   0.057   4.512
  832SOL     OW 3394   2.410   1.944   5.628
  832SOL    HW1 3395   2.485   1.992   5.583
  832SOL    HW2 3396   2.389   1.860   5.579
  833SOL     OW 3397   0.973   0.460   5.399
  833SOL    HW1 3398   0.876   0.475   5.379
  833SOL    HW2 3399   1.012   0.400   5.329
  834SOL     OW 3400   3.410   4.468   5.822
  834SOL    HW1 3401   3.391   4.371   5.841
  834SOL    HW2 3402   3.402   4.521   5.906
  835SOL     OW 3403   4.682   1.047   3.233
  835SOL    HW1 3404   4.595   1.003   3.257
  835SOL    HW2 3405   4.716   1.007   3.148
  836SOL     OW 3406   2.461   0.511   6.742
  836SOL    HW1 3407   2.414   0.533   6.828
  836SOL    HW2 3408   2.551   0.555   6.741
  837SOL     OW 3409   4.366   1.435   4.827
  837SOL    HW1 3410   4.289   1.448   4.890
  837SOL    HW2 3411   4.414   1.350   4.850
  838SOL     OW 3412   0.681   5.702   2.581
  838SOL    HW1 3413   0.684   5.656   2.493
  838SOL    HW2 3414   0.757   5.670   2.638
  839SOL     OW 3415   3.287   1.408   1.687
  839SOL    HW1 3416   3.297   1.411   1.787
  839SOL    HW2 3417   3.209   1.350   1.663
  840SOL     OW 3418   0.669   1.295   5.700
  840SOL    HW1 3419   0.699   1.200   5.691
  840SOL    HW2 3420   0.640   1.312   5.794
  841SOL     OW 3421   0.427   3.366   0.660
  841SOL    HW1 3422   0.507   3.344   0.605
  841SOL    HW2 3423   0.456   3.407   0.747
  842SOL     OW 3424   3.445   5.199   3.706
  842SOL    HW1 3425   3.377   5.267   3.733
  842SOL    HW2 3426   3.532   5.219   3.751
  843SOL     OW 3427   6.980   4.104   2.371
  843SOL    HW1 3428   0.032   4.157   2.410
  843SOL    HW2 3429   6.938   4.156   2.297
  844SOL     OW 3430   5.622   5.350   6.824
  844SOL    HW1 3431   5.712   5.313   6.801
  844SOL    HW2 3432   5.556   5.276   6.834
  845SOL     OW 3433   1.655   5.375   5.058
  845SOL    HW1 3434   1.574   5.319   5.042
  845SOL    HW2 3435   1.715   5.329   5.124
  846SOL     OW 3436   4.862   3.201   6.705
  846SOL    HW1 3437   4.854   3.243   6.795
  846SOL    HW2 3438   4.880   3.272   6.637
  847SOL     OW 3439   5.210   4.013   2.091
  847SOL    HW1 3440   5.266   4.055   2.163
  847SOL    HW2 3441   5.259   3.935   2.052
  848SOL     OW 3442   6.206   0.412   5.040
  848SOL    HW1 3443   6.305   0.429   5.037
  848SOL    HW2 3444   6.158   0.498   5.057
  849SOL     OW 3445   1.131   5.824   4.033
  849SOL    HW1 3446   1.129   5.773   4.119
  849SOL    HW2 3447   1.106   5.763   3.958
  850SOL     OW 3448   4.055   0.383   3.718
  850SOL    HW1 3449   4.068   0.479   3.744
  850SOL    HW2 3450   3.962   0.355   3.741
  851SOL     OW 3451   0.081   0.715   5.622
  851SOL    HW1 3452   0.076   0.764   5.709
  851SOL    HW2 3453   0.018   0.758   5.557
  852SOL     OW 3454   2.735   4.439   5.618
  852SOL    HW1 3455   2.720   4.481   5.707
  852SOL    HW2 3456   2.828   4.457   5.587
  853SOL     OW 3457   1.163   3.668   0.447
  853SOL    HW1 3458   1.217   3.730   0.504
  853SOL    HW2 3459   1.069   3.700   0.442
  854SOL     OW 3460   6.447   4.949   1.543
  854SOL    HW1 3461   6.473   4.853   1.549
  854SOL    HW2 3462   6.393   4.965   1.461
  855SOL     OW 3463   5.122   0.813   0.486
  855SOL    HW1 3464   5.120   0.727   0.437
  855SOL    HW2 3465   5.188   0.875   0.443
  856SOL     OW 3466   1.237   0.729   4.705
  856SOL    HW1 3467   1.166   0.753   4.772
  856SOL    HW2 3468   1.288   0.649   4.738
  857SOL     OW 3469   5.911   3.738   1.566
  857SOL    HW1 3470   5.965   3.694   1.637
  857SOL    HW2 3471   5.876   3.669   1.503
  858SOL     OW 3472   3.670   3.460   1.941
  858SOL    HW1 3473   3.622   3.425   2.021
  858SOL    HW2 3474   3.764   3.484   1.966
  859SOL     OW 3475   6.613   4.494   0.920
  859SOL    HW1 3476   6.675   4.440   0.863
  859SOL    HW2 3477   6.599   4.583   0.877
  860SOL     OW 3478   1.481   4.570   0.024
  860SOL    HW1 3479   1.564   4.520   7.021
  860SOL    HW2 3480   1.406   4.541   6.988
  861SOL     OW 3481   3.345   4.150   6.009
  861SOL    HW1 3482   3.294   4.090   5.946
  861SOL    HW2 3483   3.421   4.099   6.049
  862SOL     OW 3484   4.842   4.028   3.218
  862SOL    HW1 3485   4.786   4.110   3.207
  862SOL    HW2 3486   4.859   3.987   3.128
  863SOL     OW 3487   6.044   2.086   0.802
  863SOL    HW1 3488   6.055   2.151   0.878
  863SOL    HW2 3489   6.027   1.995   0.838
  864SOL     OW 3490   6.805   5.013   2.759
  864SOL    HW1 3491   6.840   4.920   2.744
  864SOL    HW2 3492   6.844   5.050   2.843
  865SOL     OW 3493   2.193   0.807   3.995
  865SOL    HW1 3494   2.220   0.904   3.989
  865SOL    HW2 3495   2.267   0.750   3.958
  866SOL     OW 3496   4.435   1.330   0.552
  866SOL    HW1 3497   4.472   1.240   0.576
  866SOL    HW2 3498   4.478   1.400   0.608
  867SOL     OW 3499   2.659   1.697   6.336
  867SOL    HW1 3500   2.715   1.698   6.419
  867SOL    HW2 3501   2.579   1.755   6.349
  868SOL     OW 3502   5.254   2.219   3.398
  868SOL    HW1 3503   5.210   2.238   3.310
  868SOL    HW2 3504   5.320   2.291   3.419
  869SOL     OW 3505   6.760   3.902   1.288
  869SOL    HW1 3506   6.841   3.845   1.277
  869SOL    HW2 3507   6.766   3.981   1.228
  870SOL     OW 3508   6.438   2.377   0.202
  870SOL    HW1 3509   6.451   2.336   0.112
  870SOL    HW2 3510   6.398   2.309   0.264
  871SOL     OW 3511   5.649   3.863   0.754
  871SOL    HW1 3512   5.643   3.879   0.656
  871SOL    HW2 3513   5.745   3.850   0.780
  872SOL     OW 3514   6.820   2.046   2.012
  872SOL    HW1 3515   6.840   2.021   1.918
  872SOL    HW2 3516   6.769   2.132   2.014
  873SOL     OW 3517   3.630   6.426   4.998
  873SOL    HW1 3518   3.689   6.359   4.954
  873SOL    HW2 3519   3.658   6.518   4.971
  874SOL     OW 3520   0.231   4.180   6.807
  874SOL    HW1 3521   0.193   4.272   6.801
  874SOL    HW2 3522   0.330   4.185   6.808
  875SOL     OW 3523   6.095   5.572   6.069
  875SOL    HW1 3524   6.086   5.473   6.077
  875SOL    HW2 3525   6.004   5.614   6.071
  876SOL     OW 3526   1.431   2.038   0.744
  876SOL    HW1 3527   1.408   1.976   0.668
  876SOL    HW2 3528   1.377   2.013   0.824
  877SOL     OW 3529   4.980   5.816   0.383
  877SOL    HW1 3530   4.927   5.824   0.298
  877SOL    HW2 3531   5.074   5.791   0.361
  878SOL     OW 3532   3.653   2.714   1.022
  878SOL    HW1 3533   3.657   2.764   0.935
  878SOL    HW2 3534   3.568   2.661   1.026
  879SOL     OW 3535   4.843   2.321   2.800
  879SOL    HW1 3536   4.792   2.255   2.857
  879SOL    HW2 3537   4.837   2.293   2.704
  880SOL     OW 3538   4.510   5.305   1.716
  880SOL    HW1 3539   4.581   5.234   1.719
  880SOL    HW2 3540   4.525   5.370   1.790
  881SOL     OW 3541   5.092   4.932   3.486
  881SOL    HW1 3542   5.090   4.918   3.387
  881SOL    HW2 3543   5.021   4.998   3.512
  882SOL     OW 3544   0.683   1.951   4.314
  882SOL    HW1 3545   0.630   2.032   4.290
  882SOL    HW2 3546   0.768   1.950   4.260
  883SOL     OW 3547   3.245   4.931   0.223
  883SOL    HW1 3548   3.164   4.947   0.166
  883SOL    HW2 3549   3.319   4.896   0.166
  884SOL     OW 3550   3.967   3.920   1.845
  884SOL    HW1 3551   3.921   3.918   1.934
  884SOL    HW2 3552   3.899   3.928   1.773
  885SOL     OW 3553   4.728   6.548   5.446
  885SOL    HW1 3554   4.801   6.560   5.513
  885SOL    HW2 3555   4.743   6.464   5.394
  886SOL     OW 3556   3.892   2.111   6.420
  886SOL    HW1 3557   3.873   2.150   6.330
  886SOL    HW2 3558   3.814   2.128   6.480
  887SOL     OW 3559   5.654   6.155   5.184
  887SOL    HW1 3560   5.630   6.167   5.281
  887SOL    HW2 3561   5.572   6.161   5.128
  888SOL     OW 3562   6.291   0.221   3.244
  888SOL    HW1 3563   6.228   0.264   3.308
  888SOL    HW2 3564   6.380   0.210   3.288
  889SOL     OW 3565   0.858   0.064   4.428
  889SOL    HW1 3566   0.900   0.147   4.464
  889SOL    HW2 3567   0.793   0.028   4.496
  890SOL     OW 3568   1.774   4.423   1.961
  890SOL    HW1 3569   1.781   4.507   1.907
  890SOL    HW2 3570   1.857   4.413   2.016
  891SOL     OW 3571   5.683   3.705   6.481
  891SOL    HW1 3572   5.772   3.665   6.457
  891SOL    HW2 3573   5.612   3.637   6.466
  892SOL     OW 3574   2.174   5.135   1.947
  892SOL    HW1 3575   2.200   5.130   2.043
  892SOL    HW2 3576   2.243   5.187   1.896
  893SOL     OW 3577   1.992   6.974   2.092
  893SOL    HW1 3578   1.990   0.045   2.056
  893SOL    HW2 3579   2.087   6.944   2.102
  894SOL     OW 3580   1.479   5.414   4.243
  894SOL    HW1 3581   1.514   5.497   4.285
  894SOL    HW2 3582   1.549   5.343   4.245
  895SOL     OW 3583   2.378   0.881   4.534
  895SOL    HW1 3584   2.338   0.902   4.624
  895SOL    HW2 3585   2.474   0.855   4.546
  896SOL     OW 3586   5.339   6.765   3.981
  896SOL    HW1 3587   5.246   6.733   3.959
  896SOL    HW2 3588   5.333   6.846   4.040
  897SOL     OW 3589   5.355   1.342   6.119
  897SOL    HW1 3590   5.294   1.417   6.145
  897SOL    HW2 3591   5.322   1.257   6.159
  898SOL     OW 3592   5.621   6.823   3.901
  898SOL    HW1 3593   5.561   6.754   3.940
  898SOL    HW2 3594   5.584   6.914   3.920
  899SOL     OW 3595   1.281   4.443   6.879
  899SOL    HW1 3596   1.242   4.351   6.872
  899SOL    HW2 3597   1.362   4.449   6.821
  900SOL     OW 3598   0.400   5.553   3.629
  900SOL    HW1 3599   0.414   5.507   3.542
  900SOL    HW2 3600   0.382   5.485   3.700
  901SOL     OW 3601   5.551   2.163   3.769
  901SOL    HW1 3602   5.563   2.095   3.697
  901SOL    HW2 3603   5.526   2.118   3.855
  902SOL     OW 3604   1.162   6.688   0.341
  902SOL    HW1 3605   1.238   6.724   0.395
  902SOL    HW2 3606   1.175   6.590   0.326
  903SOL     OW 3607   0.760   4.965   6.593
  903SOL    HW1 3608   0.844   4.914   6.572
  903SOL    HW2 3609   0.696   4.956   6.517
  904SOL     OW 3610   1.828   1.261   4.156
  904SOL    HW1 3611   1.799   1.249   4.061
  904SOL    HW2 3612   1.847   1.171   4.196
  905SOL     OW 3613   6.028   2.144   4.419
  905SOL    HW1 3614   6.086   2.139   4.500
  905SOL    HW2 3615   5.932   2.135   4.446
  906SOL     OW 3616   6.302   4.146   5.382
  906SOL    HW1 3617   6.311   4.116   5.287
  906SOL    HW2 3618   6.392   4.144   5.426
  907SOL     OW 3619   0.317   3.317   2.221
  907SOL    HW1 3620   0.288   3.338   2.127
  907SOL    HW2 3621   0.276   3.383   2.284
  908SOL     OW 3622   2.891   1.027   3.519
  908SOL    HW1 3623   2.794   1.005   3.529
  908SOL    HW2 3624   2.946   0.954   3.558
  909SOL     OW 3625   4.168   6.751   1.372
  909SOL    HW1 3626   4.145   6.730   1.467
  909SOL    HW2 3627   4.111   6.697   1.311
  910SOL     OW 3628   1.699   1.047   2.002
  910SOL    HW1 3629   1.711   1.012   1.909
  910SOL    HW2 3630   1.784   1.088   2.034
  911SOL     OW 3631   0.560   3.421   0.912
  911SOL    HW1 3632   0.616   3.502   0.927
  911SOL    HW2 3633   0.610   3.340   0.944
  912SOL     OW 3634   1.260   0.544   6.660
  912SOL    HW1 3635   1.251   0.561   6.758
  912SOL    HW2 3636   1.255   0.632   6.611
  913SOL     OW 3637   2.089   1.041   2.336
  913SOL    HW1 3638   2.165   0.999   2.287
  913SOL    HW2 3639   2.107   1.139   2.347
  914SOL     OW 3640   2.838   5.873   1.864
  914SOL    HW1 3641   2.898   5.795   1.884
  914SOL    HW2 3642   2.743   5.848   1.885
  915SOL     OW 3643   1.964   2.347   0.454
  915SOL    HW1 3644   1.892   2.294   0.409
  915SOL    HW2 3645   2.047   2.292   0.461
  916SOL     OW 3646   1.324   3.099   2.369
  916SOL    HW1 3647   1.241   3.096   2.313
  916SOL    HW2 3648   1.340   3.009   2.409
  917SOL     OW 3649   4.022   1.257   6.177
  917SOL    HW1 3650   4.096   1.246   6.242
  917SOL    HW2 3651   3.940   1.211   6.211
  918SOL     OW 3652   0.340   2.061   4.843
  918SOL    HW1 3653   0.339   1.962   4.859
  918SOL    HW2 3654   0.338   2.109   4.930
  919SOL     OW 3655   1.876   0.414   0.903
  919SOL    HW1 3656   1.868   0.319   0.935
  919SOL    HW2 3657   1.786   0.457   0.906
  920SOL     OW 3658   1.980   1.049   2.709
  920SOL    HW1 3659   2.022   1.139   2.719
  920SOL    HW2 3660   1.899   1.056   2.650
  921SOL     OW 3661   3.925   3.996   0.618
  921SOL    HW1 3662   3.969   3.979   0.705
  921SOL    HW2 3663   3.910   3.910   0.570
  922SOL     OW 3664   2.464   5.627   6.954
  922SOL    HW1 3665   2.465   5.552   6.889
  922SOL    HW2 3666   2.448   5.591   0.023
  923SOL     OW 3667   4.107   1.417   6.664
  923SOL    HW1 3668   4.063   1.393   6.750
  923SOL    HW2 3669   4.047   1.479   6.612
  924SOL     OW 3670   6.302   5.095   2.610
  924SOL    HW1 3671   6.374   5.119   2.544
  924SOL    HW2 3672   6.343   5.048   2.688
  925SOL     OW 3673   6.998   1.385   2.826
  925SOL    HW1 3674   6.922   1.321   2.830
  925SOL    HW2 3675   7.004   1.425   2.734
  926SOL     OW 3676   3.941   5.931   1.253
  926SOL    HW1 3677   3.870   5.864   1.273
  926SOL    HW2 3678   3.965   5.980   1.337
  927SOL     OW 3679   4.511   5.744   4.778
  927SOL    HW1 3680   4.568   5.825   4.791
  927SOL    HW2 3681   4.438   5.744   4.847
  928SOL     OW 3682   7.014   1.702   1.368
  928SOL    HW1 3683   6.984   1.684   1.461
  928SOL    HW2 3684   7.020   1.615   1.318
  929SOL     OW 3685   6.998   2.050   2.223
  929SOL    HW1 3686   6.990   2.144   2.257
  929SOL    HW2 3687   6.928   2.032   2.155
  930SOL     OW 3688   6.002   5.207   2.381
  930SOL    HW1 3689   6.097   5.199   2.348
  930SOL    HW2 3690   5.951   5.269   2.322
  931SOL     OW 3691   1.441   2.777   1.914
  931SOL    HW1 3692   1.486   2.859   1.949
  931SOL    HW2 3693   1.430   2.710   1.988
  932SOL     OW 3694   4.428   6.155   1.503
  932SOL    HW1 3695   4.443   6.151   1.405
  932SOL    HW2 3696   4.413   6.250   1.531
  933SOL     OW 3697   1.420   6.750   3.785
  933SOL    HW1 3698   1.435   6.651   3.779
  933SOL    HW2 3699   1.462   6.784   3.869
  934SOL     OW 3700   3.285   0.954   5.591
  934SOL    HW1 3701   3.291   1.053   5.584
  934SOL    HW2 3702   3.196   0.928   5.627
  935SOL     OW 3703   1.690   3.449   4.877
  935SOL    HW1 3704   1.666   3.391   4.798
  935SOL    HW2 3705   1.749   3.397   4.939
  936SOL     OW 3706   0.916   1.873   1.712
  936SOL    HW1 3707   0.988   1.847   1.649
  936SOL    HW2 3708   0.880   1.963   1.686
  937SOL     OW 3709   5.081   2.045   3.577
  937SOL    HW1 3710   5.129   2.112   3.521
  937SOL    HW2 3711   5.011   2.091   3.632
  938SOL     OW 3712   0.581   1.001   6.426
  938SOL    HW1 3713   0.545   1.019   6.335
  938SOL    HW2 3714   0.532   0.924   6.467
  939SOL     OW 3715   6.256   1.212   5.555
  939SOL    HW1 3716   6.293   1.120   5.542
  939SOL    HW2 3717   6.328   1.280   5.538
  940SOL     OW 3718   0.052   0.398   4.458
  940SOL    HW1 3719   0.140   0.364   4.424
  940SOL    HW2 3720   7.017   0.320   4.484
  941SOL     OW 3721   5.914   2.419   5.284
  941SOL    HW1 3722   5.981   2.472   5.234
  941SOL    HW2 3723   5.846   2.480   5.324
  942SOL     OW 3724   4.634   0.341   5.031
  942SOL    HW1 3725   4.706   0.401   4.996
  942SOL    HW2 3726   4.546   0.368   4.993
  943SOL     OW 3727   5.301   2.321   0.286
  943SOL    HW1 3728   5.229   2.385   0.312
  943SOL    HW2 3729   5.262   2.250   0.227
  944SOL     OW 3730   4.823   4.165   4.600
  944SOL    HW1 3731   4.756   4.204   4.663
  944SOL    HW2 3732   4.909   4.148   4.650
  945SOL     OW 3733   5.760   3.278   6.487
  945SOL    HW1 3734   5.732   3.187   6.518
  945SOL    HW2 3735   5.721   3.296   6.397
  946SOL     OW 3736   5.674   3.692   6.740
  946SOL    HW1 3737   5.678   3.684   6.641
  946SOL    HW2 3738   5.741   3.760   6.770
  947SOL     OW 3739   0.589   2.443   5.685
  947SOL    HW1 3740   0.621   2.503   5.759
  947SOL    HW2 3741   0.635   2.469   5.600
  948SOL     OW 3742   3.770   1.750   0.709
  948SOL    HW1 3743   3.724   1.707   0.631
  948SOL    HW2 3744   3.712   1.822   0.745
  949SOL     OW 3745   5.662   6.154   6.562
  949SOL    HW1 3746   5.725   6.076   6.556
  949SOL    HW2 3747   5.687   6.221   6.492
  950SOL     OW 3748   3.733   5.533   1.135
  950SOL    HW1 3749   3.656   5.474   1.163
  950SOL    HW2 3750   3.720   5.560   1.040
  951SOL     OW 3751   1.210   2.949   3.684
  951SOL    HW1 3752   1.170   2.857   3.685
  951SOL    HW2 3753   1.193   2.993   3.772
  952SOL     OW 3754   4.711   1.523   1.565
  952SOL    HW1 3755   4.693   1.547   1.660
  952SOL    HW2 3756   4.675   1.594   1.505
  953SOL     OW 3757   3.952   6.585   5.945
  953SOL    HW1 3758   3.909   6.513   5.999
  953SOL    HW2 3759   3.893   6.609   5.868
  954SOL     OW 3760   6.326   1.001   1.534
  954SOL    HW1 3761   6.400   0.934   1.544
  954SOL    HW2 3762   6.302   1.039   1.623
  955SOL     OW 3763   0.899   6.169   2.740
  955SOL    HW1 3764   0.938   6.204   2.825
  955SOL    HW2 3765   0.877   6.072   2.751
  956SOL     OW 3766   1.625   2.660   0.691
  956SOL    HW1 3767   1.613   2.562   0.709
  956SOL    HW2 3768   1.685   2.699   0.760
  957SOL     OW 3769   2.062   6.390   4.995
  957SOL    HW1 3770   2.008   6.309   4.973
  957SOL    HW2 3771   2.018   6.439   5.070
  958SOL     OW 3772   4.949   2.855   0.051
  958SOL    HW1 3773   4.972   2.881   6.980
  958SOL    HW2 3774   4.974   2.760   0.067
  959SOL     OW 3775   1.334   3.593   1.196
  959SOL    HW1 3776   1.313   3.586   1.098
  959SOL    HW2 3777   1.425   3.555   1.214
  960SOL     OW 3778   1.703   5.001   5.629
  960SOL    HW1 3779   1.687   4.932   5.559
  960SOL    HW2 3780   1.691   4.961   5.720
  961SOL     OW 3781   3.518   6.942   6.587
  961SOL    HW1 3782   3.501   0.016   6.600
  961SOL    HW2 3783   3.576   6.907   6.660
  962SOL     OW 3784   1.248   6.504   3.317
  962SOL    HW1 3785   1.158   6.490   3.358
  962SOL    HW2 3786   1.310   6.545   3.384
  963SOL     OW 3787   5.901   0.269   1.643
  963SOL    HW1 3788   5.942   0.305   1.727
  963SOL    HW2 3789   5.802   0.282   1.646
  964SOL     OW 3790   5.410   3.351   1.816
  964SOL    HW1 3791   5.462   3.272   1.782
  964SOL    HW2 3792   5.432   3.431   1.762
  965SOL     OW 3793   1.638   1.421   0.144
  965SOL    HW1 3794   1.686   1.411   0.057
  965SOL    HW2 3795   1.694   1.386   0.218
  966SOL     OW 3796   6.859   2.347   1.953
  966SOL    HW1 3797   6.849   2.445   1.970
  966SOL    HW2 3798   6.950   2.317   1.983
  967SOL     OW 3799   1.248   5.946   2.191
  967SOL    HW1 3800   1.162   5.899   2.213
  967SOL    HW2 3801   1.325   5.883   2.206
  968SOL     OW 3802   6.972   4.322   0.608
  968SOL    HW1 3803   6.924   4.237   0.587
  968SOL    HW2 3804   0.044   4.315   0.577
  969SOL     OW 3805   4.244   7.007   6.429
  969SOL    HW1 3806   4.257   6.997   6.331
  969SOL    HW2 3807   4.321   6.966   6.478
  970SOL     OW 3808   5.100   3.115   5.680
  970SOL    HW1 3809   5.089   3.048   5.754
  970SOL    HW2 3810   5.048   3.085   5.600
  971SOL     OW 3811   0.589   3.140   6.955
  971SOL    HW1 3812   0.553   3.233   6.959
  971SOL    HW2 3813   0.633   3.117   0.019
  972SOL     OW 3814   5.014   6.810   0.593
  972SOL    HW1 3815   4.994   6.849   0.683
  972SOL    HW2 3816   5.040   6.882   0.530
  973SOL     OW 3817   6.187   2.857   5.699
  973SOL    HW1 3818   6.090   2.876   5.715
  973SOL    HW2 3819   6.196   2.779   5.637
  974SOL     OW 3820   2.298   0.278   4.757
  974SOL    HW1 3821   2.278   0.233   4.670
  974SOL    HW2 3822   2.358   0.357   4.741
  975SOL     OW 3823   2.837   6.993   5.012
  975SOL    HW1 3824   2.891   6.909   5.008
  975SOL    HW2 3825   2.783   7.003   4.928
  976SOL     OW 3826   0.332   4.946   3.482
  976SOL    HW1 3827   0.383   5.027   3.454
  976SOL    HW2 3828   0.394   4.868   3.489
  977SOL     OW 3829   0.815   2.426   2.023
  977SOL    HW1 3830   0.812   2.402   2.120
  977SOL    HW2 3831   0.811   2.343   1.967
  978SOL     OW 3832   5.624   3.401   4.768
  978SOL    HW1 3833   5.612   3.352   4.854
  978SOL    HW2 3834   5.696   3.469   4.778
  979SOL     OW 3835   5.624   1.559   3.225
  979SOL    HW1 3836   5.640   1.657   3.235
  979SOL    HW2 3837   5.712   1.511   3.219
  980SOL     OW 3838   0.378   0.456   5.473
  980SOL    HW1 3839   0.366   0.539   5.419
  980SOL    HW2 3840   0.385   0.480   5.570
  981SOL     OW 3841   6.475   2.834   5.894
  981SOL    HW1 3842   6.389   2.878   5.919
  981SOL    HW2 3843   6.523   2.889   5.827
  982SOL     OW 3844   1.392   3.850   0.863
  982SOL    HW1 3845   1.325   3.925   0.861
  982SOL    HW2 3846   1.463   3.871   0.931
  983SOL     OW 3847   4.952   1.825   3.143
  983SOL    HW1 3848   4.967   1.732   3.108
  983SOL    HW2 3849   5.010   1.840   3.223
  984SOL     OW 3850   4.914   2.821   5.466
  984SOL    HW1 3851   4.936   2.843   5.371
  984SOL    HW2 3852   4.831   2.869   5.494
  985SOL     OW 3853   1.837   4.632   0.735
  985SOL    HW1 3854   1.901   4.562   0.701
  985SOL    HW2 3855   1.831   4.706   0.667
  986SOL     OW 3856   4.576   4.240   6.794
  986SOL    HW1 3857   4.543   4.238   6.889
  986SOL    HW2 3858   4.562   4.331   6.756
  987SOL     OW 3859   3.795   6.665   2.672
  987SOL    HW1 3860   3.853   6.706   2.602
  987SOL    HW2 3861   3.767   6.734   2.738
  988SOL     OW 3862   3.429   2.780   1.656
  988SOL    HW1 3863   3.455   2.853   1.593
  988SOL    HW2 3864   3.490   2.783   1.736
  989SOL     OW 3865   0.670   0.292   4.480
  989SOL    HW1 3866   0.675   0.214   4.542
  989SOL    HW2 3867   0.730   0.277   4.402
  990SOL     OW 3868   4.906   6.365   1.908
  990SOL    HW1 3869   4.898   6.321   1.819
  990SOL    HW2 3870   4.886   6.299   1.980
  991SOL     OW 3871   5.822   1.919   5.209
  991SOL    HW1 3872   5.904   1.877   5.250
  991SOL    HW2 3873   5.742   1.865   5.235
  992SOL     OW 3874   6.921   3.096   1.423
  992SOL    HW1 3875   6.936   3.186   1.380
  992SOL    HW2 3876   6.835   3.096   1.472
  993SOL     OW 3877   3.615   6.184   4.764
  993SOL    HW1 3878   3.603   6.123   4.843
  993SOL    HW2 3879   3.704   6.228   4.770
  994SOL     OW 3880   3.371   3.124   2.529
  994SOL    HW1 3881   3.399   3.161   2.618
  994SOL    HW2 3882   3.287   3.071   2.540
  995SOL     OW 3883   0.425   1.454   4.717
  995SOL    HW1 3884   0.435   1.509   4.800
  995SOL    HW2 3885   0.335   1.410   4.717
  996SOL     OW 3886   0.830   3.506   0.424
  996SOL    HW1 3887   0.900   3.439   0.400
  996SOL    HW2 3888   0.777   3.474   0.503
  997SOL     OW 3889   0.306   1.859   0.871
  997SOL    HW1 3890   0.273   1.881   0.779
  997SOL    HW2 3891   0.243   1.794   0.914
  998SOL     OW 3892   4.921   6.767   3.407
  998SOL    HW1 3893   5.003   6.766   3.464
  998SOL    HW2 3894   4.894   6.861   3.390
  999SOL     OW 3895   5.934   5.553   1.499
  999SOL    HW1 3896   6.034   5.553   1.500
  999SOL    HW2 3897   5.901   5.631   1.446
 1000SOL     OW 3898   4.483   2.499   4.372
 1000SOL    HW1 3899   4.501   2.443   4.454
 1000SOL    HW2 3900   4.560   2.491   4.309
 1001SOL     OW 3901   4.681   1.399   5.669
 1001SOL    HW1 3902   4.607   1.466   5.660
 1001SOL    HW2 3903   4.744   1.428   5.741
 1002SOL     OW 3904   0.220   1.482   0.219
 1002SOL    HW1 3905   0.230   1.437   0.131
 1002SOL    HW2 3906   0.225   1.414   0.292
 1003SOL     OW 3907   4.413   5.122   2.643
 1003SOL    HW1 3908   4.431   5.033   2.684
 1003SOL    HW2 3909   4.426   5.117   2.544
 1004SOL     OW 3910   6.022   5.670   0.445
 1004SOL    HW1 3911   6.080   5.596   0.479
 1004SOL    HW2 3912   5.983   5.644   0.357
 1005SOL     OW 3913   6.889   5.706   4.009
 1005SOL    HW1 3914   6.851   5.617   3.982
 1005SOL    HW2 3915   6.840   5.779   3.961
 1006SOL     OW 3916   2.499   4.370   6.900
 1006SOL    HW1 3917   2.466   4.334   6.813
 1006SOL    HW2 3918   2.574   4.433   6.883
 1007SOL     OW 3919   1.056   0.908   3.307
 1007SOL    HW1 3920   0.969   0.879   3.348
 1007SOL    HW2 3921   1.076   0.852   3.227
 1008SOL     OW 3922   2.848   2.327   4.693
 1008SOL    HW1 3923   2.821   2.262   4.764
 1008SOL    HW2 3924   2.906   2.398   4.733
 1009SOL     OW 3925   2.660   6.048   5.848
 1009SOL    HW1 3926   2.656   6.138   5.805
 1009SOL    HW2 3927   2.583   6.038   5.912
 1010SOL     OW 3928   5.383   0.348   5.827
 1010SOL    HW1 3929   5.287   0.343   5.797
 1010SOL    HW2 3930   5.442   0.315   5.754
 1011SOL     OW 3931   3.309   6.102   4.118
 1011SOL    HW1 3932   3.332   6.007   4.136
 1011SOL    HW2 3933   3.365   6.137   4.042
 1012SOL     OW 3934   3.513   5.713   0.740
 1012SOL    HW1 3935   3.528   5.693   0.644
 1012SOL    HW2 3936   3.501   5.812   0.752
 1013SOL     OW 3937   0.428   0.885   0.008
 1013SOL    HW1 3938   0.337   0.926   0.007
 1013SOL    HW2 3939   0.419   0.785   0.008
 1014SOL     OW 3940   5.806   6.815   6.222
 1014SOL    HW1 3941   5.754   6.869   6.156
 1014SOL    HW2 3942   5.765   6.826   6.313
 1015SOL     OW 3943   3.079   0.230   4.812
 1015SOL    HW1 3944   3.040   0.284   4.737
 1015SOL    HW2 3945   3.131   0.154   4.774
 1016SOL     OW 3946   4.727   2.653   1.911
 1016SOL    HW1 3947   4.702   2.744   1.878
 1016SOL    HW2 3948   4.733   2.589   1.834
 1017SOL     OW 3949   5.010   1.078   6.344
 1017SOL    HW1 3950   4.932   1.078   6.280
 1017SOL    HW2 3951   5.018   1.167   6.387
 1018SOL     OW 3952   1.449   2.373   1.388
 1018SOL    HW1 3953   1.459   2.462   1.344
 1018SOL    HW2 3954   1.539   2.330   1.397
 1019SOL     OW 3955   6.224   1.234   0.653
 1019SOL    HW1 3956   6.193   1.182   0.573
 1019SOL    HW2 3957   6.300   1.294   0.626
 1020SOL     OW 3958   3.279   2.166   1.551
 1020SOL    HW1 3959   3.366   2.160   1.600
 1020SOL    HW2 3960   3.205   2.134   1.611
 1021SOL     OW 3961   6.533   1.399   0.715
 1021SOL    HW1 3962   6.600   1.419   0.644
 1021SOL    HW2 3963   6.458   1.464   0.710
 1022SOL     OW 3964   3.392   2.920   0.100
 1022SOL    HW1 3965   3.296   2.924   0.071
 1022SOL    HW2 3966   3.399   2.862   0.182
 1023SOL     OW 3967   6.740   0.419   4.401
 1023SOL    HW1 3968   6.721   0.499   4.458
 1023SOL    HW2 3969   6.838   0.399   4.405
 1024SOL     OW 3970   6.429   2.208   3.919
 1024SOL    HW1 3971   6.391   2.118   3.898
 1024SOL    HW2 3972   6.412   2.270   3.843
 1025SOL     OW 3973   3.544   4.529   1.440
 1025SOL    HW1 3974   3.454   4.498   1.472
 1025SOL    HW2 3975   3.597   4.563   1.518
 1026SOL     OW 3976   0.690   2.693   6.221
 1026SOL    HW1 3977   0.714   2.598   6.240
 1026SOL    HW2 3978   0.598   2.712   6.256
 1027SOL     OW 3979   1.997   4.754   1.180
 1027SOL    HW1 3980   1.929   4.740   1.108
 1027SOL    HW2 3981   2.075   4.694   1.164
 1028SOL     OW 3982   0.243   5.148   0.595
 1028SOL    HW1 3983   0.225   5.219   0.527
 1028SOL    HW2 3984   0.311   5.181   0.660
 1029SOL     OW 3985   3.717   0.772   5.594
 1029SOL    HW1 3986   3.686   0.681   5.620
 1029SOL    HW2 3987   3.643   0.838   5.609
 1030SOL     OW 3988   4.126   4.668   5.272
 1030SOL    HW1 3989   4.028   4.649   5.265
 1030SOL    HW2 3990   4.177   4.597   5.223
 1031SOL     OW 3991   2.124   5.289   0.787
 1031SOL    HW1 3992   2.116   5.240   0.700
 1031SOL    HW2 3993   2.054   5.361   0.791
 1032SOL     OW 3994   1.196   1.374   4.829
 1032SOL    HW1 3995   1.246   1.439   4.886
 1032SOL    HW2 3996   1.236   1.282   4.841
 1033SOL     OW 3997   2.278   6.652   2.599
 1033SOL    HW1 3998   2.204   6.642   2.666
 1033SOL    HW2 3999   2.359   6.691   2.644
 1034SOL     OW 4000   1.339   0.387   1.589
 1034SOL    HW1 4001   1.346   0.342   1.500
 1034SOL    HW2 4002   1.423   0.437   1.608
 1035SOL     OW 4003   3.489   1.035   2.907
 1035SOL    HW1 4004   3.500   1.133   2.888
 1035SOL    HW2 4005   3.447   1.023   2.997
 1036SOL     OW 4006   4.825   6.912   6.774
 1036SOL    HW1 4007   4.831   6.815   6.752
 1036SOL    HW2 4008   4.915   6.946   6.802
 1037SOL     OW 4009   3.402   1.745   6.363
 1037SOL    HW1 4010   3.393   1.663   6.307
 1037SOL    HW2 4011   3.438   1.820   6.308
 1038SOL     OW 4012   2.316   1.634   5.135
 1038SOL    HW1 4013   2.247   1.644   5.207
 1038SOL    HW2 4014   2.405   1.664   5.171
 1039SOL     OW 4015   4.349   2.037   3.493
 1039SOL    HW1 4016   4.363   2.131   3.524
 1039SOL    HW2 4017   4.280   1.993   3.551
 1040SOL     OW 4018   5.622   3.701   4.318
 1040SOL    HW1 4019   5.639   3.746   4.230
 1040SOL    HW2 4020   5.549   3.749   4.366
 1041SOL     OW 4021   1.870   6.901   4.266
 1041SOL    HW1 4022   1.851   6.847   4.348
 1041SOL    HW2 4023   1.969   6.911   4.255
 1042SOL     OW 4024   4.593   3.793   0.944
 1042SOL    HW1 4025   4.517   3.742   0.985
 1042SOL    HW2 4026   4.599   3.770   0.847
 1043SOL     OW 4027   3.734   0.564   6.655
 1043SOL    HW1 4028   3.764   0.591   6.563
 1043SOL    HW2 4029   3.782   0.481   6.682
 1044SOL     OW 4030   4.138   3.636   2.390
 1044SOL    HW1 4031   4.179   3.656   2.300
 1044SOL    HW2 4032   4.137   3.719   2.445
 1045SOL     OW 4033   4.153   0.974   3.301
 1045SOL    HW1 4034   4.187   1.062   3.334
 1045SOL    HW2 4035   4.203   0.900   3.345
 1046SOL     OW 4036   3.587   0.704   1.957
 1046SOL    HW1 4037   3.610   0.767   2.032
 1046SOL    HW2 4038   3.532   0.752   1.889
 1047SOL     OW 4039   0.516   5.702   1.826
 1047SOL    HW1 4040   0.424   5.666   1.810
 1047SOL    HW2 4041   0.584   5.632   1.802
 1048SOL     OW 4042   6.520   4.345   5.215
 1048SOL    HW1 4043   6.573   4.402   5.277
 1048SOL    HW2 4044   6.566   4.340   5.126
 1049SOL     OW 4045   0.674   3.278   5.607
 1049SOL    HW1 4046   0.710   3.186   5.593
 1049SOL    HW2 4047   0.746   3.345   5.588
 1050SOL     OW 4048   2.546   0.795   0.685
 1050SOL    HW1 4049   2.502   0.830   0.768
 1050SOL    HW2 4050   2.513   0.847   0.606
 1051SOL     OW 4051   5.048   4.463   2.386
 1051SOL    HW1 4052   5.029   4.398   2.459
 1051SOL    HW2 4053   5.062   4.554   2.424
 1052SOL     OW 4054   3.714   0.174   4.559
 1052SOL    HW1 4055   3.793   0.121   4.529
 1052SOL    HW2 4056   3.636   0.156   4.498
 1053SOL     OW 4057   3.558   4.891   3.631
 1053SOL    HW1 4058   3.592   4.839   3.709
 1053SOL    HW2 4059   3.635   4.913   3.570
 1054SOL     OW 4060   4.301   5.870   4.930
 1054SOL    HW1 4061   4.258   5.855   4.841
 1054SOL    HW2 4062   4.260   5.949   4.975
 1055SOL     OW 4063   3.538   4.997   4.134
 1055SOL    HW1 4064   3.504   4.970   4.224
 1055SOL    HW2 4065   3.472   4.971   4.064
 1056SOL     OW 4066   2.341   5.696   6.309
 1056SOL    HW1 4067   2.401   5.697   6.389
 1056SOL    HW2 4068   2.315   5.602   6.287
 1057SOL     OW 4069   3.835   3.880   1.227
 1057SOL    HW1 4070   3.907   3.810   1.225
 1057SOL    HW2 4071   3.871   3.965   1.188
 1058SOL     OW 4072   2.991   6.460   2.420
 1058SOL    HW1 4073   2.932   6.516   2.361
 1058SOL    HW2 4074   3.087   6.484   2.403
 1059SOL     OW 4075   3.428   0.681   0.414
 1059SOL    HW1 4076   3.488   0.755   0.444
 1059SOL    HW2 4077   3.359   0.717   0.350
 1060SOL     OW 4078   2.800   1.302   4.519
 1060SOL    HW1 4079   2.753   1.225   4.476
 1060SOL    HW2 4080   2.797   1.381   4.457
 1061SOL     OW 4081   2.994   5.988   1.166
 1061SOL    HW1 4082   3.039   5.934   1.096
 1061SOL    HW2 4083   2.900   5.955   1.178
 1062SOL     OW 4084   4.873   4.653   4.677
 1062SOL    HW1 4085   4.870   4.559   4.645
 1062SOL    HW2 4086   4.869   4.656   4.777
 1063SOL     OW 4087   2.892   2.464   6.131
 1063SOL    HW1 4088   2.805   2.472   6.083
 1063SOL    HW2 4089   2.902   2.371   6.167
 1064SOL     OW 4090   0.307   2.885   1.726
 1064SOL    HW1 4091   0.221   2.836   1.740
 1064SOL    HW2 4092   0.292   2.962   1.664
 1065SOL     OW 4093   4.339   5.072   5.540
 1065SOL    HW1 4094   4.285   4.989   5.529
 1065SOL    HW2 4095   4.318   5.115   5.627
 1066SOL     OW 4096   4.376   6.773   3.753
 1066SOL    HW1 4097   4.404   6.794   3.660
 1066SOL    HW2 4098   4.319   6.691   3.753
 1067SOL     OW 4099   2.923   3.244   1.094
 1067SOL    HW1 4100   3.007   3.277   1.137
 1067SOL    HW2 4101   2.846   3.256   1.158
 1068SOL     OW 4102   0.371   4.479   0.771
 1068SOL    HW1 4103   0.341   4.408   0.707
 1068SOL    HW2 4104   0.415   4.553   0.721
 1069SOL     OW 4105   3.949   3.089   2.463
 1069SOL    HW1 4106   3.986   3.180   2.448
 1069SOL    HW2 4107   3.927   3.047   2.375
 1070SOL     OW 4108   2.492   6.930   0.759
 1070SOL    HW1 4109   2.431   6.899   0.831
 1070SOL    HW2 4110   2.543   7.010   0.790
 1071SOL     OW 4111   5.024   5.220   3.991
 1071SOL    HW1 4112   4.971   5.213   4.076
 1071SOL    HW2 4113   4.961   5.222   3.913
 1072SOL     OW 4114   3.719   5.210   3.089
 1072SOL    HW1 4115   3.698   5.274   3.162
 1072SOL    HW2 4116   3.745   5.261   3.007
 1073SOL     OW 4117   2.923   5.827   3.338
 1073SOL    HW1 4118   3.009   5.878   3.324
 1073SOL    HW2 4119   2.941   5.729   3.333
 1074SOL     OW 4120   1.602   5.094   2.694
 1074SOL    HW1 4121   1.673   5.048   2.748
 1074SOL    HW2 4122   1.513   5.056   2.717
 1075SOL     OW 4123   1.152   4.462   3.014
 1075SOL    HW1 4124   1.171   4.384   3.074
 1075SOL    HW2 4125   1.226   4.529   3.021
 1076SOL     OW 4126   6.722   4.072   2.809
 1076SOL    HW1 4127   6.790   4.130   2.765
 1076SOL    HW2 4128   6.632   4.114   2.803
 1077SOL     OW 4129   5.201   0.472   1.536
 1077SOL    HW1 4130   5.254   0.452   1.453
 1077SOL    HW2 4131   5.106   0.493   1.510
 1078SOL     OW 4132   0.270   3.125   1.559
 1078SOL    HW1 4133   0.244   3.220   1.576
 1078SOL    HW2 4134   0.188   3.069   1.549
 1079SOL     OW 4135   2.159   5.334   3.522
 1079SOL    HW1 4136   2.110   5.265   3.576
 1079SOL    HW2 4137   2.105   5.358   3.441
 1080SOL     OW 4138   1.836   5.547   3.925
 1080SOL    HW1 4139   1.743   5.566   3.957
 1080SOL    HW2 4140   1.878   5.631   3.891
 1081SOL     OW 4141   1.667   0.593   0.329
 1081SOL    HW1 4142   1.750   0.538   0.336
 1081SOL    HW2 4143   1.602   0.566   0.400
 1082SOL     OW 4144   2.015   6.949   0.810
 1082SOL    HW1 4145   2.022   6.849   0.810
 1082SOL    HW2 4146   2.016   6.982   0.715
 1083SOL     OW 4147   3.501   2.245   1.720
 1083SOL    HW1 4148   3.444   2.327   1.718
 1083SOL    HW2 4149   3.557   2.245   1.803
 1084SOL     OW 4150   6.811   3.537   0.695
 1084SOL    HW1 4151   6.875   3.464   0.673
 1084SOL    HW2 4152   6.859   3.611   0.742
 1085SOL     OW 4153   1.659   5.253   3.502
 1085SOL    HW1 4154   1.728   5.187   3.471
 1085SOL    HW2 4155   1.578   5.246   3.444
 1086SOL     OW 4156   3.014   5.460   2.699
 1086SOL    HW1 4157   3.046   5.532   2.639
 1086SOL    HW2 4158   3.040   5.480   2.793
 1087SOL     OW 4159   4.075   3.249   4.767
 1087SOL    HW1 4160   4.024   3.235   4.852
 1087SOL    HW2 4161   4.037   3.189   4.696
 1088SOL     OW 4162   6.659   4.381   2.489
 1088SOL    HW1 4163   6.706   4.439   2.422
 1088SOL    HW2 4164   6.724   4.353   2.559
 1089SOL     OW 4165   6.642   6.814   3.224
 1089SOL    HW1 4166   6.726   6.835   3.275
 1089SOL    HW2 4167   6.636   6.716   3.208
 1090SOL     OW 4168   2.070   1.863   6.353
 1090SOL    HW1 4169   1.983   1.831   6.392
 1090SOL    HW2 4170   2.119   1.916   6.422
 1091SOL     OW 4171   0.973   2.609   5.663
 1091SOL    HW1 4172   0.936   2.680   5.723
 1091SOL    HW2 4173   1.067   2.633   5.637
 1092SOL     OW 4174   2.244   4.658   1.093
 1092SOL    HW1 4175   2.340   4.681   1.108
 1092SOL    HW2 4176   2.238   4.585   1.025
 1093SOL     OW 4177   6.793   2.868   1.808
 1093SOL    HW1 4178   6.805   2.772   1.783
 1093SOL    HW2 4179   6.835   2.886   1.896
 1094SOL     OW 4180   0.788   6.821   2.332
 1094SOL    HW1 4181   0.872   6.807   2.279
 1094SOL    HW2 4182   0.709   6.791   2.278
 1095SOL     OW 4183   0.326   3.838   5.907
 1095SOL    HW1 4184   0.268   3.769   5.863
 1095SOL    HW2 4185   0.278   3.878   5.985
 1096SOL     OW 4186   3.562   3.137   1.925
 1096SOL    HW1 4187   3.495   3.065   1.945
 1096SOL    HW2 4188   3.554   3.211   1.991
 1097SOL     OW 4189   2.503   4.551   5.946
 1097SOL    HW1 4190   2.412   4.592   5.934
 1097SOL    HW2 4191   2.565   4.618   5.987
 1098SOL     OW 4192   4.005   0.298   2.646
 1098SOL    HW1 4193   3.929   0.345   2.691
 1098SOL    HW2 4194   4.089   0.351   2.659
 1099SOL     OW 4195   3.532   0.272   2.521
 1099SOL    HW1 4196   3.553   0.177   2.497
 1099SOL    HW2 4197   3.580   0.296   2.606
 1100SOL     OW 4198   6.259   1.055   6.646
 1100SOL    HW1 4199   6.228   1.118   6.575
 1100SOL    HW2 4200   6.326   0.992   6.607
 1101SOL     OW 4201   5.038   3.253   1.577
 1101SOL    HW1 4202   5.037   3.265   1.676
 1101SOL    HW2 4203   5.057   3.341   1.533
 1102SOL     OW 4204   0.252   3.930   3.859
 1102SOL    HW1 4205   0.293   3.950   3.948
 1102SOL    HW2 4206   0.324   3.905   3.794
 1103SOL     OW 4207   0.152   3.235   6.638
 1103SOL    HW1 4208   0.252   3.245   6.644
 1103SOL    HW2 4209   0.109   3.322   6.660
 1104SOL     OW 4210   2.332   5.321   5.915
 1104SOL    HW1 4211   2.282   5.319   6.001
 1104SOL    HW2 4212   2.392   5.400   5.913
 1105SOL     OW 4213   3.837   5.242   1.057
 1105SOL    HW1 4214   3.837   5.296   0.973
 1105SOL    HW2 4215   3.840   5.303   1.136
 1106SOL     OW 4216   1.419   0.858   6.197
 1106SOL    HW1 4217   1.514   0.885   6.189
 1106SOL    HW2 4218   1.411   0.782   6.262
 1107SOL     OW 4219   6.643   0.606   1.360
 1107SOL    HW1 4220   6.686   0.694   1.382
 1107SOL    HW2 4221   6.644   0.592   1.261
 1108SOL     OW 4222   1.305   1.076   6.752
 1108SOL    HW1 4223   1.336   0.984   6.777
 1108SOL    HW2 4224   1.233   1.069   6.683
 1109SOL     OW 4225   4.648   0.788   4.000
 1109SOL    HW1 4226   4.712   0.865   3.994
 1109SOL    HW2 4227   4.640   0.758   4.095
 1110SOL     OW 4228   3.487   2.908   2.845
 1110SOL    HW1 4229   3.393   2.933   2.826
 1110SOL    HW2 4230   3.531   2.876   2.761
 1111SOL     OW 4231   4.455   7.010   0.280
 1111SOL    HW1 4232   4.379   0.034   0.325
 1111SOL    HW2 4233   4.534   7.007   0.341
 1112SOL     OW 4234   0.936   1.473   2.633
 1112SOL    HW1 4235   1.015   1.417   2.612
 1112SOL    HW2 4236   0.918   1.535   2.557
 1113SOL     OW 4237   6.324   3.605   1.396
 1113SOL    HW1 4238   6.253   3.668   1.365
 1113SOL    HW2 4239   6.414   3.648   1.388
 1114SOL     OW 4240   5.805   0.885   5.633
 1114SOL    HW1 4241   5.874   0.842   5.691
 1114SOL    HW2 4242   5.788   0.978   5.665
 1115SOL     OW 4243   2.522   4.726   1.060
 1115SOL    HW1 4244   2.504   4.764   0.969
 1115SOL    HW2 4245   2.604   4.669   1.056
 1116SOL     OW 4246   3.544   6.303   6.449
 1116SOL    HW1 4247   3.510   6.397   6.452
 1116SOL    HW2 4248   3.613   6.290   6.520
 1117SOL     OW 4249   2.444   3.279   0.892
 1117SOL    HW1 4250   2.495   3.193   0.894
 1117SOL    HW2 4251   2.346   3.259   0.896
 1118SOL     OW 4252   1.819   3.222   1.786
 1118SOL    HW1 4253   1.749   3.228   1.715
 1118SOL    HW2 4254   1.819   3.306   1.840
 1119SOL     OW 4255   2.937   3.472   3.058
 1119SOL    HW1 4256   2.883   3.428   3.129
 1119SOL    HW2 4257   2.908   3.567   3.047
 1120SOL     OW 4258   4.416   0.869   3.881
 1120SOL    HW1 4259   4.511   0.853   3.908
 1120SOL    HW2 4260   4.356   0.805   3.930
 1121SOL     OW 4261   5.429   3.231   3.195
 1121SOL    HW1 4262   5.518   3.224   3.239
 1121SOL    HW2 4263   5.365   3.167   3.238
 1122SOL     OW 4264   4.667   5.328   6.333
 1122SOL    HW1 4265   4.663   5.415   6.382
 1122SOL    HW2 4266   4.763   5.308   6.310
 1123SOL     OW 4267   4.073   1.422   1.936
 1123SOL    HW1 4268   4.126   1.418   1.852
 1123SOL    HW2 4269   3.979   1.392   1.917
 1124SOL     OW 4270   1.578   5.033   4.491
 1124SOL    HW1 4271   1.597   5.129   4.509
 1124SOL    HW2 4272   1.595   5.013   4.394
 1125SOL     OW 4273   2.877   3.635   4.791
 1125SOL    HW1 4274   2.781   3.632   4.816
 1125SOL    HW2 4275   2.920   3.548   4.814
 1126SOL     OW 4276   6.357   0.387   2.557
 1126SOL    HW1 4277   6.418   0.464   2.539
 1126SOL    HW2 4278   6.410   0.309   2.590
 1127SOL     OW 4279   2.003   5.783   6.335
 1127SOL    HW1 4280   2.043   5.801   6.425
 1127SOL    HW2 4281   2.037   5.851   6.270
 1128SOL     OW 4282   2.254   2.402   4.293
 1128SOL    HW1 4283   2.317   2.326   4.281
 1128SOL    HW2 4284   2.174   2.372   4.344
 1129SOL     OW 4285   4.406   6.732   6.175
 1129SOL    HW1 4286   4.498   6.720   6.139
 1129SOL    HW2 4287   4.387   6.830   6.186
 1130SOL     OW 4288   6.961   5.633   5.540
 1130SOL    HW1 4289   6.915   5.545   5.546
 1130SOL    HW2 4290   0.024   5.630   5.592
 1131SOL     OW 4291   0.207   5.452   5.615
 1131SOL    HW1 4292   0.187   5.416   5.706
 1131SOL    HW2 4293   0.191   5.381   5.547
 1132SOL     OW 4294   5.533   6.418   4.996
 1132SOL    HW1 4295   5.455   6.388   4.940
 1132SOL    HW2 4296   5.508   6.415   5.092
 1133SOL     OW 4297   6.892   2.661   6.585
 1133SOL    HW1 4298   6.808   2.655   6.531
 1133SOL    HW2 4299   6.924   2.569   6.607
 1134SOL     OW 4300   7.010   2.322   5.752
 1134SOL    HW1 4301   0.036   2.394   5.703
 1134SOL    HW2 4302   6.945   2.363   5.816
 1135SOL     OW 4303   6.293   1.588   4.816
 1135SOL    HW1 4304   6.195   1.596   4.835
 1135SOL    HW2 4305   6.308   1.596   4.718
 1136SOL     OW 4306   3.531   5.265   4.098
 1136SOL    HW1 4307   3.573   5.275   4.008
 1136SOL    HW2 4308   3.527   5.168   4.123
 1137SOL     OW 4309   1.691   0.828   6.340
 1137SOL    HW1 4310   1.756   0.831   6.417
 1137SOL    HW2 4311   1.645   0.740   6.340
 1138SOL     OW 4312   0.979   3.960   5.593
 1138SOL    HW1 4313   0.977   4.031   5.664
 1138SOL    HW2 4314   1.072   3.947   5.561
 1139SOL     OW 4315   0.854   0.057   2.410
 1139SOL    HW1 4316   0.951   0.070   2.390
 1139SOL    HW2 4317   0.831   6.983   2.403
 1140SOL     OW 4318   3.563   2.119   3.167
 1140SOL    HW1 4319   3.574   2.160   3.077
 1140SOL    HW2 4320   3.620   2.166   3.233
 1141SOL     OW 4321   6.703   6.000   6.060
 1141SOL    HW1 4322   6.682   5.912   6.018
 1141SOL    HW2 4323   6.711   6.070   5.990
 1142SOL     OW 4324   6.579   0.594   4.573
 1142SOL    HW1 4325   6.571   0.575   4.671
 1142SOL    HW2 4326   6.489   0.623   4.538
 1143SOL     OW 4327   4.599   1.799   1.645
 1143SOL    HW1 4328   4.595   1.840   1.736
 1143SOL    HW2 4329   4.508   1.767   1.619
 1144SOL     OW 4330   0.852   6.755   5.276
 1144SOL    HW1 4331   0.919   6.828   5.262
 1144SOL    HW2 4332   0.865   6.685   5.205
 1145SOL     OW 4333   1.896   4.578   4.810
 1145SOL    HW1 4334   1.797   4.564   4.820
 1145SOL    HW2 4335   1.943   4.531   4.884
 1146SOL     OW 4336   5.791   1.772   0.933
 1146SOL    HW1 4337   5.776   1.678   0.901
 1146SOL    HW2 4338   5.879   1.804   0.899
 1147SOL     OW 4339   6.618   3.567   2.125
 1147SOL    HW1 4340   6.595   3.650   2.075
 1147SOL    HW2 4341   6.544   3.500   2.115
 1148SOL     OW 4342   5.514   1.077   6.546
 1148SOL    HW1 4343   5.566   1.144   6.492
 1148SOL    HW2 4344   5.558   0.988   6.540
 1149SOL     OW 4345   5.565   2.252   3.155
 1149SOL    HW1 4346   5.563   2.231   3.058
 1149SOL    HW2 4347   5.494   2.319   3.176
 1150SOL     OW 4348   1.258   5.484   5.624
 1150SOL    HW1 4349   1.287   5.579   5.616
 1150SOL    HW2 4350   1.318   5.426   5.569
 1151SOL     OW 4351   2.630   5.132   0.091
 1151SOL    HW1 4352   2.627   5.093   7.022
 1151SOL    HW2 4353   2.709   5.095   0.141
 1152SOL     OW 4354   0.910   0.826   4.179
 1152SOL    HW1 4355   0.877   0.916   4.150
 1152SOL    HW2 4356   0.834   0.775   4.221
 1153SOL     OW 4357   2.490   4.487   2.554
 1153SOL    HW1 4358   2.464   4.476   2.458
 1153SOL    HW2 4359   2.580   4.530   2.559
 1154SOL     OW 4360   1.907   4.032   2.199
 1154SOL    HW1 4361   1.876   3.967   2.268
 1154SOL    HW2 4362   1.876   4.003   2.109
 1155SOL     OW 4363   4.227   6.846   2.703
 1155SOL    HW1 4364   4.223   6.777   2.630
 1155SOL    HW2 4365   4.188   6.932   2.669
 1156SOL     OW 4366   1.645   1.640   3.995
 1156SOL    HW1 4367   1.558   1.606   3.959
 1156SOL    HW2 4368   1.627   1.706   4.068
 1157SOL     OW 4369   1.409   2.878   4.256
 1157SOL    HW1 4370   1.380   2.849   4.347
 1157SOL    HW2 4371   1.488   2.938   4.264
 1158SOL     OW 4372   4.242   5.910   6.179
 1158SOL    HW1 4373   4.296   5.837   6.136
 1158SOL    HW2 4374   4.303   5.968   6.234
 1159SOL     OW 4375   6.157   4.540   2.391
 1159SOL    HW1 4376   6.088   4.591   2.442
 1159SOL    HW2 4377   6.115   4.494   2.313
 1160SOL     OW 4378   3.073   3.096   1.441
 1160SOL    HW1 4379   3.055   3.183   1.395
 1160SOL    HW2 4380   3.097   3.027   1.373
 1161SOL     OW 4381   4.312   0.698   4.054
 1161SOL    HW1 4382   4.303   0.600   4.036
 1161SOL    HW2 4383   4.330   0.711   4.152
 1162SOL     OW 4384   3.795   5.229   1.413
 1162SOL    HW1 4385   3.796   5.248   1.511
 1162SOL    HW2 4386   3.741   5.299   1.366
 1163SOL     OW 4387   5.250   0.056   2.309
 1163SOL    HW1 4388   5.325   0.061   2.243
 1163SOL    HW2 4389   5.283   0.087   2.398
 1164SOL     OW 4390   6.390   3.486   4.184
 1164SOL    HW1 4391   6.295   3.457   4.179
 1164SOL    HW2 4392   6.400   3.577   4.144
 1165SOL     OW 4393   0.898   4.861   2.392
 1165SOL    HW1 4394   0.917   4.776   2.441
 1165SOL    HW2 4395   0.843   4.841   2.311
 1166SOL     OW 4396   3.322   1.907   6.865
 1166SOL    HW1 4397   3.377   1.835   6.821
 1166SOL    HW2 4398   3.307   1.884   6.961
 1167SOL     OW 4399   3.832   1.843   5.283
 1167SOL    HW1 4400   3.849   1.753   5.242
 1167SOL    HW2 4401   3.742   1.877   5.253
 1168SOL     OW 4402   6.009   6.987   3.410
 1168SOL    HW1 4403   6.086   7.001   3.472
 1168SOL    HW2 4404   5.937   6.935   3.457
 1169SOL     OW 4405   1.237   2.983   1.093
 1169SOL    HW1 4406   1.212   2.920   1.020
 1169SOL    HW2 4407   1.254   3.074   1.055
 1170SOL     OW 4408   2.978   0.648   1.126
 1170SOL    HW1 4409   3.040   0.678   1.199
 1170SOL    HW2 4410   2.999   0.698   1.042
 1171SOL     OW 4411   2.925   0.746   0.165
 1171SOL    HW1 4412   2.898   0.749   0.261
 1171SOL    HW2 4413   2.887   0.826   0.118
 1172SOL     OW 4414   3.420   3.481   5.316
 1172SOL    HW1 4415   3.358   3.542   5.365
 1172SOL    HW2 4416   3.445   3.404   5.375
 1173SOL     OW 4417   5.432   0.009   6.268
 1173SOL    HW1 4418   5.515   0.057   6.299
 1173SOL    HW2 4419   5.419   0.026   6.170
 1174SOL     OW 4420   3.466   5.922   6.814
 1174SOL    HW1 4421   3.368   5.908   6.804
 1174SOL    HW2 4422   3.509   5.927   6.723
 1175SOL     OW 4423   0.169   4.894   4.601
 1175SOL    HW1 4424   0.240   4.942   4.652
 1175SOL    HW2 4425   0.206   4.862   4.514
 1176SOL     OW 4426   6.582   2.724   1.241
 1176SOL    HW1 4427   6.551   2.722   1.146
 1176SOL    HW2 4428   6.560   2.636   1.285
 1177SOL     OW 4429   5.970   3.549   6.829
 1177SOL    HW1 4430   5.882   3.596   6.832
 1177SOL    HW2 4431   5.969   3.481   6.755
 1178SOL     OW 4432   5.588   4.341   2.609
 1178SOL    HW1 4433   5.589   4.304   2.702
 1178SOL    HW2 4434   5.671   4.313   2.562
 1179SOL     OW 4435   1.825   5.734   5.989
 1179SOL    HW1 4436   1.913   5.714   5.947
 1179SOL    HW2 4437   1.752   5.690   5.937
 1180SOL     OW 4438   1.953   0.913   3.961
 1180SOL    HW1 4439   2.029   0.856   3.995
 1180SOL    HW2 4440   1.968   1.008   3.991
 1181SOL     OW 4441   1.672   4.475   2.520
 1181SOL    HW1 4442   1.619   4.543   2.569
 1181SOL    HW2 4443   1.633   4.459   2.430
 1182SOL     OW 4444   1.301   3.919   4.352
 1182SOL    HW1 4445   1.237   3.849   4.321
 1182SOL    HW2 4446   1.394   3.881   4.352
 1183SOL     OW 4447   4.567   6.075   0.938
 1183SOL    HW1 4448   4.564   6.143   0.865
 1183SOL    HW2 4449   4.639   6.098   1.003
 1184SOL     OW 4450   3.502   2.994   6.246
 1184SOL    HW1 4451   3.557   2.948   6.176
 1184SOL    HW2 4452   3.447   3.066   6.204
 1185SOL     OW 4453   2.793   1.238   6.506
 1185SOL    HW1 4454   2.870   1.235   6.569
 1185SOL    HW2 4455   2.780   1.148   6.464
 1186SOL     OW 4456   3.533   0.842   5.089
 1186SOL    HW1 4457   3.442   0.879   5.069
 1186SOL    HW2 4458   3.584   0.908   5.144
 1187SOL     OW 4459   0.903   2.122   4.672
 1187SOL    HW1 4460   0.947   2.086   4.755
 1187SOL    HW2 4461   0.821   2.172   4.698
 1188SOL     OW 4462   1.591   0.806   4.943
 1188SOL    HW1 4463   1.575   0.727   4.886
 1188SOL    HW2 4464   1.648   0.780   5.021
 1189SOL     OW 4465   0.095   1.308   1.491
 1189SOL    HW1 4466   0.136   1.336   1.578
 1189SOL    HW2 4467   7.019   1.321   1.495
 1190SOL     OW 4468   4.161   5.430   1.887
 1190SOL    HW1 4469   4.222   5.368   1.838
 1190SOL    HW2 4470   4.176   5.420   1.985
 1191SOL     OW 4471   2.554   4.595   1.566
 1191SOL    HW1 4472   2.509   4.510   1.539
 1191SOL    HW2 4473   2.485   4.659   1.600
 1192SOL     OW 4474   4.120   5.058   2.663
 1192SOL    HW1 4475   4.210   5.096   2.640
 1192SOL    HW2 4476   4.089   5.096   2.750
 1193SOL     OW 4477   3.714   6.923   4.368
 1193SOL    HW1 4478   3.798   6.962   4.407
 1193SOL    HW2 4479   3.738   6.861   4.294
 1194SOL     OW 4480   5.794   1.618   1.371
 1194SOL    HW1 4481   5.812   1.555   1.447
 1194SOL    HW2 4482   5.843   1.704   1.387
 1195SOL     OW 4483   3.230   6.405   6.995
 1195SOL    HW1 4484   3.220   6.460   0.055
 1195SOL    HW2 4485   3.315   6.430   6.949
 1196SOL     OW 4486   1.441   5.237   3.282
 1196SOL    HW1 4487   1.494   5.225   3.198
 1196SOL    HW2 4488   1.344   5.243   3.260
 1197SOL     OW 4489   3.298   4.870   6.822
 1197SOL    HW1 4490   3.371   4.922   6.777
 1197SOL    HW2 4491   3.324   4.773   6.826
 1198SOL     OW 4492   3.378   0.962   2.506
 1198SOL    HW1 4493   3.294   0.910   2.491
 1198SOL    HW2 4494   3.407   0.952   2.601
 1199SOL     OW 4495   3.265   3.478   3.951
 1199SOL    HW1 4496   3.286   3.509   3.858
 1199SOL    HW2 4497   3.315   3.394   3.970
 1200SOL     OW 4498   4.852   3.507   1.351
 1200SOL    HW1 4499   4.839   3.474   1.258
 1200SOL    HW2 4500   4.778   3.571   1.374
 1201SOL     OW 4501   1.690   1.791   4.915
 1201SOL    HW1 4502   1.744   1.853   4.973
 1201SOL    HW2 4503   1.635   1.731   4.974
 1202SOL     OW 4504   6.444   0.403   4.783
 1202SOL    HW1 4505   6.347   0.380   4.771
 1202SOL    HW2 4506   6.459   0.434   4.877
 1203SOL     OW 4507   6.412   6.524   2.413
 1203SOL    HW1 4508   6.430   6.441   2.465
 1203SOL    HW2 4509   6.388   6.501   2.319
 1204SOL     OW 4510   1.324   0.000   0.253
 1204SOL    HW1 4511   1.291   6.996   0.163
 1204SOL    HW2 4512   1.285   0.089   0.277
 1205SOL     OW 4513   0.789   3.030   5.559
 1205SOL    HW1 4514   0.887   3.029   5.577
 1205SOL    HW2 4515   0.761   2.942   5.520
 1206SOL     OW 4516   0.096   1.946   4.478
 1206SOL    HW1 4517   0.049   1.864   4.444
 1206SOL    HW2 4518   0.169   1.971   4.414
 1207SOL     OW 4519   6.097   6.603   6.807
 1207SOL    HW1 4520   6.143   6.608   6.718
 1207SOL    HW2 4521   6.165   6.584   6.878
 1208SOL     OW 4522   3.734   3.545   2.884
 1208SOL    HW1 4523   3.672   3.508   2.953
 1208SOL    HW2 4524   3.690   3.543   2.794
 1209SOL     OW 4525   6.778   4.456   4.826
 1209SOL    HW1 4526   6.835   4.491   4.751
 1209SOL    HW2 4527   6.748   4.532   4.883
 1210SOL     OW 4528   2.442   6.857   2.933
 1210SOL    HW1 4529   2.357   6.883   2.887
 1210SOL    HW2 4530   2.458   6.759   2.921
 1211SOL     OW 4531   1.237   2.922   2.773
 1211SOL    HW1 4532   1.329   2.959   2.765
 1211SOL    HW2 4533   1.170   2.994   2.752
 1212SOL     OW 4534   0.995   4.613   3.576
 1212SOL    HW1 4535   1.065   4.664   3.526
 1212SOL    HW2 4536   0.941   4.677   3.631
 1213SOL     OW 4537   5.785   3.456   5.154
 1213SOL    HW1 4538   5.733   3.535   5.120
 1213SOL    HW2 4539   5.721   3.385   5.184
 1214SOL     OW 4540   1.635   1.505   1.551
 1214SOL    HW1 4541   1.659   1.514   1.455
 1214SOL    HW2 4542   1.535   1.502   1.561
 1215SOL     OW 4543   0.277   5.441   2.003
 1215SOL    HW1 4544   0.248   5.378   2.075
 1215SOL    HW2 4545   0.278   5.534   2.039
 1216SOL     OW 4546   2.484   6.980   1.521
 1216SOL    HW1 4547   2.578   7.009   1.540
 1216SOL    HW2 4548   2.427   0.038   1.506
 1217SOL     OW 4549   2.169   2.265   3.029
 1217SOL    HW1 4550   2.109   2.338   2.996
 1217SOL    HW2 4551   2.203   2.212   2.951
 1218SOL     OW 4552   0.516   3.265   3.512
 1218SOL    HW1 4553   0.461   3.283   3.430
 1218SOL    HW2 4554   0.537   3.168   3.517
 1219SOL     OW 4555   2.800   5.420   3.415
 1219SOL    HW1 4556   2.710   5.458   3.435
 1219SOL    HW2 4557   2.831   5.454   3.326
 1220SOL     OW 4558   6.408   4.554   2.122
 1220SOL    HW1 4559   6.360   4.489   2.063
 1220SOL    HW2 4560   6.354   4.572   2.204
 1221SOL     OW 4561   4.976   4.607   5.783
 1221SOL    HW1 4562   5.071   4.576   5.787
 1221SOL    HW2 4563   4.958   4.668   5.860
 1222SOL     OW 4564   6.311   4.548   1.299
 1222SOL    HW1 4565   6.404   4.530   1.267
 1222SOL    HW2 4566   6.262   4.601   1.230
 1223SOL     OW 4567   7.017   4.929   5.058
 1223SOL    HW1 4568   6.962   4.931   5.141
 1223SOL    HW2 4569   6.959   4.904   4.980
 1224SOL     OW 4570   4.162   4.776   1.020
 1224SOL    HW1 4571   4.081   4.728   0.985
 1224SOL    HW2 4572   4.179   4.857   0.965
 1225SOL     OW 4573   4.212   1.790   6.729
 1225SOL    HW1 4574   4.276   1.804   6.805
 1225SOL    HW2 4575   4.251   1.723   6.666
 1226SOL     OW 4576   5.854   5.594   0.934
 1226SOL    HW1 4577   5.769   5.604   0.986
 1226SOL    HW2 4578   5.839   5.627   0.840
 1227SOL     OW 4579   4.943   4.710   6.713
 1227SOL    HW1 4580   5.006   4.778   6.751
 1227SOL    HW2 4581   4.870   4.692   6.780
 1228SOL     OW 4582   3.610   4.119   4.209
 1228SOL    HW1 4583   3.664   4.078   4.282
 1228SOL    HW2 4584   3.524   4.154   4.248
 1229SOL     OW 4585   2.425   5.350   3.124
 1229SOL    HW1 4586   2.450   5.316   3.215
 1229SOL    HW2 4587   2.373   5.435   3.134
 1230SOL     OW 4588   4.371   5.052   1.046
 1230SOL    HW1 4589   4.338   5.136   1.002
 1230SOL    HW2 4590   4.314   5.032   1.126
 1231SOL     OW 4591   2.100   1.428   0.197
 1231SOL    HW1 4592   2.065   1.422   0.104
 1231SOL    HW2 4593   2.075   1.345   0.248
 1232SOL     OW 4594   2.771   1.368   5.289
 1232SOL    HW1 4595   2.806   1.460   5.277
 1232SOL    HW2 4596   2.723   1.361   5.376
 1233SOL     OW 4597   0.274   5.225   4.787
 1233SOL    HW1 4598   0.247   5.254   4.696
 1233SOL    HW2 4599   0.240   5.291   4.855
 1234SOL     OW 4600   6.354   4.682   6.886
 1234SOL    HW1 4601   6.405   4.602   6.917
 1234SOL    HW2 4602   6.360   4.689   6.786
 1235SOL     OW 4603   5.985   4.728   1.124
 1235SOL    HW1 4604   6.013   4.777   1.206
 1235SOL    HW2 4605   5.894   4.758   1.096
 1236SOL     OW 4606   1.147   1.224   2.663
 1236SOL    HW1 4607   1.181   1.281   2.738
 1236SOL    HW2 4608   1.075   1.164   2.696
 1237SOL     OW 4609   1.350   0.293   4.299
 1237SOL    HW1 4610   1.325   0.258   4.390
 1237SOL    HW2 4611   1.446   0.321   4.300
 1238SOL     OW 4612   0.849   0.411   4.262
 1238SOL    HW1 4613   0.785   0.405   4.185
 1238SOL    HW2 4614   0.941   0.385   4.231
 1239SOL     OW 4615   5.017   4.413   4.033
 1239SOL    HW1 4616   4.942   4.477   4.016
 1239SOL    HW2 4617   5.054   4.429   4.125
 1240SOL     OW 4618   0.424   3.645   0.601
 1240SOL    HW1 4619   0.384   3.555   0.622
 1240SOL    HW2 4620   0.392   3.712   0.668
 1241SOL     OW 4621   3.931   5.592   5.902
 1241SOL    HW1 4622   3.943   5.530   5.824
 1241SOL    HW2 4623   3.845   5.641   5.891
 1242SOL     OW 4624   1.901   5.004   0.425
 1242SOL    HW1 4625   1.826   5.069   0.415
 1242SOL    HW2 4626   1.988   5.053   0.420
 1243SOL     OW 4627   1.331   3.832   3.541
 1243SOL    HW1 4628   1.393   3.809   3.616
 1243SOL    HW2 4629   1.379   3.819   3.454
 1244SOL     OW 4630   6.394   0.047   4.770
 1244SOL    HW1 4631   6.360   0.137   4.742
 1244SOL    HW2 4632   6.373   0.032   4.867
 1245SOL     OW 4633   4.718   6.640   1.176
 1245SOL    HW1 4634   4.715   6.601   1.084
 1245SOL    HW2 4635   4.625   6.659   1.208
 1246SOL     OW 4636   5.885   1.847   1.484
 1246SOL    HW1 4637   5.791   1.867   1.512
 1246SOL    HW2 4638   5.915   1.916   1.417
 1247SOL     OW 4639   5.443   6.985   2.750
 1247SOL    HW1 4640   5.455   0.034   2.819
 1247SOL    HW2 4641   5.414   6.900   2.795
 1248SOL     OW 4642   0.612   6.717   4.599
 1248SOL    HW1 4643   0.555   6.672   4.668
 1248SOL    HW2 4644   0.697   6.666   4.589
 1249SOL     OW 4645   5.898   6.444   6.960
 1249SOL    HW1 4646   5.956   6.400   0.006
 1249SOL    HW2 4647   5.952   6.511   6.909
 1250SOL     OW 4648   0.450   4.688   4.755
 1250SOL    HW1 4649   0.377   4.621   4.760
 1250SOL    HW2 4650   0.412   4.780   4.766
 1251SOL     OW 4651   3.157   0.286   2.539
 1251SOL    HW1 4652   3.203   0.210   2.493
 1251SOL    HW2 4653   3.064   0.295   2.503
 1252SOL     OW 4654   2.557   5.384   6.222
 1252SOL    HW1 4655   2.548   5.363   6.124
 1252SOL    HW2 4656   2.653   5.390   6.246
 1253SOL     OW 4657   2.591   6.302   0.053
 1253SOL    HW1 4658   2.646   6.256   0.122
 1253SOL    HW2 4659   2.540   6.377   0.095
 1254SOL     OW 4660   6.303   1.419   3.674
 1254SOL    HW1 4661   6.241   1.356   3.720
 1254SOL    HW2 4662   6.251   1.475   3.609
 1255SOL     OW 4663   6.004   1.943   5.605
 1255SOL    HW1 4664   6.035   1.915   5.695
 1255SOL    HW2 4665   5.966   2.035   5.609
 1256SOL     OW 4666   0.340   5.826   5.046
 1256SOL    HW1 4667   0.429   5.843   5.087
 1256SOL    HW2 4668   0.270   5.823   5.117
 1257SOL     OW 4669   6.963   6.356   3.345
 1257SOL    HW1 4670   6.897   6.390   3.278
 1257SOL    HW2 4671   6.953   6.257   3.354
 1258SOL     OW 4672   4.534   5.903   6.459
 1258SOL    HW1 4673   4.519   5.923   6.556
 1258SOL    HW2 4674   4.488   5.972   6.403
 1259SOL     OW 4675   5.671   6.510   5.370
 1259SOL    HW1 4676   5.711   6.555   5.290
 1259SOL    HW2 4677   5.647   6.579   5.437
 1260SOL     OW 4678   3.030   1.468   0.518
 1260SOL    HW1 4679   2.958   1.451   0.451
 1260SOL    HW2 4680   3.119   1.452   0.476
 1261SOL     OW 4681   0.017   4.379   4.344
 1261SOL    HW1 4682   0.077   4.315   4.392
 1261SOL    HW2 4683   0.024   4.469   4.386
 1262SOL     OW 4684   3.823   5.624   1.652
 1262SOL    HW1 4685   3.801   5.573   1.735
 1262SOL    HW2 4686   3.740   5.668   1.617
 1263SOL     OW 4687   6.826   1.830   1.006
 1263SOL    HW1 4688   6.827   1.751   1.069
 1263SOL    HW2 4689   6.908   1.885   1.021
 1264SOL     OW 4690   6.497   2.816   4.841
 1264SOL    HW1 4691   6.424   2.768   4.792
 1264SOL    HW2 4692   6.478   2.914   4.840
 1265SOL     OW 4693   6.098   5.735   4.545
 1265SOL    HW1 4694   6.178   5.686   4.579
 1265SOL    HW2 4695   6.101   5.830   4.578
 1266SOL     OW 4696   3.355   0.704   3.997
 1266SOL    HW1 4697   3.270   0.669   4.036
 1266SOL    HW2 4698   3.401   0.762   4.063
 1267SOL     OW 4699   0.170   4.433   2.765
 1267SOL    HW1 4700   0.195   4.491   2.687
 1267SOL    HW2 4701   0.135   4.490   2.839
 1268SOL     OW 4702   6.109   4.506   6.867
 1268SOL    HW1 4703   6.041   4.490   6.938
 1268SOL    HW2 4704   6.171   4.579   6.896
 1269SOL     OW 4705   6.779   5.098   6.663
 1269SOL    HW1 4706   6.766   5.110   6.565
 1269SOL    HW2 4707   6.843   5.167   6.697
 1270SOL     OW 4708   1.181   1.846   4.092
 1270SOL    HW1 4709   1.235   1.929   4.108
 1270SOL    HW2 4710   1.207   1.805   4.005
 1271SOL     OW 4711   4.926   2.289   3.713
 1271SOL    HW1 4712   4.850   2.259   3.770
 1271SOL    HW2 4713   4.891   2.326   3.627
 1272SOL     OW 4714   6.142   6.387   0.561
 1272SOL    HW1 4715   6.229   6.405   0.608
 1272SOL    HW2 4716   6.070   6.442   0.603
 1273SOL     OW 4717   2.554   6.874   5.663
 1273SOL    HW1 4718   2.527   6.824   5.744
 1273SOL    HW2 4719   2.481   6.937   5.637
 1274SOL     OW 4720   5.957   1.913   2.290
 1274SOL    HW1 4721   5.909   1.977   2.230
 1274SOL    HW2 4722   6.056   1.922   2.276
 1275SOL     OW 4723   4.048   1.693   3.728
 1275SOL    HW1 4724   4.061   1.600   3.762
 1275SOL    HW2 4725   4.007   1.750   3.799
 1276SOL     OW 4726   6.466   6.975   2.240
 1276SOL    HW1 4727   6.531   6.901   2.261
 1276SOL    HW2 4728   6.449   0.006   2.322
 1277SOL     OW 4729   1.239   1.791   4.363
 1277SOL    HW1 4730   1.171   1.737   4.411
 1277SOL    HW2 4731   1.214   1.798   4.266
 1278SOL     OW 4732   3.203   1.204   5.853
 1278SOL    HW1 4733   3.258   1.127   5.887
 1278SOL    HW2 4734   3.166   1.256   5.930
 1279SOL     OW 4735   2.188   4.749   0.230
 1279SOL    HW1 4736   2.098   4.770   0.191
 1279SOL    HW2 4737   2.254   4.818   0.200
 1280SOL     OW 4738   1.690   5.402   2.887
 1280SOL    HW1 4739   1.759   5.331   2.905
 1280SOL    HW2 4740   1.719   5.488   2.928
 1281SOL     OW 4741   0.917   6.906   4.000
 1281SOL    HW1 4742   0.864   6.827   4.031
 1281SOL    HW2 4743   0.978   6.878   3.926
 1282SOL     OW 4744   1.106   6.725   2.563
 1282SOL    HW1 4745   1.131   6.819   2.588
 1282SOL    HW2 4746   1.179   6.685   2.508
 1283SOL     OW 4747   4.752   4.100   5.080
 1283SOL    HW1 4748   4.823   4.049   5.032
 1283SOL    HW2 4749   4.783   4.193   5.097
 1284SOL     OW 4750   2.765   2.025   3.192
 1284SOL    HW1 4751   2.808   2.106   3.232
 1284SOL    HW2 4752   2.775   1.948   3.255
 1285SOL     OW 4753   5.783   2.844   5.518
 1285SOL    HW1 4754   5.764   2.755   5.476
 1285SOL    HW2 4755   5.745   2.916   5.461
 1286SOL     OW 4756   5.970   6.191   1.895
 1286SOL    HW1 4757   5.957   6.175   1.797
 1286SOL    HW2 4758   5.957   6.105   1.945
 1287SOL     OW 4759   6.311   4.214   5.715
 1287SOL    HW1 4760   6.357   4.193   5.629
 1287SOL    HW2 4761   6.319   4.312   5.734
 1288SOL     OW 4762   6.405   2.806   4.008
 1288SOL    HW1 4763   6.368   2.779   4.096
 1288SOL    HW2 4764   6.336   2.793   3.937
 1289SOL     OW 4765   0.093   5.064   2.894
 1289SOL    HW1 4766   0.131   5.028   2.979
 1289SOL    HW2 4767   7.017   5.076   2.905
 1290SOL     OW 4768   0.559   0.341   0.981
 1290SOL    HW1 4769   0.603   0.259   0.943
 1290SOL    HW2 4770   0.629   0.407   1.007
 1291SOL     OW 4771   1.443   6.942   0.875
 1291SOL    HW1 4772   1.406   6.909   0.962
 1291SOL    HW2 4773   1.399   6.894   0.800
 1292SOL     OW 4774   0.780   6.066   6.471
 1292SOL    HW1 4775   0.773   5.978   6.518
 1292SOL    HW2 4776   0.727   6.135   6.520
 1293SOL     OW 4777   6.062   2.570   6.056
 1293SOL    HW1 4778   6.078   2.487   6.109
 1293SOL    HW2 4779   6.095   2.650   6.108
 1294SOL     OW 4780   0.358   1.701   3.464
 1294SOL    HW1 4781   0.382   1.775   3.527
 1294SOL    HW2 4782   0.441   1.649   3.441
 1295SOL     OW 4783   5.051   3.545   1.528
 1295SOL    HW1 4784   5.018   3.528   1.435
 1295SOL    HW2 4785   4.987   3.506   1.594
 1296SOL     OW 4786   3.790   2.345   0.345
 1296SOL    HW1 4787   3.742   2.288   0.412
 1296SOL    HW2 4788   3.812   2.434   0.386
 1297SOL     OW 4789   6.713   0.811   6.095
 1297SOL    HW1 4790   6.660   0.774   6.172
 1297SOL    HW2 4791   6.768   0.889   6.127
 1298SOL     OW 4792   6.599   2.467   3.338
 1298SOL    HW1 4793   6.672   2.453   3.271
 1298SOL    HW2 4794   6.519   2.507   3.292
 1299SOL     OW 4795   1.225   3.041   4.127
 1299SOL    HW1 4796   1.177   3.098   4.195
 1299SOL    HW2 4797   1.293   2.984   4.174
 1300SOL     OW 4798   3.904   3.478   2.070
 1300SOL    HW1 4799   3.963   3.558   2.069
 1300SOL    HW2 4800   3.960   3.395   2.063
 1301SOL     OW 4801   0.886   0.669   2.421
 1301SOL    HW1 4802   0.853   0.750   2.469
 1301SOL    HW2 4803   0.859   0.673   2.325
 1302SOL     OW 4804   3.144   5.883   5.415
 1302SOL    HW1 4805   3.084   5.837   5.348
 1302SOL    HW2 4806   3.198   5.814   5.464
 1303SOL     OW 4807   2.731   0.244   1.323
 1303SOL    HW1 4808   2.830   0.233   1.312
 1303SOL    HW2 4809   2.711   0.279   1.415
 1304SOL     OW 4810   3.395   1.129   6.545
 1304SOL    HW1 4811   3.385   1.051   6.608
 1304SOL    HW2 4812   3.311   1.140   6.492
 1305SOL     OW 4813   5.813   5.972   3.944
 1305SOL    HW1 4814   5.904   5.949   3.979
 1305SOL    HW2 4815   5.773   6.045   4.000
 1306SOL     OW 4816   1.478   5.090   4.873
 1306SOL    HW1 4817   1.438   5.142   4.948
 1306SOL    HW2 4818   1.519   5.154   4.807
 1307SOL     OW 4819   1.189   1.693   3.844
 1307SOL    HW1 4820   1.177   1.777   3.791
 1307SOL    HW2 4821   1.132   1.621   3.806
 1308SOL     OW 4822   4.452   6.272   3.258
 1308SOL    HW1 4823   4.408   6.340   3.199
 1308SOL    HW2 4824   4.467   6.311   3.349
 1309SOL     OW 4825   5.441   3.086   4.649
 1309SOL    HW1 4826   5.466   3.172   4.603
 1309SOL    HW2 4827   5.344   3.088   4.673
 1310SOL     OW 4828   5.588   3.876   5.499
 1310SOL    HW1 4829   5.590   3.782   5.534
 1310SOL    HW2 4830   5.561   3.938   5.573
 1311SOL     OW 4831   5.256   5.102   5.219
 1311SOL    HW1 4832   5.265   5.099   5.120
 1311SOL    HW2 4833   5.228   5.193   5.248
 1312SOL     OW 4834   6.211   0.163   2.012
 1312SOL    HW1 4835   6.224   0.160   2.111
 1312SOL    HW2 4836   6.191   0.071   1.978
 1313SOL     OW 4837   3.020   4.887   4.697
 1313SOL    HW1 4838   2.986   4.920   4.785
 1313SOL    HW2 4839   3.116   4.862   4.706
 1314SOL     OW 4840   6.148   1.510   5.882
 1314SOL    HW1 4841   6.123   1.600   5.918
 1314SOL    HW2 4842   6.247   1.498   5.891
 1315SOL     OW 4843   1.994   6.915   3.330
 1315SOL    HW1 4844   2.062   6.989   3.332
 1315SOL    HW2 4845   1.937   6.925   3.249
 1316SOL     OW 4846   3.719   6.336   2.972
 1316SOL    HW1 4847   3.637   6.337   3.029
 1316SOL    HW2 4848   3.751   6.430   2.957
 1317SOL     OW 4849   0.407   3.458   4.082
 1317SOL    HW1 4850   0.478   3.526   4.064
 1317SOL    HW2 4851   0.362   3.434   3.996
 1318SOL     OW 4852   1.121   6.343   1.485
 1318SOL    HW1 4853   1.183   6.312   1.413
 1318SOL    HW2 4854   1.174   6.386   1.558
 1319SOL     OW 4855   6.602   0.692   0.587
 1319SOL    HW1 4856   6.588   0.662   0.493
 1319SOL    HW2 4857   6.651   0.779   0.588
 1320SOL     OW 4858   5.188   5.924   5.084
 1320SOL    HW1 4859   5.244   5.843   5.104
 1320SOL    HW2 4860   5.094   5.908   5.114
 1321SOL     OW 4861   3.037   1.653   6.775
 1321SOL    HW1 4862   3.103   1.717   6.736
 1321SOL    HW2 4863   2.984   1.698   6.846
 1322SOL     OW 4864   5.207   1.987   6.154
 1322SOL    HW1 4865   5.201   1.916   6.084
 1322SOL    HW2 4866   5.139   2.058   6.136
 1323SOL     OW 4867   6.226   1.304   4.467
 1323SOL    HW1 4868   6.139   1.322   4.421
 1323SOL    HW2 4869   6.297   1.364   4.429
 1324SOL     OW 4870   1.280   3.219   0.159
 1324SOL    HW1 4871   1.271   3.257   0.067
 1324SOL    HW2 4872   1.322   3.287   0.219
 1325SOL     OW 4873   4.350   5.343   3.493
 1325SOL    HW1 4874   4.268   5.307   3.450
 1325SOL    HW2 4875   4.331   5.434   3.530
 1326SOL     OW 4876   5.179   4.160   4.348
 1326SOL    HW1 4877   5.172   4.075   4.401
 1326SOL    HW2 4878   5.118   4.155   4.269
 1327SOL     OW 4879   2.991   6.036   4.339
 1327SOL    HW1 4880   2.914   6.019   4.277
 1327SOL    HW2 4881   3.038   6.120   4.312
 1328SOL     OW 4882   2.224   1.617   0.780
 1328SOL    HW1 4883   2.317   1.622   0.817
 1328SOL    HW2 4884   2.227   1.594   0.683
 1329SOL     OW 4885   0.677   6.820   1.951
 1329SOL    HW1 4886   0.648   6.755   2.021
 1329SOL    HW2 4887   0.773   6.803   1.927
 1330SOL     OW 4888   4.811   6.482   0.953
 1330SOL    HW1 4889   4.790   6.393   0.993
 1330SOL    HW2 4890   4.902   6.512   0.982
 1331SOL     OW 4891   0.426   1.960   1.926
 1331SOL    HW1 4892   0.330   1.952   1.901
 1331SOL    HW2 4893   0.455   1.878   1.974
 1332SOL     OW 4894   4.121   1.732   1.432
 1332SOL    HW1 4895   4.054   1.660   1.412
 1332SOL    HW2 4896   4.096   1.815   1.381
 1333SOL     OW 4897   3.985   3.949   4.583
 1333SOL    HW1 4898   3.968   4.023   4.648
 1333SOL    HW2 4899   3.938   3.867   4.613
 1334SOL     OW 4900   0.715   3.580   3.848
 1334SOL    HW1 4901   0.698   3.678   3.854
 1334SOL    HW2 4902   0.632   3.534   3.815
 1335SOL     OW 4903   2.459   5.529   2.766
 1335SOL    HW1 4904   2.496   5.611   2.811
 1335SOL    HW2 4905   2.530   5.490   2.707
 1336SOL     OW 4906   0.580   0.619   5.143
 1336SOL    HW1 4907   0.604   0.711   5.115
 1336SOL    HW2 4908   0.491   0.620   5.189
 1337SOL     OW 4909   3.533   0.668   6.788
 1337SOL    HW1 4910   3.505   0.602   6.858
 1337SOL    HW2 4911   3.586   0.621   6.717
 1338SOL     OW 4912   3.306   5.387   1.454
 1338SOL    HW1 4913   3.260   5.473   1.432
 1338SOL    HW2 4914   3.262   5.311   1.407
 1339SOL     OW 4915   0.091   4.472   6.751
 1339SOL    HW1 4916   0.014   4.417   6.784
 1339SOL    HW2 4917   0.064   4.518   6.667
 1340SOL     OW 4918   1.932   1.072   6.297
 1340SOL    HW1 4919   1.872   1.144   6.263
 1340SOL    HW2 4920   1.942   1.001   6.227
 1341SOL     OW 4921   5.551   2.574   4.193
 1341SOL    HW1 4922   5.460   2.545   4.163
 1341SOL    HW2 4923   5.593   2.630   4.122
 1342SOL     OW 4924   0.604   6.602   1.619
 1342SOL    HW1 4925   0.695   6.587   1.656
 1342SOL    HW2 4926   0.610   6.642   1.528
 1343SOL     OW 4927   3.111   5.597   4.231
 1343SOL    HW1 4928   3.149   5.509   4.258
 1343SOL    HW2 4929   3.098   5.655   4.311
 1344SOL     OW 4930   5.142   1.320   2.835
 1344SOL    HW1 4931   5.102   1.363   2.753
 1344SOL    HW2 4932   5.232   1.360   2.853
 1345SOL     OW 4933   0.820   5.780   2.990
 1345SOL    HW1 4934   0.874   5.696   2.999
 1345SOL    HW2 4935   0.873   5.857   3.025
 1346SOL     OW 4936   0.347   1.278   3.580
 1346SOL    HW1 4937   0.329   1.180   3.588
 1346SOL    HW2 4938   0.312   1.324   3.662
 1347SOL     OW 4939   4.877   0.399   3.702
 1347SOL    HW1 4940   4.811   0.349   3.758
 1347SOL    HW2 4941   4.887   0.492   3.737
 1348SOL     OW 4942   4.431   5.901   4.490
 1348SOL    HW1 4943   4.485   5.983   4.507
 1348SOL    HW2 4944   4.479   5.843   4.425
 1349SOL     OW 4945   4.373   2.432   0.009
 1349SOL    HW1 4946   4.445   2.397   0.068
 1349SOL    HW2 4947   4.284   2.404   0.045
 1350SOL     OW 4948   3.171   0.717   5.299
 1350SOL    HW1 4949   3.228   0.799   5.293
 1350SOL    HW2 4950   3.199   0.663   5.378
 1351SOL     OW 4951   1.512   1.718   4.386
 1351SOL    HW1 4952   1.557   1.745   4.471
 1351SOL    HW2 4953   1.413   1.725   4.396
 1352SOL     OW 4954   0.818   6.356   4.107
 1352SOL    HW1 4955   0.827   6.407   4.022
 1352SOL    HW2 4956   0.903   6.364   4.159
 1353SOL     OW 4957   2.012   2.872   5.298
 1353SOL    HW1 4958   1.965   2.790   5.331
 1353SOL    HW2 4959   1.970   2.901   5.212
 1354SOL     OW 4960   0.289   0.286   0.302
 1354SOL    HW1 4961   0.325   0.198   0.268
 1354SOL    HW2 4962   0.365   0.348   0.319
 1355SOL     OW 4963   3.908   3.098   6.914
 1355SOL    HW1 4964   3.933   3.194   6.901
 1355SOL    HW2 4965   3.809   3.090   6.926
 1356SOL     OW 4966   3.257   2.923   1.993
 1356SOL    HW1 4967   3.262   2.943   2.091
 1356SOL    HW2 4968   3.169   2.955   1.957
 1357SOL     OW 4969   3.081   2.901   5.681
 1357SOL    HW1 4970   3.017   2.976   5.665
 1357SOL    HW2 4971   3.073   2.869   5.775
 1358SOL     OW 4972   1.726   3.743   6.011
 1358SOL    HW1 4973   1.680   3.831   6.017
 1358SOL    HW2 4974   1.728   3.700   6.101
 1359SOL     OW 4975   0.038   1.688   0.256
 1359SOL    HW1 4976   6.995   1.702   0.182
 1359SOL    HW2 4977   0.098   1.612   0.234
 1360SOL     OW 4978   3.210   2.985   4.039
 1360SOL    HW1 4979   3.222   3.024   4.130
 1360SOL    HW2 4980   3.131   3.027   3.995
 1361SOL     OW 4981   0.687   6.002   1.199
 1361SOL    HW1 4982   0.755   6.074   1.189
 1361SOL    HW2 4983   0.693   5.963   1.291
 1362SOL     OW 4984   3.101   2.124   6.764
 1362SOL    HW1 4985   3.171   2.057   6.739
 1362SOL    HW2 4986   3.056   2.158   6.682
 1363SOL     OW 4987   6.602   6.818   1.409
 1363SOL    HW1 4988   6.560   6.907   1.427
 1363SOL    HW2 4989   6.686   6.809   1.463
 1364SOL     OW 4990   0.962   3.434   0.676
 1364SOL    HW1 4991   1.027   3.499   0.636
 1364SOL    HW2 4992   0.981   3.342   0.641
 1365SOL     OW 4993   0.879   3.677   5.656
 1365SOL    HW1 4994   0.789   3.666   5.698
 1365SOL    HW2 4995   0.902   3.774   5.653
 1366SOL     OW 4996   3.757   0.762   1.503
 1366SOL    HW1 4997   3.750   0.812   1.589
 1366SOL    HW2 4998   3.732   0.822   1.427
 1367SOL     OW 4999   1.477   6.910   4.744
 1367SOL    HW1 5000   1.477   6.882   4.648
 1367SOL    HW2 5001   1.384   6.911   4.778
 1368SOL     OW 5002   1.675   6.281   4.837
 1368SOL    HW1 5003   1.769   6.270   4.803
 1368SOL    HW2 5004   1.674   6.352   4.908
 1369SOL     OW 5005   2.694   5.644   3.699
 1369SOL    HW1 5006   2.615   5.601   3.741
 1369SOL    HW2 5007   2.778   5.603   3.735
 1370SOL     OW 5008   6.704   2.702   3.035
 1370SOL    HW1 5009   6.695   2.661   2.944
 1370SOL    HW2 5010   6.767   2.647   3.090
 1371SOL     OW 5011   5.827   2.156   5.355
 1371SOL    HW1 5012   5.875   2.230   5.307
 1371SOL    HW2 5013   5.817   2.078   5.293
 1372SOL     OW 5014   5.871   2.664   1.258
 1372SOL    HW1 5015   5.773   2.680   1.246
 1372SOL    HW2 5016   5.889   2.639   1.353
 1373SOL     OW 5017   5.829   3.412   2.109
 1373SOL    HW1 5018   5.877   3.347   2.050
 1373SOL    HW2 5019   5.894   3.478   2.146
 1374SOL     OW 5020   3.886   2.972   2.222
 1374SOL    HW1 5021   3.793   2.950   2.251
 1374SOL    HW2 5022   3.893   2.963   2.123
 1375SOL     OW 5023   5.150   4.648   4.539
 1375SOL    HW1 5024   5.065   4.608   4.572
 1375SOL    HW2 5025   5.225   4.582   4.550
 1376SOL     OW 5026   3.209   4.237   5.498
 1376SOL    HW1 5027   3.128   4.223   5.555
 1376SOL    HW2 5028   3.291   4.221   5.552
 1377SOL     OW 5029   1.830   1.573   2.737
 1377SOL    HW1 5030   1.789   1.600   2.650
 1377SOL    HW2 5031   1.844   1.654   2.794
 1378SOL     OW 5032   5.083   2.160   4.259
 1378SOL    HW1 5033   5.000   2.105   4.247
 1378SOL    HW2 5034   5.059   2.257   4.259
 1379SOL     OW 5035   4.301   5.657   0.001
 1379SOL    HW1 5036   4.322   5.611   0.088
 1379SOL    HW2 5037   4.378   5.647   6.961
 1380SOL     OW 5038   0.205   5.876   3.428
 1380SOL    HW1 5039   0.297   5.860   3.393
 1380SOL    HW2 5040   0.192   5.973   3.445
 1381SOL     OW 5041   6.282   2.347   6.063
 1381SOL    HW1 5042   6.378   2.344   6.092
 1381SOL    HW2 5043   6.223   2.354   6.143
 1382SOL     OW 5044   4.782   2.541   6.615
 1382SOL    HW1 5045   4.815   2.627   6.652
 1382SOL    HW2 5046   4.699   2.513   6.663
 1383SOL     OW 5047   6.831   0.487   0.616
 1383SOL    HW1 5048   6.895   0.524   0.549
 1383SOL    HW2 5049   6.776   0.561   0.655
 1384SOL     OW 5050   6.129   2.004   2.013
 1384SOL    HW1 5051   6.223   2.032   2.031
 1384SOL    HW2 5052   6.128   1.914   1.970
 1385SOL     OW 5053   0.353   6.009   1.347
 1385SOL    HW1 5054   0.408   6.027   1.429
 1385SOL    HW2 5055   0.393   6.056   1.269
 1386SOL     OW 5056   2.275   5.586   4.312
 1386SOL    HW1 5057   2.261   5.505   4.369
 1386SOL    HW2 5058   2.187   5.624   4.285
 1387SOL     OW 5059   2.268   5.600   1.957
 1387SOL    HW1 5060   2.327   5.635   1.884
 1387SOL    HW2 5061   2.191   5.550   1.918
 1388SOL     OW 5062   6.365   0.339   1.906
 1388SOL    HW1 5063   6.307   0.258   1.920
 1388SOL    HW2 5064   6.404   0.367   1.994
 1389SOL     OW 5065   5.958   0.878   2.466
 1389SOL    HW1 5066   5.933   0.867   2.370
 1389SOL    HW2 5067   5.952   0.789   2.512
 1390SOL     OW 5068   1.500   1.854   4.726
 1390SOL    HW1 5069   1.569   1.873   4.796
 1390SOL    HW2 5070   1.491   1.755   4.715
 1391SOL     OW 5071   0.385   3.185   3.273
 1391SOL    HW1 5072   0.317   3.226   3.212
 1391SOL    HW2 5073   0.369   3.087   3.279
 1392SOL     OW 5074   5.373   4.294   4.210
 1392SOL    HW1 5075   5.326   4.361   4.267
 1392SOL    HW2 5076   5.394   4.212   4.264
 1393SOL     OW 5077   3.434   5.538   6.587
 1393SOL    HW1 5078   3.477   5.492   6.665
 1393SOL    HW2 5079   3.498   5.538   6.510
 1394SOL     OW 5080   1.509   6.194   6.912
 1394SOL    HW1 5081   1.572   6.121   6.886
 1394SOL    HW2 5082   1.485   6.249   6.832
 1395SOL     OW 5083   4.023   4.991   5.801
 1395SOL    HW1 5084   3.927   4.990   5.829
 1395SOL    HW2 5085   4.080   4.950   5.873
 1396SOL     OW 5086   6.008   6.483   3.888
 1396SOL    HW1 5087   6.027   6.445   3.979
 1396SOL    HW2 5088   6.081   6.456   3.825
 1397SOL     OW 5089   4.779   6.084   5.463
 1397SOL    HW1 5090   4.694   6.062   5.416
 1397SOL    HW2 5091   4.855   6.082   5.398
 1398SOL     OW 5092   2.077   0.895   4.412
 1398SOL    HW1 5093   2.007   0.948   4.364
 1398SOL    HW2 5094   2.129   0.954   4.473
 1399SOL     OW 5095   3.070   5.821   2.231
 1399SOL    HW1 5096   3.149   5.873   2.197
 1399SOL    HW2 5097   3.049   5.747   2.168
 1400SOL     OW 5098   2.145   6.729   2.379
 1400SOL    HW1 5099   2.197   6.722   2.465
 1400SOL    HW2 5100   2.080   6.654   2.374
 1401SOL     OW 5101   6.531   1.660   4.223
 1401SOL    HW1 5102   6.518   1.576   4.171
 1401SOL    HW2 5103   6.605   1.713   4.182
 1402SOL     OW 5104   6.355   3.177   0.370
 1402SOL    HW1 5105   6.282   3.211   0.428
 1402SOL    HW2 5106   6.427   3.137   0.426
 1403SOL     OW 5107   3.480   0.500   2.108
 1403SOL    HW1 5108   3.548   0.464   2.172
 1403SOL    HW2 5109   3.517   0.581   2.062
 1404SOL     OW 5110   5.381   1.580   0.547
 1404SOL    HW1 5111   5.397   1.616   0.455
 1404SOL    HW2 5112   5.371   1.656   0.611
 1405SOL     OW 5113   3.570   2.960   1.226
 1405SOL    HW1 5114   3.481   3.005   1.219
 1405SOL    HW2 5115   3.564   2.869   1.187
 1406SOL     OW 5116   1.479   4.411   1.505
 1406SOL    HW1 5117   1.471   4.404   1.604
 1406SOL    HW2 5118   1.555   4.473   1.483
 1407SOL     OW 5119   6.397   2.205   2.744
 1407SOL    HW1 5120   6.457   2.127   2.761
 1407SOL    HW2 5121   6.346   2.228   2.827
 1408SOL     OW 5122   6.457   6.936   6.541
 1408SOL    HW1 5123   6.482   6.846   6.506
 1408SOL    HW2 5124   6.364   6.959   6.511
 1409SOL     OW 5125   0.580   1.600   3.839
 1409SOL    HW1 5126   0.563   1.504   3.817
 1409SOL    HW2 5127   0.530   1.624   3.923
 1410SOL     OW 5128   6.724   2.811   6.997
 1410SOL    HW1 5129   6.650   2.748   6.973
 1410SOL    HW2 5130   6.700   2.903   6.967
 1411SOL     OW 5131   2.116   0.463   1.646
 1411SOL    HW1 5132   2.095   0.488   1.741
 1411SOL    HW2 5133   2.042   0.494   1.586
 1412SOL     OW 5134   1.519   2.758   6.742
 1412SOL    HW1 5135   1.543   2.668   6.705
 1412SOL    HW2 5136   1.440   2.794   6.693
 1413SOL     OW 5137   3.244   6.994   3.829
 1413SOL    HW1 5138   3.262   0.069   3.840
 1413SOL    HW2 5139   3.297   6.959   3.752
 1414SOL     OW 5140   3.214   0.613   1.651
 1414SOL    HW1 5141   3.273   0.680   1.606
 1414SOL    HW2 5142   3.122   0.618   1.613
 1415SOL     OW 5143   4.436   6.169   5.441
 1415SOL    HW1 5144   4.451   6.218   5.527
 1415SOL    HW2 5145   4.515   6.184   5.381
 1416SOL     OW 5146   4.795   5.889   2.889
 1416SOL    HW1 5147   4.744   5.969   2.920
 1416SOL    HW2 5148   4.856   5.858   2.962
 1417SOL     OW 5149   3.365   2.877   6.460
 1417SOL    HW1 5150   3.398   2.784   6.446
 1417SOL    HW2 5151   3.392   2.935   6.383
 1418SOL     OW 5152   3.614   4.159   2.724
 1418SOL    HW1 5153   3.531   4.134   2.674
 1418SOL    HW2 5154   3.650   4.246   2.688
 1419SOL     OW 5155   4.547   6.175   4.542
 1419SOL    HW1 5156   4.454   6.209   4.557
 1419SOL    HW2 5157   4.580   6.206   4.453
 1420SOL     OW 5158   0.148   5.804   1.922
 1420SOL    HW1 5159   0.189   5.751   1.997
 1420SOL    HW2 5160   0.213   5.810   1.846
 1421SOL     OW 5161   3.965   0.909   2.892
 1421SOL    HW1 5162   3.993   0.815   2.873
 1421SOL    HW2 5163   4.034   0.954   2.948
 1422SOL     OW 5164   2.422   6.688   0.319
 1422SOL    HW1 5165   2.478   6.736   0.252
 1422SOL    HW2 5166   2.442   6.723   0.411
 1423SOL     OW 5167   5.210   0.373   2.297
 1423SOL    HW1 5168   5.233   0.325   2.381
 1423SOL    HW2 5169   5.149   0.450   2.319
 1424SOL     OW 5170   6.641   4.696   2.683
 1424SOL    HW1 5171   6.579   4.689   2.761
 1424SOL    HW2 5172   6.588   4.699   2.598
 1425SOL     OW 5173   1.896   6.671   4.703
 1425SOL    HW1 5174   1.889   6.572   4.693
 1425SOL    HW2 5175   1.968   6.693   4.769
 1426SOL     OW 5176   1.797   1.274   5.691
 1426SOL    HW1 5177   1.854   1.237   5.617
 1426SOL    HW2 5178   1.766   1.199   5.750
 1427SOL     OW 5179   6.118   0.752   4.801
 1427SOL    HW1 5180   6.136   0.681   4.733
 1427SOL    HW2 5181   6.184   0.826   4.790
 1428SOL     OW 5182   5.499   1.588   0.059
 1428SOL    HW1 5183   5.521   1.522   0.131
 1428SOL    HW2 5184   5.575   1.593   7.017
 1429SOL     OW 5185   5.537   6.887   6.981
 1429SOL    HW1 5186   5.477   6.811   7.007
 1429SOL    HW2 5187   5.557   6.880   6.883
 1430SOL     OW 5188   1.916   4.335   3.470
 1430SOL    HW1 5189   1.826   4.379   3.476
 1430SOL    HW2 5190   1.987   4.403   3.487
 1431SOL     OW 5191   1.365   0.941   1.321
 1431SOL    HW1 5192   1.307   0.916   1.399
 1431SOL    HW2 5193   1.411   0.860   1.285
 1432SOL     OW 5194   2.742   0.024   1.530
 1432SOL    HW1 5195   2.828   0.073   1.543
 1432SOL    HW2 5196   2.730   0.002   1.433
 1433SOL     OW 5197   4.717   0.345   4.569
 1433SOL    HW1 5198   4.766   0.279   4.512
 1433SOL    HW2 5199   4.635   0.376   4.520
 1434SOL     OW 5200   0.951   0.677   5.110
 1434SOL    HW1 5201   0.907   0.684   5.020
 1434SOL    HW2 5202   0.895   0.723   5.179
 1435SOL     OW 5203   0.115   1.611   3.459
 1435SOL    HW1 5204   0.207   1.651   3.465
 1435SOL    HW2 5205   0.054   1.659   3.522
 1436SOL     OW 5206   4.482   3.965   0.715
 1436SOL    HW1 5207   4.579   3.971   0.694
 1436SOL    HW2 5208   4.462   4.016   0.799
 1437SOL     OW 5209   3.838   1.150   2.406
 1437SOL    HW1 5210   3.758   1.206   2.388
 1437SOL    HW2 5211   3.846   1.134   2.505
 1438SOL     OW 5212   2.177   0.741   1.229
 1438SOL    HW1 5213   2.185   0.714   1.325
 1438SOL    HW2 5214   2.173   0.659   1.172
 1439SOL     OW 5215   0.753   5.683   2.232
 1439SOL    HW1 5216   0.753   5.591   2.192
 1439SOL    HW2 5217   0.665   5.727   2.212
 1440SOL     OW 5218   2.307   3.004   1.715
 1440SOL    HW1 5219   2.294   3.081   1.777
 1440SOL    HW2 5220   2.284   2.919   1.761
 1441SOL     OW 5221   5.322   5.991   0.903
 1441SOL    HW1 5222   5.309   6.044   0.987
 1441SOL    HW2 5223   5.331   5.894   0.925
 1442SOL     OW 5224   5.161   5.467   0.902
 1442SOL    HW1 5225   5.220   5.510   0.834
 1442SOL    HW2 5226   5.170   5.367   0.896
 1443SOL     OW 5227   0.245   2.791   2.671
 1443SOL    HW1 5228   0.323   2.751   2.718
 1443SOL    HW2 5229   0.160   2.764   2.717
 1444SOL     OW 5230   0.571   4.944   6.369
 1444SOL    HW1 5231   0.522   5.032   6.371
 1444SOL    HW2 5232   0.511   4.873   6.332
 1445SOL     OW 5233   1.012   3.577   1.315
 1445SOL    HW1 5234   1.005   3.583   1.215
 1445SOL    HW2 5235   0.926   3.608   1.356
 1446SOL     OW 5236   6.497   6.055   0.879
 1446SOL    HW1 5237   6.531   5.995   0.951
 1446SOL    HW2 5238   6.567   6.122   0.855
 1447SOL     OW 5239   5.601   5.607   4.327
 1447SOL    HW1 5240   5.625   5.574   4.235
 1447SOL    HW2 5241   5.680   5.598   4.386
 1448SOL     OW 5242   0.863   2.839   5.758
 1448SOL    HW1 5243   0.838   2.864   5.852
 1448SOL    HW2 5244   0.803   2.887   5.694
 1449SOL     OW 5245   2.234   3.075   2.920
 1449SOL    HW1 5246   2.205   3.148   2.857
 1449SOL    HW2 5247   2.195   3.092   3.011
 1450SOL     OW 5248   2.945   2.039   3.986
 1450SOL    HW1 5249   2.974   2.082   4.072
 1450SOL    HW2 5250   2.961   2.102   3.910
 1451SOL     OW 5251   3.074   1.324   2.898
 1451SOL    HW1 5252   3.026   1.412   2.899
 1451SOL    HW2 5253   3.099   1.300   2.805
 1452SOL     OW 5254   4.686   3.008   6.750
 1452SOL    HW1 5255   4.765   3.069   6.743
 1452SOL    HW2 5256   4.672   2.982   6.845
 1453SOL     OW 5257   0.047   4.090   5.401
 1453SOL    HW1 5258   0.135   4.125   5.368
 1453SOL    HW2 5259   6.996   4.127   5.345
 1454SOL     OW 5260   3.394   1.903   3.183
 1454SOL    HW1 5261   3.474   1.844   3.171
 1454SOL    HW2 5262   3.421   1.998   3.169
 1455SOL     OW 5263   0.293   5.703   2.142
 1455SOL    HW1 5264   0.239   5.725   2.223
 1455SOL    HW2 5265   0.380   5.751   2.146
 1456SOL     OW 5266   6.540   5.178   4.204
 1456SOL    HW1 5267   6.466   5.227   4.159
 1456SOL    HW2 5268   6.628   5.219   4.178
 1457SOL     OW 5269   1.092   5.095   6.065
 1457SOL    HW1 5270   1.065   5.171   6.124
 1457SOL    HW2 5271   1.171   5.047   6.104
 1458SOL     OW 5272   5.648   5.078   5.450
 1458SOL    HW1 5273   5.659   4.978   5.453
 1458SOL    HW2 5274   5.678   5.112   5.362
 1459SOL     OW 5275   5.985   6.607   5.558
 1459SOL    HW1 5276   5.945   6.541   5.495
 1459SOL    HW2 5277   5.958   6.700   5.532
 1460SOL     OW 5278   1.659   6.485   5.024
 1460SOL    HW1 5279   1.637   6.582   5.030
 1460SOL    HW2 5280   1.624   6.437   5.105
 1461SOL     OW 5281   6.203   2.821   3.778
 1461SOL    HW1 5282   6.104   2.838   3.778
 1461SOL    HW2 5283   6.251   2.907   3.762
 1462SOL     OW 5284   0.180   1.403   1.737
 1462SOL    HW1 5285   0.150   1.326   1.793
 1462SOL    HW2 5286   0.274   1.427   1.763
 1463SOL     OW 5287   2.096   5.885   6.582
 1463SOL    HW1 5288   2.086   5.969   6.636
 1463SOL    HW2 5289   2.176   5.835   6.613
 1464SOL     OW 5290   1.097   4.456   4.114
 1464SOL    HW1 5291   1.152   4.537   4.093
 1464SOL    HW2 5292   1.035   4.437   4.038
 1465SOL     OW 5293   1.326   3.294   4.075
 1465SOL    HW1 5294   1.324   3.204   4.031
 1465SOL    HW2 5295   1.325   3.283   4.174
 1466SOL     OW 5296   5.458   1.510   2.441
 1466SOL    HW1 5297   5.458   1.550   2.532
 1466SOL    HW2 5298   5.383   1.548   2.387
 1467SOL     OW 5299   0.242   0.436   3.919
 1467SOL    HW1 5300   0.253   0.417   3.821
 1467SOL    HW2 5301   0.324   0.480   3.954
 1468SOL     OW 5302   3.050   5.768   2.678
 1468SOL    HW1 5303   3.006   5.851   2.643
 1468SOL    HW2 5304   3.055   5.773   2.777
 1469SOL     OW 5305   5.961   4.023   3.534
 1469SOL    HW1 5306   5.874   4.067   3.511
 1469SOL    HW2 5307   5.962   3.999   3.631
 1470SOL     OW 5308   6.075   1.526   2.344
 1470SOL    HW1 5309   5.988   1.517   2.296
 1470SOL    HW2 5310   6.134   1.590   2.294
 1471SOL     OW 5311   4.665   7.006   0.449
 1471SOL    HW1 5312   4.679   6.990   0.547
 1471SOL    HW2 5313   4.747   6.977   0.399
 1472SOL     OW 5314   1.438   0.336   6.377
 1472SOL    HW1 5315   1.522   0.302   6.335
 1472SOL    HW2 5316   1.450   0.340   6.476
 1473SOL     OW 5317   1.672   6.008   3.780
 1473SOL    HW1 5318   1.727   6.002   3.696
 1473SOL    HW2 5319   1.595   5.945   3.774
 1474SOL     OW 5320   2.843   4.704   1.495
 1474SOL    HW1 5321   2.875   4.667   1.582
 1474SOL    HW2 5322   2.743   4.713   1.497
 1475SOL     OW 5323   5.791   0.324   6.733
 1475SOL    HW1 5324   5.774   0.226   6.743
 1475SOL    HW2 5325   5.771   0.353   6.639
 1476SOL     OW 5326   4.986   0.230   0.133
 1476SOL    HW1 5327   5.025   0.279   0.055
 1476SOL    HW2 5328   5.059   0.207   0.197
 1477SOL     OW 5329   3.353   3.930   1.539
 1477SOL    HW1 5330   3.278   3.972   1.488
 1477SOL    HW2 5331   3.354   3.967   1.632
 1478SOL     OW 5332   4.433   5.190   6.868
 1478SOL    HW1 5333   4.451   5.154   6.960
 1478SOL    HW2 5334   4.457   5.121   6.800
 1479SOL     OW 5335   4.616   3.567   1.571
 1479SOL    HW1 5336   4.572   3.645   1.613
 1479SOL    HW2 5337   4.703   3.549   1.617
 1480SOL     OW 5338   3.067   0.668   4.533
 1480SOL    HW1 5339   2.971   0.695   4.525
 1480SOL    HW2 5340   3.120   0.710   4.459
 1481SOL     OW 5341   4.824   2.560   5.515
 1481SOL    HW1 5342   4.762   2.569   5.592
 1481SOL    HW2 5343   4.847   2.650   5.479
 1482SOL     OW 5344   5.716   1.309   1.197
 1482SOL    HW1 5345   5.623   1.343   1.214
 1482SOL    HW2 5346   5.758   1.281   1.283
 1483SOL     OW 5347   6.382   0.995   0.180
 1483SOL    HW1 5348   6.282   1.007   0.186
 1483SOL    HW2 5349   6.424   1.081   0.153
 1484SOL     OW 5350   3.477   5.136   5.284
 1484SOL    HW1 5351   3.469   5.093   5.374
 1484SOL    HW2 5352   3.551   5.204   5.286
 1485SOL     OW 5353   5.026   3.052   3.345
 1485SOL    HW1 5354   4.943   3.007   3.311
 1485SOL    HW2 5355   5.072   2.992   3.411
 1486SOL     OW 5356   4.615   5.603   3.674
 1486SOL    HW1 5357   4.694   5.579   3.618
 1486SOL    HW2 5358   4.611   5.703   3.683
 1487SOL     OW 5359   6.930   1.091   0.646
 1487SOL    HW1 5360   6.881   1.106   0.732
 1487SOL    HW2 5361   7.018   1.048   0.665
 1488SOL     OW 5362   6.333   1.904   2.933
 1488SOL    HW1 5363   6.276   1.984   2.912
 1488SOL    HW2 5364   6.386   1.880   2.852
 1489SOL     OW 5365   2.998   4.937   0.077
 1489SOL    HW1 5366   2.921   4.931   0.140
 1489SOL    HW2 5367   2.970   4.901   7.011
 1490SOL     OW 5368   5.818   2.756   2.349
 1490SOL    HW1 5369   5.781   2.686   2.289
 1490SOL    HW2 5370   5.846   2.835   2.294
 1491SOL     OW 5371   5.956   2.392   3.543
 1491SOL    HW1 5372   5.928   2.487   3.555
 1491SOL    HW2 5373   5.922   2.357   3.456
 1492SOL     OW 5374   6.657   1.632   2.943
 1492SOL    HW1 5375   6.614   1.588   2.865
 1492SOL    HW2 5376   6.733   1.575   2.976
 1493SOL     OW 5377   5.740   1.867   6.182
 1493SOL    HW1 5378   5.820   1.926   6.171
 1493SOL    HW2 5379   5.657   1.922   6.172
 1494SOL     OW 5380   0.059   4.967   6.508
 1494SOL    HW1 5381   0.153   5.000   6.503
 1494SOL    HW2 5382   0.040   4.936   6.601
 1495SOL     OW 5383   6.661   3.704   4.269
 1495SOL    HW1 5384   6.644   3.660   4.358
 1495SOL    HW2 5385   6.613   3.653   4.198
 1496SOL     OW 5386   6.233   6.616   5.963
 1496SOL    HW1 5387   6.307   6.683   5.966
 1496SOL    HW2 5388   6.151   6.655   6.004
 1497SOL     OW 5389   6.293   2.328   2.343
 1497SOL    HW1 5390   6.336   2.401   2.289
 1497SOL    HW2 5391   6.208   2.363   2.384
 1498SOL     OW 5392   3.169   4.169   0.897
 1498SOL    HW1 5393   3.236   4.156   0.971
 1498SOL    HW2 5394   3.204   4.128   0.813
 1499SOL     OW 5395   0.267   4.546   4.114
 1499SOL    HW1 5396   0.197   4.616   4.123
 1499SOL    HW2 5397   0.225   4.456   4.117
 1500SOL     OW 5398   0.851   6.199   2.118
 1500SOL    HW1 5399   0.868   6.295   2.093
 1500SOL    HW2 5400   0.788   6.159   2.052
 1501SOL     OW 5401   6.470   1.706   0.433
 1501SOL    HW1 5402   6.425   1.780   0.383
 1501SOL    HW2 5403   6.409   1.627   0.437
 1502SOL     OW 5404   6.595   0.026   6.329
 1502SOL    HW1 5405   6.602   0.125   6.342
 1502SOL    HW2 5406   6.552   7.008   6.409
 1503SOL     OW 5407   0.636   4.743   1.642
 1503SOL    HW1 5408   0.641   4.810   1.716
 1503SOL    HW2 5409   0.720   4.748   1.587
 1504SOL     OW 5410   2.080   6.652   2.782
 1504SOL    HW1 5411   2.072   6.672   2.879
 1504SOL    HW2 5412   1.991   6.660   2.738
 1505SOL     OW 5413   6.481   5.260   5.070
 1505SOL    HW1 5414   6.515   5.176   5.026
 1505SOL    HW2 5415   6.402   5.294   5.019
 1506SOL     OW 5416   0.688   1.188   0.781
 1506SOL    HW1 5417   0.736   1.102   0.764
 1506SOL    HW2 5418   0.697   1.212   0.878
 1507SOL     OW 5419   2.460   2.547   3.628
 1507SOL    HW1 5420   2.449   2.521   3.724
 1507SOL    HW2 5421   2.422   2.638   3.614
 1508SOL     OW 5422   2.075   1.028   1.445
 1508SOL    HW1 5423   2.114   1.084   1.518
 1508SOL    HW2 5424   2.072   1.081   1.360
 1509SOL     OW 5425   5.662   1.221   4.284
 1509SOL    HW1 5426   5.720   1.167   4.223
 1509SOL    HW2 5427   5.591   1.162   4.323
 1510SOL     OW 5428   3.523   6.121   5.430
 1510SOL    HW1 5429   3.434   6.091   5.466
 1510SOL    HW2 5430   3.534   6.219   5.447
 1511SOL     OW 5431   2.787   3.627   5.196
 1511SOL    HW1 5432   2.767   3.635   5.294
 1511SOL    HW2 5433   2.703   3.602   5.147
 1512SOL     OW 5434   5.543   6.381   1.015
 1512SOL    HW1 5435   5.618   6.376   1.081
 1512SOL    HW2 5436   5.520   6.289   0.983
 1513SOL     OW 5437   2.454   0.226   5.835
 1513SOL    HW1 5438   2.471   0.155   5.905
 1513SOL    HW2 5439   2.512   0.305   5.854
 1514SOL     OW 5440   3.211   2.663   6.594
 1514SOL    HW1 5441   3.248   2.754   6.575
 1514SOL    HW2 5442   3.142   2.641   6.525
 1515SOL     OW 5443   4.134   0.637   2.483
 1515SOL    HW1 5444   4.146   0.718   2.424
 1515SOL    HW2 5445   4.042   0.601   2.469
 1516SOL     OW 5446   6.328   6.922   5.746
 1516SOL    HW1 5447   6.425   6.911   5.768
 1516SOL    HW2 5448   6.278   6.943   5.829
 1517SOL     OW 5449   2.817   6.673   3.961
 1517SOL    HW1 5450   2.859   6.595   4.007
 1517SOL    HW2 5451   2.888   6.736   3.929
 1518SOL     OW 5452   0.745   2.891   6.416
 1518SOL    HW1 5453   0.650   2.919   6.429
 1518SOL    HW2 5454   0.758   2.858   6.323
 1519SOL     OW 5455   6.858   5.086   0.253
 1519SOL    HW1 5456   6.811   5.068   0.339
 1519SOL    HW2 5457   6.949   5.124   0.272
 1520SOL     OW 5458   0.493   5.931   3.312
 1520SOL    HW1 5459   0.583   5.902   3.343
 1520SOL    HW2 5460   0.502   6.015   3.259
 1521SOL     OW 5461   2.144   5.117   6.170
 1521SOL    HW1 5462   2.118   5.205   6.131
 1521SOL    HW2 5463   2.086   5.096   6.248
 1522SOL     OW 5464   6.120   5.930   3.972
 1522SOL    HW1 5465   6.142   5.864   3.901
 1522SOL    HW2 5466   6.165   5.903   4.057
 1523SOL     OW 5467   3.352   6.283   0.838
 1523SOL    HW1 5468   3.314   6.264   0.929
 1523SOL    HW2 5469   3.318   6.215   0.773
 1524SOL     OW 5470   2.030   1.615   3.741
 1524SOL    HW1 5471   2.054   1.519   3.730
 1524SOL    HW2 5472   2.112   1.671   3.730
 1525SOL     OW 5473   5.402   4.799   0.009
 1525SOL    HW1 5474   5.490   4.758   7.009
 1525SOL    HW2 5475   5.334   4.772   6.963
 1526SOL     OW 5476   1.276   1.915   0.916
 1526SOL    HW1 5477   1.210   1.866   0.858
 1526SOL    HW2 5478   1.309   1.853   0.988
 1527SOL     OW 5479   4.422   1.771   4.271
 1527SOL    HW1 5480   4.377   1.856   4.295
 1527SOL    HW2 5481   4.488   1.747   4.342
 1528SOL     OW 5482   3.260   3.636   2.496
 1528SOL    HW1 5483   3.202   3.559   2.469
 1528SOL    HW2 5484   3.338   3.642   2.434
 1529SOL     OW 5485   4.990   1.835   5.889
 1529SOL    HW1 5486   4.955   1.756   5.839
 1529SOL    HW2 5487   4.931   1.856   5.966
 1530SOL     OW 5488   2.150   0.002   1.060
 1530SOL    HW1 5489   2.087   7.016   0.983
 1530SOL    HW2 5490   2.215   0.076   1.042
 1531SOL     OW 5491   4.838   5.811   4.351
 1531SOL    HW1 5492   4.891   5.748   4.408
 1531SOL    HW2 5493   4.751   5.767   4.326
 1532SOL     OW 5494   3.039   5.763   0.530
 1532SOL    HW1 5495   3.115   5.706   0.562
 1532SOL    HW2 5496   3.055   5.791   0.436
 1533SOL     OW 5497   5.602   5.959   1.219
 1533SOL    HW1 5498   5.570   5.987   1.309
 1533SOL    HW2 5499   5.541   5.889   1.182
 1534SOL     OW 5500   2.682   4.744   6.677
 1534SOL    HW1 5501   2.723   4.834   6.662
 1534SOL    HW2 5502   2.583   4.753   6.683
 1535SOL     OW 5503   5.564   4.536   3.634
 1535SOL    HW1 5504   5.517   4.621   3.658
 1535SOL    HW2 5505   5.507   4.458   3.662
 1536SOL     OW 5506   4.824   3.920   6.775
 1536SOL    HW1 5507   4.924   3.909   6.777
 1536SOL    HW2 5508   4.797   3.984   6.847
 1537SOL     OW 5509   2.928   4.940   2.428
 1537SOL    HW1 5510   2.914   5.038   2.442
 1537SOL    HW2 5511   2.934   4.894   2.516
 1538SOL     OW 5512   2.660   1.576   0.673
 1538SOL    HW1 5513   2.604   1.598   0.752
 1538SOL    HW2 5514   2.623   1.495   0.627
 1539SOL     OW 5515   5.908   3.313   0.645
 1539SOL    HW1 5516   6.006   3.296   0.634
 1539SOL    HW2 5517   5.871   3.253   0.716
 1540SOL     OW 5518   3.435   6.737   3.277
 1540SOL    HW1 5519   3.475   6.723   3.187
 1540SOL    HW2 5520   3.482   6.812   3.324
 1541SOL     OW 5521   3.986   2.992   5.918
 1541SOL    HW1 5522   4.066   3.050   5.931
 1541SOL    HW2 5523   3.942   2.976   6.007
 1542SOL     OW 5524   0.331   5.809   2.526
 1542SOL    HW1 5525   0.272   5.840   2.601
 1542SOL    HW2 5526   0.426   5.831   2.547
 1543SOL     OW 5527   3.104   5.331   0.412
 1543SOL    HW1 5528   3.155   5.246   0.419
 1543SOL    HW2 5529   3.076   5.361   0.504
 1544SOL     OW 5530   3.804   3.310   4.059
 1544SOL    HW1 5531   3.810   3.237   3.990
 1544SOL    HW2 5532   3.799   3.399   4.013
 1545SOL     OW 5533   5.199   5.695   1.662
 1545SOL    HW1 5534   5.180   5.600   1.640
 1545SOL    HW2 5535   5.221   5.703   1.759
 1546SOL     OW 5536   5.707   6.211   6.129
 1546SOL    HW1 5537   5.680   6.122   6.091
 1546SOL    HW2 5538   5.784   6.247   6.076
 1547SOL     OW 5539   2.110   2.894   6.509
 1547SOL    HW1 5540   2.114   2.839   6.592
 1547SOL    HW2 5541   2.196   2.942   6.496
 1548SOL     OW 5542   6.930   2.515   0.541
 1548SOL    HW1 5543   6.862   2.547   0.607
 1548SOL    HW2 5544   6.979   2.594   0.504
 1549SOL     OW 5545   5.249   1.175   4.509
 1549SOL    HW1 5546   5.243   1.078   4.533
 1549SOL    HW2 5547   5.208   1.230   4.582
 1550SOL     OW 5548   3.802   2.950   4.336
 1550SOL    HW1 5549   3.872   2.893   4.293
 1550SOL    HW2 5550   3.717   2.944   4.284
 1551SOL     OW 5551   6.902   4.925   5.305
 1551SOL    HW1 5552   6.959   4.850   5.338
 1551SOL    HW2 5553   6.812   4.921   5.347
 1552SOL     OW 5554   2.093   4.053   1.213
 1552SOL    HW1 5555   2.167   4.046   1.146
 1552SOL    HW2 5556   2.064   4.148   1.221
 1553SOL     OW 5557   2.104   1.898   6.094
 1553SOL    HW1 5558   2.017   1.872   6.053
 1553SOL    HW2 5559   2.093   1.907   6.193
 1554SOL     OW 5560   3.643   1.749   3.653
 1554SOL    HW1 5561   3.726   1.749   3.596
 1554SOL    HW2 5562   3.595   1.836   3.641
 1555SOL     OW 5563   5.988   5.058   5.563
 1555SOL    HW1 5564   6.053   5.134   5.563
 1555SOL    HW2 5565   5.901   5.087   5.601
 1556SOL     OW 5566   2.065   1.035   5.847
 1556SOL    HW1 5567   2.095   1.130   5.844
 1556SOL    HW2 5568   2.121   0.980   5.786
 1557SOL     OW 5569   0.290   2.527   4.969
 1557SOL    HW1 5570   0.372   2.475   4.943
 1557SOL    HW2 5571   0.265   2.588   4.894
 1558SOL     OW 5572   0.318   6.881   4.801
 1558SOL    HW1 5573   0.325   6.875   4.701
 1558SOL    HW2 5574   0.253   6.813   4.834
 1559SOL     OW 5575   1.515   1.514   5.938
 1559SOL    HW1 5576   1.430   1.507   5.887
 1559SOL    HW2 5577   1.530   1.430   5.990
 1560SOL     OW 5578   0.174   0.240   0.012
 1560SOL    HW1 5579   0.259   0.258   0.061
 1560SOL    HW2 5580   0.190   0.169   6.966
 1561SOL     OW 5581   5.774   6.109   2.317
 1561SOL    HW1 5582   5.854   6.169   2.324
 1561SOL    HW2 5583   5.803   6.014   2.328
 1562SOL     OW 5584   6.268   0.835   4.093
 1562SOL    HW1 5585   6.300   0.895   4.019
 1562SOL    HW2 5586   6.320   0.854   4.176
 1563SOL     OW 5587   3.596   6.817   5.510
 1563SOL    HW1 5588   3.696   6.819   5.518
 1563SOL    HW2 5589   3.557   6.772   5.591
 1564SOL     OW 5590   0.862   2.181   3.132
 1564SOL    HW1 5591   0.766   2.205   3.118
 1564SOL    HW2 5592   0.920   2.257   3.104
 1565SOL     OW 5593   6.475   4.172   1.347
 1565SOL    HW1 5594   6.504   4.260   1.384
 1565SOL    HW2 5595   6.397   4.138   1.400
 1566SOL     OW 5596   5.985   4.465   3.168
 1566SOL    HW1 5597   5.900   4.421   3.196
 1566SOL    HW2 5598   5.969   4.515   3.083
 1567SOL     OW 5599   6.326   5.707   4.989
 1567SOL    HW1 5600   6.282   5.747   5.069
 1567SOL    HW2 5601   6.425   5.715   4.998
 1568SOL     OW 5602   0.270   6.795   6.920
 1568SOL    HW1 5603   0.227   6.761   7.004
 1568SOL    HW2 5604   0.244   6.737   6.843
 1569SOL     OW 5605   3.230   6.447   5.353
 1569SOL    HW1 5606   3.146   6.416   5.307
 1569SOL    HW2 5607   3.227   6.421   5.449
 1570SOL     OW 5608   3.075   1.952   2.021
 1570SOL    HW1 5609   3.082   2.011   2.102
 1570SOL    HW2 5610   3.032   2.002   1.947
 1571SOL     OW 5611   0.043   3.822   0.656
 1571SOL    HW1 5612   0.071   3.726   0.664
 1571SOL    HW2 5613   0.028   3.845   0.560
 1572SOL     OW 5614   1.787   5.701   2.447
 1572SOL    HW1 5615   1.704   5.645   2.453
 1572SOL    HW2 5616   1.765   5.795   2.473
 1573SOL     OW 5617   4.263   0.391   0.528
 1573SOL    HW1 5618   4.331   0.336   0.576
 1573SOL    HW2 5619   4.298   0.484   0.516
 1574SOL     OW 5620   5.684   2.582   2.165
 1574SOL    HW1 5621   5.737   2.519   2.109
 1574SOL    HW2 5622   5.646   2.654   2.106
 1575SOL     OW 5623   3.180   2.081   0.235
 1575SOL    HW1 5624   3.111   2.135   0.284
 1575SOL    HW2 5625   3.168   1.984   0.257
 1576SOL     OW 5626   6.278   5.636   3.319
 1576SOL    HW1 5627   6.243   5.650   3.411
 1576SOL    HW2 5628   6.235   5.555   3.279
 1577SOL     OW 5629   1.367   0.383   0.180
 1577SOL    HW1 5630   1.459   0.422   0.191
 1577SOL    HW2 5631   1.363   0.333   0.093
 1578SOL     OW 5632   5.912   5.682   4.844
 1578SOL    HW1 5633   5.989   5.630   4.880
 1578SOL    HW2 5634   5.875   5.635   4.764
 1579SOL     OW 5635   0.145   0.075   3.218
 1579SOL    HW1 5636   0.061   0.127   3.201
 1579SOL    HW2 5637   0.189   0.053   3.131
 1580SOL     OW 5638   3.053   3.691   6.066
 1580SOL    HW1 5639   3.019   3.641   6.146
 1580SOL    HW2 5640   2.975   3.727   6.014
 1581SOL     OW 5641   6.314   3.755   4.322
 1581SOL    HW1 5642   6.344   3.660   4.319
 1581SOL    HW2 5643   6.224   3.760   4.365
 1582SOL     OW 5644   6.248   6.473   5.123
 1582SOL    HW1 5645   6.340   6.509   5.103
 1582SOL    HW2 5646   6.183   6.510   5.057
 1583SOL     OW 5647   2.201   2.017   2.396
 1583SOL    HW1 5648   2.131   2.088   2.395
 1583SOL    HW2 5649   2.216   1.984   2.303
 1584SOL     OW 5650   2.336   0.761   6.395
 1584SOL    HW1 5651   2.424   0.804   6.415
 1584SOL    HW2 5652   2.292   0.808   6.319
 1585SOL     OW 5653   5.980   1.270   5.861
 1585SOL    HW1 5654   5.916   1.297   5.932
 1585SOL    HW2 5655   6.006   1.349   5.806
 1586SOL     OW 5656   3.622   4.157   3.230
 1586SOL    HW1 5657   3.545   4.096   3.252
 1586SOL    HW2 5658   3.639   4.218   3.307
 1587SOL     OW 5659   2.499   6.442   6.682
 1587SOL    HW1 5660   2.475   6.346   6.664
 1587SOL    HW2 5661   2.416   6.498   6.676
 1588SOL     OW 5662   5.866   4.015   1.536
 1588SOL    HW1 5663   5.910   3.926   1.551
 1588SOL    HW2 5664   5.932   4.088   1.552
 1589SOL     OW 5665   5.083   4.321   3.071
 1589SOL    HW1 5666   5.029   4.385   3.016
 1589SOL    HW2 5667   5.056   4.329   3.167
 1590SOL     OW 5668   2.380   6.957   5.376
 1590SOL    HW1 5669   2.288   6.981   5.406
 1590SOL    HW2 5670   2.442   0.011   5.392
 1591SOL     OW 5671   1.050   3.650   1.020
 1591SOL    HW1 5672   1.089   3.741   1.035
 1591SOL    HW2 5673   1.120   3.591   0.980
 1592SOL     OW 5674   3.089   3.911   3.812
 1592SOL    HW1 5675   3.185   3.906   3.841
 1592SOL    HW2 5676   3.030   3.884   3.888
 1593SOL     OW 5677   1.307   5.006   4.520
 1593SOL    HW1 5678   1.283   4.948   4.598
 1593SOL    HW2 5679   1.402   5.037   4.529
 1594SOL     OW 5680   1.184   4.790   3.185
 1594SOL    HW1 5681   1.101   4.734   3.194
 1594SOL    HW2 5682   1.242   4.775   3.266
 1595SOL     OW 5683   6.813   5.397   5.562
 1595SOL    HW1 5684   6.769   5.365   5.645
 1595SOL    HW2 5685   6.850   5.319   5.512
 1596SOL     OW 5686   2.786   5.351   6.975
 1596SOL    HW1 5687   2.813   5.364   0.048
 1596SOL    HW2 5688   2.698   5.304   6.971
 1597SOL     OW 5689   2.022   0.144   6.937
 1597SOL    HW1 5690   1.961   0.217   6.967
 1597SOL    HW2 5691   2.007   0.063   6.993
 1598SOL     OW 5692   6.678   5.452   1.800
 1598SOL    HW1 5693   6.676   5.373   1.738
 1598SOL    HW2 5694   6.738   5.522   1.763
 1599SOL     OW 5695   3.069   5.024   0.629
 1599SOL    HW1 5696   3.118   5.079   0.561
 1599SOL    HW2 5697   3.023   5.085   0.693
 1600SOL     OW 5698   3.320   0.949   5.310
 1600SOL    HW1 5699   3.411   0.987   5.301
 1600SOL    HW2 5700   3.286   0.963   5.403
 1601SOL     OW 5701   1.067   5.173   4.975
 1601SOL    HW1 5702   0.988   5.205   4.923
 1601SOL    HW2 5703   1.068   5.219   5.064
 1602SOL     OW 5704   0.309   3.821   2.366
 1602SOL    HW1 5705   0.218   3.796   2.399
 1602SOL    HW2 5706   0.333   3.912   2.401
 1603SOL     OW 5707   5.686   6.472   0.761
 1603SOL    HW1 5708   5.645   6.553   0.802
 1603SOL    HW2 5709   5.682   6.396   0.827
 1604SOL     OW 5710   0.371   5.604   4.839
 1604SOL    HW1 5711   0.408   5.539   4.772
 1604SOL    HW2 5712   0.434   5.681   4.848
 1605SOL     OW 5713   5.301   6.625   3.399
 1605SOL    HW1 5714   5.364   6.616   3.322
 1605SOL    HW2 5715   5.295   6.720   3.427
 1606SOL     OW 5716   5.612   6.295   5.519
 1606SOL    HW1 5717   5.645   6.328   5.607
 1606SOL    HW2 5718   5.628   6.364   5.449
 1607SOL     OW 5719   4.647   3.006   1.103
 1607SOL    HW1 5720   4.706   3.030   1.180
 1607SOL    HW2 5721   4.618   3.090   1.056
 1608SOL     OW 5722   2.562   0.670   0.393
 1608SOL    HW1 5723   2.522   0.627   0.312
 1608SOL    HW2 5724   2.514   0.637   0.474
 1609SOL     OW 5725   5.624   0.998   5.865
 1609SOL    HW1 5726   5.614   1.081   5.919
 1609SOL    HW2 5727   5.708   0.951   5.891
 1610SOL     OW 5728   5.358   6.442   3.691
 1610SOL    HW1 5729   5.396   6.366   3.745
 1610SOL    HW2 5730   5.362   6.418   3.594
 1611SOL     OW 5731   4.108   2.799   1.618
 1611SOL    HW1 5732   4.060   2.723   1.574
 1611SOL    HW2 5733   4.204   2.800   1.589
 1612SOL     OW 5734   3.593   1.132   4.453
 1612SOL    HW1 5735   3.594   1.232   4.442
 1612SOL    HW2 5736   3.678   1.093   4.419
 1613SOL     OW 5737   1.884   0.143   0.950
 1613SOL    HW1 5738   1.923   0.061   0.908
 1613SOL    HW2 5739   1.806   0.117   1.007
 1614SOL     OW 5740   0.602   2.611   5.901
 1614SOL    HW1 5741   0.572   2.688   5.844
 1614SOL    HW2 5742   0.556   2.616   5.990
 1615SOL     OW 5743   6.277   4.973   5.792
 1615SOL    HW1 5744   6.329   4.913   5.730
 1615SOL    HW2 5745   6.180   4.955   5.782
 1616SOL     OW 5746   2.753   1.821   5.708
 1616SOL    HW1 5747   2.850   1.800   5.720
 1616SOL    HW2 5748   2.710   1.751   5.651
 1617SOL     OW 5749   4.509   0.143   4.472
 1617SOL    HW1 5750   4.478   0.064   4.419
 1617SOL    HW2 5751   4.606   0.132   4.495
 1618SOL     OW 5752   6.171   2.748   1.893
 1618SOL    HW1 5753   6.206   2.658   1.919
 1618SOL    HW2 5754   6.211   2.776   1.806
 1619SOL     OW 5755   1.910   3.013   4.644
 1619SOL    HW1 5756   2.006   2.984   4.642
 1619SOL    HW2 5757   1.894   3.080   4.572
 1620SOL     OW 5758   3.584   5.733   1.577
 1620SOL    HW1 5759   3.610   5.828   1.596
 1620SOL    HW2 5760   3.495   5.714   1.619
 1621SOL     OW 5761   1.929   1.547   2.239
 1621SOL    HW1 5762   1.997   1.593   2.183
 1621SOL    HW2 5763   1.837   1.574   2.209
 1622SOL     OW 5764   1.856   2.406   4.872
 1622SOL    HW1 5765   1.926   2.477   4.880
 1622SOL    HW2 5766   1.769   2.442   4.906
 1623SOL     OW 5767   2.550   2.154   4.835
 1623SOL    HW1 5768   2.552   2.133   4.738
 1623SOL    HW2 5769   2.456   2.169   4.865
 1624SOL     OW 5770   2.217   0.848   0.709
 1624SOL    HW1 5771   2.238   0.786   0.785
 1624SOL    HW2 5772   2.237   0.804   0.622
 1625SOL     OW 5773   0.291   5.677   1.670
 1625SOL    HW1 5774   0.264   5.764   1.628
 1625SOL    HW2 5775   0.271   5.602   1.607
 1626SOL     OW 5776   2.039   2.820   5.911
 1626SOL    HW1 5777   2.102   2.851   5.840
 1626SOL    HW2 5778   2.083   2.826   6.000
 1627SOL     OW 5779   5.181   3.103   3.768
 1627SOL    HW1 5780   5.147   3.120   3.676
 1627SOL    HW2 5781   5.202   3.190   3.813
 1628SOL     OW 5782   3.096   3.299   0.381
 1628SOL    HW1 5783   3.050   3.387   0.384
 1628SOL    HW2 5784   3.043   3.232   0.433
 1629SOL     OW 5785   3.269   2.036   2.960
 1629SOL    HW1 5786   3.182   2.077   2.987
 1629SOL    HW2 5787   3.344   2.098   2.985
 1630SOL     OW 5788   6.632   5.043   4.517
 1630SOL    HW1 5789   6.550   5.070   4.567
 1630SOL    HW2 5790   6.613   4.958   4.468
 1631SOL     OW 5791   0.485   6.595   5.709
 1631SOL    HW1 5792   0.552   6.530   5.675
 1631SOL    HW2 5793   0.476   6.587   5.808
 1632SOL     OW 5794   4.853   6.985   0.283
 1632SOL    HW1 5795   4.950   6.974   0.305
 1632SOL    HW2 5796   4.840   0.046   0.230
 1633SOL     OW 5797   5.889   3.185   3.509
 1633SOL    HW1 5798   5.949   3.129   3.452
 1633SOL    HW2 5799   5.940   3.264   3.543
 1634SOL     OW 5800   3.977   0.514   0.229
 1634SOL    HW1 5801   4.039   0.436   0.237
 1634SOL    HW2 5802   3.951   0.545   0.320
 1635SOL     OW 5803   0.974   4.849   4.239
 1635SOL    HW1 5804   0.937   4.767   4.283
 1635SOL    HW2 5805   1.043   4.822   4.172
 1636SOL     OW 5806   2.554   6.380   1.221
 1636SOL    HW1 5807   2.554   6.471   1.263
 1636SOL    HW2 5808   2.621   6.377   1.147
 1637SOL     OW 5809   0.568   2.650   2.557
 1637SOL    HW1 5810   0.549   2.590   2.635
 1637SOL    HW2 5811   0.660   2.631   2.523
 1638SOL     OW 5812   1.226   2.717   5.619
 1638SOL    HW1 5813   1.269   2.741   5.706
 1638SOL    HW2 5814   1.283   2.752   5.544
 1639SOL     OW 5815   4.758   4.921   2.887
 1639SOL    HW1 5816   4.661   4.926   2.862
 1639SOL    HW2 5817   4.771   4.850   2.956
 1640SOL     OW 5818   5.342   0.658   1.132
 1640SOL    HW1 5819   5.364   0.691   1.223
 1640SOL    HW2 5820   5.247   0.682   1.110
 1641SOL     OW 5821   6.737   3.102   5.379
 1641SOL    HW1 5822   6.821   3.059   5.412
 1641SOL    HW2 5823   6.757   3.150   5.293
 1642SOL     OW 5824   0.209   2.089   1.277
 1642SOL    HW1 5825   0.285   2.100   1.213
 1642SOL    HW2 5826   0.129   2.138   1.242
 1643SOL     OW 5827   4.020   0.728   5.864
 1643SOL    HW1 5828   3.935   0.686   5.897
 1643SOL    HW2 5829   4.040   0.693   5.772
 1644SOL     OW 5830   3.280   1.225   0.190
 1644SOL    HW1 5831   3.194   1.175   0.185
 1644SOL    HW2 5832   3.308   1.251   0.097
 1645SOL     OW 5833   1.833   6.385   6.102
 1645SOL    HW1 5834   1.777   6.337   6.169
 1645SOL    HW2 5835   1.779   6.457   6.057
 1646SOL     OW 5836   1.442   3.932   7.017
 1646SOL    HW1 5837   1.363   3.947   0.053
 1646SOL    HW2 5838   1.524   3.969   0.038
 1647SOL     OW 5839   5.535   2.640   3.038
 1647SOL    HW1 5840   5.553   2.610   2.944
 1647SOL    HW2 5841   5.608   2.608   3.098
 1648SOL     OW 5842   4.000   0.264   2.363
 1648SOL    HW1 5843   4.039   0.346   2.323
 1648SOL    HW2 5844   4.021   0.261   2.461
 1649SOL     OW 5845   2.699   6.892   2.840
 1649SOL    HW1 5846   2.610   6.859   2.872
 1649SOL    HW2 5847   2.756   6.813   2.815
 1650SOL     OW 5848   3.171   0.052   4.256
 1650SOL    HW1 5849   3.230   0.115   4.205
 1650SOL    HW2 5850   3.169   6.986   4.210
 1651SOL     OW 5851   1.672   0.294   1.449
 1651SOL    HW1 5852   1.730   0.251   1.380
 1651SOL    HW2 5853   1.707   0.270   1.540
 1652SOL     OW 5854   3.035   3.073   1.952
 1652SOL    HW1 5855   3.000   3.067   1.859
 1652SOL    HW2 5856   3.087   3.157   1.963
 1653SOL     OW 5857   1.150   4.883   0.953
 1653SOL    HW1 5858   1.233   4.909   1.002
 1653SOL    HW2 5859   1.070   4.922   1.000
 1654SOL     OW 5860   0.493   1.924   3.257
 1654SOL    HW1 5861   0.577   1.923   3.202
 1654SOL    HW2 5862   0.517   1.920   3.354
 1655SOL     OW 5863   4.751   4.533   5.643
 1655SOL    HW1 5864   4.742   4.626   5.607
 1655SOL    HW2 5865   4.835   4.527   5.698
 1656SOL     OW 5866   0.454   4.375   2.842
 1656SOL    HW1 5867   0.461   4.278   2.868
 1656SOL    HW2 5868   0.357   4.398   2.830
 1657SOL     OW 5869   1.153   0.219   4.901
 1657SOL    HW1 5870   1.078   0.270   4.944
 1657SOL    HW2 5871   1.239   0.268   4.915
 1658SOL     OW 5872   6.619   6.889   2.649
 1658SOL    HW1 5873   6.681   6.817   2.617
 1658SOL    HW2 5874   6.524   6.863   2.628
 1659SOL     OW 5875   4.999   2.161   6.074
 1659SOL    HW1 5876   4.951   2.151   5.987
 1659SOL    HW2 5877   5.063   2.238   6.069
 1660SOL     OW 5878   2.228   6.245   3.370
 1660SOL    HW1 5879   2.323   6.250   3.399
 1660SOL    HW2 5880   2.223   6.214   3.275
 1661SOL     OW 5881   3.220   0.045   3.371
 1661SOL    HW1 5882   3.212   0.093   3.283
 1661SOL    HW2 5883   3.130   0.043   3.415
 1662SOL     OW 5884   0.065   0.649   3.042
 1662SOL    HW1 5885   0.055   0.733   2.987
 1662SOL    HW2 5886   7.002   0.598   3.040
 1663SOL     OW 5887   1.958   0.396   3.463
 1663SOL    HW1 5888   1.911   0.421   3.378
 1663SOL    HW2 5889   1.926   0.306   3.493
 1664SOL     OW 5890   2.412   4.849   4.254
 1664SOL    HW1 5891   2.460   4.853   4.342
 1664SOL    HW2 5892   2.331   4.792   4.263
 1665SOL     OW 5893   1.123   0.637   4.291
 1665SOL    HW1 5894   1.100   0.544   4.262
 1665SOL    HW2 5895   1.074   0.657   4.377
 1666SOL     OW 5896   5.355   3.420   6.304
 1666SOL    HW1 5897   5.359   3.472   6.389
 1666SOL    HW2 5898   5.301   3.337   6.317
 1667SOL     OW 5899   6.822   0.686   6.798
 1667SOL    HW1 5900   6.772   0.669   6.883
 1667SOL    HW2 5901   6.815   0.783   6.774
 1668SOL     OW 5902   2.106   0.212   4.966
 1668SOL    HW1 5903   2.144   0.243   5.053
 1668SOL    HW2 5904   2.164   0.245   4.891
 1669SOL     OW 5905   6.167   6.121   6.539
 1669SOL    HW1 5906   6.165   6.022   6.531
 1669SOL    HW2 5907   6.203   6.147   6.629
 1670SOL     OW 5908   6.377   3.304   6.466
 1670SOL    HW1 5909   6.430   3.388   6.477
 1670SOL    HW2 5910   6.436   3.225   6.482
 1671SOL     OW 5911   6.224   4.784   0.653
 1671SOL    HW1 5912   6.134   4.743   0.641
 1671SOL    HW2 5913   6.234   4.862   0.591
 1672SOL     OW 5914   1.894   5.460   2.126
 1672SOL    HW1 5915   1.812   5.425   2.171
 1672SOL    HW2 5916   1.947   5.514   2.192
 1673SOL     OW 5917   6.571   2.001   3.130
 1673SOL    HW1 5918   6.660   1.979   3.089
 1673SOL    HW2 5919   6.504   1.934   3.100
 1674SOL     OW 5920   2.241   5.371   6.865
 1674SOL    HW1 5921   2.249   5.273   6.882
 1674SOL    HW2 5922   2.145   5.398   6.873
 1675SOL     OW 5923   4.903   2.252   0.638
 1675SOL    HW1 5924   4.844   2.320   0.594
 1675SOL    HW2 5925   4.933   2.287   0.727
 1676SOL     OW 5926   2.506   1.258   4.229
 1676SOL    HW1 5927   2.449   1.328   4.187
 1676SOL    HW2 5928   2.495   1.260   4.328
 1677SOL     OW 5929   6.117   0.629   5.680
 1677SOL    HW1 5930   6.163   0.707   5.724
 1677SOL    HW2 5931   6.157   0.614   5.590
 1678SOL     OW 5932   4.910   0.438   1.439
 1678SOL    HW1 5933   4.923   0.385   1.354
 1678SOL    HW2 5934   4.896   0.534   1.416
 1679SOL     OW 5935   5.556   4.415   0.330
 1679SOL    HW1 5936   5.572   4.510   0.303
 1679SOL    HW2 5937   5.642   4.375   0.364
 1680SOL     OW 5938   1.182   2.236   4.915
 1680SOL    HW1 5939   1.148   2.142   4.926
 1680SOL    HW2 5940   1.105   2.299   4.908
 1681SOL     OW 5941   4.722   5.860   0.690
 1681SOL    HW1 5942   4.651   5.912   0.642
 1681SOL    HW2 5943   4.682   5.816   0.771
 1682SOL     OW 5944   6.814   3.706   5.270
 1682SOL    HW1 5945   6.757   3.670   5.196
 1682SOL    HW2 5946   6.889   3.759   5.232
 1683SOL     OW 5947   5.156   5.779   6.028
 1683SOL    HW1 5948   5.166   5.735   5.939
 1683SOL    HW2 5949   5.217   5.858   6.034
 1684SOL     OW 5950   6.918   6.476   4.463
 1684SOL    HW1 5951   6.999   6.443   4.512
 1684SOL    HW2 5952   6.837   6.459   4.518
 1685SOL     OW 5953   1.142   1.222   0.245
 1685SOL    HW1 5954   1.232   1.202   0.207
 1685SOL    HW2 5955   1.139   1.196   0.341
 1686SOL     OW 5956   2.338   5.817   6.691
 1686SOL    HW1 5957   2.413   5.881   6.680
 1686SOL    HW2 5958   2.339   5.780   6.784
 1687SOL     OW 5959   2.490   6.042   1.750
 1687SOL    HW1 5960   2.393   6.044   1.774
 1687SOL    HW2 5961   2.518   6.132   1.717
 1688SOL     OW 5962   0.832   1.360   3.413
 1688SOL    HW1 5963   0.907   1.371   3.348
 1688SOL    HW2 5964   0.863   1.305   3.491
 1689SOL     OW 5965   3.340   1.807   2.336
 1689SOL    HW1 5966   3.246   1.779   2.319
 1689SOL    HW2 5967   3.385   1.739   2.393
 1690SOL     OW 5968   0.948   2.260   0.695
 1690SOL    HW1 5969   0.983   2.278   0.603
 1690SOL    HW2 5970   1.022   2.225   0.752
 1691SOL     OW 5971   4.384   4.899   2.371
 1691SOL    HW1 5972   4.455   4.970   2.369
 1691SOL    HW2 5973   4.410   4.824   2.311
 1692SOL     OW 5974   1.813   6.941   3.048
 1692SOL    HW1 5975   1.793   0.010   3.083
 1692SOL    HW2 5976   1.740   6.878   3.075
 1693SOL     OW 5977   3.114   1.787   3.918
 1693SOL    HW1 5978   3.069   1.875   3.936
 1693SOL    HW2 5979   3.213   1.802   3.907
 1694SOL     OW 5980   4.942   5.884   5.170
 1694SOL    HW1 5981   4.930   5.815   5.242
 1694SOL    HW2 5982   4.862   5.884   5.110
 1695SOL     OW 5983   3.758   1.555   6.133
 1695SOL    HW1 5984   3.740   1.650   6.105
 1695SOL    HW2 5985   3.847   1.527   6.097
 1696SOL     OW 5986   3.406   5.438   2.038
 1696SOL    HW1 5987   3.413   5.435   1.939
 1696SOL    HW2 5988   3.458   5.363   2.078
 1697SOL     OW 5989   1.111   1.527   2.186
 1697SOL    HW1 5990   1.039   1.460   2.205
 1697SOL    HW2 5991   1.170   1.492   2.113
 1698SOL     OW 5992   5.193   2.098   0.765
 1698SOL    HW1 5993   5.214   2.165   0.694
 1698SOL    HW2 5994   5.129   2.030   0.730
 1699SOL     OW 5995   2.925   4.507   0.576
 1699SOL    HW1 5996   2.955   4.432   0.636
 1699SOL    HW2 5997   2.969   4.592   0.605
 1700SOL     OW 5998   6.368   2.702   4.603
 1700SOL    HW1 5999   6.456   2.657   4.590
 1700SOL    HW2 6000   6.300   2.661   4.542
 1701SOL     OW 6001   5.889   3.316   4.942
 1701SOL    HW1 6002   5.893   3.382   4.867
 1701SOL    HW2 6003   5.861   3.362   5.026
 1702SOL     OW 6004   4.848   2.873   1.774
 1702SOL    HW1 6005   4.878   2.906   1.685
 1702SOL    HW2 6006   4.790   2.943   1.817
 1703SOL     OW 6007   1.423   3.756   0.273
 1703SOL    HW1 6008   1.508   3.805   0.291
 1703SOL    HW2 6009   1.408   3.686   0.343
 1704SOL     OW 6010   0.072   1.004   1.608
 1704SOL    HW1 6011   0.143   1.033   1.671
 1704SOL    HW2 6012   0.064   1.069   1.532
 1705SOL     OW 6013   3.841   3.319   2.604
 1705SOL    HW1 6014   3.933   3.347   2.632
 1705SOL    HW2 6015   3.844   3.227   2.566
 1706SOL     OW 6016   2.259   0.583   6.588
 1706SOL    HW1 6017   2.326   0.528   6.638
 1706SOL    HW2 6018   2.306   0.644   6.524
 1707SOL     OW 6019   5.474   1.603   2.686
 1707SOL    HW1 6020   5.529   1.597   2.769
 1707SOL    HW2 6021   5.393   1.659   2.704
 1708SOL     OW 6022   0.233   4.418   1.552
 1708SOL    HW1 6023   0.241   4.413   1.651
 1708SOL    HW2 6024   0.319   4.389   1.510
 1709SOL     OW 6025   2.581   5.509   4.956
 1709SOL    HW1 6026   2.639   5.501   5.037
 1709SOL    HW2 6027   2.639   5.519   4.875
 1710SOL     OW 6028   0.042   5.338   4.226
 1710SOL    HW1 6029   0.066   5.394   4.305
 1710SOL    HW2 6030   7.010   5.260   4.256
 1711SOL     OW 6031   1.857   4.340   5.444
 1711SOL    HW1 6032   1.885   4.251   5.409
 1711SOL    HW2 6033   1.761   4.337   5.471
 1712SOL     OW 6034   1.904   5.143   1.321
 1712SOL    HW1 6035   1.848   5.070   1.282
 1712SOL    HW2 6036   1.936   5.116   1.412
 1713SOL     OW 6037   2.060   3.328   0.625
 1713SOL    HW1 6038   2.124   3.397   0.592
 1713SOL    HW2 6039   2.107   3.240   0.633
 1714SOL     OW 6040   3.952   1.504   1.360
 1714SOL    HW1 6041   3.938   1.434   1.290
 1714SOL    HW2 6042   3.865   1.522   1.407
 1715SOL     OW 6043   0.458   2.748   3.637
 1715SOL    HW1 6044   0.416   2.833   3.669
 1715SOL    HW2 6045   0.388   2.677   3.630
 1716SOL     OW 6046   6.765   0.328   0.064
 1716SOL    HW1 6047   6.831   0.317   7.013
 1716SOL    HW2 6048   6.813   0.353   0.149
 1717SOL     OW 6049   3.154   6.789   6.937
 1717SOL    HW1 6050   3.107   6.813   7.022
 1717SOL    HW2 6051   3.099   6.818   6.859
 1718SOL     OW 6052   1.597   4.551   5.624
 1718SOL    HW1 6053   1.508   4.507   5.635
 1718SOL    HW2 6054   1.612   4.570   5.527
 1719SOL     OW 6055   2.221   3.552   1.407
 1719SOL    HW1 6056   2.146   3.572   1.345
 1719SOL    HW2 6057   2.308   3.572   1.362
 1720SOL     OW 6058   6.697   1.314   2.849
 1720SOL    HW1 6059   6.638   1.347   2.922
 1720SOL    HW2 6060   6.732   1.223   2.873
 1721SOL     OW 6061   1.866   6.249   4.111
 1721SOL    HW1 6062   1.965   6.232   4.111
 1721SOL    HW2 6063   1.817   6.164   4.093
 1722SOL     OW 6064   5.611   0.364   1.522
 1722SOL    HW1 6065   5.601   0.324   1.613
 1722SOL    HW2 6066   5.521   0.377   1.481
 1723SOL     OW 6067   5.819   0.844   2.737
 1723SOL    HW1 6068   5.863   0.894   2.663
 1723SOL    HW2 6069   5.803   0.906   2.814
 1724SOL     OW 6070   5.026   0.423   6.897
 1724SOL    HW1 6071   4.965   0.448   6.821
 1724SOL    HW2 6072   5.027   0.496   6.965
 1725SOL     OW 6073   3.628   5.304   2.209
 1725SOL    HW1 6074   3.718   5.303   2.165
 1725SOL    HW2 6075   3.640   5.296   2.308
 1726SOL     OW 6076   0.027   3.903   4.289
 1726SOL    HW1 6077   0.125   3.881   4.288
 1726SOL    HW2 6078   0.007   3.968   4.216
 1727SOL     OW 6079   2.675   3.339   5.371
 1727SOL    HW1 6080   2.665   3.435   5.399
 1727SOL    HW2 6081   2.771   3.321   5.349
 1728SOL     OW 6082   4.366   4.713   3.528
 1728SOL    HW1 6083   4.295   4.769   3.487
 1728SOL    HW2 6084   4.387   4.636   3.467
 1729SOL     OW 6085   1.993   3.754   2.638
 1729SOL    HW1 6086   1.965   3.660   2.622
 1729SOL    HW2 6087   2.057   3.782   2.566
 1730SOL     OW 6088   5.754   2.080   4.555
 1730SOL    HW1 6089   5.746   1.981   4.565
 1730SOL    HW2 6090   5.739   2.124   4.644
 1731SOL     OW 6091   0.069   6.636   0.671
 1731SOL    HW1 6092   0.110   6.714   0.624
 1731SOL    HW2 6093   0.035   6.665   0.760
 1732SOL     OW 6094   0.700   4.551   6.769
 1732SOL    HW1 6095   0.639   4.608   6.715
 1732SOL    HW2 6096   0.667   4.545   6.863
 1733SOL     OW 6097   0.918   3.947   0.160
 1733SOL    HW1 6098   0.915   3.882   0.235
 1733SOL    HW2 6099   0.889   3.902   0.075
 1734SOL     OW 6100   4.815   3.820   1.739
 1734SOL    HW1 6101   4.832   3.787   1.646
 1734SOL    HW2 6102   4.895   3.869   1.772
 1735SOL     OW 6103   4.956   6.216   0.723
 1735SOL    HW1 6104   4.975   6.128   0.679
 1735SOL    HW2 6105   4.858   6.222   0.744
 1736SOL     OW 6106   3.020   3.766   0.346
 1736SOL    HW1 6107   3.100   3.729   0.393
 1736SOL    HW2 6108   2.949   3.696   0.342
 1737SOL     OW 6109   1.122   5.643   3.502
 1737SOL    HW1 6110   1.199   5.689   3.548
 1737SOL    HW2 6111   1.053   5.710   3.477
 1738SOL     OW 6112   0.779   1.359   1.646
 1738SOL    HW1 6113   0.826   1.446   1.657
 1738SOL    HW2 6114   0.835   1.298   1.590
 1739SOL     OW 6115   4.603   2.376   5.867
 1739SOL    HW1 6116   4.571   2.282   5.860
 1739SOL    HW2 6117   4.676   2.382   5.936
 1740SOL     OW 6118   0.622   1.241   5.243
 1740SOL    HW1 6119   0.683   1.295   5.185
 1740SOL    HW2 6120   0.571   1.176   5.187
 1741SOL     OW 6121   2.448   0.766   2.415
 1741SOL    HW1 6122   2.512   0.720   2.476
 1741SOL    HW2 6123   2.354   0.742   2.439
 1742SOL     OW 6124   6.097   6.500   4.656
 1742SOL    HW1 6125   6.066   6.589   4.623
 1742SOL    HW2 6126   6.102   6.436   4.579
 1743SOL     OW 6127   4.900   1.332   0.441
 1743SOL    HW1 6128   4.885   1.395   0.365
 1743SOL    HW2 6129   4.848   1.248   0.425
 1744SOL     OW 6130   2.752   6.607   1.244
 1744SOL    HW1 6131   2.749   6.633   1.341
 1744SOL    HW2 6132   2.671   6.642   1.197
 1745SOL     OW 6133   6.560   3.195   5.108
 1745SOL    HW1 6134   6.657   3.204   5.086
 1745SOL    HW2 6135   6.538   3.098   5.122
 1746SOL     OW 6136   2.871   1.114   5.726
 1746SOL    HW1 6137   2.910   1.098   5.635
 1746SOL    HW2 6138   2.924   1.185   5.773
 1747SOL     OW 6139   5.311   6.709   5.734
 1747SOL    HW1 6140   5.404   6.688   5.766
 1747SOL    HW2 6141   5.252   6.629   5.747
 1748SOL     OW 6142   5.839   1.471   1.627
 1748SOL    HW1 6143   5.903   1.450   1.701
 1748SOL    HW2 6144   5.803   1.386   1.590
 1749SOL     OW 6145   4.665   0.234   5.773
 1749SOL    HW1 6146   4.586   0.263   5.718
 1749SOL    HW2 6147   4.665   0.284   5.859
 1750SOL     OW 6148   4.753   0.459   4.127
 1750SOL    HW1 6149   4.849   0.487   4.128
 1750SOL    HW2 6150   4.745   0.367   4.087
 1751SOL     OW 6151   2.272   5.377   3.808
 1751SOL    HW1 6152   2.271   5.282   3.776
 1751SOL    HW2 6153   2.252   5.438   3.731
 1752SOL     OW 6154   7.015   2.117   6.470
 1752SOL    HW1 6155   0.063   2.170   6.422
 1752SOL    HW2 6156   6.988   2.039   6.414
 1753SOL     OW 6157   2.621   6.265   2.338
 1753SOL    HW1 6158   2.627   6.350   2.286
 1753SOL    HW2 6159   2.619   6.285   2.436
 1754SOL     OW 6160   3.622   2.674   1.826
 1754SOL    HW1 6161   3.688   2.747   1.814
 1754SOL    HW2 6162   3.665   2.586   1.805
 1755SOL     OW 6163   6.146   4.217   0.131
 1755SOL    HW1 6164   6.146   4.132   0.184
 1755SOL    HW2 6165   6.234   4.263   0.143
 1756SOL     OW 6166   5.645   5.644   4.910
 1756SOL    HW1 6167   5.632   5.642   5.009
 1756SOL    HW2 6168   5.730   5.691   4.888
 1757SOL     OW 6169   3.543   0.983   5.622
 1757SOL    HW1 6170   3.450   0.959   5.595
 1757SOL    HW2 6171   3.578   1.055   5.562
 1758SOL     OW 6172   2.796   1.792   3.330
 1758SOL    HW1 6173   2.813   1.715   3.269
 1758SOL    HW2 6174   2.869   1.798   3.397
 1759SOL     OW 6175   0.343   5.456   5.986
 1759SOL    HW1 6176   0.429   5.416   6.017
 1759SOL    HW2 6177   0.353   5.555   5.977
 1760SOL     OW 6178   5.103   0.289   2.060
 1760SOL    HW1 6179   5.075   0.193   2.065
 1760SOL    HW2 6180   5.152   0.313   2.144
 1761SOL     OW 6181   5.854   2.765   1.863
 1761SOL    HW1 6182   5.887   2.757   1.957
 1761SOL    HW2 6183   5.926   2.802   1.805
 1762SOL     OW 6184   5.552   2.728   0.786
 1762SOL    HW1 6185   5.608   2.695   0.710
 1762SOL    HW2 6186   5.503   2.651   0.827
 1763SOL     OW 6187   2.139   3.325   3.626
 1763SOL    HW1 6188   2.055   3.273   3.610
 1763SOL    HW2 6189   2.146   3.346   3.724
 1764SOL     OW 6190   6.330   3.083   4.178
 1764SOL    HW1 6191   6.362   3.157   4.238
 1764SOL    HW2 6192   6.282   3.015   4.232
 1765SOL     OW 6193   1.826   3.380   6.108
 1765SOL    HW1 6194   1.836   3.300   6.166
 1765SOL    HW2 6195   1.907   3.389   6.049
 1766SOL     OW 6196   5.916   3.559   5.555
 1766SOL    HW1 6197   5.886   3.620   5.481
 1766SOL    HW2 6198   5.988   3.499   5.521
 1767SOL     OW 6199   6.591   4.366   1.528
 1767SOL    HW1 6200   6.536   4.373   1.611
 1767SOL    HW2 6201   6.678   4.323   1.549
 1768SOL     OW 6202   6.359   6.711   3.667
 1768SOL    HW1 6203   6.356   6.667   3.578
 1768SOL    HW2 6204   6.382   6.643   3.737
 1769SOL     OW 6205   5.250   0.930   3.745
 1769SOL    HW1 6206   5.174   0.961   3.687
 1769SOL    HW2 6207   5.337   0.948   3.698
 1770SOL     OW 6208   3.315   5.343   5.160
 1770SOL    HW1 6209   3.373   5.278   5.210
 1770SOL    HW2 6210   3.324   5.434   5.201
 1771SOL     OW 6211   4.440   6.927   6.864
 1771SOL    HW1 6212   4.389   6.953   6.946
 1771SOL    HW2 6213   4.476   6.835   6.874
 1772SOL     OW 6214   3.556   6.262   3.400
 1772SOL    HW1 6215   3.493   6.336   3.374
 1772SOL    HW2 6216   3.525   6.176   3.359
 1773SOL     OW 6217   0.697   6.683   0.018
 1773SOL    HW1 6218   0.618   6.664   0.076
 1773SOL    HW2 6219   0.756   6.602   0.014
 1774SOL     OW 6220   2.996   4.992   2.050
 1774SOL    HW1 6221   3.020   5.045   2.131
 1774SOL    HW2 6222   2.946   4.910   2.077
 1775SOL     OW 6223   0.932   4.300   1.288
 1775SOL    HW1 6224   0.888   4.210   1.291
 1775SOL    HW2 6225   1.029   4.290   1.309
 1776SOL     OW 6226   2.906   6.269   5.777
 1776SOL    HW1 6227   2.926   6.208   5.853
 1776SOL    HW2 6228   2.810   6.257   5.750
 1777SOL     OW 6229   3.213   6.038   0.377
 1777SOL    HW1 6230   3.213   5.946   0.338
 1777SOL    HW2 6231   3.267   6.099   0.319
 1778SOL     OW 6232   6.832   3.464   5.660
 1778SOL    HW1 6233   6.892   3.449   5.739
 1778SOL    HW2 6234   6.875   3.529   5.598
 1779SOL     OW 6235   3.598   0.534   5.716
 1779SOL    HW1 6236   3.643   0.540   5.805
 1779SOL    HW2 6237   3.579   0.438   5.695
 1780SOL     OW 6238   3.335   3.369   6.841
 1780SOL    HW1 6239   3.269   3.322   6.900
 1780SOL    HW2 6240   3.419   3.315   6.835
 1781SOL     OW 6241   3.649   5.347   3.832
 1781SOL    HW1 6242   3.717   5.353   3.759
 1781SOL    HW2 6243   3.588   5.427   3.827
 1782SOL     OW 6244   2.945   1.552   4.148
 1782SOL    HW1 6245   3.000   1.529   4.068
 1782SOL    HW2 6246   2.956   1.650   4.169
 1783SOL     OW 6247   1.670   5.919   6.762
 1783SOL    HW1 6248   1.743   5.970   6.809
 1783SOL    HW2 6249   1.705   5.885   6.674
 1784SOL     OW 6250   3.044   6.991   5.988
 1784SOL    HW1 6251   2.964   0.025   5.970
 1784SOL    HW2 6252   3.123   0.026   6.009
 1785SOL     OW 6253   6.893   4.863   1.854
 1785SOL    HW1 6254   6.936   4.845   1.765
 1785SOL    HW2 6255   6.935   4.943   1.896
 1786SOL     OW 6256   4.127   2.185   1.360
 1786SOL    HW1 6257   4.151   2.282   1.350
 1786SOL    HW2 6258   4.198   2.138   1.413
 1787SOL     OW 6259   3.927   0.987   5.919
 1787SOL    HW1 6260   3.936   1.007   6.017
 1787SOL    HW2 6261   3.983   0.907   5.896
 1788SOL     OW 6262   1.512   4.752   6.220
 1788SOL    HW1 6263   1.611   4.745   6.226
 1788SOL    HW2 6264   1.470   4.699   6.294
 1789SOL     OW 6265   5.780   0.318   0.553
 1789SOL    HW1 6266   5.759   0.396   0.611
 1789SOL    HW2 6267   5.697   0.288   0.506
 1790SOL     OW 6268   3.221   6.516   2.815
 1790SOL    HW1 6269   3.197   6.443   2.879
 1790SOL    HW2 6270   3.253   6.596   2.867
 1791SOL     OW 6271   0.302   6.585   2.864
 1791SOL    HW1 6272   0.246   6.504   2.879
 1791SOL    HW2 6273   0.252   6.651   2.809
 1792SOL     OW 6274   1.004   4.288   4.593
 1792SOL    HW1 6275   1.053   4.375   4.591
 1792SOL    HW2 6276   1.044   4.226   4.526
 1793SOL     OW 6277   0.313   0.995   3.575
 1793SOL    HW1 6278   0.337   0.964   3.668
 1793SOL    HW2 6279   0.281   0.918   3.521
 1794SOL     OW 6280   4.472   6.292   6.595
 1794SOL    HW1 6281   4.568   6.298   6.566
 1794SOL    HW2 6282   4.452   6.199   6.626
 1795SOL     OW 6283   1.003   3.005   0.028
 1795SOL    HW1 6284   1.095   3.002   0.066
 1795SOL    HW2 6285   0.936   2.991   0.102
 1796SOL     OW 6286   3.750   0.808   6.265
 1796SOL    HW1 6287   3.698   0.858   6.334
 1796SOL    HW2 6288   3.689   0.782   6.189
 1797SOL     OW 6289   0.976   0.767   0.733
 1797SOL    HW1 6290   0.895   0.710   0.744
 1797SOL    HW2 6291   0.999   0.808   0.821
 1798SOL     OW 6292   5.246   1.838   2.882
 1798SOL    HW1 6293   5.155   1.879   2.876
 1798SOL    HW2 6294   5.245   1.766   2.951
 1799SOL     OW 6295   2.024   1.704   6.958
 1799SOL    HW1 6296   1.981   1.706   0.025
 1799SOL    HW2 6297   2.092   1.777   6.951
 1800SOL     OW 6298   3.768   4.990   2.456
 1800SOL    HW1 6299   3.669   4.988   2.441
 1800SOL    HW2 6300   3.810   5.051   2.389
 1801SOL     OW 6301   5.662   6.717   0.850
 1801SOL    HW1 6302   5.616   6.805   0.862
 1801SOL    HW2 6303   5.759   6.727   0.870
 1802SOL     OW 6304   5.475   4.777   3.719
 1802SOL    HW1 6305   5.518   4.835   3.650
 1802SOL    HW2 6306   5.376   4.792   3.718
 1803SOL     OW 6307   5.662   5.614   1.307
 1803SOL    HW1 6308   5.644   5.559   1.226
 1803SOL    HW2 6309   5.585   5.605   1.371
 1804SOL     OW 6310   3.376   3.179   6.079
 1804SOL    HW1 6311   3.298   3.241   6.081
 1804SOL    HW2 6312   3.365   3.115   6.003
 1805SOL     OW 6313   5.764   2.883   5.912
 1805SOL    HW1 6314   5.794   2.788   5.921
 1805SOL    HW2 6315   5.733   2.916   6.001
 1806SOL     OW 6316   0.154   0.655   0.945
 1806SOL    HW1 6317   0.227   0.592   0.973
 1806SOL    HW2 6318   0.171   0.745   0.985
 1807SOL     OW 6319   6.146   2.109   6.014
 1807SOL    HW1 6320   6.220   2.176   6.009
 1807SOL    HW2 6321   6.154   2.045   5.938
 1808SOL     OW 6322   1.945   4.572   4.182
 1808SOL    HW1 6323   1.977   4.624   4.104
 1808SOL    HW2 6324   2.014   4.503   4.207
 1809SOL     OW 6325   3.626   0.284   6.317
 1809SOL    HW1 6326   3.615   0.278   6.218
 1809SOL    HW2 6327   3.686   0.211   6.349
 1810SOL     OW 6328   3.422   6.000   2.730
 1810SOL    HW1 6329   3.397   6.058   2.653
 1810SOL    HW2 6330   3.400   5.905   2.709
 1811SOL     OW 6331   6.026   5.624   2.341
 1811SOL    HW1 6332   6.059   5.706   2.294
 1811SOL    HW2 6333   6.048   5.629   2.438
 1812SOL     OW 6334   4.429   5.254   6.235
 1812SOL    HW1 6335   4.516   5.263   6.283
 1812SOL    HW2 6336   4.385   5.344   6.229
 1813SOL     OW 6337   6.673   5.523   5.369
 1813SOL    HW1 6338   6.711   5.613   5.386
 1813SOL    HW2 6339   6.703   5.459   5.440
 1814SOL     OW 6340   5.099   6.888   2.692
 1814SOL    HW1 6341   5.077   6.960   2.626
 1814SOL    HW2 6342   5.141   6.811   2.645
 1815SOL     OW 6343   0.408   1.058   2.345
 1815SOL    HW1 6344   0.443   0.968   2.368
 1815SOL    HW2 6345   0.445   1.125   2.410
 1816SOL     OW 6346   0.897   4.411   0.203
 1816SOL    HW1 6347   0.831   4.354   0.153
 1816SOL    HW2 6348   0.870   4.416   0.299
 1817SOL     OW 6349   1.163   5.584   1.947
 1817SOL    HW1 6350   1.129   5.611   1.857
 1817SOL    HW2 6351   1.261   5.601   1.952
 1818SOL     OW 6352   1.472   1.216   2.988
 1818SOL    HW1 6353   1.480   1.146   3.059
 1818SOL    HW2 6354   1.549   1.280   2.995
 1819SOL     OW 6355   0.832   4.070   2.236
 1819SOL    HW1 6356   0.901   4.040   2.171
 1819SOL    HW2 6357   0.746   4.021   2.219
 1820SOL     OW 6358   5.956   0.233   2.709
 1820SOL    HW1 6359   5.871   0.258   2.664
 1820SOL    HW2 6360   5.950   0.255   2.806
 1821SOL     OW 6361   1.725   1.372   3.675
 1821SOL    HW1 6362   1.790   1.374   3.599
 1821SOL    HW2 6363   1.671   1.456   3.675
 1822SOL     OW 6364   3.423   3.594   1.852
 1822SOL    HW1 6365   3.515   3.564   1.876
 1822SOL    HW2 6366   3.365   3.514   1.837
 1823SOL     OW 6367   4.170   0.076   2.260
 1823SOL    HW1 6368   4.085   0.111   2.300
 1823SOL    HW2 6369   4.150   0.031   2.173
 1824SOL     OW 6370   4.971   2.216   1.618
 1824SOL    HW1 6371   4.922   2.281   1.676
 1824SOL    HW2 6372   4.944   2.230   1.522
 1825SOL     OW 6373   0.976   1.185   1.502
 1825SOL    HW1 6374   1.062   1.203   1.550
 1825SOL    HW2 6375   0.977   1.232   1.414
 1826SOL     OW 6376   3.012   5.813   6.312
 1826SOL    HW1 6377   2.992   5.727   6.359
 1826SOL    HW2 6378   3.110   5.829   6.311
 1827SOL     OW 6379   6.182   6.950   1.892
 1827SOL    HW1 6380   6.224   6.927   1.804
 1827SOL    HW2 6381   6.196   6.874   1.956
 1828SOL     OW 6382   1.740   2.409   0.061
 1828SOL    HW1 6383   1.839   2.404   0.045
 1828SOL    HW2 6384   1.715   2.352   0.139
 1829SOL     OW 6385   6.151   5.292   1.891
 1829SOL    HW1 6386   6.153   5.353   1.971
 1829SOL    HW2 6387   6.058   5.257   1.879
 1830SOL     OW 6388   5.487   5.814   3.712
 1830SOL    HW1 6389   5.407   5.863   3.746
 1830SOL    HW2 6390   5.543   5.784   3.789
 1831SOL     OW 6391   5.342   0.674   3.460
 1831SOL    HW1 6392   5.277   0.690   3.535
 1831SOL    HW2 6393   5.309   0.720   3.377
 1832SOL     OW 6394   5.140   2.829   0.473
 1832SOL    HW1 6395   5.167   2.752   0.530
 1832SOL    HW2 6396   5.040   2.833   0.467
 1833SOL     OW 6397   5.804   1.924   5.801
 1833SOL    HW1 6398   5.785   1.832   5.834
 1833SOL    HW2 6399   5.828   1.921   5.704
 1834SOL     OW 6400   2.734   3.935   0.785
 1834SOL    HW1 6401   2.812   3.898   0.735
 1834SOL    HW2 6402   2.701   4.017   0.739
 1835SOL     OW 6403   1.129   4.679   6.905
 1835SOL    HW1 6404   1.150   4.768   6.944
 1835SOL    HW2 6405   1.202   4.614   6.928
 1836SOL     OW 6406   0.680   5.974   0.605
 1836SOL    HW1 6407   0.603   5.910   0.604
 1836SOL    HW2 6408   0.659   6.051   0.665
 1837SOL     OW 6409   1.058   2.448   4.735
 1837SOL    HW1 6410   1.140   2.488   4.695
 1837SOL    HW2 6411   0.980   2.461   4.674
 1838SOL     OW 6412   0.529   2.418   4.400
 1838SOL    HW1 6413   0.540   2.512   4.368
 1838SOL    HW2 6414   0.447   2.412   4.457
 1839SOL     OW 6415   0.066   1.385   6.062
 1839SOL    HW1 6416   0.023   1.393   5.972
 1839SOL    HW2 6417   0.131   1.459   6.074
 1840SOL     OW 6418   1.178   5.191   0.627
 1840SOL    HW1 6419   1.214   5.221   0.715
 1840SOL    HW2 6420   1.156   5.094   0.631
 1841SOL     OW 6421   1.406   3.180   2.808
 1841SOL    HW1 6422   1.452   3.091   2.808
 1841SOL    HW2 6423   1.465   3.248   2.851
 1842SOL     OW 6424   0.891   5.189   6.760
 1842SOL    HW1 6425   0.887   5.109   6.700
 1842SOL    HW2 6426   0.837   5.263   6.720
 1843SOL     OW 6427   4.037   1.767   4.863
 1843SOL    HW1 6428   3.969   1.840   4.868
 1843SOL    HW2 6429   4.067   1.743   4.955
 1844SOL     OW 6430   5.533   3.326   3.799
 1844SOL    HW1 6431   5.482   3.282   3.872
 1844SOL    HW2 6432   5.573   3.411   3.833
 1845SOL     OW 6433   4.264   6.838   1.048
 1845SOL    HW1 6434   4.287   6.851   0.952
 1845SOL    HW2 6435   4.243   6.926   1.090
 1846SOL     OW 6436   3.357   1.222   5.522
 1846SOL    HW1 6437   3.421   1.248   5.594
 1846SOL    HW2 6438   3.362   1.287   5.447
 1847SOL     OW 6439   1.871   6.915   0.359
 1847SOL    HW1 6440   1.796   6.886   0.419
 1847SOL    HW2 6441   1.946   6.952   0.415
 1848SOL     OW 6442   2.906   6.822   2.482
 1848SOL    HW1 6443   2.914   6.762   2.561
 1848SOL    HW2 6444   2.835   6.788   2.421
 1849SOL     OW 6445   2.867   0.937   6.655
 1849SOL    HW1 6446   2.928   0.876   6.704
 1849SOL    HW2 6447   2.863   0.911   6.558
 1850SOL     OW 6448   5.383   1.636   1.660
 1850SOL    HW1 6449   5.354   1.699   1.589
 1850SOL    HW2 6450   5.412   1.549   1.618
 1851SOL     OW 6451   6.521   3.669   2.940
 1851SOL    HW1 6452   6.489   3.691   3.032
 1851SOL    HW2 6453   6.442   3.663   2.878
 1852SOL     OW 6454   5.439   2.875   6.122
 1852SOL    HW1 6455   5.432   2.794   6.064
 1852SOL    HW2 6456   5.442   2.848   6.218
 1853SOL     OW 6457   1.345   4.561   0.573
 1853SOL    HW1 6458   1.302   4.625   0.509
 1853SOL    HW2 6459   1.308   4.470   0.559
 1854SOL     OW 6460   2.761   5.724   4.025
 1854SOL    HW1 6461   2.682   5.784   4.018
 1854SOL    HW2 6462   2.738   5.634   3.989
 1855SOL     OW 6463   5.676   4.231   1.591
 1855SOL    HW1 6464   5.755   4.170   1.589
 1855SOL    HW2 6465   5.690   4.302   1.660
 1856SOL     OW 6466   5.015   3.430   6.553
 1856SOL    HW1 6467   4.938   3.444   6.490
 1856SOL    HW2 6468   5.087   3.378   6.507
 1857SOL     OW 6469   4.844   1.332   3.836
 1857SOL    HW1 6470   4.888   1.275   3.906
 1857SOL    HW2 6471   4.840   1.426   3.867
 1858SOL     OW 6472   5.616   3.211   3.550
 1858SOL    HW1 6473   5.581   3.280   3.614
 1858SOL    HW2 6474   5.712   3.193   3.568
 1859SOL     OW 6475   5.394   1.445   3.141
 1859SOL    HW1 6476   5.412   1.406   3.050
 1859SOL    HW2 6477   5.470   1.504   3.167
 1860SOL     OW 6478   4.072   1.957   5.218
 1860SOL    HW1 6479   4.005   1.885   5.236
 1860SOL    HW2 6480   4.162   1.927   5.250
 1861SOL     OW 6481   5.394   6.119   2.658
 1861SOL    HW1 6482   5.361   6.212   2.647
 1861SOL    HW2 6483   5.335   6.056   2.607
 1862SOL     OW 6484   1.811   1.432   0.613
 1862SOL    HW1 6485   1.750   1.497   0.657
 1862SOL    HW2 6486   1.879   1.400   0.679
 1863SOL     OW 6487   2.130   2.516   1.524
 1863SOL    HW1 6488   2.050   2.530   1.465
 1863SOL    HW2 6489   2.182   2.601   1.530
 1864SOL     OW 6490   0.937   6.646   3.157
 1864SOL    HW1 6491   0.932   6.741   3.189
 1864SOL    HW2 6492   0.979   6.589   3.228
 1865SOL     OW 6493   5.168   2.241   6.785
 1865SOL    HW1 6494   5.162   2.190   6.699
 1865SOL    HW2 6495   5.099   2.208   6.849
 1866SOL     OW 6496   5.017   5.385   2.433
 1866SOL    HW1 6497   4.953   5.427   2.368
 1866SOL    HW2 6498   5.040   5.293   2.401
 1867SOL     OW 6499   1.203   4.762   6.595
 1867SOL    HW1 6500   1.122   4.703   6.600
 1867SOL    HW2 6501   1.178   4.848   6.551
 1868SOL     OW 6502   6.522   4.162   5.537
 1868SOL    HW1 6503   6.583   4.085   5.520
 1868SOL    HW2 6504   6.560   4.219   5.610
 1869SOL     OW 6505   6.059   1.316   4.897
 1869SOL    HW1 6506   6.010   1.288   4.814
 1869SOL    HW2 6507   6.157   1.322   4.876
 1870SOL     OW 6508   2.208   4.255   4.432
 1870SOL    HW1 6509   2.296   4.284   4.470
 1870SOL    HW2 6510   2.146   4.231   4.506
 1871SOL     OW 6511   1.599   0.422   0.763
 1871SOL    HW1 6512   1.571   0.469   0.846
 1871SOL    HW2 6513   1.582   0.324   0.773
 1872SOL     OW 6514   2.445   4.931   0.210
 1872SOL    HW1 6515   2.429   4.904   0.115
 1872SOL    HW2 6516   2.526   4.989   0.216
 1873SOL     OW 6517   5.252   1.039   0.343
 1873SOL    HW1 6518   5.195   1.097   0.402
 1873SOL    HW2 6519   5.315   1.097   0.291
 1874SOL     OW 6520   1.282   3.915   2.668
 1874SOL    HW1 6521   1.213   3.948   2.603
 1874SOL    HW2 6522   1.362   3.975   2.665
 1875SOL     OW 6523   1.360   0.023   1.171
 1875SOL    HW1 6524   1.264   0.007   1.148
 1875SOL    HW2 6525   1.409   6.959   1.175
 1876SOL     OW 6526   2.382   6.829   4.356
 1876SOL    HW1 6527   2.419   6.762   4.420
 1876SOL    HW2 6528   2.448   6.846   4.283
 1877SOL     OW 6529   0.052   0.121   3.743
 1877SOL    HW1 6530   0.052   0.217   3.771
 1877SOL    HW2 6531   0.025   0.064   3.821
 1878SOL     OW 6532   5.958   2.636   5.543
 1878SOL    HW1 6533   5.892   2.708   5.565
 1878SOL    HW2 6534   5.990   2.649   5.449
 1879SOL     OW 6535   1.897   4.733   5.778
 1879SOL    HW1 6536   1.933   4.709   5.688
 1879SOL    HW2 6537   1.798   4.720   5.780
 1880SOL     OW 6538   6.104   0.652   5.062
 1880SOL    HW1 6539   6.006   0.649   5.078
 1880SOL    HW2 6540   6.121   0.658   4.963
 1881SOL     OW 6541   0.312   2.711   6.941
 1881SOL    HW1 6542   0.221   2.721   6.900
 1881SOL    HW2 6543   0.375   2.776   6.898
 1882SOL     OW 6544   1.219   6.401   6.655
 1882SOL    HW1 6545   1.138   6.428   6.707
 1882SOL    HW2 6546   1.200   6.317   6.605
 1883SOL     OW 6547   0.613   2.065   4.017
 1883SOL    HW1 6548   0.520   2.044   3.987
 1883SOL    HW2 6549   0.669   1.983   4.012
 1884SOL     OW 6550   0.455   2.666   0.676
 1884SOL    HW1 6551   0.526   2.597   0.666
 1884SOL    HW2 6552   0.436   2.682   0.772
 1885SOL     OW 6553   2.189   1.116   4.537
 1885SOL    HW1 6554   2.245   1.144   4.458
 1885SOL    HW2 6555   2.213   1.173   4.616
 1886SOL     OW 6556   0.972   6.506   3.391
 1886SOL    HW1 6557   0.979   6.581   3.457
 1886SOL    HW2 6558   0.888   6.455   3.406
 1887SOL     OW 6559   3.068   6.203   6.433
 1887SOL    HW1 6560   2.986   6.249   6.466
 1887SOL    HW2 6561   3.060   6.186   6.335
 1888SOL     OW 6562   2.773   0.880   3.079
 1888SOL    HW1 6563   2.824   0.829   3.149
 1888SOL    HW2 6564   2.793   0.978   3.089
 1889SOL     OW 6565   0.507   3.508   2.422
 1889SOL    HW1 6566   0.540   3.455   2.344
 1889SOL    HW2 6567   0.479   3.446   2.495
 1890SOL     OW 6568   0.951   5.939   4.608
 1890SOL    HW1 6569   1.039   5.932   4.560
 1890SOL    HW2 6570   0.948   5.872   4.682
 1891SOL     OW 6571   3.107   3.284   3.572
 1891SOL    HW1 6572   3.032   3.343   3.542
 1891SOL    HW2 6573   3.076   3.226   3.647
 1892SOL     OW 6574   1.009   0.134   2.884
 1892SOL    HW1 6575   1.030   0.179   2.797
 1892SOL    HW2 6576   1.001   0.203   2.956
 1893SOL     OW 6577   4.103   3.804   4.349
 1893SOL    HW1 6578   4.069   3.859   4.425
 1893SOL    HW2 6579   4.197   3.831   4.328
 1894SOL     OW 6580   3.307   3.474   4.453
 1894SOL    HW1 6581   3.266   3.534   4.384
 1894SOL    HW2 6582   3.240   3.455   4.525
 1895SOL     OW 6583   1.855   6.253   0.302
 1895SOL    HW1 6584   1.841   6.198   0.384
 1895SOL    HW2 6585   1.768   6.265   0.254
 1896SOL     OW 6586   6.199   2.467   1.453
 1896SOL    HW1 6587   6.284   2.463   1.400
 1896SOL    HW2 6588   6.218   2.442   1.548
 1897SOL     OW 6589   1.152   4.521   4.599
 1897SOL    HW1 6590   1.089   4.580   4.649
 1897SOL    HW2 6591   1.247   4.546   4.621
 1898SOL     OW 6592   1.487   6.019   2.888
 1898SOL    HW1 6593   1.567   5.975   2.849
 1898SOL    HW2 6594   1.511   6.110   2.921
 1899SOL     OW 6595   0.178   1.118   2.218
 1899SOL    HW1 6596   0.268   1.105   2.258
 1899SOL    HW2 6597   0.138   1.030   2.194
 1900SOL     OW 6598   2.558   6.841   0.152
 1900SOL    HW1 6599   2.559   6.786   0.069
 1900SOL    HW2 6600   2.517   6.931   0.133
 1901SOL     OW 6601   2.774   3.639   1.708
 1901SOL    HW1 6602   2.737   3.731   1.719
 1901SOL    HW2 6603   2.836   3.618   1.783
 1902SOL     OW 6604   1.357   6.757   5.298
 1902SOL    HW1 6605   1.358   6.701   5.215
 1902SOL    HW2 6606   1.278   6.818   5.296
 1903SOL     OW 6607   1.298   2.261   4.029
 1903SOL    HW1 6608   1.381   2.262   3.973
 1903SOL    HW2 6609   1.300   2.182   4.090
 1904SOL     OW 6610   5.458   6.110   1.989
 1904SOL    HW1 6611   5.550   6.103   1.951
 1904SOL    HW2 6612   5.421   6.202   1.973
 1905SOL     OW 6613   0.690   1.798   4.031
 1905SOL    HW1 6614   0.599   1.807   4.072
 1905SOL    HW2 6615   0.696   1.711   3.982
 1906SOL     OW 6616   1.193   6.325   4.755
 1906SOL    HW1 6617   1.263   6.348   4.688
 1906SOL    HW2 6618   1.128   6.260   4.716
 1907SOL     OW 6619   4.865   3.056   0.285
 1907SOL    HW1 6620   4.867   2.996   0.205
 1907SOL    HW2 6621   4.958   3.084   0.309
 1908SOL     OW 6622   3.639   1.110   1.417
 1908SOL    HW1 6623   3.713   1.172   1.391
 1908SOL    HW2 6624   3.644   1.092   1.515
 1909SOL     OW 6625   6.308   5.359   4.855
 1909SOL    HW1 6626   6.214   5.346   4.825
 1909SOL    HW2 6627   6.350   5.433   4.803
 1910SOL     OW 6628   0.293   5.946   5.861
 1910SOL    HW1 6629   0.333   5.961   5.951
 1910SOL    HW2 6630   0.286   6.033   5.812
 1911SOL     OW 6631   6.034   5.806   4.286
 1911SOL    HW1 6632   6.039   5.788   4.384
 1911SOL    HW2 6633   6.071   5.728   4.235
 1912SOL     OW 6634   3.712   5.008   1.930
 1912SOL    HW1 6635   3.623   5.030   1.890
 1912SOL    HW2 6636   3.716   4.911   1.951
 1913SOL     OW 6637   3.481   4.170   6.736
 1913SOL    HW1 6638   3.548   4.142   6.804
 1913SOL    HW2 6639   3.487   4.268   6.720
 1914SOL     OW 6640   3.244   4.425   6.998
 1914SOL    HW1 6641   3.154   4.431   6.955
 1914SOL    HW2 6642   3.247   4.346   0.036
 1915SOL     OW 6643   3.456   2.876   6.741
 1915SOL    HW1 6644   3.377   2.851   6.797
 1915SOL    HW2 6645   3.429   2.875   6.644
 1916SOL     OW 6646   4.360   0.641   2.868
 1916SOL    HW1 6647   4.397   0.666   2.779
 1916SOL    HW2 6648   4.401   0.699   2.939
 1917SOL     OW 6649   2.085   4.336   1.234
 1917SOL    HW1 6650   2.164   4.361   1.178
 1917SOL    HW2 6651   2.106   4.350   1.331
 1918SOL     OW 6652   5.371   1.938   3.267
 1918SOL    HW1 6653   5.288   1.888   3.292
 1918SOL    HW2 6654   5.367   2.030   3.305
 1919SOL     OW 6655   6.559   2.386   6.181
 1919SOL    HW1 6656   6.595   2.325   6.252
 1919SOL    HW2 6657   6.516   2.465   6.224
 1920SOL     OW 6658   4.964   3.151   0.628
 1920SOL    HW1 6659   5.051   3.192   0.602
 1920SOL    HW2 6660   4.980   3.070   0.684
 1921SOL     OW 6661   2.245   2.237   0.186
 1921SOL    HW1 6662   2.309   2.255   0.111
 1921SOL    HW2 6663   2.264   2.299   0.262
 1922SOL     OW 6664   3.376   3.021   3.817
 1922SOL    HW1 6665   3.318   2.970   3.881
 1922SOL    HW2 6666   3.336   3.016   3.726
 1923SOL     OW 6667   3.473   0.900   4.444
 1923SOL    HW1 6668   3.473   0.834   4.519
 1923SOL    HW2 6669   3.520   0.983   4.472
 1924SOL     OW 6670   5.131   1.139   0.794
 1924SOL    HW1 6671   5.170   1.112   0.882
 1924SOL    HW2 6672   5.202   1.180   0.736
 1925SOL     OW 6673   1.106   3.955   1.376
 1925SOL    HW1 6674   1.179   3.887   1.376
 1925SOL    HW2 6675   1.138   4.039   1.419
 1926SOL     OW 6676   3.894   0.808   1.852
 1926SOL    HW1 6677   3.955   0.743   1.808
 1926SOL    HW2 6678   3.900   0.798   1.951
 1927SOL     OW 6679   2.036   5.366   1.234
 1927SOL    HW1 6680   1.999   5.275   1.251
 1927SOL    HW2 6681   2.120   5.359   1.180
 1928SOL     OW 6682   6.582   4.705   2.405
 1928SOL    HW1 6683   6.665   4.650   2.397
 1928SOL    HW2 6684   6.590   4.787   2.348
 1929SOL     OW 6685   3.339   6.674   3.654
 1929SOL    HW1 6686   3.390   6.752   3.618
 1929SOL    HW2 6687   3.351   6.669   3.753
 1930SOL     OW 6688   3.726   3.377   0.440
 1930SOL    HW1 6689   3.821   3.378   0.410
 1930SOL    HW2 6690   3.722   3.375   0.540
 1931SOL     OW 6691   6.966   2.494   3.844
 1931SOL    HW1 6692   6.897   2.563   3.828
 1931SOL    HW2 6693   6.933   2.428   3.911
 1932SOL     OW 6694   4.638   1.709   2.475
 1932SOL    HW1 6695   4.544   1.682   2.455
 1932SOL    HW2 6696   4.689   1.720   2.390
 1933SOL     OW 6697   1.401   1.227   1.390
 1933SOL    HW1 6698   1.386   1.130   1.372
 1933SOL    HW2 6699   1.361   1.281   1.315
 1934SOL     OW 6700   6.955   1.323   6.780
 1934SOL    HW1 6701   7.021   1.262   6.737
 1934SOL    HW2 6702   7.001   1.407   6.809
 1935SOL     OW 6703   5.906   5.047   3.479
 1935SOL    HW1 6704   5.869   4.956   3.459
 1935SOL    HW2 6705   5.859   5.115   3.424
 1936SOL     OW 6706   4.751   3.405   5.916
 1936SOL    HW1 6707   4.680   3.428   5.982
 1936SOL    HW2 6708   4.818   3.344   5.959
 1937SOL     OW 6709   6.277   4.944   6.364
 1937SOL    HW1 6710   6.208   5.007   6.400
 1937SOL    HW2 6711   6.339   4.917   6.438
 1938SOL     OW 6712   6.719   2.848   0.251
 1938SOL    HW1 6713   6.730   2.853   0.152
 1938SOL    HW2 6714   6.622   2.847   0.274
 1939SOL     OW 6715   0.319   0.796   4.501
 1939SOL    HW1 6716   0.230   0.753   4.513
 1939SOL    HW2 6717   0.372   0.789   4.585
 1940SOL     OW 6718   0.337   4.895   0.487
 1940SOL    HW1 6719   0.296   4.983   0.511
 1940SOL    HW2 6720   0.353   4.892   0.388
 1941SOL     OW 6721   5.277   1.649   4.906
 1941SOL    HW1 6722   5.345   1.650   4.979
 1941SOL    HW2 6723   5.302   1.716   4.836
 1942SOL     OW 6724   0.292   4.711   1.758
 1942SOL    HW1 6725   0.254   4.789   1.809
 1942SOL    HW2 6726   0.273   4.722   1.661
 1943SOL     OW 6727   0.603   2.878   3.265
 1943SOL    HW1 6728   0.605   2.921   3.175
 1943SOL    HW2 6729   0.640   2.942   3.333
 1944SOL     OW 6730   0.863   3.454   3.620
 1944SOL    HW1 6731   0.936   3.514   3.588
 1944SOL    HW2 6732   0.819   3.494   3.700
 1945SOL     OW 6733   5.440   1.376   1.537
 1945SOL    HW1 6734   5.502   1.297   1.541
 1945SOL    HW2 6735   5.345   1.345   1.540
 1946SOL     OW 6736   6.213   5.533   0.607
 1946SOL    HW1 6737   6.241   5.445   0.646
 1946SOL    HW2 6738   6.157   5.583   0.673
 1947SOL     OW 6739   6.048   4.958   2.671
 1947SOL    HW1 6740   6.131   5.000   2.634
 1947SOL    HW2 6741   6.052   4.958   2.771
 1948SOL     OW 6742   5.463   3.046   3.731
 1948SOL    HW1 6743   5.495   3.120   3.672
 1948SOL    HW2 6744   5.365   3.059   3.749
 1949SOL     OW 6745   3.369   4.221   6.497
 1949SOL    HW1 6746   3.408   4.165   6.571
 1949SOL    HW2 6747   3.377   4.318   6.521
 1950SOL     OW 6748   3.990   3.883   3.452
 1950SOL    HW1 6749   3.953   3.797   3.488
 1950SOL    HW2 6750   3.939   3.960   3.489
 1951SOL     OW 6751   6.401   5.288   5.798
 1951SOL    HW1 6752   6.407   5.189   5.810
 1951SOL    HW2 6753   6.487   5.331   5.825
 1952SOL     OW 6754   5.663   4.753   6.987
 1952SOL    HW1 6755   5.745   4.788   0.010
 1952SOL    HW2 6756   5.689   4.712   6.900
 1953SOL     OW 6757   0.984   1.201   6.938
 1953SOL    HW1 6758   0.957   1.243   0.002
 1953SOL    HW2 6759   0.906   1.153   6.899
 1954SOL     OW 6760   3.623   6.588   2.098
 1954SOL    HW1 6761   3.651   6.630   2.011
 1954SOL    HW2 6762   3.559   6.514   2.080
 1955SOL     OW 6763   6.757   2.341   3.999
 1955SOL    HW1 6764   6.777   2.269   3.934
 1955SOL    HW2 6765   6.680   2.396   3.966
 1956SOL     OW 6766   4.840   0.944   1.555
 1956SOL    HW1 6767   4.874   1.037   1.568
 1956SOL    HW2 6768   4.904   0.879   1.596
 1957SOL     OW 6769   6.603   2.591   4.501
 1957SOL    HW1 6770   6.675   2.559   4.563
 1957SOL    HW2 6771   6.631   2.577   4.406
 1958SOL     OW 6772   4.156   1.491   0.268
 1958SOL    HW1 6773   4.141   1.479   0.366
 1958SOL    HW2 6774   4.092   1.560   0.233
 1959SOL     OW 6775   1.086   1.901   5.572
 1959SOL    HW1 6776   1.140   1.931   5.651
 1959SOL    HW2 6777   1.071   1.980   5.511
 1960SOL     OW 6778   5.506   3.962   3.422
 1960SOL    HW1 6779   5.426   3.904   3.440
 1960SOL    HW2 6780   5.568   3.914   3.361
 1961SOL     OW 6781   0.719   3.640   4.207
 1961SOL    HW1 6782   0.728   3.584   4.289
 1961SOL    HW2 6783   0.789   3.614   4.141
 1962SOL     OW 6784   0.608   0.498   1.813
 1962SOL    HW1 6785   0.554   0.529   1.892
 1962SOL    HW2 6786   0.698   0.468   1.844
 1963SOL     OW 6787   0.930   2.885   6.807
 1963SOL    HW1 6788   0.955   2.906   6.902
 1963SOL    HW2 6789   0.864   2.953   6.774
 1964SOL     OW 6790   5.522   3.481   0.678
 1964SOL    HW1 6791   5.425   3.500   0.662
 1964SOL    HW2 6792   5.536   3.382   0.680
 1965SOL     OW 6793   6.130   4.689   3.608
 1965SOL    HW1 6794   6.147   4.787   3.598
 1965SOL    HW2 6795   6.111   4.649   3.519
 1966SOL     OW 6796   0.936   4.604   6.415
 1966SOL    HW1 6797   0.934   4.702   6.396
 1966SOL    HW2 6798   0.952   4.589   6.512
 1967SOL     OW 6799   6.573   3.367   4.706
 1967SOL    HW1 6800   6.528   3.382   4.618
 1967SOL    HW2 6801   6.518   3.305   4.761
 1968SOL     OW 6802   2.594   1.181   6.013
 1968SOL    HW1 6803   2.554   1.227   5.934
 1968SOL    HW2 6804   2.670   1.236   6.049
 1969SOL     OW 6805   1.127   6.011   1.208
 1969SOL    HW1 6806   1.221   5.996   1.178
 1969SOL    HW2 6807   1.118   5.982   1.304
 1970SOL     OW 6808   5.459   4.492   4.056
 1970SOL    HW1 6809   5.393   4.566   4.067
 1970SOL    HW2 6810   5.425   4.410   4.103
 1971SOL     OW 6811   1.721   4.320   4.673
 1971SOL    HW1 6812   1.801   4.270   4.706
 1971SOL    HW2 6813   1.694   4.388   4.741
 1972SOL     OW 6814   6.219   1.982   2.336
 1972SOL    HW1 6815   6.262   1.986   2.426
 1972SOL    HW2 6816   6.236   2.068   2.288
 1973SOL     OW 6817   3.466   2.129   1.118
 1973SOL    HW1 6818   3.544   2.074   1.087
 1973SOL    HW2 6819   3.500   2.219   1.148
 1974SOL     OW 6820   2.327   6.842   4.812
 1974SOL    HW1 6821   2.392   6.900   4.764
 1974SOL    HW2 6822   2.293   6.889   4.893
 1975SOL     OW 6823   2.091   2.802   2.746
 1975SOL    HW1 6824   2.078   2.710   2.782
 1975SOL    HW2 6825   2.155   2.852   2.805
 1976SOL     OW 6826   1.369   0.953   5.019
 1976SOL    HW1 6827   1.438   0.883   5.007
 1976SOL    HW2 6828   1.362   1.008   4.936
 1977SOL     OW 6829   1.939   3.780   6.669
 1977SOL    HW1 6830   1.923   3.837   6.588
 1977SOL    HW2 6831   1.869   3.709   6.674
 1978SOL     OW 6832   2.878   0.310   1.989
 1978SOL    HW1 6833   2.907   0.236   1.928
 1978SOL    HW2 6834   2.948   0.325   2.059
 1979SOL     OW 6835   5.888   4.699   6.505
 1979SOL    HW1 6836   5.971   4.650   6.534
 1979SOL    HW2 6837   5.893   4.717   6.407
 1980SOL     OW 6838   3.876   0.226   0.782
 1980SOL    HW1 6839   3.813   0.248   0.856
 1980SOL    HW2 6840   3.938   0.154   0.811
 1981SOL     OW 6841   3.744   1.568   2.299
 1981SOL    HW1 6842   3.827   1.543   2.250
 1981SOL    HW2 6843   3.692   1.635   2.246
 1982SOL     OW 6844   1.554   3.036   6.146
 1982SOL    HW1 6845   1.525   3.031   6.050
 1982SOL    HW2 6846   1.507   3.111   6.192
 1983SOL     OW 6847   6.030   1.480   1.869
 1983SOL    HW1 6848   6.106   1.431   1.827
 1983SOL    HW2 6849   5.993   1.425   1.944
 1984SOL     OW 6850   4.782   3.904   6.113
 1984SOL    HW1 6851   4.880   3.917   6.120
 1984SOL    HW2 6852   4.740   3.912   6.203
 1985SOL     OW 6853   6.009   4.761   4.130
 1985SOL    HW1 6854   5.958   4.745   4.045
 1985SOL    HW2 6855   5.991   4.687   4.194
 1986SOL     OW 6856   2.852   3.490   2.377
 1986SOL    HW1 6857   2.807   3.572   2.412
 1986SOL    HW2 6858   2.830   3.479   2.280
 1987SOL     OW 6859   2.648   0.846   2.205
 1987SOL    HW1 6860   2.727   0.875   2.259
 1987SOL    HW2 6861   2.574   0.818   2.266
 1988SOL     OW 6862   0.712   1.966   1.900
 1988SOL    HW1 6863   0.631   1.954   1.956
 1988SOL    HW2 6864   0.760   1.879   1.891
 1989SOL     OW 6865   3.016   5.843   5.173
 1989SOL    HW1 6866   2.929   5.885   5.200
 1989SOL    HW2 6867   3.041   5.873   5.081
 1990SOL     OW 6868   3.873   7.007   0.185
 1990SOL    HW1 6869   3.782   6.988   0.148
 1990SOL    HW2 6870   3.931   0.021   0.113
 1991SOL     OW 6871   2.315   5.287   1.753
 1991SOL    HW1 6872   2.335   5.203   1.701
 1991SOL    HW2 6873   2.259   5.348   1.697
 1992SOL     OW 6874   1.009   6.267   2.958
 1992SOL    HW1 6875   1.043   6.359   2.940
 1992SOL    HW2 6876   1.084   6.209   2.990
 1993SOL     OW 6877   1.928   1.470   2.990
 1993SOL    HW1 6878   2.026   1.467   3.005
 1993SOL    HW2 6879   1.894   1.563   3.003
 1994SOL     OW 6880   3.985   3.230   1.306
 1994SOL    HW1 6881   3.911   3.186   1.255
 1994SOL    HW2 6882   3.960   3.233   1.403
 1995SOL     OW 6883   5.648   1.734   4.230
 1995SOL    HW1 6884   5.740   1.770   4.240
 1995SOL    HW2 6885   5.634   1.701   4.136
 1996SOL     OW 6886   4.600   0.700   0.482
 1996SOL    HW1 6887   4.658   0.735   0.555
 1996SOL    HW2 6888   4.652   0.635   0.426
 1997SOL     OW 6889   3.718   1.331   3.914
 1997SOL    HW1 6890   3.657   1.374   3.848
 1997SOL    HW2 6891   3.764   1.253   3.871
 1998SOL     OW 6892   2.746   3.897   1.410
 1998SOL    HW1 6893   2.792   3.824   1.359
 1998SOL    HW2 6894   2.655   3.912   1.372
 1999SOL     OW 6895   0.464   6.582   6.706
 1999SOL    HW1 6896   0.390   6.527   6.745
 1999SOL    HW2 6897   0.426   6.641   6.634
 2000SOL     OW 6898   4.191   4.326   6.128
 2000SOL    HW1 6899   4.248   4.406   6.106
 2000SOL    HW2 6900   4.174   4.323   6.227
 2001SOL     OW 6901   1.471   2.432   0.743
 2001SOL    HW1 6902   1.519   2.355   0.701
 2001SOL    HW2 6903   1.395   2.460   0.685
 2002SOL     OW 6904   6.298   5.313   0.772
 2002SOL    HW1 6905   6.294   5.293   0.870
 2002SOL    HW2 6906   6.392   5.306   0.740
 2003SOL     OW 6907   5.844   5.510   1.747
 2003SOL    HW1 6908   5.779   5.437   1.728
 2003SOL    HW2 6909   5.883   5.542   1.661
 2004SOL     OW 6910   4.204   0.217   3.268
 2004SOL    HW1 6911   4.302   0.235   3.276
 2004SOL    HW2 6912   4.158   0.249   3.351
 2005SOL     OW 6913   1.427   6.782   0.415
 2005SOL    HW1 6914   1.407   6.825   0.327
 2005SOL    HW2 6915   1.517   6.738   0.411
 2006SOL     OW 6916   5.743   6.707   2.592
 2006SOL    HW1 6917   5.821   6.646   2.609
 2006SOL    HW2 6918   5.768   6.775   2.523
 2007SOL     OW 6919   5.601   5.109   5.981
 2007SOL    HW1 6920   5.542   5.030   5.996
 2007SOL    HW2 6921   5.546   5.192   5.972
 2008SOL     OW 6922   1.924   3.444   2.617
 2008SOL    HW1 6923   1.985   3.417   2.542
 2008SOL    HW2 6924   1.869   3.365   2.645
 2009SOL     OW 6925   6.342   0.038   2.504
 2009SOL    HW1 6926   6.408   0.020   2.578
 2009SOL    HW2 6927   6.250   0.018   2.537
 2010SOL     OW 6928   6.909   1.878   1.823
 2010SOL    HW1 6929   6.933   1.785   1.793
 2010SOL    HW2 6930   6.842   1.916   1.759
 2011SOL     OW 6931   1.246   7.011   5.038
 2011SOL    HW1 6932   1.272   6.928   4.988
 2011SOL    HW2 6933   1.216   0.058   4.973
 2012SOL     OW 6934   0.663   3.038   0.820
 2012SOL    HW1 6935   0.718   3.117   0.848
 2012SOL    HW2 6936   0.711   2.989   0.747
 2013SOL     OW 6937   0.470   2.487   2.237
 2013SOL    HW1 6938   0.492   2.545   2.315
 2013SOL    HW2 6939   0.382   2.514   2.198
 2014SOL     OW 6940   3.837   1.591   4.155
 2014SOL    HW1 6941   3.775   1.562   4.082
 2014SOL    HW2 6942   3.820   1.537   4.237
 2015SOL     OW 6943   3.697   6.380   2.253
 2015SOL    HW1 6944   3.750   6.418   2.329
 2015SOL    HW2 6945   3.666   6.455   2.194
 2016SOL     OW 6946   1.850   0.592   4.784
 2016SOL    HW1 6947   1.829   0.507   4.832
 2016SOL    HW2 6948   1.929   0.579   4.725
 2017SOL     OW 6949   2.960   6.423   4.035
 2017SOL    HW1 6950   3.020   6.353   3.996
 2017SOL    HW2 6951   2.891   6.379   4.092
 2018SOL     OW 6952   0.533   0.438   4.168
 2018SOL    HW1 6953   0.522   0.431   4.267
 2018SOL    HW2 6954   0.533   0.535   4.142
 2019SOL     OW 6955   6.566   5.197   6.918
 2019SOL    HW1 6956   6.474   5.201   6.957
 2019SOL    HW2 6957   6.630   5.164   6.987
 2020SOL     OW 6958   2.027   6.681   0.864
 2020SOL    HW1 6959   1.934   6.702   0.896
 2020SOL    HW2 6960   2.037   6.583   0.853
 2021SOL     OW 6961   0.250   5.855   4.485
 2021SOL    HW1 6962   0.161   5.821   4.456
 2021SOL    HW2 6963   0.313   5.778   4.496
 2022SOL     OW 6964   1.706   3.423   4.228
 2022SOL    HW1 6965   1.625   3.445   4.174
 2022SOL    HW2 6966   1.678   3.380   4.314
 2023SOL     OW 6967   6.641   5.971   6.566
 2023SOL    HW1 6968   6.680   5.974   6.474
 2023SOL    HW2 6969   6.708   5.930   6.629
 2024SOL     OW 6970   0.373   5.621   4.175
 2024SOL    HW1 6971   0.298   5.667   4.127
 2024SOL    HW2 6972   0.375   5.525   4.149
 2025SOL     OW 6973   1.965   6.057   4.377
 2025SOL    HW1 6974   1.932   5.974   4.331
 2025SOL    HW2 6975   2.035   6.033   4.444
 2026SOL     OW 6976   0.987   0.097   5.662
 2026SOL    HW1 6977   0.951   0.190   5.671
 2026SOL    HW2 6978   1.081   0.094   5.697
 2027SOL     OW 6979   6.797   6.037   2.494
 2027SOL    HW1 6980   6.813   5.976   2.571
 2027SOL    HW2 6981   6.883   6.083   2.469
 2028SOL     OW 6982   3.034   5.567   5.223
 2028SOL    HW1 6983   2.943   5.526   5.231
 2028SOL    HW2 6984   3.024   5.663   5.195
 2029SOL     OW 6985   6.206   2.862   6.705
 2029SOL    HW1 6986   6.219   2.961   6.718
 2029SOL    HW2 6987   6.295   2.819   6.691
 2030SOL     OW 6988   2.345   6.706   3.272
 2030SOL    HW1 6989   2.307   6.710   3.179
 2030SOL    HW2 6990   2.396   6.789   3.291
 2031SOL     OW 6991   0.525   6.036   5.307
 2031SOL    HW1 6992   0.502   6.113   5.247
 2031SOL    HW2 6993   0.443   6.006   5.355
 2032SOL     OW 6994   2.148   2.876   6.157
 2032SOL    HW1 6995   2.246   2.884   6.176
 2032SOL    HW2 6996   2.098   2.873   6.244
 2033SOL     OW 6997   2.028   1.328   0.754
 2033SOL    HW1 6998   2.102   1.262   0.765
 2033SOL    HW2 6999   2.033   1.397   0.826
 2034SOL     OW 7000   0.605   4.768   4.983
 2034SOL    HW1 7001   0.541   4.797   5.054
 2034SOL    HW2 7002   0.566   4.692   4.931
 2035SOL     OW 7003   5.553   5.931   3.163
 2035SOL    HW1 7004   5.488   5.872   3.211
 2035SOL    HW2 7005   5.537   5.927   3.065
 2036SOL     OW 7006   0.175   4.128   6.374
 2036SOL    HW1 7007   0.225   4.209   6.343
 2036SOL    HW2 7008   0.078   4.150   6.383
 2037SOL     OW 7009   1.101   2.665   6.773
 2037SOL    HW1 7010   1.179   2.692   6.829
 2037SOL    HW2 7011   1.029   2.735   6.780
 2038SOL     OW 7012   1.212   1.326   6.025
 2038SOL    HW1 7013   1.138   1.259   6.036
 2038SOL    HW2 7014   1.294   1.279   5.992
 2039SOL     OW 7015   5.435   5.959   3.468
 2039SOL    HW1 7016   5.401   5.886   3.409
 2039SOL    HW2 7017   5.455   5.921   3.559
 2040SOL     OW 7018   2.511   2.175   0.558
 2040SOL    HW1 7019   2.540   2.184   0.463
 2040SOL    HW2 7020   2.591   2.170   0.617
 2041SOL     OW 7021   2.773   6.471   6.752
 2041SOL    HW1 7022   2.697   6.520   6.709
 2041SOL    HW2 7023   2.740   6.383   6.787
 2042SOL     OW 7024   6.274   0.168   6.216
 2042SOL    HW1 7025   6.210   0.237   6.249
 2042SOL    HW2 7026   6.366   0.191   6.247
 2043SOL     OW 7027   0.620   4.181   0.286
 2043SOL    HW1 7028   0.698   4.196   0.226
 2043SOL    HW2 7029   0.652   4.166   0.380
 2044SOL     OW 7030   4.304   0.712   1.759
 2044SOL    HW1 7031   4.279   0.693   1.665
 2044SOL    HW2 7032   4.400   0.687   1.773
 2045SOL     OW 7033   2.047   5.797   3.907
 2045SOL    HW1 7034   2.134   5.748   3.904
 2045SOL    HW2 7035   2.061   5.887   3.948
 2046SOL     OW 7036   0.538   2.841   5.744
 2046SOL    HW1 7037   0.563   2.903   5.818
 2046SOL    HW2 7038   0.486   2.891   5.675
 2047SOL     OW 7039   6.507   0.009   1.699
 2047SOL    HW1 7040   6.457   6.946   1.707
 2047SOL    HW2 7041   6.486   0.053   1.611
 2048SOL     OW 7042   2.202   0.729   4.253
 2048SOL    HW1 7043   2.198   0.778   4.166
 2048SOL    HW2 7044   2.150   0.780   4.322
 2049SOL     OW 7045   4.467   2.942   5.296
 2049SOL    HW1 7046   4.381   2.927   5.345
 2049SOL    HW2 7047   4.481   3.040   5.281
 2050SOL     OW 7048   0.812   0.902   3.430
 2050SOL    HW1 7049   0.727   0.934   3.389
 2050SOL    HW2 7050   0.859   0.979   3.473
 2051SOL     OW 7051   3.479   6.414   6.816
 2051SOL    HW1 7052   3.576   6.425   6.793
 2051SOL    HW2 7053   3.442   6.335   6.767
 2052SOL     OW 7054   0.625   3.778   0.978
 2052SOL    HW1 7055   0.550   3.825   1.023
 2052SOL    HW2 7056   0.648   3.695   1.029
 2053SOL     OW 7057   5.940   4.716   2.524
 2053SOL    HW1 7058   5.855   4.739   2.477
 2053SOL    HW2 7059   5.982   4.800   2.559
 2054SOL     OW 7060   2.935   3.710   2.898
 2054SOL    HW1 7061   2.874   3.699   2.820
 2054SOL    HW2 7062   3.029   3.687   2.870
 2055SOL     OW 7063   3.996   2.633   5.546
 2055SOL    HW1 7064   4.040   2.660   5.632
 2055SOL    HW2 7065   4.007   2.706   5.479
 2056SOL     OW 7066   2.944   4.707   1.740
 2056SOL    HW1 7067   2.905   4.629   1.789
 2056SOL    HW2 7068   3.043   4.704   1.746
 2057SOL     OW 7069   5.810   3.032   4.275
 2057SOL    HW1 7070   5.845   2.948   4.316
 2057SOL    HW2 7071   5.875   3.065   4.206
 2058SOL     OW 7072   5.719   0.065   3.721
 2058SOL    HW1 7073   5.750   6.997   3.750
 2058SOL    HW2 7074   5.662   0.057   3.639
 2059SOL     OW 7075   2.356   2.274   5.413
 2059SOL    HW1 7076   2.450   2.256   5.444
 2059SOL    HW2 7077   2.351   2.267   5.314
 2060SOL     OW 7078   1.784   2.093   6.467
 2060SOL    HW1 7079   1.811   1.997   6.461
 2060SOL    HW2 7080   1.782   2.134   6.376
 2061SOL     OW 7081   1.835   1.822   3.725
 2061SOL    HW1 7082   1.826   1.858   3.632
 2061SOL    HW2 7083   1.918   1.767   3.732
 2062SOL     OW 7084   5.970   4.930   4.362
 2062SOL    HW1 7085   5.934   4.986   4.287
 2062SOL    HW2 7086   5.927   4.840   4.359
 2063SOL     OW 7087   1.351   2.044   4.163
 2063SOL    HW1 7088   1.329   2.039   4.260
 2063SOL    HW2 7089   1.449   2.057   4.151
 2064SOL     OW 7090   0.610   3.895   4.195
 2064SOL    HW1 7091   0.653   3.805   4.206
 2064SOL    HW2 7092   0.604   3.940   4.284
 2065SOL     OW 7093   4.016   3.423   5.741
 2065SOL    HW1 7094   3.965   3.407   5.656
 2065SOL    HW2 7095   3.957   3.403   5.819
 2066SOL     OW 7096   1.476   2.332   4.937
 2066SOL    HW1 7097   1.380   2.319   4.913
 2066SOL    HW2 7098   1.530   2.258   4.897
 2067SOL     OW 7099   6.219   4.299   2.092
 2067SOL    HW1 7100   6.270   4.229   2.142
 2067SOL    HW2 7101   6.145   4.333   2.150
 2068SOL     OW 7102   4.122   6.306   4.405
 2068SOL    HW1 7103   4.133   6.308   4.305
 2068SOL    HW2 7104   4.033   6.343   4.430
 2069SOL     OW 7105   6.346   1.068   3.934
 2069SOL    HW1 7106   6.376   0.991   3.878
 2069SOL    HW2 7107   6.417   1.091   4.001
 2070SOL     OW 7108   1.139   5.058   1.424
 2070SOL    HW1 7109   1.140   4.961   1.447
 2070SOL    HW2 7110   1.157   5.069   1.326
 2071SOL     OW 7111   6.888   2.584   4.860
 2071SOL    HW1 7112   6.902   2.557   4.764
 2071SOL    HW2 7113   6.972   2.567   4.911
 2072SOL     OW 7114   5.556   4.105   5.307
 2072SOL    HW1 7115   5.592   4.040   5.374
 2072SOL    HW2 7116   5.460   4.123   5.326
 2073SOL     OW 7117   3.279   5.205   6.757
 2073SOL    HW1 7118   3.338   5.154   6.694
 2073SOL    HW2 7119   3.185   5.172   6.748
 2074SOL     OW 7120   2.706   4.721   5.780
 2074SOL    HW1 7121   2.709   4.814   5.818
 2074SOL    HW2 7122   2.778   4.666   5.822
 2075SOL     OW 7123   5.499   2.229   1.465
 2075SOL    HW1 7124   5.441   2.210   1.544
 2075SOL    HW2 7125   5.589   2.261   1.495
 2076SOL     OW 7126   6.716   6.515   4.282
 2076SOL    HW1 7127   6.798   6.503   4.337
 2076SOL    HW2 7128   6.685   6.610   4.287
 2077SOL     OW 7129   6.545   4.450   0.453
 2077SOL    HW1 7130   6.644   4.439   0.461
 2077SOL    HW2 7131   6.512   4.509   0.527
 2078SOL     OW 7132   1.050   2.550   6.394
 2078SOL    HW1 7133   1.100   2.636   6.389
 2078SOL    HW2 7134   0.968   2.563   6.450
 2079SOL     OW 7135   5.411   1.370   2.839
 2079SOL    HW1 7136   5.425   1.396   2.744
 2079SOL    HW2 7137   5.469   1.292   2.862
 2080SOL     OW 7138   2.471   3.277   6.304
 2080SOL    HW1 7139   2.390   3.219   6.308
 2080SOL    HW2 7140   2.536   3.241   6.237
 2081SOL     OW 7141   0.037   6.171   2.523
 2081SOL    HW1 7142   0.126   6.124   2.521
 2081SOL    HW2 7143   0.051   6.268   2.505
 2082SOL     OW 7144   0.138   5.745   4.105
 2082SOL    HW1 7145   0.069   5.748   4.033
 2082SOL    HW2 7146   0.178   5.836   4.116
 2083SOL     OW 7147   0.514   6.048   4.196
 2083SOL    HW1 7148   0.529   6.146   4.184
 2083SOL    HW2 7149   0.547   6.000   4.115
 2084SOL     OW 7150   6.860   2.486   1.456
 2084SOL    HW1 7151   6.950   2.467   1.414
 2084SOL    HW2 7152   6.802   2.533   1.390
 2085SOL     OW 7153   6.357   5.637   0.352
 2085SOL    HW1 7154   6.448   5.602   0.375
 2085SOL    HW2 7155   6.294   5.618   0.428
 2086SOL     OW 7156   5.692   0.094   6.319
 2086SOL    HW1 7157   5.760   0.085   6.391
 2086SOL    HW2 7158   5.718   0.038   6.241
 2087SOL     OW 7159   4.751   1.650   6.360
 2087SOL    HW1 7160   4.767   1.596   6.443
 2087SOL    HW2 7161   4.703   1.734   6.384
 2088SOL     OW 7162   0.159   4.414   5.996
 2088SOL    HW1 7163   0.115   4.458   6.075
 2088SOL    HW2 7164   0.145   4.315   6.001
 2089SOL     OW 7165   2.599   4.303   6.014
 2089SOL    HW1 7166   2.566   4.309   6.108
 2089SOL    HW2 7167   2.574   4.386   5.965
 2090SOL     OW 7168   5.028   2.588   0.090
 2090SOL    HW1 7169   5.113   2.642   0.092
 2090SOL    HW2 7170   5.027   2.531   0.009
 2091SOL     OW 7171   5.098   6.519   1.051
 2091SOL    HW1 7172   5.111   6.466   0.967
 2091SOL    HW2 7173   5.143   6.608   1.042
 2092SOL     OW 7174   3.513   3.350   2.144
 2092SOL    HW1 7175   3.419   3.333   2.173
 2092SOL    HW2 7176   3.576   3.324   2.217
 2093SOL     OW 7177   4.428   0.348   0.841
 2093SOL    HW1 7178   4.433   0.267   0.782
 2093SOL    HW2 7179   4.514   0.359   0.891
 2094SOL     OW 7180   5.255   2.172   1.046
 2094SOL    HW1 7181   5.351   2.200   1.044
 2094SOL    HW2 7182   5.232   2.127   0.960
 2095SOL     OW 7183   5.272   5.219   4.336
 2095SOL    HW1 7184   5.185   5.191   4.376
 2095SOL    HW2 7185   5.317   5.141   4.293
 2096SOL     OW 7186   4.176   0.083   2.618
 2096SOL    HW1 7187   4.118   0.158   2.586
 2096SOL    HW2 7188   4.265   0.120   2.646
 2097SOL     OW 7189   0.911   6.036   5.699
 2097SOL    HW1 7190   0.824   6.055   5.655
 2097SOL    HW2 7191   0.916   5.939   5.724
 2098SOL     OW 7192   2.157   0.214   3.677
 2098SOL    HW1 7193   2.068   0.255   3.694
 2098SOL    HW2 7194   2.179   0.150   3.750
 2099SOL     OW 7195   4.418   1.759   6.909
 2099SOL    HW1 7196   4.392   1.781   7.003
 2099SOL    HW2 7197   4.495   1.695   6.909
 2100SOL     OW 7198   4.795   0.696   6.878
 2100SOL    HW1 7199   4.821   0.622   6.816
 2100SOL    HW2 7200   4.716   0.745   6.840
 2101SOL     OW 7201   1.966   0.123   2.450
 2101SOL    HW1 7202   1.913   0.042   2.424
 2101SOL    HW2 7203   2.058   0.117   2.412
 2102SOL     OW 7204   3.748   2.433   1.671
 2102SOL    HW1 7205   3.686   2.399   1.600
 2102SOL    HW2 7206   3.742   2.375   1.752
 2103SOL     OW 7207   1.488   0.183   0.856
 2103SOL    HW1 7208   1.493   0.096   0.904
 2103SOL    HW2 7209   1.393   0.202   0.830
 2104SOL     OW 7210   1.845   4.369   2.755
 2104SOL    HW1 7211   1.878   4.287   2.707
 2104SOL    HW2 7212   1.822   4.439   2.688
 2105SOL     OW 7213   5.260   6.946   5.356
 2105SOL    HW1 7214   5.229   0.018   5.355
 2105SOL    HW2 7215   5.210   6.893   5.288
 2106SOL     OW 7216   3.588   2.321   1.453
 2106SOL    HW1 7217   3.546   2.267   1.526
 2106SOL    HW2 7218   3.670   2.274   1.420
 2107SOL     OW 7219   4.915   4.391   4.848
 2107SOL    HW1 7220   4.817   4.371   4.840
 2107SOL    HW2 7221   4.956   4.394   4.756
 2108SOL     OW 7222   4.447   0.092   4.906
 2108SOL    HW1 7223   4.546   0.108   4.906
 2108SOL    HW2 7224   4.428   0.004   4.951
 2109SOL     OW 7225   2.561   5.809   1.911
 2109SOL    HW1 7226   2.542   5.898   1.871
 2109SOL    HW2 7227   2.538   5.737   1.846
 2110SOL     OW 7228   3.434   5.661   6.978
 2110SOL    HW1 7229   3.371   5.596   6.937
 2110SOL    HW2 7230   3.433   5.746   6.925
 2111SOL     OW 7231   1.065   2.370   6.765
 2111SOL    HW1 7232   1.089   2.467   6.759
 2111SOL    HW2 7233   0.998   2.347   6.695
 2112SOL     OW 7234   0.913   0.450   6.647
 2112SOL    HW1 7235   0.876   0.410   6.730
 2112SOL    HW2 7236   0.988   0.512   6.670
 2113SOL     OW 7237   6.626   1.839   4.804
 2113SOL    HW1 7238   6.536   1.859   4.840
 2113SOL    HW2 7239   6.652   1.909   4.737
 2114SOL     OW 7240   2.468   1.113   5.527
 2114SOL    HW1 7241   2.513   1.041   5.473
 2114SOL    HW2 7242   2.370   1.113   5.508
 2115SOL     OW 7243   0.323   6.591   3.420
 2115SOL    HW1 7244   0.408   6.601   3.473
 2115SOL    HW2 7245   0.264   6.525   3.464
 2116SOL     OW 7246   2.484   1.316   6.584
 2116SOL    HW1 7247   2.484   1.399   6.528
 2116SOL    HW2 7248   2.391   1.296   6.614
 2117SOL     OW 7249   6.119   2.477   2.515
 2117SOL    HW1 7250   6.147   2.551   2.454
 2117SOL    HW2 7251   6.174   2.479   2.599
 2118SOL     OW 7252   0.093   3.187   2.530
 2118SOL    HW1 7253   0.117   3.266   2.586
 2118SOL    HW2 7254   0.009   3.145   2.565
 2119SOL     OW 7255   0.933   3.240   0.373
 2119SOL    HW1 7256   0.998   3.205   0.442
 2119SOL    HW2 7257   0.887   3.163   0.329
 2120SOL     OW 7258   5.466   1.979   0.317
 2120SOL    HW1 7259   5.540   1.953   0.378
 2120SOL    HW2 7260   5.392   1.912   0.323
 2121SOL     OW 7261   2.393   6.528   1.420
 2121SOL    HW1 7262   2.412   6.431   1.410
 2121SOL    HW2 7263   2.309   6.540   1.473
 2122SOL     OW 7264   6.700   1.074   4.936
 2122SOL    HW1 7265   6.692   1.135   4.856
 2122SOL    HW2 7266   6.621   1.087   4.995
 2123SOL     OW 7267   0.961   4.621   3.280
 2123SOL    HW1 7268   0.950   4.707   3.331
 2123SOL    HW2 7269   0.918   4.547   3.330
 2124SOL     OW 7270   4.921   3.363   6.289
 2124SOL    HW1 7271   4.833   3.335   6.329
 2124SOL    HW2 7272   4.910   3.451   6.243
 2125SOL     OW 7273   1.183   5.775   4.518
 2125SOL    HW1 7274   1.272   5.813   4.544
 2125SOL    HW2 7275   1.179   5.679   4.547
 2126SOL     OW 7276   2.912   3.892   0.585
 2126SOL    HW1 7277   2.829   3.941   0.558
 2126SOL    HW2 7278   2.953   3.849   0.505
 2127SOL     OW 7279   1.141   3.475   4.397
 2127SOL    HW1 7280   1.099   3.472   4.488
 2127SOL    HW2 7281   1.083   3.425   4.333
 2128SOL     OW 7282   5.079   3.361   1.835
 2128SOL    HW1 7283   5.034   3.314   1.911
 2128SOL    HW2 7284   5.152   3.420   1.870
 2129SOL     OW 7285   5.511   3.853   3.703
 2129SOL    HW1 7286   5.496   3.952   3.707
 2129SOL    HW2 7287   5.574   3.832   3.628
 2130SOL     OW 7288   1.990   0.584   1.844
 2130SOL    HW1 7289   2.035   0.666   1.809
 2130SOL    HW2 7290   1.996   0.584   1.944
 2131SOL     OW 7291   6.008   0.462   6.823
 2131SOL    HW1 7292   6.020   0.427   6.916
 2131SOL    HW2 7293   5.940   0.407   6.774
 2132SOL     OW 7294   2.481   2.695   0.381
 2132SOL    HW1 7295   2.399   2.679   0.327
 2132SOL    HW2 7296   2.457   2.745   0.464
 2133SOL     OW 7297   4.033   2.135   1.666
 2133SOL    HW1 7298   4.027   2.174   1.757
 2133SOL    HW2 7299   4.128   2.111   1.645
 2134SOL     OW 7300   2.169   6.916   5.789
 2134SOL    HW1 7301   2.175   6.819   5.766
 2134SOL    HW2 7302   2.121   6.926   5.876
 2135SOL     OW 7303   1.014   6.215   4.304
 2135SOL    HW1 7304   1.002   6.151   4.228
 2135SOL    HW2 7305   0.935   6.211   4.365
 2136SOL     OW 7306   0.979   4.881   3.420
 2136SOL    HW1 7307   0.948   4.961   3.369
 2136SOL    HW2 7308   1.010   4.910   3.511
 2137SOL     OW 7309   0.331   0.323   4.473
 2137SOL    HW1 7310   0.399   0.396   4.480
 2137SOL    HW2 7311   0.353   0.250   4.537
 2138SOL     OW 7312   1.357   2.543   6.152
 2138SOL    HW1 7313   1.274   2.503   6.191
 2138SOL    HW2 7314   1.422   2.562   6.225
 2139SOL     OW 7315   2.820   6.882   4.717
 2139SOL    HW1 7316   2.894   6.823   4.687
 2139SOL    HW2 7317   2.758   6.831   4.777
 2140SOL     OW 7318   1.488   5.799   3.769
 2140SOL    HW1 7319   1.519   5.705   3.782
 2140SOL    HW2 7320   1.445   5.833   3.852
 2141SOL     OW 7321   6.706   1.744   6.367
 2141SOL    HW1 7322   6.612   1.769   6.392
 2141SOL    HW2 7323   6.757   1.827   6.342
 2142SOL     OW 7324   3.777   1.093   3.752
 2142SOL    HW1 7325   3.836   1.079   3.672
 2142SOL    HW2 7326   3.689   1.129   3.723
 2143SOL     OW 7327   3.130   5.822   0.277
 2143SOL    HW1 7328   3.165   5.747   0.221
 2143SOL    HW2 7329   3.056   5.869   0.229
 2144SOL     OW 7330   1.325   1.138   1.776
 2144SOL    HW1 7331   1.415   1.173   1.750
 2144SOL    HW2 7332   1.325   1.117   1.874
 2145SOL     OW 7333   2.889   5.519   3.157
 2145SOL    HW1 7334   2.813   5.478   3.106
 2145SOL    HW2 7335   2.970   5.524   3.097
 2146SOL     OW 7336   2.953   2.501   0.888
 2146SOL    HW1 7337   3.045   2.470   0.864
 2146SOL    HW2 7338   2.896   2.506   0.806
 2147SOL     OW 7339   0.337   1.042   4.750
 2147SOL    HW1 7340   0.254   1.004   4.709
 2147SOL    HW2 7341   0.409   0.972   4.751
 2148SOL     OW 7342   6.050   3.327   4.414
 2148SOL    HW1 7343   6.077   3.408   4.362
 2148SOL    HW2 7344   6.132   3.278   4.444
 2149SOL     OW 7345   3.117   0.327   3.182
 2149SOL    HW1 7346   3.194   0.353   3.240
 2149SOL    HW2 7347   3.032   0.361   3.223
 2150SOL     OW 7348   5.039   0.093   3.156
 2150SOL    HW1 7349   5.005   0.064   3.066
 2150SOL    HW2 7350   5.138   0.080   3.160
 2151SOL     OW 7351   4.575   4.364   6.187
 2151SOL    HW1 7352   4.617   4.431   6.126
 2151SOL    HW2 7353   4.618   4.275   6.174
 2152SOL     OW 7354   0.156   6.687   2.297
 2152SOL    HW1 7355   0.190   6.777   2.271
 2152SOL    HW2 7356   0.084   6.659   2.234
 2153SOL     OW 7357   4.463   1.904   3.793
 2153SOL    HW1 7358   4.395   1.905   3.720
 2153SOL    HW2 7359   4.424   1.859   3.874
 2154SOL     OW 7360   3.512   6.466   5.247
 2154SOL    HW1 7361   3.414   6.446   5.250
 2154SOL    HW2 7362   3.549   6.444   5.157
 2155SOL     OW 7363   5.958   3.414   0.278
 2155SOL    HW1 7364   5.938   3.351   0.202
 2155SOL    HW2 7365   5.896   3.395   0.354
 2156SOL     OW 7366   6.681   0.257   2.199
 2156SOL    HW1 7367   6.740   0.282   2.122
 2156SOL    HW2 7368   6.607   0.198   2.166
 2157SOL     OW 7369   5.812   1.072   4.131
 2157SOL    HW1 7370   5.889   1.047   4.190
 2157SOL    HW2 7371   5.833   1.048   4.036
 2158SOL     OW 7372   4.710   0.259   3.851
 2158SOL    HW1 7373   4.745   0.168   3.826
 2158SOL    HW2 7374   4.648   0.251   3.929
 2159SOL     OW 7375   2.592   0.419   5.508
 2159SOL    HW1 7376   2.516   0.364   5.474
 2159SOL    HW2 7377   2.560   0.477   5.583
 2160SOL     OW 7378   2.870   2.975   1.005
 2160SOL    HW1 7379   2.958   2.930   1.014
 2160SOL    HW2 7380   2.877   3.069   1.038
 2161SOL     OW 7381   5.090   2.854   3.859
 2161SOL    HW1 7382   5.112   2.947   3.831
 2161SOL    HW2 7383   5.074   2.852   3.958
 2162SOL     OW 7384   2.415   1.459   1.746
 2162SOL    HW1 7385   2.410   1.413   1.657
 2162SOL    HW2 7386   2.423   1.390   1.819
 2163SOL     OW 7387   2.869   1.839   0.985
 2163SOL    HW1 7388   2.894   1.743   0.980
 2163SOL    HW2 7389   2.771   1.847   1.003
 2164SOL     OW 7390   6.780   0.840   1.448
 2164SOL    HW1 7391   6.750   0.906   1.378
 2164SOL    HW2 7392   6.772   0.882   1.538
 2165SOL     OW 7393   3.092   0.112   1.945
 2165SOL    HW1 7394   3.072   0.015   1.954
 2165SOL    HW2 7395   3.179   0.124   1.897
 2166SOL     OW 7396   5.387   2.046   5.290
 2166SOL    HW1 7397   5.459   2.112   5.313
 2166SOL    HW2 7398   5.406   2.005   5.201
 2167SOL     OW 7399   3.163   1.038   0.780
 2167SOL    HW1 7400   3.111   0.955   0.762
 2167SOL    HW2 7401   3.205   1.070   0.696
 2168SOL     OW 7402   6.099   6.372   4.419
 2168SOL    HW1 7403   6.092   6.273   4.431
 2168SOL    HW2 7404   6.036   6.401   4.346
 2169SOL     OW 7405   5.577   1.193   6.074
 2169SOL    HW1 7406   5.628   1.208   6.159
 2169SOL    HW2 7407   5.494   1.248   6.074
 2170SOL     OW 7408   5.261   4.519   4.291
 2170SOL    HW1 7409   5.229   4.564   4.374
 2170SOL    HW2 7410   5.278   4.589   4.221
 2171SOL     OW 7411   0.013   3.799   0.372
 2171SOL    HW1 7412   6.940   3.808   0.401
 2171SOL    HW2 7413   0.053   3.890   0.363
 2172SOL     OW 7414   2.699   0.634   2.038
 2172SOL    HW1 7415   2.718   0.645   1.940
 2172SOL    HW2 7416   2.663   0.720   2.074
 2173SOL     OW 7417   4.560   2.398   4.650
 2173SOL    HW1 7418   4.642   2.432   4.697
 2173SOL    HW2 7419   4.486   2.386   4.717
 2174SOL     OW 7420   1.233   5.358   4.323
 2174SOL    HW1 7421   1.214   5.267   4.287
 2174SOL    HW2 7422   1.326   5.385   4.298
 2175SOL     OW 7423   1.497   6.299   5.874
 2175SOL    HW1 7424   1.406   6.340   5.876
 2175SOL    HW2 7425   1.562   6.361   5.919
 2176SOL     OW 7426   1.957   2.257   2.484
 2176SOL    HW1 7427   1.994   2.217   2.568
 2176SOL    HW2 7428   1.993   2.349   2.472
 2177SOL     OW 7429   1.093   2.009   1.211
 2177SOL    HW1 7430   1.070   1.942   1.140
 2177SOL    HW2 7431   1.009   2.045   1.252
 2178SOL     OW 7432   6.270   6.379   0.817
 2178SOL    HW1 7433   6.178   6.341   0.828
 2178SOL    HW2 7434   6.337   6.305   0.821
 2179SOL     OW 7435   1.743   4.258   3.944
 2179SOL    HW1 7436   1.733   4.335   3.881
 2179SOL    HW2 7437   1.706   4.176   3.902
 2180SOL     OW 7438   3.366   2.473   1.700
 2180SOL    HW1 7439   3.420   2.558   1.694
 2180SOL    HW2 7440   3.272   2.495   1.727
 2181SOL     OW 7441   3.716   6.826   1.361
 2181SOL    HW1 7442   3.665   6.775   1.291
 2181SOL    HW2 7443   3.693   6.923   1.355
 2182SOL     OW 7444   4.866   2.925   0.891
 2182SOL    HW1 7445   4.838   2.969   0.976
 2182SOL    HW2 7446   4.794   2.863   0.861
 2183SOL     OW 7447   3.720   2.263   1.144
 2183SOL    HW1 7448   3.804   2.223   1.110
 2183SOL    HW2 7449   3.741   2.348   1.193
 2184SOL     OW 7450   5.442   3.276   6.607
 2184SOL    HW1 7451   5.405   3.297   6.698
 2184SOL    HW2 7452   5.404   3.188   6.577
 2185SOL     OW 7453   6.907   6.982   2.257
 2185SOL    HW1 7454   6.870   6.890   2.272
 2185SOL    HW2 7455   6.854   0.005   2.186
 2186SOL     OW 7456   0.495   4.088   3.335
 2186SOL    HW1 7457   0.543   4.101   3.422
 2186SOL    HW2 7458   0.400   4.063   3.354
 2187SOL     OW 7459   6.466   1.308   0.440
 2187SOL    HW1 7460   6.448   1.246   0.363
 2187SOL    HW2 7461   6.552   1.283   0.484
 2188SOL     OW 7462   4.582   1.540   3.819
 2188SOL    HW1 7463   4.679   1.537   3.844
 2188SOL    HW2 7464   4.528   1.568   3.899
 2189SOL     OW 7465   3.367   6.941   6.984
 2189SOL    HW1 7466   3.368   7.018   6.920
 2189SOL    HW2 7467   3.291   6.881   6.962
 2190SOL     OW 7468   5.341   3.190   1.110
 2190SOL    HW1 7469   5.309   3.109   1.063
 2190SOL    HW2 7470   5.302   3.193   1.202
 2191SOL     OW 7471   2.830   1.335   0.104
 2191SOL    HW1 7472   2.820   1.384   0.190
 2191SOL    HW2 7473   2.754   1.271   0.092
 2192SOL     OW 7474   4.379   5.730   2.361
 2192SOL    HW1 7475   4.396   5.819   2.405
 2192SOL    HW2 7476   4.341   5.745   2.270
 2193SOL     OW 7477   6.837   6.074   4.391
 2193SOL    HW1 7478   6.817   6.150   4.328
 2193SOL    HW2 7479   6.925   6.089   4.435
 2194SOL     OW 7480   2.657   0.011   1.790
 2194SOL    HW1 7481   2.688   0.025   1.695
 2194SOL    HW2 7482   2.568   6.989   1.789
 2195SOL     OW 7483   0.409   4.335   2.005
 2195SOL    HW1 7484   0.497   4.357   1.963
 2195SOL    HW2 7485   0.423   4.261   2.072
 2196SOL     OW 7486   4.313   3.774   0.592
 2196SOL    HW1 7487   4.272   3.690   0.628
 2196SOL    HW2 7488   4.348   3.829   0.667
 2197SOL     OW 7489   4.359   3.746   0.071
 2197SOL    HW1 7490   4.384   3.716   0.163
 2197SOL    HW2 7491   4.358   3.667   0.009
 2198SOL     OW 7492   6.714   4.345   0.188
 2198SOL    HW1 7493   6.717   4.374   0.284
 2198SOL    HW2 7494   6.682   4.421   0.131
 2199SOL     OW 7495   4.085   1.074   3.054
 2199SOL    HW1 7496   4.099   1.032   3.144
 2199SOL    HW2 7497   4.034   1.159   3.064
 2200SOL     OW 7498   3.303   6.995   4.477
 2200SOL    HW1 7499   3.284   6.901   4.504
 2200SOL    HW2 7500   3.235   0.003   4.411
 2201SOL     OW 7501   4.658   4.423   4.214
 2201SOL    HW1 7502   4.622   4.397   4.303
 2201SOL    HW2 7503   4.742   4.475   4.225
 2202SOL     OW 7504   4.535   5.181   3.588
 2202SOL    HW1 7505   4.465   5.241   3.550
 2202SOL    HW2 7506   4.608   5.168   3.521
 2203SOL     OW 7507   3.152   2.144   2.479
 2203SOL    HW1 7508   3.229   2.133   2.416
 2203SOL    HW2 7509   3.167   2.086   2.559
 2204SOL     OW 7510   2.710   2.133   0.731
 2204SOL    HW1 7511   2.765   2.126   0.815
 2204SOL    HW2 7512   2.757   2.085   0.657
 2205SOL     OW 7513   3.149   1.097   2.345
 2205SOL    HW1 7514   3.192   1.040   2.415
 2205SOL    HW2 7515   3.202   1.181   2.334
 2206SOL     OW 7516   1.764   3.425   0.514
 2206SOL    HW1 7517   1.828   3.428   0.438
 2206SOL    HW2 7518   1.731   3.331   0.527
 2207SOL     OW 7519   6.661   4.679   4.710
 2207SOL    HW1 7520   6.572   4.701   4.750
 2207SOL    HW2 7521   6.654   4.595   4.657
 2208SOL     OW 7522   7.007   5.350   1.985
 2208SOL    HW1 7523   6.984   5.333   1.889
 2208SOL    HW2 7524   6.957   5.430   2.017
 2209SOL     OW 7525   0.136   6.570   1.669
 2209SOL    HW1 7526   0.043   6.546   1.642
 2209SOL    HW2 7527   0.133   6.631   1.748
 2210SOL     OW 7528   1.954   4.982   4.237
 2210SOL    HW1 7529   2.006   4.949   4.159
 2210SOL    HW2 7530   1.995   4.947   4.322
 2211SOL     OW 7531   6.944   1.933   4.855
 2211SOL    HW1 7532   0.002   1.983   4.825
 2211SOL    HW2 7533   6.875   1.936   4.783
 2212SOL     OW 7534   2.769   6.912   5.907
 2212SOL    HW1 7535   2.799   6.818   5.922
 2212SOL    HW2 7536   2.671   6.913   5.883
 2213SOL     OW 7537   4.768   0.426   3.099
 2213SOL    HW1 7538   4.728   0.508   3.140
 2213SOL    HW2 7539   4.850   0.401   3.150
 2214SOL     OW 7540   3.863   0.355   5.170
 2214SOL    HW1 7541   3.779   0.398   5.202
 2214SOL    HW2 7542   3.881   0.273   5.224
 2215SOL     OW 7543   5.631   2.247   5.117
 2215SOL    HW1 7544   5.581   2.306   5.053
 2215SOL    HW2 7545   5.606   2.269   5.210
 2216SOL     OW 7546   3.469   1.586   2.420
 2216SOL    HW1 7547   3.551   1.548   2.376
 2216SOL    HW2 7548   3.467   1.556   2.516
 2217SOL     OW 7549   3.994   0.612   1.629
 2217SOL    HW1 7550   3.907   0.639   1.588
 2217SOL    HW2 7551   4.068   0.628   1.563
 2218SOL     OW 7552   0.555   0.344   2.532
 2218SOL    HW1 7553   0.647   0.371   2.504
 2218SOL    HW2 7554   0.508   0.423   2.572
 2219SOL     OW 7555   2.401   2.052   3.043
 2219SOL    HW1 7556   2.492   2.087   3.020
 2219SOL    HW2 7557   2.380   2.076   3.138
 2220SOL     OW 7558   1.279   0.475   2.072
 2220SOL    HW1 7559   1.271   0.559   2.019
 2220SOL    HW2 7560   1.247   0.398   2.018
 2221SOL     OW 7561   0.612   0.073   5.775
 2221SOL    HW1 7562   0.531   0.026   5.810
 2221SOL    HW2 7563   0.694   0.025   5.804
 2222SOL     OW 7564   6.511   4.975   3.813
 2222SOL    HW1 7565   6.426   5.012   3.775
 2222SOL    HW2 7566   6.496   4.883   3.847
 2223SOL     OW 7567   6.887   6.547   1.379
 2223SOL    HW1 7568   6.880   6.575   1.475
 2223SOL    HW2 7569   6.964   6.484   1.368
 2224SOL     OW 7570   0.728   5.134   0.558
 2224SOL    HW1 7571   0.760   5.228   0.570
 2224SOL    HW2 7572   0.707   5.093   0.647
 2225SOL     OW 7573   0.491   3.932   0.438
 2225SOL    HW1 7574   0.431   3.868   0.487
 2225SOL    HW2 7575   0.451   3.952   0.348
 2226SOL     OW 7576   3.868   3.548   2.375
 2226SOL    HW1 7577   3.966   3.566   2.381
 2226SOL    HW2 7578   3.846   3.469   2.433
 2227SOL     OW 7579   0.958   2.228   3.935
 2227SOL    HW1 7580   1.030   2.215   4.003
 2227SOL    HW2 7581   0.993   2.204   3.844
 2228SOL     OW 7582   2.796   4.694   3.771
 2228SOL    HW1 7583   2.768   4.673   3.677
 2228SOL    HW2 7584   2.896   4.699   3.776
 2229SOL     OW 7585   5.847   6.014   3.055
 2229SOL    HW1 7586   5.778   5.958   3.101
 2229SOL    HW2 7587   5.803   6.073   2.988
 2230SOL     OW 7588   2.015   5.598   2.345
 2230SOL    HW1 7589   2.070   5.543   2.408
 2230SOL    HW2 7590   1.928   5.621   2.388
 2231SOL     OW 7591   2.637   5.711   1.187
 2231SOL    HW1 7592   2.554   5.679   1.141
 2231SOL    HW2 7593   2.713   5.650   1.164
 2232SOL     OW 7594   5.299   2.322   3.722
 2232SOL    HW1 7595   5.369   2.322   3.650
 2232SOL    HW2 7596   5.330   2.267   3.799
 2233SOL     OW 7597   3.556   1.179   6.838
 2233SOL    HW1 7598   3.632   1.221   6.789
 2233SOL    HW2 7599   3.556   1.080   6.821
 2234SOL     OW 7600   3.811   2.737   1.417
 2234SOL    HW1 7601   3.760   2.809   1.465
 2234SOL    HW2 7602   3.832   2.768   1.324
 2235SOL     OW 7603   1.907   1.685   2.484
 2235SOL    HW1 7604   1.890   1.634   2.399
 2235SOL    HW2 7605   1.998   1.726   2.481
 2236SOL     OW 7606   1.223   4.637   5.570
 2236SOL    HW1 7607   1.128   4.658   5.592
 2236SOL    HW2 7608   1.256   4.565   5.630
 2237SOL     OW 7609   6.752   2.822   4.489
 2237SOL    HW1 7610   6.725   2.726   4.485
 2237SOL    HW2 7611   6.682   2.878   4.446
 2238SOL     OW 7612   5.601   6.492   0.236
 2238SOL    HW1 7613   5.627   6.461   0.327
 2238SOL    HW2 7614   5.628   6.424   0.168
 2239SOL     OW 7615   5.957   5.931   1.987
 2239SOL    HW1 7616   5.929   5.836   1.971
 2239SOL    HW2 7617   5.986   5.942   2.082
 2240SOL     OW 7618   6.019   3.576   1.787
 2240SOL    HW1 7619   6.110   3.537   1.801
 2240SOL    HW2 7620   5.968   3.519   1.722
 2241SOL     OW 7621   1.322   0.365   3.865
 2241SOL    HW1 7622   1.365   0.325   3.784
 2241SOL    HW2 7623   1.375   0.444   3.895
 2242SOL     OW 7624   3.258   1.755   2.991
 2242SOL    HW1 7625   3.168   1.792   2.968
 2242SOL    HW2 7626   3.306   1.818   3.052
 2243SOL     OW 7627   2.422   0.140   4.977
 2243SOL    HW1 7628   2.358   0.072   5.014
 2243SOL    HW2 7629   2.407   0.150   4.879
 2244SOL     OW 7630   4.063   0.947   5.154
 2244SOL    HW1 7631   4.027   0.950   5.248
 2244SOL    HW2 7632   4.122   0.867   5.144
 2245SOL     OW 7633   0.306   2.142   2.181
 2245SOL    HW1 7634   0.394   2.185   2.163
 2245SOL    HW2 7635   0.301   2.054   2.133
 2246SOL     OW 7636   0.672   4.312   5.601
 2246SOL    HW1 7637   0.670   4.213   5.593
 2246SOL    HW2 7638   0.744   4.349   5.542
 2247SOL     OW 7639   1.896   1.266   4.434
 2247SOL    HW1 7640   1.981   1.318   4.449
 2247SOL    HW2 7641   1.841   1.311   4.364
 2248SOL     OW 7642   5.209   4.155   5.992
 2248SOL    HW1 7643   5.294   4.114   5.957
 2248SOL    HW2 7644   5.146   4.169   5.916
 2249SOL     OW 7645   4.562   5.851   5.362
 2249SOL    HW1 7646   4.507   5.816   5.287
 2249SOL    HW2 7647   4.512   5.842   5.448
 2250SOL     OW 7648   4.665   5.080   1.716
 2250SOL    HW1 7649   4.602   5.082   1.638
 2250SOL    HW2 7650   4.646   4.999   1.772
 2251SOL     OW 7651   0.718   0.934   5.970
 2251SOL    HW1 7652   0.758   0.849   6.005
 2251SOL    HW2 7653   0.780   0.974   5.903
 2252SOL     OW 7654   3.390   0.905   6.692
 2252SOL    HW1 7655   3.335   0.945   6.766
 2252SOL    HW2 7656   3.412   0.810   6.715
 2253SOL     OW 7657   0.829   4.294   6.775
 2253SOL    HW1 7658   0.755   4.242   6.734
 2253SOL    HW2 7659   0.796   4.386   6.798
 2254SOL     OW 7660   1.601   4.831   6.506
 2254SOL    HW1 7661   1.686   4.787   6.477
 2254SOL    HW2 7662   1.616   4.930   6.514
 2255SOL     OW 7663   6.322   3.817   6.479
 2255SOL    HW1 7664   6.318   3.722   6.509
 2255SOL    HW2 7665   6.248   3.869   6.521
 2256SOL     OW 7666   2.587   4.497   1.838
 2256SOL    HW1 7667   2.584   4.528   1.742
 2256SOL    HW2 7668   2.671   4.530   1.881
 2257SOL     OW 7669   1.222   4.259   5.106
 2257SOL    HW1 7670   1.168   4.219   5.180
 2257SOL    HW2 7671   1.244   4.187   5.039
 2258SOL     OW 7672   2.078   5.478   4.968
 2258SOL    HW1 7673   2.124   5.391   4.986
 2258SOL    HW2 7674   2.106   5.513   4.879
 2259SOL     OW 7675   6.146   2.377   6.286
 2259SOL    HW1 7676   6.176   2.308   6.352
 2259SOL    HW2 7677   6.059   2.416   6.316
 2260SOL     OW 7678   4.326   3.087   0.651
 2260SOL    HW1 7679   4.411   3.036   0.640
 2260SOL    HW2 7680   4.317   3.117   0.746
 2261SOL     OW 7681   2.399   6.063   5.285
 2261SOL    HW1 7682   2.333   6.134   5.261
 2261SOL    HW2 7683   2.482   6.075   5.231
 2262SOL     OW 7684   3.314   1.570   3.162
 2262SOL    HW1 7685   3.330   1.477   3.129
 2262SOL    HW2 7686   3.290   1.630   3.086
 2263SOL     OW 7687   0.805   4.335   6.157
 2263SOL    HW1 7688   0.826   4.332   6.060
 2263SOL    HW2 7689   0.748   4.256   6.182
 2264SOL     OW 7690   3.459   3.758   3.435
 2264SOL    HW1 7691   3.550   3.750   3.394
 2264SOL    HW2 7692   3.393   3.780   3.364
 2265SOL     OW 7693   0.843   6.465   3.862
 2265SOL    HW1 7694   0.941   6.471   3.880
 2265SOL    HW2 7695   0.828   6.459   3.764
 2266SOL     OW 7696   6.699   0.351   6.045
 2266SOL    HW1 7697   6.754   0.433   6.031
 2266SOL    HW2 7698   6.624   0.349   5.978
 2267SOL     OW 7699   5.451   1.676   5.193
 2267SOL    HW1 7700   5.491   1.677   5.284
 2267SOL    HW2 7701   5.518   1.640   5.128
 2268SOL     OW 7702   6.893   5.571   0.196
 2268SOL    HW1 7703   6.808   5.573   0.249
 2268SOL    HW2 7704   6.891   5.494   0.133
 2269SOL     OW 7705   0.348   6.842   3.197
 2269SOL    HW1 7706   0.383   6.753   3.169
 2269SOL    HW2 7707   0.252   6.851   3.168
 2270SOL     OW 7708   3.831   3.157   3.338
 2270SOL    HW1 7709   3.759   3.225   3.349
 2270SOL    HW2 7710   3.791   3.065   3.345
 2271SOL     OW 7711   1.341   4.651   3.013
 2271SOL    HW1 7712   1.322   4.688   2.922
 2271SOL    HW2 7713   1.297   4.709   3.083
 2272SOL     OW 7714   5.403   0.837   5.901
 2272SOL    HW1 7715   5.493   0.879   5.907
 2272SOL    HW2 7716   5.333   0.908   5.910
 2273SOL     OW 7717   0.970   1.124   2.284
 2273SOL    HW1 7718   1.044   1.158   2.341
 2273SOL    HW2 7719   0.979   1.025   2.273
 2274SOL     OW 7720   0.908   3.835   3.832
 2274SOL    HW1 7721   0.943   3.830   3.739
 2274SOL    HW2 7722   0.984   3.824   3.897
 2275SOL     OW 7723   5.052   6.083   3.741
 2275SOL    HW1 7724   4.954   6.081   3.759
 2275SOL    HW2 7725   5.068   6.088   3.643
 2276SOL     OW 7726   3.246   5.861   2.443
 2276SOL    HW1 7727   3.212   5.834   2.533
 2276SOL    HW2 7728   3.178   5.839   2.373
 2277SOL     OW 7729   3.309   2.931   2.284
 2277SOL    HW1 7730   3.250   2.896   2.356
 2277SOL    HW2 7731   3.400   2.950   2.321
 2278SOL     OW 7732   4.162   5.800   1.190
 2278SOL    HW1 7733   4.077   5.852   1.190
 2278SOL    HW2 7734   4.236   5.857   1.155
 2279SOL     OW 7735   5.625   3.970   5.800
 2279SOL    HW1 7736   5.679   3.890   5.828
 2279SOL    HW2 7737   5.680   4.053   5.809
 2280SOL     OW 7738   5.499   0.230   6.055
 2280SOL    HW1 7739   5.480   0.300   5.986
 2280SOL    HW2 7740   5.483   0.269   6.146
 2281SOL     OW 7741   2.003   1.181   7.008
 2281SOL    HW1 7742   2.028   1.132   0.069
 2281SOL    HW2 7743   2.066   1.154   6.934
 2282SOL     OW 7744   3.983   5.734   2.564
 2282SOL    HW1 7745   4.034   5.818   2.579
 2282SOL    HW2 7746   3.897   5.737   2.615
 2283SOL     OW 7747   0.854   3.102   1.481
 2283SOL    HW1 7748   0.766   3.090   1.528
 2283SOL    HW2 7749   0.918   3.148   1.541
 2284SOL     OW 7750   2.255   2.159   1.488
 2284SOL    HW1 7751   2.157   2.168   1.507
 2284SOL    HW2 7752   2.304   2.237   1.525
 2285SOL     OW 7753   1.691   3.323   6.624
 2285SOL    HW1 7754   1.637   3.244   6.593
 2285SOL    HW2 7755   1.787   3.296   6.632
 2286SOL     OW 7756   6.388   0.006   3.970
 2286SOL    HW1 7757   6.309   6.973   3.995
 2286SOL    HW2 7758   6.433   6.990   3.891
 2287SOL     OW 7759   2.491   1.970   0.846
 2287SOL    HW1 7760   2.479   1.897   0.778
 2287SOL    HW2 7761   2.563   2.032   0.816
 2288SOL     OW 7762   2.652   5.718   4.543
 2288SOL    HW1 7763   2.715   5.780   4.496
 2288SOL    HW2 7764   2.671   5.719   4.641
 2289SOL     OW 7765   3.891   0.703   6.825
 2289SOL    HW1 7766   3.873   0.687   6.922
 2289SOL    HW2 7767   3.815   0.668   6.770
 2290SOL     OW 7768   3.562   3.476   4.602
 2290SOL    HW1 7769   3.485   3.453   4.543
 2290SOL    HW2 7770   3.601   3.564   4.574
 2291SOL     OW 7771   2.496   2.386   0.193
 2291SOL    HW1 7772   2.432   2.426   0.259
 2291SOL    HW2 7773   2.585   2.373   0.236
 2292SOL     OW 7774   4.765   2.002   3.151
 2292SOL    HW1 7775   4.710   2.014   3.234
 2292SOL    HW2 7776   4.827   1.925   3.162
 2293SOL     OW 7777   0.868   1.009   6.336
 2293SOL    HW1 7778   0.781   1.054   6.317
 2293SOL    HW2 7779   0.857   0.910   6.327
 2294SOL     OW 7780   6.432   2.038   4.913
 2294SOL    HW1 7781   6.340   2.002   4.928
 2294SOL    HW2 7782   6.427   2.133   4.885
 2295SOL     OW 7783   5.399   6.035   0.500
 2295SOL    HW1 7784   5.338   5.976   0.554
 2295SOL    HW2 7785   5.358   6.125   0.490
 2296SOL     OW 7786   3.648   5.541   4.910
 2296SOL    HW1 7787   3.699   5.620   4.944
 2296SOL    HW2 7788   3.550   5.560   4.916
 2297SOL     OW 7789   6.208   2.765   6.176
 2297SOL    HW1 7790   6.290   2.814   6.146
 2297SOL    HW2 7791   6.176   2.803   6.262
 2298SOL     OW 7792   2.600   3.628   5.434
 2298SOL    HW1 7793   2.558   3.625   5.525
 2298SOL    HW2 7794   2.607   3.723   5.403
 2299SOL     OW 7795   5.849   3.560   4.764
 2299SOL    HW1 7796   5.837   3.528   4.670
 2299SOL    HW2 7797   5.920   3.630   4.766
 2300SOL     OW 7798   5.630   0.019   2.553
 2300SOL    HW1 7799   5.614   0.117   2.563
 2300SOL    HW2 7800   5.564   6.991   2.609
 2301SOL     OW 7801   3.817   3.322   5.550
 2301SOL    HW1 7802   3.827   3.231   5.510
 2301SOL    HW2 7803   3.725   3.333   5.586
 2302SOL     OW 7804   6.664   3.667   5.991
 2302SOL    HW1 7805   6.627   3.685   6.083
 2302SOL    HW2 7806   6.757   3.703   5.986
 2303SOL     OW 7807   2.695   1.957   6.663
 2303SOL    HW1 7808   2.626   2.028   6.672
 2303SOL    HW2 7809   2.745   1.969   6.578
 2304SOL     OW 7810   6.142   0.107   2.277
 2304SOL    HW1 7811   6.159   0.115   2.375
 2304SOL    HW2 7812   6.103   0.016   2.258
 2305SOL     OW 7813   3.180   6.985   5.188
 2305SOL    HW1 7814   3.220   6.919   5.251
 2305SOL    HW2 7815   3.118   6.939   5.125
 2306SOL     OW 7816   1.025   4.510   5.004
 2306SOL    HW1 7817   0.974   4.582   5.050
 2306SOL    HW2 7818   1.108   4.488   5.055
 2307SOL     OW 7819   6.623   3.669   4.532
 2307SOL    HW1 7820   6.575   3.740   4.583
 2307SOL    HW2 7821   6.716   3.698   4.513
 2308SOL     OW 7822   0.796   5.873   1.980
 2308SOL    HW1 7823   0.839   5.877   2.071
 2308SOL    HW2 7824   0.720   5.808   1.982
 2309SOL     OW 7825   2.157   0.536   5.039
 2309SOL    HW1 7826   2.076   0.525   5.096
 2309SOL    HW2 7827   2.239   0.538   5.097
 2310SOL     OW 7828   4.422   6.555   0.137
 2310SOL    HW1 7829   4.433   6.594   0.046
 2310SOL    HW2 7830   4.400   6.628   0.202
 2311SOL     OW 7831   2.303   5.706   0.783
 2311SOL    HW1 7832   2.361   5.787   0.790
 2311SOL    HW2 7833   2.228   5.712   0.848
 2312SOL     OW 7834   3.026   4.790   2.705
 2312SOL    HW1 7835   3.039   4.694   2.678
 2312SOL    HW2 7836   3.111   4.840   2.693
 2313SOL     OW 7837   4.415   4.977   1.606
 2313SOL    HW1 7838   4.324   4.936   1.611
 2313SOL    HW2 7839   4.408   5.070   1.569
 2314SOL     OW 7840   2.398   4.489   3.221
 2314SOL    HW1 7841   2.399   4.496   3.121
 2314SOL    HW2 7842   2.481   4.531   3.258
 2315SOL     OW 7843   4.893   2.303   6.555
 2315SOL    HW1 7844   4.864   2.399   6.555
 2315SOL    HW2 7845   4.876   2.263   6.464
 2316SOL     OW 7846   4.902   3.595   2.270
 2316SOL    HW1 7847   4.976   3.541   2.231
 2316SOL    HW2 7848   4.823   3.593   2.208
 2317SOL     OW 7849   0.738   5.687   3.956
 2317SOL    HW1 7850   0.692   5.610   3.999
 2317SOL    HW2 7851   0.799   5.654   3.885
 2318SOL     OW 7852   0.136   1.470   3.711
 2318SOL    HW1 7853   0.041   1.454   3.738
 2318SOL    HW2 7854   0.138   1.512   3.620
 2319SOL     OW 7855   1.170   4.761   1.469
 2319SOL    HW1 7856   1.269   4.772   1.463
 2319SOL    HW2 7857   1.140   4.693   1.402
 2320SOL     OW 7858   6.165   4.643   4.541
 2320SOL    HW1 7859   6.118   4.566   4.585
 2320SOL    HW2 7860   6.129   4.729   4.578
 2321SOL     OW 7861   3.790   4.867   4.121
 2321SOL    HW1 7862   3.815   4.959   4.149
 2321SOL    HW2 7863   3.695   4.849   4.146
 2322SOL     OW 7864   2.643   0.806   4.539
 2322SOL    HW1 7865   2.689   0.731   4.585
 2322SOL    HW2 7866   2.705   0.847   4.472
 2323SOL     OW 7867   4.897   3.660   1.991
 2323SOL    HW1 7868   4.996   3.647   1.989
 2323SOL    HW2 7869   4.875   3.749   2.030
 2324SOL     OW 7870   0.663   5.403   3.932
 2324SOL    HW1 7871   0.720   5.349   3.993
 2324SOL    HW2 7872   0.721   5.450   3.865
 2325SOL     OW 7873   0.163   2.341   0.239
 2325SOL    HW1 7874   0.238   2.406   0.228
 2325SOL    HW2 7875   0.190   2.253   0.199
 2326SOL     OW 7876   0.583   4.207   0.660
 2326SOL    HW1 7877   0.615   4.128   0.713
 2326SOL    HW2 7878   0.504   4.180   0.605
 2327SOL     OW 7879   4.743   1.127   3.669
 2327SOL    HW1 7880   4.763   1.200   3.735
 2327SOL    HW2 7881   4.722   1.167   3.580
 2328SOL     OW 7882   6.236   5.012   3.721
 2328SOL    HW1 7883   6.263   5.100   3.683
 2328SOL    HW2 7884   6.192   5.025   3.810
 2329SOL     OW 7885   1.282   5.824   3.254
 2329SOL    HW1 7886   1.300   5.839   3.351
 2329SOL    HW2 7887   1.352   5.872   3.199
 2330SOL     OW 7888   1.174   4.436   0.138
 2330SOL    HW1 7889   1.082   4.449   0.176
 2330SOL    HW2 7890   1.171   4.453   0.039
 2331SOL     OW 7891   0.795   4.701   5.186
 2331SOL    HW1 7892   0.752   4.755   5.259
 2331SOL    HW2 7893   0.753   4.724   5.098
 2332SOL     OW 7894   5.776   3.353   5.692
 2332SOL    HW1 7895   5.841   3.405   5.637
 2332SOL    HW2 7896   5.713   3.416   5.738
 2333SOL     OW 7897   2.618   4.652   3.276
 2333SOL    HW1 7898   2.712   4.671   3.248
 2333SOL    HW2 7899   2.615   4.638   3.375
 2334SOL     OW 7900   2.334   0.656   5.958
 2334SOL    HW1 7901   2.236   0.670   5.971
 2334SOL    HW2 7902   2.354   0.656   5.860
 2335SOL     OW 7903   4.886   4.527   4.289
 2335SOL    HW1 7904   4.816   4.539   4.359
 2335SOL    HW2 7905   4.915   4.616   4.254
 2336SOL     OW 7906   4.059   2.786   5.753
 2336SOL    HW1 7907   4.109   2.717   5.804
 2336SOL    HW2 7908   4.039   2.864   5.813
 2337SOL     OW 7909   5.473   0.272   4.791
 2337SOL    HW1 7910   5.567   0.262   4.824
 2337SOL    HW2 7911   5.473   0.318   4.703
 2338SOL     OW 7912   1.197   6.992   7.015
 2338SOL    HW1 7913   1.256   6.966   6.939
 2338SOL    HW2 7914   1.133   6.917   0.011
 2339SOL     OW 7915   4.113   4.914   6.825
 2339SOL    HW1 7916   4.043   4.943   6.889
 2339SOL    HW2 7917   4.142   4.992   6.769
 2340SOL     OW 7918   3.479   5.224   4.524
 2340SOL    HW1 7919   3.559   5.254   4.471
 2340SOL    HW2 7920   3.420   5.169   4.466
 2341SOL     OW 7921   6.479   4.897   6.559
 2341SOL    HW1 7922   6.486   4.819   6.622
 2341SOL    HW2 7923   6.480   4.982   6.611
 2342SOL     OW 7924   6.983   1.073   5.589
 2342SOL    HW1 7925   0.032   1.076   5.658
 2342SOL    HW2 7926   6.895   1.059   5.634
 2343SOL     OW 7927   0.934   6.367   0.431
 2343SOL    HW1 7928   0.932   6.300   0.506
 2343SOL    HW2 7929   0.842   6.380   0.395
 2344SOL     OW 7930   2.654   0.995   2.581
 2344SOL    HW1 7931   2.586   0.968   2.649
 2344SOL    HW2 7932   2.613   1.057   2.515
 2345SOL     OW 7933   1.029   1.928   2.011
 2345SOL    HW1 7934   0.981   1.916   1.924
 2345SOL    HW2 7935   0.974   1.890   2.085
 2346SOL     OW 7936   4.645   3.167   5.341
 2346SOL    HW1 7937   4.641   3.187   5.439
 2346SOL    HW2 7938   4.740   3.168   5.310
 2347SOL     OW 7939   1.840   3.823   0.774
 2347SOL    HW1 7940   1.863   3.730   0.803
 2347SOL    HW2 7941   1.891   3.889   0.829
 2348SOL     OW 7942   2.141   6.778   1.706
 2348SOL    HW1 7943   2.132   6.840   1.628
 2348SOL    HW2 7944   2.051   6.760   1.745
 2349SOL     OW 7945   5.411   3.664   6.798
 2349SOL    HW1 7946   5.351   3.707   6.866
 2349SOL    HW2 7947   5.500   3.709   6.798
 2350SOL     OW 7948   2.241   6.130   4.950
 2350SOL    HW1 7949   2.163   6.116   4.889
 2350SOL    HW2 7950   2.310   6.060   4.933
 2351SOL     OW 7951   1.371   4.706   2.454
 2351SOL    HW1 7952   1.430   4.775   2.412
 2351SOL    HW2 7953   1.361   4.727   2.551
 2352SOL     OW 7954   5.514   5.382   0.342
 2352SOL    HW1 7955   5.519   5.286   0.369
 2352SOL    HW2 7956   5.428   5.422   0.373
 2353SOL     OW 7957   2.721   3.053   6.125
 2353SOL    HW1 7958   2.814   3.048   6.162
 2353SOL    HW2 7959   2.720   3.112   6.045
 2354SOL     OW 7960   4.105   1.705   2.330
 2354SOL    HW1 7961   4.025   1.759   2.355
 2354SOL    HW2 7962   4.080   1.636   2.263
 2355SOL     OW 7963   0.419   1.490   1.760
 2355SOL    HW1 7964   0.482   1.560   1.726
 2355SOL    HW2 7965   0.460   1.444   1.839
 2356SOL     OW 7966   3.115   5.323   4.036
 2356SOL    HW1 7967   3.079   5.260   3.967
 2356SOL    HW2 7968   3.060   5.406   4.036
 2357SOL     OW 7969   0.996   4.806   0.510
 2357SOL    HW1 7970   0.979   4.741   0.584
 2357SOL    HW2 7971   0.999   4.757   0.423
 2358SOL     OW 7972   2.668   0.961   5.311
 2358SOL    HW1 7973   2.675   1.050   5.266
 2358SOL    HW2 7974   2.605   0.903   5.260
 2359SOL     OW 7975   2.525   2.318   5.866
 2359SOL    HW1 7976   2.566   2.250   5.927
 2359SOL    HW2 7977   2.454   2.275   5.811
 2360SOL     OW 7978   3.185   4.855   0.877
 2360SOL    HW1 7979   3.087   4.873   0.867
 2360SOL    HW2 7980   3.198   4.781   0.942
 2361SOL     OW 7981   3.369   5.529   1.178
 2361SOL    HW1 7982   3.271   5.537   1.193
 2361SOL    HW2 7983   3.414   5.499   1.262
 2362SOL     OW 7984   3.070   5.250   4.561
 2362SOL    HW1 7985   3.099   5.345   4.561
 2362SOL    HW2 7986   2.970   5.246   4.552
 2363SOL     OW 7987   2.263   4.004   1.002
 2363SOL    HW1 7988   2.282   3.922   0.948
 2363SOL    HW2 7989   2.303   4.084   0.956
 2364SOL     OW 7990   4.320   1.442   2.569
 2364SOL    HW1 7991   4.296   1.455   2.665
 2364SOL    HW2 7992   4.318   1.530   2.522
 2365SOL     OW 7993   5.719   4.128   3.098
 2365SOL    HW1 7994   5.683   4.059   3.162
 2365SOL    HW2 7995   5.687   4.219   3.126
 2366SOL     OW 7996   2.926   5.143   5.283
 2366SOL    HW1 7997   2.999   5.165   5.217
 2366SOL    HW2 7998   2.842   5.122   5.233
 2367SOL     OW 7999   6.225   4.962   5.368
 2367SOL    HW1 8000   6.141   4.950   5.422
 2367SOL    HW2 8001   6.207   4.935   5.273
 2368SOL     OW 8002   5.227   0.478   4.869
 2368SOL    HW1 8003   5.139   0.487   4.915
 2368SOL    HW2 8004   5.295   0.440   4.932
 2369SOL     OW 8005   4.028   1.679   4.544
 2369SOL    HW1 8006   3.985   1.596   4.580
 2369SOL    HW2 8007   4.099   1.710   4.607
 2370SOL     OW 8008   4.967   1.902   1.951
 2370SOL    HW1 8009   4.871   1.927   1.941
 2370SOL    HW2 8010   5.015   1.916   1.864
 2371SOL     OW 8011   1.373   0.087   1.971
 2371SOL    HW1 8012   1.304   0.159   1.969
 2371SOL    HW2 8013   1.454   0.115   1.919
 2372SOL     OW 8014   6.757   0.119   5.895
 2372SOL    HW1 8015   6.733   0.191   5.961
 2372SOL    HW2 8016   6.850   0.087   5.913
 2373SOL     OW 8017   5.777   4.202   5.760
 2373SOL    HW1 8018   5.779   4.301   5.746
 2373SOL    HW2 8019   5.852   4.159   5.710
 2374SOL     OW 8020   6.792   6.403   2.305
 2374SOL    HW1 8021   6.717   6.345   2.337
 2374SOL    HW2 8022   6.778   6.426   2.209
 2375SOL     OW 8023   1.656   0.029   4.510
 2375SOL    HW1 8024   1.697   0.099   4.569
 2375SOL    HW2 8025   1.709   0.022   4.425
 2376SOL     OW 8026   4.836   2.482   3.433
 2376SOL    HW1 8027   4.747   2.520   3.460
 2376SOL    HW2 8028   4.824   2.386   3.406
 2377SOL     OW 8029   4.221   3.839   5.674
 2377SOL    HW1 8030   4.165   3.920   5.692
 2377SOL    HW2 8031   4.255   3.842   5.580
 2378SOL     OW 8032   0.373   0.408   0.579
 2378SOL    HW1 8033   0.424   0.484   0.538
 2378SOL    HW2 8034   0.288   0.442   0.618
 2379SOL     OW 8035   0.509   5.051   2.506
 2379SOL    HW1 8036   0.567   5.082   2.582
 2379SOL    HW2 8037   0.523   4.954   2.491
 2380SOL     OW 8038   4.208   5.545   6.484
 2380SOL    HW1 8039   4.270   5.617   6.515
 2380SOL    HW2 8040   4.227   5.461   6.533
 2381SOL     OW 8041   2.076   3.573   4.135
 2381SOL    HW1 8042   2.114   3.665   4.136
 2381SOL    HW2 8043   2.049   3.547   4.228
 2382SOL     OW 8044   6.910   5.312   3.262
 2382SOL    HW1 8045   6.937   5.392   3.208
 2382SOL    HW2 8046   6.918   5.333   3.359
 2383SOL     OW 8047   5.126   3.930   5.833
 2383SOL    HW1 8048   5.049   3.959   5.890
 2383SOL    HW2 8049   5.098   3.927   5.737
 2384SOL     OW 8050   0.888   2.345   2.739
 2384SOL    HW1 8051   0.839   2.429   2.760
 2384SOL    HW2 8052   0.833   2.288   2.677
 2385SOL     OW 8053   0.254   1.352   7.017
 2385SOL    HW1 8054   0.271   1.260   6.984
 2385SOL    HW2 8055   0.302   1.418   6.959
 2386SOL     OW 8056   6.083   5.558   5.021
 2386SOL    HW1 8057   6.092   5.467   5.061
 2386SOL    HW2 8058   6.173   5.601   5.014
 2387SOL     OW 8059   0.593   0.709   3.650
 2387SOL    HW1 8060   0.654   0.674   3.578
 2387SOL    HW2 8061   0.583   0.640   3.721
 2388SOL     OW 8062   0.846   3.211   5.304
 2388SOL    HW1 8063   0.841   3.311   5.301
 2388SOL    HW2 8064   0.779   3.173   5.239
 2389SOL     OW 8065   3.923   5.734   3.217
 2389SOL    HW1 8066   3.854   5.734   3.145
 2389SOL    HW2 8067   3.972   5.821   3.217
 2390SOL     OW 8068   5.166   2.525   5.916
 2390SOL    HW1 8069   5.100   2.480   5.977
 2390SOL    HW2 8070   5.117   2.567   5.840
 2391SOL     OW 8071   3.012   3.935   6.906
 2391SOL    HW1 8072   3.088   3.967   6.848
 2391SOL    HW2 8073   3.032   3.959   7.001
 2392SOL     OW 8074   3.784   4.858   6.121
 2392SOL    HW1 8075   3.839   4.787   6.164
 2392SOL    HW2 8076   3.834   4.945   6.122
 2393SOL     OW 8077   3.852   4.301   0.200
 2393SOL    HW1 8078   3.763   4.259   0.189
 2393SOL    HW2 8079   3.895   4.266   0.283
 2394SOL     OW 8080   6.478   1.555   3.862
 2394SOL    HW1 8081   6.408   1.512   3.805
 2394SOL    HW2 8082   6.473   1.517   3.955
 2395SOL     OW 8083   1.439   2.577   3.763
 2395SOL    HW1 8084   1.443   2.620   3.853
 2395SOL    HW2 8085   1.443   2.478   3.774
 2396SOL     OW 8086   6.960   0.300   6.922
 2396SOL    HW1 8087   7.001   0.366   6.860
 2396SOL    HW2 8088   0.009   0.258   6.978
 2397SOL     OW 8089   2.178   4.370   5.199
 2397SOL    HW1 8090   2.167   4.423   5.283
 2397SOL    HW2 8091   2.276   4.364   5.176
 2398SOL     OW 8092   4.013   5.945   4.982
 2398SOL    HW1 8093   3.964   5.987   4.906
 2398SOL    HW2 8094   4.069   6.014   5.028
 2399SOL     OW 8095   2.904   1.421   2.447
 2399SOL    HW1 8096   2.837   1.478   2.400
 2399SOL    HW2 8097   2.975   1.393   2.382
 2400SOL     OW 8098   1.221   2.932   0.203
 2400SOL    HW1 8099   1.237   3.030   0.203
 2400SOL    HW2 8100   1.142   2.911   0.260
 2401SOL     OW 8101   1.624   6.537   0.107
 2401SOL    HW1 8102   1.626   6.438   0.119
 2401SOL    HW2 8103   1.676   6.562   0.025
 2402SOL     OW 8104   0.662   4.004   2.012
 2402SOL    HW1 8105   0.703   4.065   1.945
 2402SOL    HW2 8106   0.697   3.911   1.997
 2403SOL     OW 8107   3.134   3.968   5.466
 2403SOL    HW1 8108   3.060   3.981   5.533
 2403SOL    HW2 8109   3.156   4.056   5.423
 2404SOL     OW 8110   6.120   1.488   1.450
 2404SOL    HW1 8111   6.178   1.545   1.391
 2404SOL    HW2 8112   6.061   1.547   1.506
 2405SOL     OW 8113   2.205   3.140   0.902
 2405SOL    HW1 8114   2.129   3.200   0.880
 2405SOL    HW2 8115   2.221   3.077   0.826
 2406SOL     OW 8116   3.913   5.476   4.864
 2406SOL    HW1 8117   3.966   5.532   4.928
 2406SOL    HW2 8118   3.816   5.496   4.875
 2407SOL     OW 8119   1.985   2.045   4.001
 2407SOL    HW1 8120   1.886   2.041   3.988
 2407SOL    HW2 8121   2.012   1.980   4.071
 2408SOL     OW 8122   3.938   0.239   6.287
 2408SOL    HW1 8123   3.942   0.197   6.197
 2408SOL    HW2 8124   4.030   0.267   6.316
 2409SOL     OW 8125   0.750   3.055   6.726
 2409SOL    HW1 8126   0.694   3.074   6.806
 2409SOL    HW2 8127   0.741   3.130   6.660
 2410SOL     OW 8128   6.995   3.548   4.544
 2410SOL    HW1 8129   7.005   3.449   4.549
 2410SOL    HW2 8130   0.062   3.591   4.549
 2411SOL     OW 8131   2.657   1.551   0.029
 2411SOL    HW1 8132   2.717   1.472   0.022
 2411SOL    HW2 8133   2.564   1.521   0.049
 2412SOL     OW 8134   3.480   2.642   6.406
 2412SOL    HW1 8135   3.563   2.665   6.456
 2412SOL    HW2 8136   3.484   2.546   6.377
 2413SOL     OW 8137   0.172   3.581   6.699
 2413SOL    HW1 8138   0.230   3.661   6.713
 2413SOL    HW2 8139   0.098   3.581   6.766
 2414SOL     OW 8140   0.247   1.390   5.376
 2414SOL    HW1 8141   0.242   1.487   5.352
 2414SOL    HW2 8142   0.342   1.363   5.387
 2415SOL     OW 8143   3.248   4.688   6.412
 2415SOL    HW1 8144   3.338   4.712   6.377
 2415SOL    HW2 8145   3.201   4.628   6.348
 2416SOL     OW 8146   0.117   2.867   3.187
 2416SOL    HW1 8147   0.024   2.905   3.183
 2416SOL    HW2 8148   0.121   2.797   3.258
 2417SOL     OW 8149   3.419   2.374   1.222
 2417SOL    HW1 8150   3.320   2.368   1.237
 2417SOL    HW2 8151   3.466   2.344   1.305
 2418SOL     OW 8152   5.314   4.425   6.822
 2418SOL    HW1 8153   5.379   4.469   6.884
 2418SOL    HW2 8154   5.355   4.416   6.732
 2419SOL     OW 8155   3.401   0.811   3.288
 2419SOL    HW1 8156   3.468   0.843   3.222
 2419SOL    HW2 8157   3.421   0.849   3.378
 2420SOL     OW 8158   1.724   3.893   2.662
 2420SOL    HW1 8159   1.795   3.835   2.621
 2420SOL    HW2 8160   1.702   3.860   2.753
 2421SOL     OW 8161   2.874   6.775   3.631
 2421SOL    HW1 8162   2.913   6.820   3.712
 2421SOL    HW2 8163   2.820   6.840   3.579
 2422SOL     OW 8164   3.863   6.158   0.247
 2422SOL    HW1 8165   3.887   6.087   0.313
 2422SOL    HW2 8166   3.942   6.217   0.232
 2423SOL     OW 8167   2.744   4.957   4.033
 2423SOL    HW1 8168   2.735   4.986   3.938
 2423SOL    HW2 8169   2.654   4.932   4.068
 2424SOL     OW 8170   4.948   6.583   6.422
 2424SOL    HW1 8171   5.027   6.626   6.465
 2424SOL    HW2 8172   4.864   6.614   6.467
 2425SOL     OW 8173   4.184   5.343   5.134
 2425SOL    HW1 8174   4.094   5.333   5.091
 2425SOL    HW2 8175   4.199   5.439   5.158
 2426SOL     OW 8176   2.938   2.315   5.269
 2426SOL    HW1 8177   3.023   2.343   5.225
 2426SOL    HW2 8178   2.869   2.387   5.258
 2427SOL     OW 8179   4.412   1.621   0.318
 2427SOL    HW1 8180   4.340   1.614   0.249
 2427SOL    HW2 8181   4.370   1.628   0.409
 2428SOL     OW 8182   1.601   1.418   3.209
 2428SOL    HW1 8183   1.502   1.420   3.191
 2428SOL    HW2 8184   1.650   1.421   3.122
 2429SOL     OW 8185   5.843   6.073   1.166
 2429SOL    HW1 8186   5.900   6.053   1.246
 2429SOL    HW2 8187   5.762   6.015   1.169
 2430SOL     OW 8188   6.363   0.483   6.498
 2430SOL    HW1 8189   6.315   0.396   6.510
 2430SOL    HW2 8190   6.310   0.557   6.540
 2431SOL     OW 8191   1.890   2.820   1.770
 2431SOL    HW1 8192   1.871   2.895   1.833
 2431SOL    HW2 8193   1.892   2.734   1.822
 2432SOL     OW 8194   2.501   6.044   2.178
 2432SOL    HW1 8195   2.568   5.971   2.188
 2432SOL    HW2 8196   2.540   6.130   2.210
 2433SOL     OW 8197   0.405   4.142   4.876
 2433SOL    HW1 8198   0.369   4.068   4.818
 2433SOL    HW2 8199   0.497   4.118   4.907
 2434SOL     OW 8200   4.580   1.222   3.415
 2434SOL    HW1 8201   4.540   1.301   3.369
 2434SOL    HW2 8202   4.621   1.161   3.347
 2435SOL     OW 8203   6.234   6.676   6.599
 2435SOL    HW1 8204   6.305   6.661   6.668
 2435SOL    HW2 8205   6.195   6.768   6.612
 2436SOL     OW 8206   6.786   3.480   0.363
 2436SOL    HW1 8207   6.738   3.538   0.428
 2436SOL    HW2 8208   6.783   3.522   0.272
 2437SOL     OW 8209   0.218   4.330   1.208
 2437SOL    HW1 8210   0.196   4.241   1.167
 2437SOL    HW2 8211   0.292   4.319   1.275
 2438SOL     OW 8212   3.452   1.686   5.027
 2438SOL    HW1 8213   3.454   1.675   4.928
 2438SOL    HW2 8214   3.373   1.742   5.052
 2439SOL     OW 8215   0.161   5.693   0.723
 2439SOL    HW1 8216   0.134   5.599   0.743
 2439SOL    HW2 8217   0.212   5.730   0.801
 2440SOL     OW 8218   6.585   1.629   5.465
 2440SOL    HW1 8219   6.675   1.589   5.450
 2440SOL    HW2 8220   6.585   1.724   5.433
 2441SOL     OW 8221   6.344   0.911   0.534
 2441SOL    HW1 8222   6.253   0.918   0.493
 2441SOL    HW2 8223   6.372   0.815   0.536
 2442SOL     OW 8224   5.243   3.253   2.459
 2442SOL    HW1 8225   5.237   3.305   2.544
 2442SOL    HW2 8226   5.302   3.173   2.473
 2443SOL     OW 8227   0.307   3.392   1.087
 2443SOL    HW1 8228   0.341   3.380   0.993
 2443SOL    HW2 8229   0.300   3.302   1.131
 2444SOL     OW 8230   3.213   5.739   3.317
 2444SOL    HW1 8231   3.141   5.684   3.360
 2444SOL    HW2 8232   3.229   5.821   3.372
 2445SOL     OW 8233   0.670   2.271   0.716
 2445SOL    HW1 8234   0.768   2.269   0.694
 2445SOL    HW2 8235   0.657   2.266   0.815
 2446SOL     OW 8236   0.059   6.012   2.066
 2446SOL    HW1 8237   0.096   5.929   2.025
 2446SOL    HW2 8238   0.017   5.989   2.154
 2447SOL     OW 8239   1.607   6.990   0.659
 2447SOL    HW1 8240   1.562   0.019   0.586
 2447SOL    HW2 8241   1.545   6.983   0.737
 2448SOL     OW 8242   5.923   0.908   3.903
 2448SOL    HW1 8243   5.825   0.892   3.888
 2448SOL    HW2 8244   5.968   0.821   3.922
 2449SOL     OW 8245   1.681   4.109   0.877
 2449SOL    HW1 8246   1.624   4.169   0.934
 2449SOL    HW2 8247   1.775   4.143   0.877
 2450SOL     OW 8248   0.762   6.377   5.190
 2450SOL    HW1 8249   0.787   6.282   5.171
 2450SOL    HW2 8250   0.777   6.432   5.108
 2451SOL     OW 8251   2.230   6.530   6.020
 2451SOL    HW1 8252   2.237   6.462   5.948
 2451SOL    HW2 8253   2.294   6.508   6.094
 2452SOL     OW 8254   2.049   1.868   4.204
 2452SOL    HW1 8255   1.975   1.923   4.243
 2452SOL    HW2 8256   2.011   1.790   4.155
 2453SOL     OW 8257   1.605   1.977   5.838
 2453SOL    HW1 8258   1.665   1.903   5.808
 2453SOL    HW2 8259   1.561   1.951   5.924
 2454SOL     OW 8260   3.229   6.255   1.088
 2454SOL    HW1 8261   3.257   6.306   1.169
 2454SOL    HW2 8262   3.129   6.261   1.078
 2455SOL     OW 8263   4.430   2.008   0.683
 2455SOL    HW1 8264   4.523   2.043   0.671
 2455SOL    HW2 8265   4.365   2.074   0.647
 2456SOL     OW 8266   0.695   3.750   6.379
 2456SOL    HW1 8267   0.769   3.684   6.394
 2456SOL    HW2 8268   0.694   3.778   6.283
 2457SOL     OW 8269   4.333   1.787   5.986
 2457SOL    HW1 8270   4.242   1.746   5.990
 2457SOL    HW2 8271   4.380   1.758   5.903
 2458SOL     OW 8272   0.689   0.125   2.629
 2458SOL    HW1 8273   0.641   0.211   2.609
 2458SOL    HW2 8274   0.731   0.090   2.545
 2459SOL     OW 8275   2.107   6.772   1.254
 2459SOL    HW1 8276   2.186   6.834   1.257
 2459SOL    HW2 8277   2.138   6.678   1.264
 2460SOL     OW 8278   0.788   0.650   4.380
 2460SOL    HW1 8279   0.820   0.574   4.324
 2460SOL    HW2 8280   0.863   0.680   4.440
 2461SOL     OW 8281   3.403   1.553   3.893
 2461SOL    HW1 8282   3.384   1.643   3.856
 2461SOL    HW2 8283   3.435   1.492   3.820
 2462SOL     OW 8284   0.615   5.538   0.942
 2462SOL    HW1 8285   0.618   5.450   0.991
 2462SOL    HW2 8286   0.594   5.611   1.007
 2463SOL     OW 8287   6.533   6.983   0.497
 2463SOL    HW1 8288   6.519   0.059   0.497
 2463SOL    HW2 8289   6.462   6.939   0.551
 2464SOL     OW 8290   0.643   2.736   4.562
 2464SOL    HW1 8291   0.724   2.746   4.619
 2464SOL    HW2 8292   0.636   2.814   4.500
 2465SOL     OW 8293   6.486   0.606   0.318
 2465SOL    HW1 8294   6.402   0.614   0.371
 2465SOL    HW2 8295   6.468   0.552   0.236
 2466SOL     OW 8296   0.842   2.207   1.865
 2466SOL    HW1 8297   0.810   2.113   1.851
 2466SOL    HW2 8298   0.935   2.215   1.828
 2467SOL     OW 8299   5.191   3.127   4.694
 2467SOL    HW1 8300   5.115   3.136   4.630
 2467SOL    HW2 8301   5.155   3.127   4.788
 2468SOL     OW 8302   3.493   0.165   5.291
 2468SOL    HW1 8303   3.395   0.145   5.288
 2468SOL    HW2 8304   3.533   0.125   5.374
 2469SOL     OW 8305   3.304   2.111   6.140
 2469SOL    HW1 8306   3.382   2.173   6.149
 2469SOL    HW2 8307   3.246   2.142   6.065
 2470SOL     OW 8308   2.311   5.542   6.593
 2470SOL    HW1 8309   2.314   5.641   6.605
 2470SOL    HW2 8310   2.370   5.498   6.660
 2471SOL     OW 8311   2.859   5.262   2.096
 2471SOL    HW1 8312   2.943   5.304   2.062
 2471SOL    HW2 8313   2.817   5.208   2.023
 2472SOL     OW 8314   5.058   1.292   3.335
 2472SOL    HW1 8315   5.034   1.293   3.432
 2472SOL    HW2 8316   5.124   1.218   3.318
 2473SOL     OW 8317   0.493   3.851   3.762
 2473SOL    HW1 8318   0.549   3.904   3.699
 2473SOL    HW2 8319   0.494   3.755   3.736
 2474SOL     OW 8320   1.215   6.545   1.662
 2474SOL    HW1 8321   1.198   6.549   1.760
 2474SOL    HW2 8322   1.275   6.620   1.634
 2475SOL     OW 8323   5.086   1.526   0.580
 2475SOL    HW1 8324   5.171   1.565   0.546
 2475SOL    HW2 8325   5.101   1.488   0.671
 2476SOL     OW 8326   4.266   0.040   0.879
 2476SOL    HW1 8327   4.339   0.054   0.946
 2476SOL    HW2 8328   4.180   0.077   0.915
 2477SOL     OW 8329   3.764   0.183   3.833
 2477SOL    HW1 8330   3.803   0.138   3.753
 2477SOL    HW2 8331   3.770   0.282   3.821
 2478SOL     OW 8332   3.952   0.174   4.962
 2478SOL    HW1 8333   3.928   0.248   5.024
 2478SOL    HW2 8334   3.937   0.086   5.007
 2479SOL     OW 8335   5.542   3.302   0.955
 2479SOL    HW1 8336   5.596   3.363   1.013
 2479SOL    HW2 8337   5.463   3.269   1.007
 2480SOL     OW 8338   3.836   2.173   1.448
 2480SOL    HW1 8339   3.897   2.225   1.388
 2480SOL    HW2 8340   3.875   2.169   1.540
 2481SOL     OW 8341   3.232   6.831   2.279
 2481SOL    HW1 8342   3.188   6.917   2.252
 2481SOL    HW2 8343   3.316   6.819   2.226
 2482SOL     OW 8344   6.399   3.263   0.733
 2482SOL    HW1 8345   6.329   3.251   0.803
 2482SOL    HW2 8346   6.440   3.174   0.712
 2483SOL     OW 8347   1.871   2.519   0.652
 2483SOL    HW1 8348   1.892   2.477   0.563
 2483SOL    HW2 8349   1.867   2.447   0.722
 2484SOL     OW 8350   4.240   0.447   7.012
 2484SOL    HW1 8351   4.326   0.476   6.968
 2484SOL    HW2 8352   4.186   0.527   0.012
 2485SOL     OW 8353   0.331   2.313   6.105
 2485SOL    HW1 8354   0.264   2.263   6.049
 2485SOL    HW2 8355   0.319   2.287   6.201
 2486SOL     OW 8356   6.943   5.368   3.566
 2486SOL    HW1 8357   6.901   5.447   3.612
 2486SOL    HW2 8358   6.916   5.285   3.614
 2487SOL     OW 8359   4.299   6.059   0.017
 2487SOL    HW1 8360   4.296   6.036   0.115
 2487SOL    HW2 8361   4.359   6.138   0.003
 2488SOL     OW 8362   6.838   4.061   0.606
 2488SOL    HW1 8363   6.786   4.016   0.533
 2488SOL    HW2 8364   6.909   3.999   0.639
 2489SOL     OW 8365   6.270   5.254   4.090
 2489SOL    HW1 8366   6.236   5.174   4.041
 2489SOL    HW2 8367   6.235   5.254   4.183
 2490SOL     OW 8368   2.451   5.865   3.433
 2490SOL    HW1 8369   2.388   5.901   3.502
 2490SOL    HW2 8370   2.544   5.866   3.468
 2491SOL     OW 8371   3.849   4.745   1.478
 2491SOL    HW1 8372   3.839   4.646   1.463
 2491SOL    HW2 8373   3.945   4.770   1.475
 2492SOL     OW 8374   6.504   5.468   1.392
 2492SOL    HW1 8375   6.438   5.393   1.386
 2492SOL    HW2 8376   6.475   5.533   1.463
 2493SOL     OW 8377   5.453   6.609   1.157
 2493SOL    HW1 8378   5.455   6.528   1.098
 2493SOL    HW2 8379   5.545   6.626   1.193
 2494SOL     OW 8380   6.648   3.358   1.096
 2494SOL    HW1 8381   6.637   3.391   1.002
 2494SOL    HW2 8382   6.674   3.262   1.095
 2495SOL     OW 8383   0.638   3.767   1.671
 2495SOL    HW1 8384   0.674   3.726   1.755
 2495SOL    HW2 8385   0.676   3.859   1.661
 2496SOL     OW 8386   5.722   4.684   6.708
 2496SOL    HW1 8387   5.632   4.706   6.670
 2496SOL    HW2 8388   5.793   4.702   6.639
 2497SOL     OW 8389   0.435   6.909   2.118
 2497SOL    HW1 8390   0.471   6.996   2.085
 2497SOL    HW2 8391   0.336   6.907   2.106
 2498SOL     OW 8392   1.851   3.309   5.029
 2498SOL    HW1 8393   1.920   3.321   5.101
 2498SOL    HW2 8394   1.853   3.214   4.997
 2499SOL     OW 8395   6.914   3.510   1.936
 2499SOL    HW1 8396   6.864   3.511   2.023
 2499SOL    HW2 8397   6.946   3.603   1.915
 2500SOL     OW 8398   3.894   3.246   1.604
 2500SOL    HW1 8399   3.801   3.218   1.628
 2500SOL    HW2 8400   3.924   3.320   1.665
 2501SOL     OW 8401   6.363   5.729   6.265
 2501SOL    HW1 8402   6.459   5.713   6.240
 2501SOL    HW2 8403   6.312   5.759   6.185
 2502SOL     OW 8404   2.221   6.367   4.515
 2502SOL    HW1 8405   2.189   6.401   4.604
 2502SOL    HW2 8406   2.286   6.293   4.528
 2503SOL     OW 8407   2.916   6.970   5.683
 2503SOL    HW1 8408   2.882   6.969   5.777
 2503SOL    HW2 8409   2.948   6.879   5.658
 2504SOL     OW 8410   3.990   6.749   3.813
 2504SOL    HW1 8411   4.011   6.792   3.725
 2504SOL    HW2 8412   3.891   6.741   3.823
 2505SOL     OW 8413   0.210   4.270   4.111
 2505SOL    HW1 8414   0.139   4.202   4.094
 2505SOL    HW2 8415   0.277   4.267   4.037
 2506SOL     OW 8416   5.498   5.407   6.408
 2506SOL    HW1 8417   5.558   5.484   6.389
 2506SOL    HW2 8418   5.423   5.405   6.342
 2507SOL     OW 8419   6.905   3.217   2.094
 2507SOL    HW1 8420   6.806   3.223   2.085
 2507SOL    HW2 8421   6.936   3.277   2.168
 2508SOL     OW 8422   5.819   1.237   4.567
 2508SOL    HW1 8423   5.738   1.196   4.525
 2508SOL    HW2 8424   5.846   1.319   4.516
 2509SOL     OW 8425   0.295   3.217   5.849
 2509SOL    HW1 8426   0.217   3.278   5.838
 2509SOL    HW2 8427   0.360   3.257   5.914
 2510SOL     OW 8428   3.212   3.909   2.561
 2510SOL    HW1 8429   3.238   3.835   2.499
 2510SOL    HW2 8430   3.129   3.884   2.610
 2511SOL     OW 8431   2.224   0.563   4.456
 2511SOL    HW1 8432   2.255   0.589   4.547
 2511SOL    HW2 8433   2.254   0.632   4.390
 2512SOL     OW 8434   4.055   4.758   4.065
 2512SOL    HW1 8435   4.051   4.744   3.967
 2512SOL    HW2 8436   3.964   4.778   4.100
 2513SOL     OW 8437   2.044   5.305   6.013
 2513SOL    HW1 8438   1.972   5.364   6.051
 2513SOL    HW2 8439   2.003   5.226   5.969
 2514SOL     OW 8440   1.330   1.547   3.137
 2514SOL    HW1 8441   1.389   1.604   3.195
 2514SOL    HW2 8442   1.315   1.593   3.050
 2515SOL     OW 8443   0.652   1.599   1.429
 2515SOL    HW1 8444   0.732   1.548   1.398
 2515SOL    HW2 8445   0.573   1.574   1.372
 2516SOL     OW 8446   5.696   2.249   4.744
 2516SOL    HW1 8447   5.782   2.265   4.793
 2516SOL    HW2 8448   5.643   2.334   4.740
 2517SOL     OW 8449   1.159   1.347   3.912
 2517SOL    HW1 8450   1.151   1.419   3.981
 2517SOL    HW2 8451   1.228   1.281   3.941
 2518SOL     OW 8452   2.392   4.825   1.482
 2518SOL    HW1 8453   2.463   4.824   1.412
 2518SOL    HW2 8454   2.306   4.791   1.443
 2519SOL     OW 8455   1.286   1.433   0.712
 2519SOL    HW1 8456   1.209   1.401   0.655
 2519SOL    HW2 8457   1.369   1.385   0.686
 2520SOL     OW 8458   2.344   2.283   0.747
 2520SOL    HW1 8459   2.270   2.222   0.775
 2520SOL    HW2 8460   2.402   2.237   0.680
 2521SOL     OW 8461   5.257   0.956   5.048
 2521SOL    HW1 8462   5.266   0.867   5.094
 2521SOL    HW2 8463   5.344   1.006   5.056
 2522SOL     OW 8464   1.264   1.909   6.841
 2522SOL    HW1 8465   1.361   1.890   6.859
 2522SOL    HW2 8466   1.252   2.007   6.825
 2523SOL     OW 8467   1.500   5.604   6.591
 2523SOL    HW1 8468   1.481   5.627   6.496
 2523SOL    HW2 8469   1.582   5.546   6.596
 2524SOL     OW 8470   1.493   0.589   4.480
 2524SOL    HW1 8471   1.573   0.640   4.512
 2524SOL    HW2 8472   1.449   0.544   4.559
 2525SOL     OW 8473   6.424   2.633   5.412
 2525SOL    HW1 8474   6.403   2.637   5.314
 2525SOL    HW2 8475   6.523   2.634   5.425
 2526SOL     OW 8476   1.669   0.042   1.104
 2526SOL    HW1 8477   1.712   6.983   1.141
 2526SOL    HW2 8478   1.571   0.025   1.090
 2527SOL     OW 8479   4.293   5.146   5.800
 2527SOL    HW1 8480   4.206   5.102   5.824
 2527SOL    HW2 8481   4.362   5.122   5.867
 2528SOL     OW 8482   4.864   5.633   6.170
 2528SOL    HW1 8483   4.806   5.712   6.189
 2528SOL    HW2 8484   4.902   5.597   6.255
 2529SOL     OW 8485   0.422   6.501   6.363
 2529SOL    HW1 8486   0.387   6.421   6.314
 2529SOL    HW2 8487   0.515   6.521   6.332
 2530SOL     OW 8488   2.576   5.742   6.483
 2530SOL    HW1 8489   2.590   5.826   6.536
 2530SOL    HW2 8490   2.637   5.670   6.517
 2531SOL     OW 8491   6.813   5.722   6.378
 2531SOL    HW1 8492   6.781   5.699   6.470
 2531SOL    HW2 8493   6.879   5.797   6.383
 2532SOL     OW 8494   5.345   6.359   1.595
 2532SOL    HW1 8495   5.332   6.454   1.568
 2532SOL    HW2 8496   5.299   6.299   1.530
 2533SOL     OW 8497   4.664   0.668   4.264
 2533SOL    HW1 8498   4.689   0.594   4.203
 2533SOL    HW2 8499   4.566   0.663   4.285
 2534SOL     OW 8500   4.027   1.332   2.638
 2534SOL    HW1 8501   4.033   1.396   2.714
 2534SOL    HW2 8502   4.082   1.365   2.562
 2535SOL     OW 8503   4.044   2.858   6.436
 2535SOL    HW1 8504   4.137   2.882   6.464
 2535SOL    HW2 8505   4.021   2.768   6.471
 2536SOL     OW 8506   1.417   0.889   1.018
 2536SOL    HW1 8507   1.334   0.937   1.047
 2536SOL    HW2 8508   1.477   0.952   0.969
 2537SOL     OW 8509   3.979   0.023   5.749
 2537SOL    HW1 8510   4.017   0.116   5.753
 2537SOL    HW2 8511   4.048   6.980   5.778
 2538SOL     OW 8512   6.350   3.120   3.491
 2538SOL    HW1 8513   6.395   3.120   3.580
 2538SOL    HW2 8514   6.418   3.104   3.419
 2539SOL     OW 8515   4.988   2.460   5.182
 2539SOL    HW1 8516   5.086   2.449   5.167
 2539SOL    HW2 8517   4.972   2.547   5.229
 2540SOL     OW 8518   2.676   1.638   1.686
 2540SOL    HW1 8519   2.576   1.645   1.683
 2540SOL    HW2 8520   2.708   1.588   1.605
 2541SOL     OW 8521   3.730   6.841   4.616
 2541SOL    HW1 8522   3.760   6.908   4.684
 2541SOL    HW2 8523   3.704   6.888   4.532
 2542SOL     OW 8524   2.017   5.512   6.240
 2542SOL    HW1 8525   2.112   5.482   6.244
 2542SOL    HW2 8526   2.009   5.604   6.277
 2543SOL     OW 8527   0.917   1.267   3.989
 2543SOL    HW1 8528   0.993   1.271   3.923
 2543SOL    HW2 8529   0.924   1.345   4.052
 2544SOL     OW 8530   1.144   5.209   6.839
 2544SOL    HW1 8531   1.170   5.298   6.877
 2544SOL    HW2 8532   1.048   5.211   6.811
 2545SOL     OW 8533   3.042   5.592   3.472
 2545SOL    HW1 8534   3.066   5.616   3.566
 2545SOL    HW2 8535   2.971   5.521   3.472
 2546SOL     OW 8536   6.487   1.472   1.205
 2546SOL    HW1 8537   6.408   1.533   1.204
 2546SOL    HW2 8538   6.456   1.378   1.214
 2547SOL     OW 8539   0.834   3.467   5.261
 2547SOL    HW1 8540   0.849   3.566   5.270
 2547SOL    HW2 8541   0.818   3.444   5.165
 2548SOL     OW 8542   0.857   0.071   4.740
 2548SOL    HW1 8543   0.781   0.017   4.705
 2548SOL    HW2 8544   0.861   0.062   4.839
 2549SOL     OW 8545   6.422   2.937   1.924
 2549SOL    HW1 8546   6.341   2.886   1.951
 2549SOL    HW2 8547   6.478   2.881   1.863
 2550SOL     OW 8548   6.042   5.821   0.156
 2550SOL    HW1 8549   5.956   5.780   0.187
 2550SOL    HW2 8550   6.096   5.849   0.235
 2551SOL     OW 8551   1.111   4.260   6.791
 2551SOL    HW1 8552   1.013   4.277   6.784
 2551SOL    HW2 8553   1.151   4.253   6.700
 2552SOL     OW 8554   1.918   5.366   3.333
 2552SOL    HW1 8555   1.875   5.445   3.377
 2552SOL    HW2 8556   1.874   5.282   3.365
 2553SOL     OW 8557   4.145   3.775   6.656
 2553SOL    HW1 8558   4.144   3.874   6.663
 2553SOL    HW2 8559   4.175   3.748   6.564
 2554SOL     OW 8560   1.768   1.310   0.359
 2554SOL    HW1 8561   1.724   1.225   0.386
 2554SOL    HW2 8562   1.797   1.361   0.440
 2555SOL     OW 8563   6.235   0.873   6.946
 2555SOL    HW1 8564   6.185   0.939   7.003
 2555SOL    HW2 8565   6.239   0.907   6.852
 2556SOL     OW 8566   3.537   5.212   0.995
 2556SOL    HW1 8567   3.488   5.126   1.005
 2556SOL    HW2 8568   3.617   5.212   1.055
 2557SOL     OW 8569   1.927   4.500   6.834
 2557SOL    HW1 8570   1.950   4.409   6.868
 2557SOL    HW2 8571   1.852   4.493   6.768
 2558SOL     OW 8572   3.978   0.614   5.617
 2558SOL    HW1 8573   4.031   0.650   5.541
 2558SOL    HW2 8574   3.889   0.660   5.622
 2559SOL     OW 8575   0.503   5.320   4.924
 2559SOL    HW1 8576   0.456   5.271   4.850
 2559SOL    HW2 8577   0.471   5.415   4.927
 2560SOL     OW 8578   6.297   1.254   6.869
 2560SOL    HW1 8579   6.308   1.171   6.815
 2560SOL    HW2 8580   6.208   1.252   6.914
 2561SOL     OW 8581   3.086   5.209   5.063
 2561SOL    HW1 8582   3.105   5.206   4.965
 2561SOL    HW2 8583   3.164   5.248   5.112
 2562SOL     OW 8584   2.527   3.938   6.587
 2562SOL    HW1 8585   2.535   3.862   6.523
 2562SOL    HW2 8586   2.592   3.925   6.662
 2563SOL     OW 8587   1.985   0.982   0.613
 2563SOL    HW1 8588   2.066   0.950   0.663
 2563SOL    HW2 8589   1.929   0.903   0.587
 2564SOL     OW 8590   1.560   6.547   1.834
 2564SOL    HW1 8591   1.489   6.616   1.848
 2564SOL    HW2 8592   1.569   6.529   1.736
 2565SOL     OW 8593   1.288   0.850   1.635
 2565SOL    HW1 8594   1.309   0.935   1.683
 2565SOL    HW2 8595   1.366   0.788   1.642
 2566SOL     OW 8596   2.082   6.744   6.140
 2566SOL    HW1 8597   2.125   6.666   6.094
 2566SOL    HW2 8598   2.042   6.714   6.226
 2567SOL     OW 8599   0.842   0.425   0.515
 2567SOL    HW1 8600   0.841   0.500   0.448
 2567SOL    HW2 8601   0.907   0.356   0.486
 2568SOL     OW 8602   5.313   3.786   0.008
 2568SOL    HW1 8603   5.299   3.708   0.069
 2568SOL    HW2 8604   5.347   3.864   0.060
 2569SOL     OW 8605   2.798   0.560   2.812
 2569SOL    HW1 8606   2.714   0.607   2.785
 2569SOL    HW2 8607   2.861   0.626   2.853
 2570SOL     OW 8608   5.413   2.629   5.979
 2570SOL    HW1 8609   5.317   2.607   5.963
 2570SOL    HW2 8610   5.466   2.544   5.986
 2571SOL     OW 8611   0.972   3.669   4.692
 2571SOL    HW1 8612   1.069   3.687   4.709
 2571SOL    HW2 8613   0.961   3.574   4.661
 2572SOL     OW 8614   1.324   4.874   3.793
 2572SOL    HW1 8615   1.358   4.816   3.719
 2572SOL    HW2 8616   1.355   4.968   3.778
 2573SOL     OW 8617   1.210   0.220   0.802
 2573SOL    HW1 8618   1.146   0.291   0.829
 2573SOL    HW2 8619   1.159   0.138   0.775
 2574SOL     OW 8620   5.794   3.549   0.603
 2574SOL    HW1 8621   5.846   3.465   0.616
 2574SOL    HW2 8622   5.706   3.542   0.651
 2575SOL     OW 8623   0.374   5.909   6.119
 2575SOL    HW1 8624   0.462   5.888   6.161
 2575SOL    HW2 8625   0.300   5.893   6.186
 2576SOL     OW 8626   4.169   5.650   4.153
 2576SOL    HW1 8627   4.232   5.586   4.195
 2576SOL    HW2 8628   4.181   5.741   4.194
 2577SOL     OW 8629   2.320   4.233   2.120
 2577SOL    HW1 8630   2.229   4.267   2.140
 2577SOL    HW2 8631   2.384   4.263   2.191
 2578SOL     OW 8632   3.876   1.986   2.862
 2578SOL    HW1 8633   3.921   2.019   2.945
 2578SOL    HW2 8634   3.813   2.057   2.828
 2579SOL     OW 8635   1.042   6.181   3.298
 2579SOL    HW1 8636   1.020   6.231   3.215
 2579SOL    HW2 8637   1.050   6.245   3.375
 2580SOL     OW 8638   2.198   2.120   5.971
 2580SOL    HW1 8639   2.164   2.031   6.004
 2580SOL    HW2 8640   2.243   2.168   6.046
 2581SOL     OW 8641   3.366   0.689   5.584
 2581SOL    HW1 8642   3.435   0.657   5.649
 2581SOL    HW2 8643   3.351   0.787   5.598
 2582SOL     OW 8644   6.591   3.247   1.793
 2582SOL    HW1 8645   6.538   3.294   1.864
 2582SOL    HW2 8646   6.660   3.310   1.757
 2583SOL     OW 8647   6.030   0.276   0.903
 2583SOL    HW1 8648   6.106   0.218   0.933
 2583SOL    HW2 8649   5.992   0.323   0.983
 2584SOL     OW 8650   3.801   4.328   6.311
 2584SOL    HW1 8651   3.769   4.237   6.339
 2584SOL    HW2 8652   3.770   4.347   6.218
 2585SOL     OW 8653   3.005   4.767   6.508
 2585SOL    HW1 8654   3.100   4.769   6.478
 2585SOL    HW2 8655   2.987   4.679   6.553
 2586SOL     OW 8656   2.832   0.980   3.833
 2586SOL    HW1 8657   2.751   0.968   3.890
 2586SOL    HW2 8658   2.816   1.052   3.765
 2587SOL     OW 8659   6.744   0.717   4.167
 2587SOL    HW1 8660   6.825   0.746   4.218
 2587SOL    HW2 8661   6.733   0.618   4.173
 2588SOL     OW 8662   4.691   0.740   6.384
 2588SOL    HW1 8663   4.638   0.778   6.308
 2588SOL    HW2 8664   4.718   0.814   6.445
 2589SOL     OW 8665   2.156   6.871   0.399
 2589SOL    HW1 8666   2.154   6.803   0.326
 2589SOL    HW2 8667   2.154   6.825   0.488
 2590SOL     OW 8668   2.683   5.942   0.386
 2590SOL    HW1 8669   2.681   6.013   0.315
 2590SOL    HW2 8670   2.675   5.852   0.343
 2591SOL     OW 8671   6.050   5.418   3.478
 2591SOL    HW1 8672   5.953   5.403   3.458
 2591SOL    HW2 8673   6.106   5.380   3.404
 2592SOL     OW 8674   2.730   4.293   0.962
 2592SOL    HW1 8675   2.793   4.367   0.986
 2592SOL    HW2 8676   2.748   4.213   1.019
 2593SOL     OW 8677   3.390   4.178   1.081
 2593SOL    HW1 8678   3.374   4.203   1.177
 2593SOL    HW2 8679   3.473   4.123   1.075
 2594SOL     OW 8680   2.213   3.165   4.455
 2594SOL    HW1 8681   2.217   3.177   4.555
 2594SOL    HW2 8682   2.210   3.068   4.433
 2595SOL     OW 8683   2.527   1.612   2.790
 2595SOL    HW1 8684   2.530   1.527   2.738
 2595SOL    HW2 8685   2.482   1.596   2.878
 2596SOL     OW 8686   1.148   1.515   0.339
 2596SOL    HW1 8687   1.195   1.440   0.292
 2596SOL    HW2 8688   1.169   1.601   0.292
 2597SOL     OW 8689   6.637   6.545   0.207
 2597SOL    HW1 8690   6.662   6.642   0.211
 2597SOL    HW2 8691   6.592   6.526   0.119
 2598SOL     OW 8692   5.602   2.480   2.448
 2598SOL    HW1 8693   5.534   2.531   2.502
 2598SOL    HW2 8694   5.628   2.533   2.368
 2599SOL     OW 8695   2.735   5.589   2.325
 2599SOL    HW1 8696   2.823   5.582   2.373
 2599SOL    HW2 8697   2.670   5.524   2.364
 2600SOL     OW 8698   5.808   3.563   4.459
 2600SOL    HW1 8699   5.795   3.468   4.429
 2600SOL    HW2 8700   5.767   3.625   4.392
 2601SOL     OW 8701   6.594   1.301   3.731
 2601SOL    HW1 8702   6.548   1.232   3.676
 2601SOL    HW2 8703   6.526   1.354   3.782
 2602SOL     OW 8704   0.797   4.494   2.513
 2602SOL    HW1 8705   0.790   4.404   2.471
 2602SOL    HW2 8706   0.888   4.533   2.494
 2603SOL     OW 8707   2.624   6.347   2.588
 2603SOL    HW1 8708   2.571   6.430   2.574
 2603SOL    HW2 8709   2.584   6.293   2.662
 2604SOL     OW 8710   4.587   2.593   3.448
 2604SOL    HW1 8711   4.543   2.644   3.522
 2604SOL    HW2 8712   4.562   2.633   3.360
 2605SOL     OW 8713   1.563   3.810   2.140
 2605SOL    HW1 8714   1.508   3.733   2.106
 2605SOL    HW2 8715   1.660   3.786   2.137
 2606SOL     OW 8716   4.868   4.051   1.273
 2606SOL    HW1 8717   4.841   4.119   1.205
 2606SOL    HW2 8718   4.930   4.094   1.339
 2607SOL     OW 8719   2.548   2.553   1.426
 2607SOL    HW1 8720   2.526   2.609   1.346
 2607SOL    HW2 8721   2.639   2.578   1.459
 2608SOL     OW 8722   2.841   4.810   5.553
 2608SOL    HW1 8723   2.777   4.785   5.625
 2608SOL    HW2 8724   2.933   4.822   5.592
 2609SOL     OW 8725   0.493   2.403   0.527
 2609SOL    HW1 8726   0.561   2.436   0.461
 2609SOL    HW2 8727   0.539   2.349   0.598
 2610SOL     OW 8728   1.445   3.871   4.908
 2610SOL    HW1 8729   1.506   3.796   4.883
 2610SOL    HW2 8730   1.357   3.834   4.936
 2611SOL     OW 8731   4.825   0.058   6.062
 2611SOL    HW1 8732   4.894   0.094   6.126
 2611SOL    HW2 8733   4.870   0.008   5.989
 2612SOL     OW 8734   6.536   0.044   6.758
 2612SOL    HW1 8735   6.532   0.139   6.727
 2612SOL    HW2 8736   6.510   7.006   6.683
 2613SOL     OW 8737   0.946   6.501   6.719
 2613SOL    HW1 8738   0.849   6.484   6.738
 2613SOL    HW2 8739   0.986   6.551   6.795
 2614SOL     OW 8740   6.106   2.205   0.169
 2614SOL    HW1 8741   6.025   2.155   0.200
 2614SOL    HW2 8742   6.141   2.163   0.085
 2615SOL     OW 8743   0.396   3.370   6.668
 2615SOL    HW1 8744   0.479   3.419   6.694
 2615SOL    HW2 8745   0.322   3.435   6.650
 2616SOL     OW 8746   1.273   1.076   5.245
 2616SOL    HW1 8747   1.344   1.101   5.310
 2616SOL    HW2 8748   1.313   1.024   5.170
 2617SOL     OW 8749   4.852   0.478   1.698
 2617SOL    HW1 8750   4.864   0.399   1.759
 2617SOL    HW2 8751   4.894   0.457   1.609
 2618SOL     OW 8752   1.269   6.660   6.287
 2618SOL    HW1 8753   1.211   6.738   6.309
 2618SOL    HW2 8754   1.322   6.633   6.367
 2619SOL     OW 8755   4.730   0.872   3.020
 2619SOL    HW1 8756   4.774   0.861   2.931
 2619SOL    HW2 8757   4.785   0.826   3.090
 2620SOL     OW 8758   6.082   1.727   1.614
 2620SOL    HW1 8759   6.044   1.706   1.704
 2620SOL    HW2 8760   6.022   1.791   1.567
 2621SOL     OW 8761   1.849   6.240   1.602
 2621SOL    HW1 8762   1.874   6.251   1.506
 2621SOL    HW2 8763   1.916   6.286   1.660
 2622SOL     OW 8764   2.498   3.791   6.844
 2622SOL    HW1 8765   2.595   3.812   6.843
 2622SOL    HW2 8766   2.455   3.830   6.762
 2623SOL     OW 8767   6.957   6.756   3.665
 2623SOL    HW1 8768   7.017   6.798   3.597
 2623SOL    HW2 8769   6.908   6.679   3.623
 2624SOL     OW 8770   0.868   1.355   5.155
 2624SOL    HW1 8771   0.961   1.339   5.123
 2624SOL    HW2 8772   0.864   1.341   5.254
 2625SOL     OW 8773   2.654   5.355   6.511
 2625SOL    HW1 8774   2.697   5.426   6.456
 2625SOL    HW2 8775   2.560   5.339   6.479
 2626SOL     OW 8776   6.472   6.606   6.750
 2626SOL    HW1 8777   6.534   6.529   6.766
 2626SOL    HW2 8778   6.496   6.681   6.811
 2627SOL     OW 8779   2.266   0.373   5.740
 2627SOL    HW1 8780   2.271   0.395   5.643
 2627SOL    HW2 8781   2.346   0.319   5.766
 2628SOL     OW 8782   0.014   4.590   1.424
 2628SOL    HW1 8783   0.081   4.524   1.458
 2628SOL    HW2 8784   7.023   4.577   1.326
 2629SOL     OW 8785   3.416   4.129   2.547
 2629SOL    HW1 8786   3.317   4.126   2.561
 2629SOL    HW2 8787   3.444   4.048   2.494
 2630SOL     OW 8788   3.707   0.542   4.396
 2630SOL    HW1 8789   3.771   0.618   4.391
 2630SOL    HW2 8790   3.753   0.457   4.369
 2631SOL     OW 8791   5.555   6.986   0.209
 2631SOL    HW1 8792   5.618   6.919   0.248
 2631SOL    HW2 8793   5.541   6.965   0.112
 2632SOL     OW 8794   5.892   5.246   2.026
 2632SOL    HW1 8795   5.799   5.209   2.021
 2632SOL    HW2 8796   5.899   5.308   2.104
 2633SOL     OW 8797   0.394   3.357   6.096
 2633SOL    HW1 8798   0.489   3.360   6.126
 2633SOL    HW2 8799   0.334   3.347   6.175
 2634SOL     OW 8800   0.987   1.333   5.398
 2634SOL    HW1 8801   1.066   1.290   5.441
 2634SOL    HW2 8802   1.004   1.431   5.388
 2635SOL     OW 8803   4.188   5.027   3.481
 2635SOL    HW1 8804   4.156   5.084   3.556
 2635SOL    HW2 8805   4.111   4.974   3.444
 2636SOL     OW 8806   3.424   6.676   6.111
 2636SOL    HW1 8807   3.441   6.727   6.195
 2636SOL    HW2 8808   3.327   6.683   6.087
 2637SOL     OW 8809   0.468   0.393   3.036
 2637SOL    HW1 8810   0.515   0.477   3.010
 2637SOL    HW2 8811   0.531   0.316   3.034
 2638SOL     OW 8812   0.665   6.835   4.320
 2638SOL    HW1 8813   0.641   6.802   4.411
 2638SOL    HW2 8814   0.726   6.769   4.277
 2639SOL     OW 8815   4.494   4.903   4.626
 2639SOL    HW1 8816   4.494   4.887   4.527
 2639SOL    HW2 8817   4.439   4.834   4.671
 2640SOL     OW 8818   2.565   1.163   3.722
 2640SOL    HW1 8819   2.557   1.249   3.670
 2640SOL    HW2 8820   2.572   1.184   3.819
 2641SOL     OW 8821   5.289   2.086   0.149
 2641SOL    HW1 8822   5.198   2.055   0.177
 2641SOL    HW2 8823   5.358   2.047   0.209
 2642SOL     OW 8824   0.075   0.068   2.751
 2642SOL    HW1 8825   0.116   0.159   2.748
 2642SOL    HW2 8826   0.045   0.042   2.659
 2643SOL     OW 8827   1.405   4.575   4.590
 2643SOL    HW1 8828   1.438   4.616   4.674
 2643SOL    HW2 8829   1.475   4.583   4.519
 2644SOL     OW 8830   5.594   5.412   4.790
 2644SOL    HW1 8831   5.615   5.502   4.828
 2644SOL    HW2 8832   5.644   5.400   4.704
 2645SOL     OW 8833   4.943   5.970   3.174
 2645SOL    HW1 8834   5.000   5.921   3.240
 2645SOL    HW2 8835   4.991   6.053   3.144
 2646SOL     OW 8836   0.645   2.385   6.452
 2646SOL    HW1 8837   0.654   2.393   6.352
 2646SOL    HW2 8838   0.640   2.476   6.492
 2647SOL     OW 8839   4.757   6.895   2.648
 2647SOL    HW1 8840   4.717   6.981   2.614
 2647SOL    HW2 8841   4.785   6.907   2.743
 2648SOL     OW 8842   1.124   6.874   6.387
 2648SOL    HW1 8843   1.192   6.932   6.433
 2648SOL    HW2 8844   1.036   6.922   6.384
 2649SOL     OW 8845   5.242   1.510   3.393
 2649SOL    HW1 8846   5.280   1.476   3.307
 2649SOL    HW2 8847   5.142   1.512   3.385
 2650SOL     OW 8848   2.459   6.882   3.614
 2650SOL    HW1 8849   2.506   6.816   3.673
 2650SOL    HW2 8850   2.372   6.844   3.584
 2651SOL     OW 8851   3.966   1.828   4.294
 2651SOL    HW1 8852   3.963   1.761   4.368
 2651SOL    HW2 8853   3.900   1.802   4.223
 2652SOL     OW 8854   5.303   4.088   5.556
 2652SOL    HW1 8855   5.301   4.118   5.460
 2652SOL    HW2 8856   5.258   3.999   5.563
 2653SOL     OW 8857   2.218   6.319   6.985
 2653SOL    HW1 8858   2.151   6.279   0.025
 2653SOL    HW2 8859   2.268   6.392   0.010
 2654SOL     OW 8860   0.284   1.040   0.835
 2654SOL    HW1 8861   0.272   1.139   0.841
 2654SOL    HW2 8862   0.205   0.999   0.790
 2655SOL     OW 8863   5.465   6.091   2.935
 2655SOL    HW1 8864   5.489   6.017   2.871
 2655SOL    HW2 8865   5.536   6.162   2.930
 2656SOL     OW 8866   4.574   5.694   3.954
 2656SOL    HW1 8867   4.579   5.751   3.872
 2656SOL    HW2 8868   4.666   5.679   3.990
 2657SOL     OW 8869   1.400   3.604   6.652
 2657SOL    HW1 8870   1.407   3.574   6.747
 2657SOL    HW2 8871   1.339   3.683   6.647
 2658SOL     OW 8872   3.864   5.131   6.968
 2658SOL    HW1 8873   3.923   5.076   0.004
 2658SOL    HW2 8874   3.826   5.208   7.021
 2659SOL     OW 8875   0.128   2.000   5.375
 2659SOL    HW1 8876   0.184   1.921   5.349
 2659SOL    HW2 8877   0.127   2.009   5.474
 2660SOL     OW 8878   0.358   1.421   1.025
 2660SOL    HW1 8879   0.372   1.369   0.941
 2660SOL    HW2 8880   0.309   1.506   1.004
 2661SOL     OW 8881   1.705   1.251   1.334
 2661SOL    HW1 8882   1.613   1.234   1.369
 2661SOL    HW2 8883   1.706   1.235   1.235
 2662SOL     OW 8884   2.676   2.009   2.326
 2662SOL    HW1 8885   2.765   1.977   2.359
 2662SOL    HW2 8886   2.679   2.015   2.226
 2663SOL     OW 8887   3.713   6.946   0.769
 2663SOL    HW1 8888   3.759   6.930   0.856
 2663SOL    HW2 8889   3.677   0.016   0.766
 2664SOL     OW 8890   5.031   3.573   5.268
 2664SOL    HW1 8891   4.984   3.488   5.242
 2664SOL    HW2 8892   5.124   3.551   5.296
 2665SOL     OW 8893   1.613   3.027   3.678
 2665SOL    HW1 8894   1.643   2.990   3.590
 2665SOL    HW2 8895   1.529   3.080   3.664
 2666SOL     OW 8896   2.188   4.121   1.884
 2666SOL    HW1 8897   2.199   4.021   1.884
 2666SOL    HW2 8898   2.271   4.164   1.919
 2667SOL     OW 8899   6.369   2.951   5.381
 2667SOL    HW1 8900   6.396   2.865   5.424
 2667SOL    HW2 8901   6.269   2.953   5.372
 2668SOL     OW 8902   6.376   0.540   3.180
 2668SOL    HW1 8903   6.431   0.461   3.207
 2668SOL    HW2 8904   6.322   0.572   3.258
 2669SOL     OW 8905   2.584   1.119   0.662
 2669SOL    HW1 8906   2.602   1.088   0.756
 2669SOL    HW2 8907   2.492   1.092   0.634
 2670SOL     OW 8908   0.289   0.036   6.878
 2670SOL    HW1 8909   0.387   0.022   6.867
 2670SOL    HW2 8910   0.243   6.971   6.886
 2671SOL     OW 8911   5.286   4.930   6.111
 2671SOL    HW1 8912   5.198   4.934   6.063
 2671SOL    HW2 8913   5.271   4.945   6.209
 2672SOL     OW 8914   2.631   1.057   2.013
 2672SOL    HW1 8915   2.646   1.114   2.093
 2672SOL    HW2 8916   2.597   0.967   2.042
 2673SOL     OW 8917   3.559   0.403   2.771
 2673SOL    HW1 8918   3.538   0.491   2.813
 2673SOL    HW2 8919   3.605   0.344   2.837
 2674SOL     OW 8920   6.854   5.910   3.105
 2674SOL    HW1 8921   6.811   5.987   3.153
 2674SOL    HW2 8922   6.866   5.834   3.169
 2675SOL     OW 8923   5.085   1.083   4.862
 2675SOL    HW1 8924   5.097   1.182   4.859
 2675SOL    HW2 8925   5.155   1.042   4.920
 2676SOL     OW 8926   3.847   4.028   4.089
 2676SOL    HW1 8927   3.879   3.963   4.158
 2676SOL    HW2 8928   3.774   4.084   4.128
 2677SOL     OW 8929   1.498   5.678   1.106
 2677SOL    HW1 8930   1.476   5.756   1.047
 2677SOL    HW2 8931   1.417   5.621   1.117
 2678SOL     OW 8932   3.402   1.759   2.753
 2678SOL    HW1 8933   3.368   1.665   2.747
 2678SOL    HW2 8934   3.360   1.804   2.832
 2679SOL     OW 8935   1.667   3.478   2.278
 2679SOL    HW1 8936   1.697   3.386   2.253
 2679SOL    HW2 8937   1.673   3.490   2.377
 2680SOL     OW 8938   5.457   2.927   0.096
 2680SOL    HW1 8939   5.454   3.017   0.139
 2680SOL    HW2 8940   5.547   2.885   0.112
 2681SOL     OW 8941   1.977   2.448   3.582
 2681SOL    HW1 8942   1.985   2.359   3.538
 2681SOL    HW2 8943   1.999   2.439   3.679
 2682SOL     OW 8944   3.637   3.780   1.938
 2682SOL    HW1 8945   3.552   3.763   1.889
 2682SOL    HW2 8946   3.654   3.705   2.002
 2683SOL     OW 8947   2.168   3.983   1.486
 2683SOL    HW1 8948   2.119   3.930   1.555
 2683SOL    HW2 8949   2.109   3.996   1.406
 2684SOL     OW 8950   6.482   0.561   3.882
 2684SOL    HW1 8951   6.475   0.479   3.826
 2684SOL    HW2 8952   6.437   0.545   3.970
 2685SOL     OW 8953   0.650   6.341   5.645
 2685SOL    HW1 8954   0.651   6.246   5.614
 2685SOL    HW2 8955   0.649   6.403   5.567
 2686SOL     OW 8956   1.684   0.846   5.581
 2686SOL    HW1 8957   1.778   0.820   5.560
 2686SOL    HW2 8958   1.638   0.877   5.498
 2687SOL     OW 8959   4.239   1.385   1.697
 2687SOL    HW1 8960   4.197   1.466   1.656
 2687SOL    HW2 8961   4.337   1.384   1.676
 2688SOL     OW 8962   4.301   2.731   0.274
 2688SOL    HW1 8963   4.249   2.719   0.189
 2688SOL    HW2 8964   4.239   2.759   0.347
 2689SOL     OW 8965   0.862   3.772   2.986
 2689SOL    HW1 8966   0.920   3.839   3.032
 2689SOL    HW2 8967   0.792   3.740   3.050
 2690SOL     OW 8968   5.227   1.300   5.459
 2690SOL    HW1 8969   5.163   1.226   5.439
 2690SOL    HW2 8970   5.278   1.279   5.542
 2691SOL     OW 8971   0.281   3.857   5.056
 2691SOL    HW1 8972   0.322   3.880   5.145
 2691SOL    HW2 8973   0.258   3.760   5.055
 2692SOL     OW 8974   2.586   5.785   2.181
 2692SOL    HW1 8975   2.648   5.710   2.205
 2692SOL    HW2 8976   2.554   5.772   2.087
 2693SOL     OW 8977   0.944   5.049   3.040
 2693SOL    HW1 8978   0.939   5.138   2.995
 2693SOL    HW2 8979   0.903   5.055   3.131
 2694SOL     OW 8980   2.560   0.385   2.430
 2694SOL    HW1 8981   2.657   0.399   2.410
 2694SOL    HW2 8982   2.513   0.355   2.346
 2695SOL     OW 8983   7.018   4.791   3.720
 2695SOL    HW1 8984   7.003   4.715   3.783
 2695SOL    HW2 8985   0.035   4.757   3.635
 2696SOL     OW 8986   4.405   4.686   6.475
 2696SOL    HW1 8987   4.371   4.723   6.562
 2696SOL    HW2 8988   4.386   4.750   6.401
 2697SOL     OW 8989   4.022   1.860   0.667
 2697SOL    HW1 8990   3.992   1.952   0.640
 2697SOL    HW2 8991   3.953   1.819   0.727
 2698SOL     OW 8992   1.397   5.815   5.964
 2698SOL    HW1 8993   1.401   5.915   5.957
 2698SOL    HW2 8994   1.457   5.785   6.038
 2699SOL     OW 8995   2.810   6.574   2.238
 2699SOL    HW1 8996   2.725   6.602   2.283
 2699SOL    HW2 8997   2.789   6.513   2.162
 2700SOL     OW 8998   4.288   2.044   1.800
 2700SOL    HW1 8999   4.217   2.012   1.862
 2700SOL    HW2 9000   4.311   2.139   1.821
 2701SOL     OW 9001   5.051   4.022   4.997
 2701SOL    HW1 9002   5.052   4.122   4.998
 2701SOL    HW2 9003   5.136   3.987   5.036
 2702SOL     OW 9004   2.311   1.257   4.780
 2702SOL    HW1 9005   2.357   1.169   4.797
 2702SOL    HW2 9006   2.380   1.325   4.754
 2703SOL     OW 9007   2.538   6.612   2.826
 2703SOL    HW1 9008   2.538   6.517   2.856
 2703SOL    HW2 9009   2.632   6.648   2.826
 2704SOL     OW 9010   4.393   0.433   3.966
 2704SOL    HW1 9011   4.406   0.425   3.867
 2704SOL    HW2 9012   4.477   0.407   4.012
 2705SOL     OW 9013   1.358   0.407   4.972
 2705SOL    HW1 9014   1.346   0.479   5.040
 2705SOL    HW2 9015   1.368   0.318   5.018
 2706SOL     OW 9016   6.989   4.590   3.962
 2706SOL    HW1 9017   6.916   4.538   3.920
 2706SOL    HW2 9018   6.963   4.617   4.055
 2707SOL     OW 9019   4.300   1.173   3.467
 2707SOL    HW1 9020   4.393   1.161   3.432
 2707SOL    HW2 9021   4.301   1.168   3.567
 2708SOL     OW 9022   5.292   3.083   6.077
 2708SOL    HW1 9023   5.340   2.997   6.096
 2708SOL    HW2 9024   5.358   3.154   6.053
 2709SOL     OW 9025   4.738   1.738   5.703
 2709SOL    HW1 9026   4.805   1.715   5.632
 2709SOL    HW2 9027   4.695   1.826   5.681
 2710SOL     OW 9028   0.952   2.783   4.086
 2710SOL    HW1 9029   0.990   2.845   4.018
 2710SOL    HW2 9030   1.004   2.697   4.086
 2711SOL     OW 9031   3.723   1.125   1.959
 2711SOL    HW1 9032   3.664   1.052   1.993
 2711SOL    HW2 9033   3.687   1.214   1.989
 2712SOL     OW 9034   5.461   5.898   2.148
 2712SOL    HW1 9035   5.496   5.908   2.242
 2712SOL    HW2 9036   5.477   5.983   2.098
 2713SOL     OW 9037   3.729   4.957   5.477
 2713SOL    HW1 9038   3.737   4.906   5.392
 2713SOL    HW2 9039   3.788   5.038   5.473
 2714SOL     OW 9040   3.122   4.324   6.047
 2714SOL    HW1 9041   3.043   4.285   6.000
 2714SOL    HW2 9042   3.199   4.260   6.042
 2715SOL     OW 9043   4.475   6.563   6.654
 2715SOL    HW1 9044   4.462   6.464   6.653
 2715SOL    HW2 9045   4.472   6.597   6.748
 2716SOL     OW 9046   4.203   0.447   2.677
 2716SOL    HW1 9047   4.219   0.480   2.770
 2716SOL    HW2 9048   4.183   0.524   2.617
 2717SOL     OW 9049   0.780   1.911   2.236
 2717SOL    HW1 9050   0.816   1.824   2.205
 2717SOL    HW2 9051   0.795   1.921   2.335
 2718SOL     OW 9052   6.412   1.453   5.917
 2718SOL    HW1 9053   6.426   1.370   5.971
 2718SOL    HW2 9054   6.480   1.458   5.844
 2719SOL     OW 9055   1.883   4.899   3.829
 2719SOL    HW1 9056   1.827   4.816   3.836
 2719SOL    HW2 9057   1.935   4.897   3.744
 2720SOL     OW 9058   1.745   5.687   6.289
 2720SOL    HW1 9059   1.810   5.751   6.330
 2720SOL    HW2 9060   1.768   5.673   6.192
 2721SOL     OW 9061   2.347   6.563   1.740
 2721SOL    HW1 9062   2.284   6.639   1.752
 2721SOL    HW2 9063   2.440   6.593   1.762
 2722SOL     OW 9064   3.728   4.709   6.691
 2722SOL    HW1 9065   3.718   4.615   6.658
 2722SOL    HW2 9066   3.805   4.714   6.755
 2723SOL     OW 9067   4.009   5.991   6.337
 2723SOL    HW1 9068   4.094   5.947   6.308
 2723SOL    HW2 9069   3.986   6.065   6.274
 2724SOL     OW 9070   6.550   5.858   1.337
 2724SOL    HW1 9071   6.537   5.956   1.353
 2724SOL    HW2 9072   6.568   5.812   1.424
 2725SOL     OW 9073   5.833   4.532   3.595
 2725SOL    HW1 9074   5.894   4.473   3.648
 2725SOL    HW2 9075   5.742   4.533   3.636
 2726SOL     OW 9076   6.177   1.637   2.884
 2726SOL    HW1 9077   6.223   1.722   2.912
 2726SOL    HW2 9078   6.093   1.626   2.937
 2727SOL     OW 9079   1.679   5.736   3.323
 2727SOL    HW1 9080   1.696   5.683   3.407
 2727SOL    HW2 9081   1.635   5.822   3.347
 2728SOL     OW 9082   4.556   5.945   5.933
 2728SOL    HW1 9083   4.525   5.860   5.976
 2728SOL    HW2 9084   4.495   5.968   5.858
 2729SOL     OW 9085   6.010   0.205   0.407
 2729SOL    HW1 9086   6.051   0.252   0.329
 2729SOL    HW2 9087   5.932   0.258   0.440
 2730SOL     OW 9088   1.425   5.666   2.725
 2730SOL    HW1 9089   1.446   5.568   2.716
 2730SOL    HW2 9090   1.398   5.686   2.819
 2731SOL     OW 9091   3.130   4.088   4.877
 2731SOL    HW1 9092   3.084   4.000   4.890
 2731SOL    HW2 9093   3.062   4.159   4.861
 2732SOL     OW 9094   4.969   0.714   1.634
 2732SOL    HW1 9095   4.913   0.637   1.665
 2732SOL    HW2 9096   5.040   0.733   1.702
 2733SOL     OW 9097   0.665   6.398   0.342
 2733SOL    HW1 9098   0.648   6.331   0.270
 2733SOL    HW2 9099   0.666   6.490   0.302
 2734SOL     OW 9100   4.013   6.177   2.393
 2734SOL    HW1 9101   4.059   6.088   2.389
 2734SOL    HW2 9102   3.928   6.168   2.446
 2735SOL     OW 9103   0.747   1.696   1.922
 2735SOL    HW1 9104   0.791   1.606   1.915
 2735SOL    HW2 9105   0.673   1.702   1.855
 2736SOL     OW 9106   5.898   4.063   2.882
 2736SOL    HW1 9107   5.870   4.052   2.977
 2736SOL    HW2 9108   5.884   4.158   2.853
 2737SOL     OW 9109   2.958   0.568   5.432
 2737SOL    HW1 9110   2.987   0.632   5.361
 2737SOL    HW2 9111   2.903   0.495   5.391
 2738SOL     OW 9112   5.148   5.637   1.310
 2738SOL    HW1 9113   5.076   5.691   1.353
 2738SOL    HW2 9114   5.108   5.560   1.261
 2739SOL     OW 9115   6.558   5.758   1.595
 2739SOL    HW1 9116   6.561   5.811   1.680
 2739SOL    HW2 9117   6.507   5.674   1.610
 2740SOL     OW 9118   0.147   5.153   3.305
 2740SOL    HW1 9119   0.175   5.176   3.398
 2740SOL    HW2 9120   0.054   5.187   3.288
 2741SOL     OW 9121   0.992   6.631   5.875
 2741SOL    HW1 9122   1.052   6.710   5.863
 2741SOL    HW2 9123   0.984   6.581   5.788
 2742SOL     OW 9124   3.340   5.705   3.098
 2742SOL    HW1 9125   3.287   5.702   3.182
 2742SOL    HW2 9126   3.302   5.775   3.037
 2743SOL     OW 9127   4.672   1.880   2.687
 2743SOL    HW1 9128   4.750   1.942   2.684
 2743SOL    HW2 9129   4.658   1.839   2.596
 2744SOL     OW 9130   3.761   3.944   2.517
 2744SOL    HW1 9131   3.754   3.887   2.600
 2744SOL    HW2 9132   3.782   4.038   2.543
 2745SOL     OW 9133   0.518   5.681   0.226
 2745SOL    HW1 9134   0.469   5.599   0.197
 2745SOL    HW2 9135   0.452   5.751   0.254
 2746SOL     OW 9136   1.816   0.948   3.482
 2746SOL    HW1 9137   1.896   0.889   3.490
 2746SOL    HW2 9138   1.785   0.974   3.574
 2747SOL     OW 9139   4.258   4.572   0.559
 2747SOL    HW1 9140   4.227   4.478   0.547
 2747SOL    HW2 9141   4.292   4.584   0.652
 2748SOL     OW 9142   3.789   0.363   0.557
 2748SOL    HW1 9143   3.833   0.312   0.631
 2748SOL    HW2 9144   3.790   0.308   0.473
 2749SOL     OW 9145   3.309   1.564   0.651
 2749SOL    HW1 9146   3.216   1.598   0.666
 2749SOL    HW2 9147   3.355   1.621   0.583
 2750SOL     OW 9148   2.997   6.102   3.368
 2750SOL    HW1 9149   2.978   6.187   3.417
 2750SOL    HW2 9150   2.951   6.104   3.279
 2751SOL     OW 9151   6.244   4.652   1.057
 2751SOL    HW1 9152   6.144   4.654   1.054
 2751SOL    HW2 9153   6.281   4.725   1.000
 2752SOL     OW 9154   3.709   5.706   6.689
 2752SOL    HW1 9155   3.615   5.738   6.675
 2752SOL    HW2 9156   3.767   5.783   6.715
 2753SOL     OW 9157   5.170   5.846   5.441
 2753SOL    HW1 9158   5.230   5.878   5.515
 2753SOL    HW2 9159   5.222   5.842   5.355
 2754SOL     OW 9160   1.487   0.180   5.712
 2754SOL    HW1 9161   1.562   0.123   5.746
 2754SOL    HW2 9162   1.479   0.262   5.768
 2755SOL     OW 9163   3.791   0.177   2.222
 2755SOL    HW1 9164   3.878   0.189   2.270
 2755SOL    HW2 9165   3.727   0.249   2.249
 2756SOL     OW 9166   4.563   6.408   0.372
 2756SOL    HW1 9167   4.517   6.464   0.303
 2756SOL    HW2 9168   4.536   6.313   0.362
 2757SOL     OW 9169   0.663   5.045   0.818
 2757SOL    HW1 9170   0.707   5.008   0.900
 2757SOL    HW2 9171   0.582   4.990   0.797
 2758SOL     OW 9172   5.059   1.082   5.228
 2758SOL    HW1 9173   5.132   1.033   5.181
 2758SOL    HW2 9174   5.059   1.058   5.325
 2759SOL     OW 9175   4.813   4.819   4.206
 2759SOL    HW1 9176   4.720   4.836   4.172
 2759SOL    HW2 9177   4.841   4.895   4.265
 2760SOL     OW 9178   1.505   6.485   3.778
 2760SOL    HW1 9179   1.517   6.396   3.822
 2760SOL    HW2 9180   1.478   6.472   3.683
 2761SOL     OW 9181   2.405   5.055   4.080
 2761SOL    HW1 9182   2.408   5.128   4.149
 2761SOL    HW2 9183   2.397   4.967   4.127
 2762SOL     OW 9184   1.797   0.779   5.118
 2762SOL    HW1 9185   1.845   0.805   5.034
 2762SOL    HW2 9186   1.851   0.711   5.168
 2763SOL     OW 9187   4.532   1.432   2.355
 2763SOL    HW1 9188   4.449   1.417   2.410
 2763SOL    HW2 9189   4.612   1.411   2.411
 2764SOL     OW 9190   6.212   0.758   1.508
 2764SOL    HW1 9191   6.304   0.720   1.516
 2764SOL    HW2 9192   6.216   0.857   1.515
 2765SOL     OW 9193   5.204   1.748   2.601
 2765SOL    HW1 9194   5.223   1.841   2.632
 2765SOL    HW2 9195   5.125   1.712   2.651
 2766SOL     OW 9196   6.067   0.007   2.578
 2766SOL    HW1 9197   6.036   0.087   2.628
 2766SOL    HW2 9198   5.988   6.974   2.552
 2767SOL     OW 9199   6.084   4.509   6.005
 2767SOL    HW1 9200   6.080   4.414   5.974
 2767SOL    HW2 9201   6.179   4.537   6.015
 2768SOL     OW 9202   6.094   1.552   6.624
 2768SOL    HW1 9203   6.168   1.488   6.646
 2768SOL    HW2 9204   6.083   1.557   6.525
 2769SOL     OW 9205   1.198   4.241   1.435
 2769SOL    HW1 9206   1.298   4.241   1.428
 2769SOL    HW2 9207   1.171   4.269   1.527
 2770SOL     OW 9208   6.315   6.055   1.987
 2770SOL    HW1 9209   6.393   5.998   2.014
 2770SOL    HW2 9210   6.267   6.011   1.911
 2771SOL     OW 9211   5.013   1.292   1.242
 2771SOL    HW1 9212   4.993   1.195   1.245
 2771SOL    HW2 9213   5.041   1.318   1.149
 2772SOL     OW 9214   3.594   2.495   6.746
 2772SOL    HW1 9215   3.506   2.447   6.747
 2772SOL    HW2 9216   3.596   2.562   6.820
 2773SOL     OW 9217   3.188   4.554   0.860
 2773SOL    HW1 9218   3.225   4.585   0.947
 2773SOL    HW2 9219   3.147   4.631   0.811
 2774SOL     OW 9220   5.331   3.280   2.201
 2774SOL    HW1 9221   5.419   3.326   2.189
 2774SOL    HW2 9222   5.309   3.274   2.299
 2775SOL     OW 9223   6.743   0.033   1.839
 2775SOL    HW1 9224   6.819   0.018   1.776
 2775SOL    HW2 9225   6.658   0.043   1.787
 2776SOL     OW 9226   3.107   6.475   6.412
 2776SOL    HW1 9227   3.026   6.465   6.355
 2776SOL    HW2 9228   3.119   6.392   6.467
 2777SOL     OW 9229   2.186   2.011   3.814
 2777SOL    HW1 9230   2.186   1.943   3.741
 2777SOL    HW2 9231   2.106   1.997   3.873
 2778SOL     OW 9232   2.460   2.614   4.325
 2778SOL    HW1 9233   2.408   2.532   4.301
 2778SOL    HW2 9234   2.555   2.589   4.343
 2779SOL     OW 9235   6.302   1.597   0.707
 2779SOL    HW1 9236   6.319   1.678   0.651
 2779SOL    HW2 9237   6.226   1.615   0.770
 2780SOL     OW 9238   3.425   5.914   0.131
 2780SOL    HW1 9239   3.425   5.848   0.057
 2780SOL    HW2 9240   3.370   5.994   0.105
 2781SOL     OW 9241   4.709   4.633   6.879
 2781SOL    HW1 9242   4.688   4.731   6.888
 2781SOL    HW2 9243   4.659   4.595   6.802
 2782SOL     OW 9244   3.147   1.417   6.042
 2782SOL    HW1 9245   3.052   1.400   6.068
 2782SOL    HW2 9246   3.164   1.515   6.041
 2783SOL     OW 9247   0.242   4.170   5.773
 2783SOL    HW1 9248   0.161   4.158   5.830
 2783SOL    HW2 9249   0.231   4.251   5.717
 2784SOL     OW 9250   2.332   2.237   1.852
 2784SOL    HW1 9251   2.337   2.137   1.859
 2784SOL    HW2 9252   2.343   2.263   1.756
 2785SOL     OW 9253   5.793   1.192   1.471
 2785SOL    HW1 9254   5.758   1.109   1.512
 2785SOL    HW2 9255   5.893   1.187   1.464
 2786SOL     OW 9256   3.047   0.286   0.155
 2786SOL    HW1 9257   3.120   0.306   0.221
 2786SOL    HW2 9258   2.985   0.218   0.193
 2787SOL     OW 9259   1.851   3.304   5.754
 2787SOL    HW1 9260   1.828   3.234   5.821
 2787SOL    HW2 9261   1.879   3.388   5.802
 2788SOL     OW 9262   0.368   3.766   6.775
 2788SOL    HW1 9263   0.433   3.790   6.702
 2788SOL    HW2 9264   0.419   3.740   6.857
 2789SOL     OW 9265   0.101   2.800   4.149
 2789SOL    HW1 9266   0.168   2.865   4.185
 2789SOL    HW2 9267   0.008   2.835   4.165
 2790SOL     OW 9268   3.213   6.234   4.340
 2790SOL    HW1 9269   3.238   6.191   4.253
 2790SOL    HW2 9270   3.228   6.169   4.415
 2791SOL     OW 9271   2.199   2.943   2.525
 2791SOL    HW1 9272   2.281   2.891   2.549
 2791SOL    HW2 9273   2.127   2.924   2.592
 2792SOL     OW 9274   1.017   2.001   4.919
 2792SOL    HW1 9275   1.098   1.943   4.934
 2792SOL    HW2 9276   0.936   1.955   4.956
 2793SOL     OW 9277   5.026   0.864   4.151
 2793SOL    HW1 9278   4.945   0.920   4.135
 2793SOL    HW2 9279   5.040   0.853   4.249
 2794SOL     OW 9280   0.469   1.300   1.482
 2794SOL    HW1 9281   0.411   1.335   1.556
 2794SOL    HW2 9282   0.566   1.315   1.506
 2795SOL     OW 9283   1.749   4.614   1.466
 2795SOL    HW1 9284   1.742   4.553   1.388
 2795SOL    HW2 9285   1.845   4.624   1.493
 2796SOL     OW 9286   5.513   4.119   1.948
 2796SOL    HW1 9287   5.483   4.055   2.019
 2796SOL    HW2 9288   5.458   4.106   1.866
 2797SOL     OW 9289   4.550   4.555   4.744
 2797SOL    HW1 9290   4.600   4.640   4.760
 2797SOL    HW2 9291   4.472   4.550   4.806
 2798SOL     OW 9292   1.823   3.409   3.322
 2798SOL    HW1 9293   1.907   3.462   3.338
 2798SOL    HW2 9294   1.822   3.377   3.228
 2799SOL     OW 9295   6.340   5.562   5.952
 2799SOL    HW1 9296   6.361   5.475   5.907
 2799SOL    HW2 9297   6.251   5.556   5.998
 2800SOL     OW 9298   2.744   2.100   6.957
 2800SOL    HW1 9299   2.740   2.041   6.876
 2800SOL    HW2 9300   2.808   2.061   0.001
 2801SOL     OW 9301   4.511   5.617   2.581
 2801SOL    HW1 9302   4.461   5.629   2.495
 2801SOL    HW2 9303   4.566   5.699   2.598
 2802SOL     OW 9304   6.083   0.544   6.331
 2802SOL    HW1 9305   6.176   0.544   6.367
 2802SOL    HW2 9306   6.083   0.586   6.240
 2803SOL     OW 9307   2.304   5.834   5.516
 2803SOL    HW1 9308   2.210   5.833   5.548
 2803SOL    HW2 9309   2.344   5.925   5.530
 2804SOL     OW 9310   0.308   4.863   2.344
 2804SOL    HW1 9311   0.403   4.874   2.313
 2804SOL    HW2 9312   0.260   4.802   2.280
 2805SOL     OW 9313   5.405   3.818   6.439
 2805SOL    HW1 9314   5.432   3.825   6.343
 2805SOL    HW2 9315   5.373   3.725   6.458
 2806SOL     OW 9316   6.500   5.554   2.946
 2806SOL    HW1 9317   6.509   5.507   2.858
 2806SOL    HW2 9318   6.582   5.607   2.964
 2807SOL     OW 9319   4.294   4.635   4.048
 2807SOL    HW1 9320   4.340   4.643   4.135
 2807SOL    HW2 9321   4.197   4.656   4.059
 2808SOL     OW 9322   4.315   5.662   3.888
 2808SOL    HW1 9323   4.268   5.614   3.962
 2808SOL    HW2 9324   4.405   5.693   3.921
 2809SOL     OW 9325   5.332   3.051   0.461
 2809SOL    HW1 9326   5.397   3.016   0.528
 2809SOL    HW2 9327   5.262   2.982   0.443
 2810SOL     OW 9328   1.525   0.408   5.888
 2810SOL    HW1 9329   1.488   0.420   5.980
 2810SOL    HW2 9330   1.624   0.422   5.890
 2811SOL     OW 9331   0.052   0.986   4.056
 2811SOL    HW1 9332   6.976   0.977   4.042
 2811SOL    HW2 9333   0.089   1.050   3.988
 2812SOL     OW 9334   4.901   3.620   2.547
 2812SOL    HW1 9335   4.877   3.592   2.454
 2812SOL    HW2 9336   4.878   3.546   2.611
 2813SOL     OW 9337   6.217   1.969   6.251
 2813SOL    HW1 9338   6.304   2.009   6.220
 2813SOL    HW2 9339   6.147   1.984   6.181
 2814SOL     OW 9340   4.918   4.358   5.128
 2814SOL    HW1 9341   4.944   4.353   5.031
 2814SOL    HW2 9342   4.922   4.454   5.158
 2815SOL     OW 9343   6.987   1.604   4.691
 2815SOL    HW1 9344   6.993   1.515   4.646
 2815SOL    HW2 9345   0.032   1.608   4.765
 2816SOL     OW 9346   5.974   6.447   3.186
 2816SOL    HW1 9347   5.879   6.417   3.191
 2816SOL    HW2 9348   6.030   6.374   3.148
 2817SOL     OW 9349   1.201   1.633   1.269
 2817SOL    HW1 9350   1.225   1.536   1.276
 2817SOL    HW2 9351   1.110   1.649   1.308
 2818SOL     OW 9352   0.861   3.531   6.378
 2818SOL    HW1 9353   0.921   3.476   6.435
 2818SOL    HW2 9354   0.809   3.471   6.317
 2819SOL     OW 9355   5.987   3.254   1.046
 2819SOL    HW1 9356   6.032   3.218   1.127
 2819SOL    HW2 9357   5.982   3.354   1.052
 2820SOL     OW 9358   5.450   2.577   3.815
 2820SOL    HW1 9359   5.478   2.671   3.833
 2820SOL    HW2 9360   5.350   2.574   3.802
 2821SOL     OW 9361   1.635   3.211   3.911
 2821SOL    HW1 9362   1.623   3.307   3.934
 2821SOL    HW2 9363   1.579   3.189   3.831
 2822SOL     OW 9364   2.622   1.965   0.313
 2822SOL    HW1 9365   2.582   1.971   0.221
 2822SOL    HW2 9366   2.612   1.872   0.348
 2823SOL     OW 9367   2.131   6.477   3.992
 2823SOL    HW1 9368   2.088   6.400   4.038
 2823SOL    HW2 9369   2.196   6.444   3.924
 2824SOL     OW 9370   3.026   2.072   5.142
 2824SOL    HW1 9371   3.065   2.156   5.103
 2824SOL    HW2 9372   2.982   2.018   5.070
 2825SOL     OW 9373   6.193   6.048   0.926
 2825SOL    HW1 9374   6.143   5.962   0.935
 2825SOL    HW2 9375   6.287   6.029   0.897
 2826SOL     OW 9376   4.518   2.458   4.019
 2826SOL    HW1 9377   4.550   2.380   4.071
 2826SOL    HW2 9378   4.549   2.543   4.062
 2827SOL     OW 9379   5.753   0.982   6.729
 2827SOL    HW1 9380   5.687   0.911   6.704
 2827SOL    HW2 9381   5.797   0.957   6.815
 2828SOL     OW 9382   3.810   2.050   6.934
 2828SOL    HW1 9383   3.877   2.120   6.909
 2828SOL    HW2 9384   3.751   2.085   7.007
 2829SOL     OW 9385   2.437   0.259   6.717
 2829SOL    HW1 9386   2.501   0.237   6.791
 2829SOL    HW2 9387   2.421   0.358   6.715
 2830SOL     OW 9388   3.299   3.862   6.800
 2830SOL    HW1 9389   3.252   3.791   6.852
 2830SOL    HW2 9390   3.259   3.868   6.708
 2831SOL     OW 9391   6.647   5.866   4.118
 2831SOL    HW1 9392   6.688   5.920   4.045
 2831SOL    HW2 9393   6.638   5.922   4.200
 2832SOL     OW 9394   0.250   1.048   1.817
 2832SOL    HW1 9395   0.225   1.120   1.882
 2832SOL    HW2 9396   0.243   0.959   1.862
 2833SOL     OW 9397   6.402   3.088   2.331
 2833SOL    HW1 9398   6.419   3.145   2.410
 2833SOL    HW2 9399   6.489   3.061   2.289
 2834SOL     OW 9400   4.330   0.939   5.837
 2834SOL    HW1 9401   4.350   0.970   5.930
 2834SOL    HW2 9402   4.333   1.018   5.775
 2835SOL     OW 9403   0.610   6.404   3.430
 2835SOL    HW1 9404   0.536   6.336   3.430
 2835SOL    HW2 9405   0.598   6.466   3.353
 2836SOL     OW 9406   6.552   0.751   0.852
 2836SOL    HW1 9407   6.613   0.822   0.887
 2836SOL    HW2 9408   6.574   0.732   0.757
 2837SOL     OW 9409   6.581   2.837   3.642
 2837SOL    HW1 9410   6.556   2.929   3.673
 2837SOL    HW2 9411   6.580   2.835   3.542
 2838SOL     OW 9412   1.815   4.614   3.897
 2838SOL    HW1 9413   1.746   4.576   3.835
 2838SOL    HW2 9414   1.771   4.636   3.985
 2839SOL     OW 9415   5.183   2.416   1.161
 2839SOL    HW1 9416   5.095   2.456   1.187
 2839SOL    HW2 9417   5.167   2.333   1.107
 2840SOL     OW 9418   6.423   2.942   5.110
 2840SOL    HW1 9419   6.493   2.877   5.082
 2840SOL    HW2 9420   6.399   2.927   5.206
 2841SOL     OW 9421   0.411   6.399   1.620
 2841SOL    HW1 9422   0.327   6.450   1.637
 2841SOL    HW2 9423   0.487   6.463   1.608
 2842SOL     OW 9424   6.155   3.154   2.542
 2842SOL    HW1 9425   6.092   3.229   2.522
 2842SOL    HW2 9426   6.133   3.115   2.631
 2843SOL     OW 9427   4.414   1.351   4.459
 2843SOL    HW1 9428   4.366   1.436   4.440
 2843SOL    HW2 9429   4.385   1.314   4.547
 2844SOL     OW 9430   0.202   3.943   5.624
 2844SOL    HW1 9431   0.210   4.004   5.702
 2844SOL    HW2 9432   0.172   3.995   5.544
 2845SOL     OW 9433   6.575   4.220   6.028
 2845SOL    HW1 9434   6.542   4.129   6.053
 2845SOL    HW2 9435   6.666   4.212   5.987
 2846SOL     OW 9436   4.773   0.970   6.162
 2846SOL    HW1 9437   4.697   0.943   6.220
 2846SOL    HW2 9438   4.743   1.041   6.098
 2847SOL     OW 9439   4.780   4.532   3.887
 2847SOL    HW1 9440   4.754   4.489   3.800
 2847SOL    HW2 9441   4.706   4.520   3.953
 2848SOL     OW 9442   1.539   6.331   5.606
 2848SOL    HW1 9443   1.529   6.318   5.705
 2848SOL    HW2 9444   1.497   6.254   5.558
 2849SOL     OW 9445   2.203   3.017   1.462
 2849SOL    HW1 9446   2.231   2.960   1.385
 2849SOL    HW2 9447   2.239   2.978   1.547
 2850SOL     OW 9448   3.614   0.872   0.467
 2850SOL    HW1 9449   3.664   0.860   0.553
 2850SOL    HW2 9450   3.655   0.948   0.415
 2851SOL     OW 9451   2.324   4.916   6.276
 2851SOL    HW1 9452   2.277   4.999   6.247
 2851SOL    HW2 9453   2.394   4.892   6.209
 2852SOL     OW 9454   0.400   2.875   6.036
 2852SOL    HW1 9455   0.403   2.777   6.016
 2852SOL    HW2 9456   0.313   2.913   6.005
 2853SOL     OW 9457   3.445   2.706   1.303
 2853SOL    HW1 9458   3.352   2.712   1.340
 2853SOL    HW2 9459   3.490   2.624   1.339
 2854SOL     OW 9460   1.151   0.997   3.849
 2854SOL    HW1 9461   1.143   0.915   3.791
 2854SOL    HW2 9462   1.124   0.973   3.942
 2855SOL     OW 9463   2.765   1.153   5.145
 2855SOL    HW1 9464   2.780   1.244   5.185
 2855SOL    HW2 9465   2.839   1.132   5.082
 2856SOL     OW 9466   2.318   1.845   5.384
 2856SOL    HW1 9467   2.247   1.910   5.414
 2856SOL    HW2 9468   2.382   1.892   5.323
 2857SOL     OW 9469   3.738   3.830   3.352
 2857SOL    HW1 9470   3.829   3.792   3.363
 2857SOL    HW2 9471   3.744   3.930   3.349
 2858SOL     OW 9472   5.503   2.233   2.828
 2858SOL    HW1 9473   5.536   2.157   2.771
 2858SOL    HW2 9474   5.423   2.202   2.880
 2859SOL     OW 9475   5.430   6.304   0.659
 2859SOL    HW1 9476   5.354   6.252   0.621
 2859SOL    HW2 9477   5.490   6.335   0.586
 2860SOL     OW 9478   4.220   2.471   1.103
 2860SOL    HW1 9479   4.188   2.379   1.079
 2860SOL    HW2 9480   4.184   2.497   1.193
 2861SOL     OW 9481   3.732   5.157   5.964
 2861SOL    HW1 9482   3.736   5.076   5.906
 2861SOL    HW2 9483   3.806   5.154   6.032
 2862SOL     OW 9484   6.183   0.236   4.422
 2862SOL    HW1 9485   6.133   0.304   4.368
 2862SOL    HW2 9486   6.263   0.204   4.370
 2863SOL     OW 9487   6.881   1.651   0.056
 2863SOL    HW1 9488   6.859   1.667   6.982
 2863SOL    HW2 9489   6.804   1.607   0.101
 2864SOL     OW 9490   3.423   1.575   0.103
 2864SOL    HW1 9491   3.381   1.505   0.046
 2864SOL    HW2 9492   3.514   1.545   0.131
 2865SOL     OW 9493   4.646   5.002   5.154
 2865SOL    HW1 9494   4.547   4.999   5.142
 2865SOL    HW2 9495   4.688   5.046   5.074
 2866SOL     OW 9496   6.887   6.859   6.546
 2866SOL    HW1 9497   6.856   6.947   6.583
 2866SOL    HW2 9498   6.811   6.812   6.503
 2867SOL     OW 9499   6.644   3.865   3.132
 2867SOL    HW1 9500   6.670   3.786   3.077
 2867SOL    HW2 9501   6.709   3.939   3.118
 2868SOL     OW 9502   1.455   4.668   5.140
 2868SOL    HW1 9503   1.527   4.627   5.196
 2868SOL    HW2 9504   1.482   4.760   5.113
 2869SOL     OW 9505   5.979   0.641   2.592
 2869SOL    HW1 9506   5.972   0.637   2.692
 2869SOL    HW2 9507   6.033   0.564   2.559
 2870SOL     OW 9508   5.067   2.074   2.183
 2870SOL    HW1 9509   5.054   2.135   2.104
 2870SOL    HW2 9510   5.021   1.987   2.165
 2871SOL     OW 9511   2.160   1.465   6.055
 2871SOL    HW1 9512   2.245   1.516   6.066
 2871SOL    HW2 9513   2.159   1.387   6.118
 2872SOL     OW 9514   2.326   6.151   3.827
 2872SOL    HW1 9515   2.392   6.201   3.884
 2872SOL    HW2 9516   2.310   6.202   3.742
 2873SOL     OW 9517   6.877   5.564   1.665
 2873SOL    HW1 9518   6.894   5.663   1.661
 2873SOL    HW2 9519   6.955   5.519   1.709
 2874SOL     OW 9520   5.858   1.548   2.894
 2874SOL    HW1 9521   5.773   1.528   2.943
 2874SOL    HW2 9522   5.837   1.579   2.802
 2875SOL     OW 9523   2.858   5.202   1.119
 2875SOL    HW1 9524   2.937   5.214   1.179
 2875SOL    HW2 9525   2.821   5.291   1.095
 2876SOL     OW 9526   6.780   1.716   2.674
 2876SOL    HW1 9527   6.790   1.764   2.587
 2876SOL    HW2 9528   6.714   1.641   2.664
 2877SOL     OW 9529   2.216   3.183   6.032
 2877SOL    HW1 9530   2.177   3.268   5.996
 2877SOL    HW2 9531   2.197   3.108   5.969
 2878SOL     OW 9532   3.486   4.857   0.082
 2878SOL    HW1 9533   3.561   4.838   0.145
 2878SOL    HW2 9534   3.523   4.889   7.018
 2879SOL     OW 9535   4.546   5.137   0.175
 2879SOL    HW1 9536   4.475   5.182   0.229
 2879SOL    HW2 9537   4.631   5.132   0.228
 2880SOL     OW 9538   1.165   6.885   1.744
 2880SOL    HW1 9539   1.241   6.851   1.799
 2880SOL    HW2 9540   1.200   6.928   1.661
 2881SOL     OW 9541   0.569   0.002   6.858
 2881SOL    HW1 9542   0.603   6.931   6.866
 2881SOL    HW2 9543   0.575   0.032   6.763
 2882SOL     OW 9544   6.910   3.089   3.758
 2882SOL    HW1 9545   6.960   3.004   3.741
 2882SOL    HW2 9546   6.948   3.163   3.702
 2883SOL     OW 9547   4.859   6.242   2.721
 2883SOL    HW1 9548   4.836   6.327   2.674
 2883SOL    HW2 9549   4.935   6.197   2.674
 2884SOL     OW 9550   1.774   5.858   3.022
 2884SOL    HW1 9551   1.722   5.775   3.043
 2884SOL    HW2 9552   1.764   5.880   2.925
 2885SOL     OW 9553   0.653   2.658   3.801
 2885SOL    HW1 9554   0.590   2.706   3.741
 2885SOL    HW2 9555   0.672   2.567   3.763
 2886SOL     OW 9556   2.456   2.905   6.165
 2886SOL    HW1 9557   2.484   2.809   6.167
 2886SOL    HW2 9558   2.537   2.963   6.158
 2887SOL     OW 9559   2.450   1.405   5.138
 2887SOL    HW1 9560   2.385   1.329   5.130
 2887SOL    HW2 9561   2.404   1.490   5.112
 2888SOL     OW 9562   0.044   5.005   7.000
 2888SOL    HW1 9563   0.118   4.954   0.021
 2888SOL    HW2 9564   0.077   5.096   6.976
 2889SOL     OW 9565   0.449   6.871   1.296
 2889SOL    HW1 9566   0.453   6.926   1.379
 2889SOL    HW2 9567   0.471   6.927   1.217
 2890SOL     OW 9568   2.880   6.960   0.635
 2890SOL    HW1 9569   2.833   6.984   0.720
 2890SOL    HW2 9570   2.955   0.000   0.619
 2891SOL     OW 9571   2.651   4.600   4.190
 2891SOL    HW1 9572   2.731   4.656   4.212
 2891SOL    HW2 9573   2.652   4.517   4.245
 2892SOL     OW 9574   4.374   4.242   5.810
 2892SOL    HW1 9575   4.455   4.194   5.777
 2892SOL    HW2 9576   4.393   4.340   5.816
 2893SOL     OW 9577   3.125   0.789   5.906
 2893SOL    HW1 9578   3.088   0.732   5.980
 2893SOL    HW2 9579   3.097   0.751   5.818
 2894SOL     OW 9580   3.462   2.509   1.001
 2894SOL    HW1 9581   3.452   2.461   1.088
 2894SOL    HW2 9582   3.385   2.486   0.941
 2895SOL     OW 9583   3.109   3.269   6.987
 2895SOL    HW1 9584   3.027   3.306   0.008
 2895SOL    HW2 9585   3.175   3.243   0.034
 2896SOL     OW 9586   2.509   5.553   0.695
 2896SOL    HW1 9587   2.423   5.593   0.726
 2896SOL    HW2 9588   2.498   5.518   0.602
 2897SOL     OW 9589   1.721   6.553   3.934
 2897SOL    HW1 9590   1.649   6.533   3.868
 2897SOL    HW2 9591   1.712   6.493   4.013
 2898SOL     OW 9592   2.591   5.000   2.583
 2898SOL    HW1 9593   2.570   4.938   2.507
 2898SOL    HW2 9594   2.674   5.052   2.563
 2899SOL     OW 9595   6.732   0.915   0.538
 2899SOL    HW1 9596   6.826   0.950   0.544
 2899SOL    HW2 9597   6.668   0.986   0.571
 2900SOL     OW 9598   2.654   5.730   6.135
 2900SOL    HW1 9599   2.621   5.689   6.220
 2900SOL    HW2 9600   2.714   5.665   6.088
 2901SOL     OW 9601   2.868   0.369   1.662
 2901SOL    HW1 9602   2.919   0.284   1.644
 2901SOL    HW2 9603   2.918   0.446   1.621
 2902SOL     OW 9604   5.667   5.228   1.645
 2902SOL    HW1 9605   5.754   5.241   1.598
 2902SOL    HW2 9606   5.661   5.134   1.679
 2903SOL     OW 9607   2.700   2.348   1.754
 2903SOL    HW1 9608   2.623   2.407   1.775
 2903SOL    HW2 9609   2.773   2.362   1.822
 2904SOL     OW 9610   1.949   3.180   4.432
 2904SOL    HW1 9611   2.048   3.195   4.440
 2904SOL    HW2 9612   1.919   3.202   4.339
 2905SOL     OW 9613   1.134   1.866   1.534
 2905SOL    HW1 9614   1.179   1.781   1.506
 2905SOL    HW2 9615   1.195   1.943   1.517
 2906SOL     OW 9616   5.249   5.776   2.338
 2906SOL    HW1 9617   5.154   5.747   2.328
 2906SOL    HW2 9618   5.295   5.770   2.250
 2907SOL     OW 9619   6.473   0.446   4.314
 2907SOL    HW1 9620   6.572   0.454   4.329
 2907SOL    HW2 9621   6.424   0.488   4.390
 2908SOL     OW 9622   4.071   6.273   4.953
 2908SOL    HW1 9623   4.088   6.222   5.037
 2908SOL    HW2 9624   4.130   6.237   4.880
 2909SOL     OW 9625   1.392   6.009   5.609
 2909SOL    HW1 9626   1.350   5.968   5.690
 2909SOL    HW2 9627   1.331   5.997   5.530
 2910SOL     OW 9628   4.845   6.246   5.695
 2910SOL    HW1 9629   4.846   6.208   5.602
 2910SOL    HW2 9630   4.828   6.172   5.761
 2911SOL     OW 9631   2.165   3.947   3.599
 2911SOL    HW1 9632   2.130   4.012   3.532
 2911SOL    HW2 9633   2.243   3.987   3.647
 2912SOL     OW 9634   2.769   5.082   0.624
 2912SOL    HW1 9635   2.828   5.109   0.700
 2912SOL    HW2 9636   2.707   5.157   0.602
 2913SOL     OW 9637   1.258   3.355   2.996
 2913SOL    HW1 9638   1.307   3.281   2.950
 2913SOL    HW2 9639   1.220   3.321   3.082
 2914SOL     OW 9640   5.062   5.150   5.489
 2914SOL    HW1 9641   5.161   5.137   5.484
 2914SOL    HW2 9642   5.019   5.105   5.411
 2915SOL     OW 9643   4.112   1.219   4.147
 2915SOL    HW1 9644   4.023   1.181   4.121
 2915SOL    HW2 9645   4.110   1.318   4.137
 2916SOL     OW 9646   4.573   5.747   4.279
 2916SOL    HW1 9647   4.527   5.775   4.195
 2916SOL    HW2 9648   4.539   5.657   4.307
 2917SOL     OW 9649   4.325   1.158   2.519
 2917SOL    HW1 9650   4.266   1.131   2.443
 2917SOL    HW2 9651   4.312   1.255   2.539
 2918SOL     OW 9652   0.578   3.328   3.764
 2918SOL    HW1 9653   0.558   3.292   3.673
 2918SOL    HW2 9654   0.661   3.284   3.799
 2919SOL     OW 9655   6.542   6.031   0.074
 2919SOL    HW1 9656   6.482   5.993   0.144
 2919SOL    HW2 9657   6.497   6.107   0.028
 2920SOL     OW 9658   4.345   2.382   2.756
 2920SOL    HW1 9659   4.395   2.420   2.833
 2920SOL    HW2 9660   4.336   2.451   2.685
 2921SOL     OW 9661   0.456   0.003   1.528
 2921SOL    HW1 9662   0.394   6.984   1.595
 2921SOL    HW2 9663   0.551   7.013   1.557
 2922SOL     OW 9664   4.183   6.297   5.392
 2922SOL    HW1 9665   4.124   6.345   5.457
 2922SOL    HW2 9666   4.253   6.245   5.442
 2923SOL     OW 9667   0.124   4.244   0.150
 2923SOL    HW1 9668   0.213   4.262   0.193
 2923SOL    HW2 9669   0.086   4.330   0.115
 2924SOL     OW 9670   6.141   0.253   5.660
 2924SOL    HW1 9671   6.135   0.277   5.757
 2924SOL    HW2 9672   6.234   0.221   5.639
 2925SOL     OW 9673   5.784   3.632   1.333
 2925SOL    HW1 9674   5.847   3.704   1.303
 2925SOL    HW2 9675   5.703   3.674   1.374
 2926SOL     OW 9676   6.874   1.331   3.796
 2926SOL    HW1 9677   6.777   1.307   3.791
 2926SOL    HW2 9678   6.884   1.421   3.839
 2927SOL     OW 9679   0.551   2.950   2.570
 2927SOL    HW1 9680   0.500   2.960   2.485
 2927SOL    HW2 9681   0.579   2.855   2.582
 2928SOL     OW 9682   5.737   6.335   1.233
 2928SOL    HW1 9683   5.696   6.348   1.323
 2928SOL    HW2 9684   5.761   6.239   1.220
 2929SOL     OW 9685   0.998   0.364   5.680
 2929SOL    HW1 9686   1.082   0.399   5.722
 2929SOL    HW2 9687   0.996   0.391   5.583
 2930SOL     OW 9688   3.549   6.433   4.641
 2930SOL    HW1 9689   3.521   6.511   4.698
 2930SOL    HW2 9690   3.557   6.351   4.698
 2931SOL     OW 9691   3.568   5.420   6.835
 2931SOL    HW1 9692   3.655   5.456   6.802
 2931SOL    HW2 9693   3.584   5.337   6.888
 2932SOL     OW 9694   1.139   4.229   2.045
 2932SOL    HW1 9695   1.150   4.328   2.037
 2932SOL    HW2 9696   1.162   4.199   2.138
 2933SOL     OW 9697   4.827   1.474   3.304
 2933SOL    HW1 9698   4.898   1.403   3.304
 2933SOL    HW2 9699   4.759   1.452   3.234
 2934SOL     OW 9700   2.350   0.914   0.222
 2934SOL    HW1 9701   2.407   0.907   0.140
 2934SOL    HW2 9702   2.408   0.924   0.302
 2935SOL     OW 9703   6.731   2.185   1.092
 2935SOL    HW1 9704   6.691   2.095   1.110
 2935SOL    HW2 9705   6.776   2.183   1.002
 2936SOL     OW 9706   3.602   6.010   0.999
 2936SOL    HW1 9707   3.581   5.979   0.906
 2936SOL    HW2 9708   3.652   6.096   0.994
 2937SOL     OW 9709   2.491   4.182   0.429
 2937SOL    HW1 9710   2.450   4.159   0.341
 2937SOL    HW2 9711   2.591   4.180   0.421
 2938SOL     OW 9712   5.279   4.873   5.360
 2938SOL    HW1 9713   5.244   4.955   5.316
 2938SOL    HW2 9714   5.264   4.794   5.301
 2939SOL     OW 9715   7.006   6.732   5.813
 2939SOL    HW1 9716   6.930   6.789   5.782
 2939SOL    HW2 9717   0.051   6.725   5.741
 2940SOL     OW 9718   4.189   0.714   5.091
 2940SOL    HW1 9719   4.254   0.681   5.159
 2940SOL    HW2 9720   4.103   0.662   5.099
 2941SOL     OW 9721   3.180   1.532   5.513
 2941SOL    HW1 9722   3.100   1.590   5.530
 2941SOL    HW2 9723   3.167   1.444   5.559
 2942SOL     OW 9724   3.542   6.067   4.543
 2942SOL    HW1 9725   3.614   6.067   4.474
 2942SOL    HW2 9726   3.574   6.116   4.624
 2943SOL     OW 9727   5.531   3.837   2.828
 2943SOL    HW1 9728   5.498   3.843   2.922
 2943SOL    HW2 9729   5.484   3.764   2.780
 2944SOL     OW 9730   4.195   5.934   6.807
 2944SOL    HW1 9731   4.103   5.925   6.769
 2944SOL    HW2 9732   4.190   5.972   6.900
 2945SOL     OW 9733   2.954   3.839   3.139
 2945SOL    HW1 9734   2.940   3.802   3.047
 2945SOL    HW2 9735   3.015   3.918   3.135
 2946SOL     OW 9736   0.032   5.789   6.031
 2946SOL    HW1 9737   0.093   5.794   6.110
 2946SOL    HW2 9738   0.085   5.762   5.950
 2947SOL     OW 9739   0.122   5.151   0.273
 2947SOL    HW1 9740   0.114   5.249   0.256
 2947SOL    HW2 9741   0.218   5.123   0.266
 2948SOL     OW 9742   5.714   4.315   5.233
 2948SOL    HW1 9743   5.648   4.245   5.260
 2948SOL    HW2 9744   5.688   4.353   5.144
 2949SOL     OW 9745   1.073   6.207   0.915
 2949SOL    HW1 9746   1.136   6.132   0.894
 2949SOL    HW2 9747   1.124   6.293   0.923
 2950SOL     OW 9748   5.198   3.895   4.473
 2950SOL    HW1 9749   5.197   3.831   4.396
 2950SOL    HW2 9750   5.118   3.880   4.531
 2951SOL     OW 9751   5.944   1.016   1.132
 2951SOL    HW1 9752   5.970   1.110   1.152
 2951SOL    HW2 9753   5.915   0.970   1.216
 2952SOL     OW 9754   1.490   4.080   2.201
 2952SOL    HW1 9755   1.517   4.157   2.142
 2952SOL    HW2 9756   1.544   4.000   2.177
 2953SOL     OW 9757   5.613   0.841   2.374
 2953SOL    HW1 9758   5.518   0.871   2.383
 2953SOL    HW2 9759   5.673   0.902   2.426
 2954SOL     OW 9760   5.889   6.175   1.609
 2954SOL    HW1 9761   5.825   6.107   1.573
 2954SOL    HW2 9762   5.954   6.201   1.539
 2955SOL     OW 9763   6.439   2.634   0.608
 2955SOL    HW1 9764   6.411   2.720   0.650
 2955SOL    HW2 9765   6.362   2.570   0.609
 2956SOL     OW 9766   6.529   5.462   2.667
 2956SOL    HW1 9767   6.438   5.453   2.626
 2956SOL    HW2 9768   6.555   5.376   2.711
 2957SOL     OW 9769   0.923   4.530   1.498
 2957SOL    HW1 9770   0.941   4.512   1.402
 2957SOL    HW2 9771   0.956   4.621   1.522
 2958SOL     OW 9772   3.480   5.072   6.591
 2958SOL    HW1 9773   3.539   5.042   6.516
 2958SOL    HW2 9774   3.521   5.046   6.679
 2959SOL     OW 9775   4.519   5.882   6.974
 2959SOL    HW1 9776   4.422   5.900   6.988
 2959SOL    HW2 9777   4.568   5.900   0.037
 2960SOL     OW 9778   2.701   1.691   6.613
 2960SOL    HW1 9779   2.646   1.630   6.671
 2960SOL    HW2 9780   2.693   1.784   6.648
 2961SOL     OW 9781   5.295   2.250   4.379
 2961SOL    HW1 9782   5.202   2.217   4.363
 2961SOL    HW2 9783   5.355   2.173   4.402
 2962SOL     OW 9784   3.772   1.135   3.215
 2962SOL    HW1 9785   3.764   1.040   3.184
 2962SOL    HW2 9786   3.806   1.192   3.141
 2963SOL     OW 9787   2.122   3.130   5.519
 2963SOL    HW1 9788   2.192   3.200   5.503
 2963SOL    HW2 9789   2.139   3.052   5.458
 2964SOL     OW 9790   2.759   6.181   0.251
 2964SOL    HW1 9791   2.783   6.200   0.346
 2964SOL    HW2 9792   2.838   6.144   0.203
 2965SOL     OW 9793   0.412   2.279   5.803
 2965SOL    HW1 9794   0.455   2.335   5.732
 2965SOL    HW2 9795   0.403   2.332   5.887
 2966SOL     OW 9796   4.641   4.411   3.454
 2966SOL    HW1 9797   4.613   4.382   3.546
 2966SOL    HW2 9798   4.734   4.448   3.458
 2967SOL     OW 9799   5.710   2.467   3.859
 2967SOL    HW1 9800   5.616   2.486   3.829
 2967SOL    HW2 9801   5.735   2.374   3.833
 2968SOL     OW 9802   6.733   4.044   3.617
 2968SOL    HW1 9803   6.650   4.094   3.589
 2968SOL    HW2 9804   6.784   4.016   3.536
 2969SOL     OW 9805   4.503   1.117   4.355
 2969SOL    HW1 9806   4.426   1.078   4.303
 2969SOL    HW2 9807   4.472   1.199   4.403
 2970SOL     OW 9808   0.974   4.885   6.424
 2970SOL    HW1 9809   0.917   4.935   6.359
 2970SOL    HW2 9810   1.070   4.910   6.411
 2971SOL     OW 9811   5.291   3.359   3.400
 2971SOL    HW1 9812   5.256   3.356   3.307
 2971SOL    HW2 9813   5.372   3.419   3.404
 2972SOL     OW 9814   0.863   4.015   6.029
 2972SOL    HW1 9815   0.932   4.054   6.090
 2972SOL    HW2 9816   0.899   3.931   5.987
 2973SOL     OW 9817   5.531   0.010   4.600
 2973SOL    HW1 9818   5.514   0.057   4.686
 2973SOL    HW2 9819   5.461   6.962   4.586
 2974SOL     OW 9820   0.196   4.230   2.438
 2974SOL    HW1 9821   0.267   4.180   2.488
 2974SOL    HW2 9822   0.238   4.276   2.360
 2975SOL     OW 9823   0.289   1.386   4.125
 2975SOL    HW1 9824   0.198   1.404   4.161
 2975SOL    HW2 9825   0.339   1.327   4.188
 2976SOL     OW 9826   2.812   6.043   1.604
 2976SOL    HW1 9827   2.819   6.008   1.697
 2976SOL    HW2 9828   2.745   5.987   1.553
 2977SOL     OW 9829   3.823   6.097   4.477
 2977SOL    HW1 9830   3.816   6.196   4.461
 2977SOL    HW2 9831   3.845   6.051   4.392
 2978SOL     OW 9832   3.412   6.173   0.265
 2978SOL    HW1 9833   3.428   6.257   0.316
 2978SOL    HW2 9834   3.462   6.097   0.307
 2979SOL     OW 9835   3.105   1.196   3.530
 2979SOL    HW1 9836   3.021   1.142   3.527
 2979SOL    HW2 9837   3.119   1.241   3.442
 2980SOL     OW 9838   6.690   6.247   3.835
 2980SOL    HW1 9839   6.592   6.238   3.856
 2980SOL    HW2 9840   6.720   6.341   3.853
 2981SOL     OW 9841   1.779   1.632   5.505
 2981SOL    HW1 9842   1.767   1.731   5.510
 2981SOL    HW2 9843   1.835   1.601   5.582
 2982SOL     OW 9844   4.950   6.607   3.164
 2982SOL    HW1 9845   4.918   6.648   3.249
 2982SOL    HW2 9846   5.023   6.663   3.125
 2983SOL     OW 9847   0.008   0.026   2.480
 2983SOL    HW1 9848   6.986   0.004   2.394
 2983SOL    HW2 9849   0.086   0.086   2.463
 2984SOL     OW 9850   6.146   5.160   1.613
 2984SOL    HW1 9851   6.205   5.204   1.681
 2984SOL    HW2 9852   6.095   5.086   1.657
 2985SOL     OW 9853   6.494   1.636   3.170
 2985SOL    HW1 9854   6.546   1.648   3.086
 2985SOL    HW2 9855   6.525   1.554   3.218
 2986SOL     OW 9856   2.316   3.816   5.348
 2986SOL    HW1 9857   2.357   3.867   5.273
 2986SOL    HW2 9858   2.309   3.720   5.324
 2987SOL     OW 9859   4.586   1.725   4.498
 2987SOL    HW1 9860   4.667   1.681   4.461
 2987SOL    HW2 9861   4.613   1.809   4.546
 2988SOL     OW 9862   0.657   0.231   1.733
 2988SOL    HW1 9863   0.615   0.174   1.804
 2988SOL    HW2 9864   0.629   0.326   1.745
 2989SOL     OW 9865   6.644   5.168   0.749
 2989SOL    HW1 9866   6.712   5.143   0.680
 2989SOL    HW2 9867   6.652   5.106   0.828
 2990SOL     OW 9868   3.134   0.248   0.925
 2990SOL    HW1 9869   3.229   0.275   0.910
 2990SOL    HW2 9870   3.074   0.316   0.883
 2991SOL     OW 9871   6.315   4.764   0.334
 2991SOL    HW1 9872   6.305   4.847   0.389
 2991SOL    HW2 9873   6.338   4.790   0.240
 2992SOL     OW 9874   4.293   4.533   6.784
 2992SOL    HW1 9875   4.312   4.629   6.765
 2992SOL    HW2 9876   4.222   4.526   6.854
 2993SOL     OW 9877   1.922   5.598   0.124
 2993SOL    HW1 9878   1.826   5.623   0.141
 2993SOL    HW2 9879   1.929   5.500   0.107
 2994SOL     OW 9880   3.626   6.202   0.071
 2994SOL    HW1 9881   3.706   6.200   0.131
 2994SOL    HW2 9882   3.549   6.242   0.120
 2995SOL     OW 9883   2.720   0.687   5.593
 2995SOL    HW1 9884   2.721   0.746   5.512
 2995SOL    HW2 9885   2.803   0.630   5.594
 2996SOL     OW 9886   4.186   5.836   5.589
 2996SOL    HW1 9887   4.207   5.866   5.496
 2996SOL    HW2 9888   4.092   5.861   5.612
 2997SOL     OW 9889   4.764   6.434   0.186
 2997SOL    HW1 9890   4.705   6.402   0.261
 2997SOL    HW2 9891   4.794   6.528   0.205
 2998SOL     OW 9892   6.175   5.168   5.119
 2998SOL    HW1 9893   6.096   5.200   5.171
 2998SOL    HW2 9894   6.253   5.156   5.180
 2999SOL     OW 9895   2.980   6.797   2.164
 2999SOL    HW1 9896   2.938   6.707   2.170
 2999SOL    HW2 9897   3.060   6.802   2.223
 3000SOL     OW 9898   1.436   2.309   4.359
 3000SOL    HW1 9899   1.353   2.300   4.415
 3000SOL    HW2 9900   1.428   2.389   4.300
 3001SOL     OW 9901   4.683   6.771   5.810
 3001SOL    HW1 9902   4.757   6.830   5.776
 3001SOL    HW2 9903   4.644   6.719   5.734
 3002SOL     OW 9904   3.123   0.108   5.636
 3002SOL    HW1 9905   3.047   0.046   5.656
 3002SOL    HW2 9906   3.087   0.197   5.610
 3003SOL     OW 9907   2.267   6.878   6.479
 3003SOL    HW1 9908   2.331   6.919   6.544
 3003SOL    HW2 9909   2.179   6.925   6.486
 3004SOL     OW 9910   6.301   3.651   5.155
 3004SOL    HW1 9911   6.354   3.566   5.150
 3004SOL    HW2 9912   6.203   3.629   5.151
 3005SOL     OW 9913   4.578   2.336   1.529
 3005SOL    HW1 9914   4.562   2.411   1.464
 3005SOL    HW2 9915   4.556   2.249   1.485
 3006SOL     OW 9916   5.030   0.629   0.986
 3006SOL    HW1 9917   4.949   0.641   1.043
 3006SOL    HW2 9918   5.036   0.705   0.921
 3007SOL     OW 9919   6.504   5.505   2.012
 3007SOL    HW1 9920   6.443   5.576   1.975
 3007SOL    HW2 9921   6.582   5.492   1.951
 3008SOL     OW 9922   4.348   5.965   5.768
 3008SOL    HW1 9923   4.294   5.886   5.738
 3008SOL    HW2 9924   4.377   6.018   5.689
 3009SOL     OW 9925   1.017   0.927   2.601
 3009SOL    HW1 9926   1.071   0.918   2.685
 3009SOL    HW2 9927   1.066   0.885   2.525
 3010SOL     OW 9928   3.004   6.597   2.655
 3010SOL    HW1 9929   3.077   6.540   2.691
 3010SOL    HW2 9930   2.974   6.562   2.566
 3011SOL     OW 9931   5.605   0.560   0.083
 3011SOL    HW1 9932   5.701   0.548   0.108
 3011SOL    HW2 9933   5.595   0.550   7.007
 3012SOL     OW 9934   0.267   4.671   2.139
 3012SOL    HW1 9935   0.350   4.618   2.121
 3012SOL    HW2 9936   0.214   4.679   2.055
 3013SOL     OW 9937   6.128   3.914   2.260
 3013SOL    HW1 9938   6.069   3.875   2.331
 3013SOL    HW2 9939   6.195   3.974   2.302
 3014SOL     OW 9940   5.221   0.465   5.332
 3014SOL    HW1 9941   5.129   0.483   5.297
 3014SOL    HW2 9942   5.245   0.536   5.399
 3015SOL     OW 9943   3.244   2.327   6.973
 3015SOL    HW1 9944   3.274   2.364   6.885
 3015SOL    HW2 9945   3.147   2.350   6.988
 3016SOL     OW 9946   3.935   6.121   3.760
 3016SOL    HW1 9947   4.003   6.048   3.762
 3016SOL    HW2 9948   3.934   6.163   3.669
 3017SOL     OW 9949   6.942   6.101   0.954
 3017SOL    HW1 9950   0.015   6.106   0.981
 3017SOL    HW2 9951   6.921   6.176   0.891
 3018SOL     OW 9952   3.793   6.903   6.254
 3018SOL    HW1 9953   3.727   6.892   6.180
 3018SOL    HW2 9954   3.838   6.816   6.272
 3019SOL     OW 9955   5.147   6.714   2.133
 3019SOL    HW1 9956   5.149   6.764   2.220
 3019SOL    HW2 9957   5.073   6.647   2.135
 3020SOL     OW 9958   2.082   1.394   1.262
 3020SOL    HW1 9959   2.014   1.438   1.320
 3020SOL    HW2 9960   2.062   1.296   1.256
 3021SOL     OW 9961   3.917   1.021   6.247
 3021SOL    HW1 9962   4.014   0.999   6.262
 3021SOL    HW2 9963   3.862   0.938   6.258
 3022SOL     OW 9964   5.660   6.953   1.698
 3022SOL    HW1 9965   5.601   6.873   1.716
 3022SOL    HW2 9966   5.690   6.951   1.603
 3023SOL     OW 9967   5.368   0.354   1.363
 3023SOL    HW1 9968   5.302   0.280   1.372
 3023SOL    HW2 9969   5.393   0.365   1.266
 3024SOL     OW 9970   2.799   6.745   6.889
 3024SOL    HW1 9971   2.782   6.702   6.978
 3024SOL    HW2 9972   2.800   6.675   6.818
 3025SOL     OW 9973   1.685   2.125   1.707
 3025SOL    HW1 9974   1.767   2.067   1.711
 3025SOL    HW2 9975   1.712   2.221   1.707
 3026SOL     OW 9976   1.751   4.823   0.537
 3026SOL    HW1 9977   1.676   4.809   0.472
 3026SOL    HW2 9978   1.824   4.876   0.492
 3027SOL     OW 9979   1.649   1.456   4.258
 3027SOL    HW1 9980   1.601   1.509   4.189
 3027SOL    HW2 9981   1.717   1.397   4.214
 3028SOL     OW 9982   1.581   1.019   4.712
 3028SOL    HW1 9983   1.585   0.947   4.780
 3028SOL    HW2 9984   1.501   1.006   4.654
 3029SOL     OW 9985   5.442   5.329   5.970
 3029SOL    HW1 9986   5.375   5.276   5.918
 3029SOL    HW2 9987   5.441   5.424   5.937
 3030SOL     OW 9988   1.261   1.481   5.789
 3030SOL    HW1 9989   1.210   1.422   5.726
 3030SOL    HW2 9990   1.206   1.500   5.870
 3031SOL     OW 9991   1.241   5.548   6.668
 3031SOL    HW1 9992   1.331   5.572   6.632
 3031SOL    HW2 9993   1.251   5.511   6.760
 3032SOL     OW 9994   4.091   0.709   5.394
 3032SOL    HW1 9995   4.187   0.724   5.370
 3032SOL    HW2 9996   4.042   0.673   5.315
 3033SOL     OW 9997   5.250   4.984   6.388
 3033SOL    HW1 9998   5.165   5.038   6.398
 3033SOL    HW2 9999   5.326   5.034   6.429
 3034SOL     OW10000   2.410   0.174   4.159
 3034SOL    HW110001   2.503   0.183   4.193
 3034SOL    HW210002   2.348   0.229   4.215
 3035SOL     OW10003   6.460   6.832   6.912
 3035SOL    HW110004   6.489   6.915   6.864
 3035SOL    HW210005   6.484   6.840   7.009
 3036SOL     OW10006   1.166   4.754   5.948
 3036SOL    HW110007   1.089   4.794   5.998
 3036SOL    HW210008   1.186   4.811   5.868
 3037SOL     OW10009   6.403   0.160   5.663
 3037SOL    HW110010   6.384   0.064   5.682
 3037SOL    HW210011   6.496   0.170   5.628
 3038SOL     OW10012   5.877   6.603   5.831
 3038SOL    HW110013   5.931   6.643   5.904
 3038SOL    HW210014   5.916   6.628   5.742
 3039SOL     OW10015   6.892   4.735   0.399
 3039SOL    HW110016   6.974   4.788   0.378
 3039SOL    HW210017   6.815   4.771   0.347
 3040SOL     OW10018   1.925   2.098   0.004
 3040SOL    HW110019   1.874   2.116   6.943
 3040SOL    HW210020   1.864   2.058   0.073
 3041SOL     OW10021   1.856   2.114   6.010
 3041SOL    HW110022   1.951   2.139   5.994
 3041SOL    HW210023   1.832   2.034   5.955
 3042SOL     OW10024   5.089   0.004   2.042
 3042SOL    HW110025   5.072   6.937   2.003
 3042SOL    HW210026   5.159   7.020   2.114
 3043SOL     OW10027   6.786   5.052   0.494
 3043SOL    HW110028   6.868   5.073   0.548
 3043SOL    HW210029   6.764   4.954   0.504
 3044SOL     OW10030   3.079   3.533   5.341
 3044SOL    HW110031   3.131   3.614   5.368
 3044SOL    HW210032   3.013   3.558   5.269
 3045SOL     OW10033   5.498   2.019   3.997
 3045SOL    HW110034   5.544   1.932   4.015
 3045SOL    HW210035   5.416   2.025   4.054
 3046SOL     OW10036   2.347   2.269   6.164
 3046SOL    HW110037   2.311   2.358   6.192
 3046SOL    HW210038   2.435   2.281   6.118
 3047SOL     OW10039   0.031   4.600   1.949
 3047SOL    HW110040   0.056   4.677   1.892
 3047SOL    HW210041   6.955   4.600   1.964
 3048SOL     OW10042   3.043   2.523   1.707
 3048SOL    HW110043   3.004   2.615   1.704
 3048SOL    HW210044   3.001   2.471   1.782
 3049SOL     OW10045   1.007   0.131   1.790
 3049SOL    HW110046   0.959   0.108   1.874
 3049SOL    HW210047   1.053   0.049   1.755
 3050SOL     OW10048   2.761   6.091   3.975
 3050SOL    HW110049   2.840   6.033   3.957
 3050SOL    HW210050   2.785   6.187   3.959
 3051SOL     OW10051   2.465   4.416   5.202
 3051SOL    HW110052   2.464   4.466   5.116
 3051SOL    HW210053   2.542   4.447   5.258
 3052SOL     OW10054   5.138   6.620   2.863
 3052SOL    HW110055   5.106   6.537   2.909
 3052SOL    HW210056   5.091   6.699   2.901
 3053SOL     OW10057   4.924   0.092   1.397
 3053SOL    HW110058   4.951   0.004   1.356
 3053SOL    HW210059   4.897   0.078   1.492
 3054SOL     OW10060   2.103   3.689   5.916
 3054SOL    HW110061   2.082   3.783   5.943
 3054SOL    HW210062   2.019   3.646   5.882
 3055SOL     OW10063   6.042   6.239   2.959
 3055SOL    HW110064   5.946   6.226   2.931
 3055SOL    HW210065   6.100   6.177   2.907
 3056SOL     OW10066   6.417   0.777   1.266
 3056SOL    HW110067   6.474   0.757   1.187
 3056SOL    HW210068   6.425   0.703   1.333
 3057SOL     OW10069   6.367   5.985   2.567
 3057SOL    HW110070   6.329   6.075   2.546
 3057SOL    HW210071   6.424   5.991   2.648
 3058SOL     OW10072   6.384   5.564   1.672
 3058SOL    HW110073   6.363   5.602   1.762
 3058SOL    HW210074   6.424   5.473   1.684
 3059SOL     OW10075   2.012   2.606   4.936
 3059SOL    HW110076   2.104   2.642   4.950
 3059SOL    HW210077   1.955   2.628   5.015
 3060SOL     OW10078   6.862   6.497   0.569
 3060SOL    HW110079   6.795   6.569   0.547
 3060SOL    HW210080   6.938   6.537   0.620
 3061SOL     OW10081   0.169   0.377   6.143
 3061SOL    HW110082   0.121   0.463   6.124
 3061SOL    HW210083   0.103   0.307   6.168
 3062SOL     OW10084   3.033   5.486   6.164
 3062SOL    HW110085   3.110   5.548   6.172
 3062SOL    HW210086   3.064   5.399   6.126
 3063SOL     OW10087   1.689   5.604   0.697
 3063SOL    HW110088   1.788   5.600   0.680
 3063SOL    HW210089   1.666   5.542   0.772
 3064SOL     OW10090   6.948   4.217   3.394
 3064SOL    HW110091   6.992   4.296   3.438
 3064SOL    HW210092   6.877   4.249   3.331
 3065SOL     OW10093   2.571   1.415   1.063
 3065SOL    HW110094   2.574   1.449   1.157
 3065SOL    HW210095   2.505   1.341   1.056
 3066SOL     OW10096   5.468   5.771   0.943
 3066SOL    HW110097   5.438   5.766   1.038
 3066SOL    HW210098   5.545   5.709   0.929
 3067SOL     OW10099   4.663   6.603   3.525
 3067SOL    HW110100   4.641   6.697   3.551
 3067SOL    HW210101   4.740   6.603   3.461
 3068SOL     OW10102   5.725   4.916   0.361
 3068SOL    HW110103   5.650   4.974   0.392
 3068SOL    HW210104   5.790   4.971   0.307
 3069SOL     OW10105   1.099   5.432   3.650
 3069SOL    HW110106   1.180   5.386   3.612
 3069SOL    HW210107   1.072   5.506   3.589
 3070SOL     OW10108   3.987   1.412   4.667
 3070SOL    HW110109   3.941   1.338   4.716
 3070SOL    HW210110   4.038   1.374   4.589
 3071SOL     OW10111   5.683   0.625   4.065
 3071SOL    HW110112   5.721   0.584   3.982
 3071SOL    HW210113   5.755   0.638   4.132
 3072SOL     OW10114   0.848   0.405   2.161
 3072SOL    HW110115   0.877   0.395   2.066
 3072SOL    HW210116   0.786   0.483   2.169
 3073SOL     OW10117   1.749   2.683   4.443
 3073SOL    HW110118   1.721   2.587   4.440
 3073SOL    HW210119   1.809   2.702   4.366
 3074SOL     OW10120   4.736   3.573   6.193
 3074SOL    HW110121   4.689   3.536   6.273
 3074SOL    HW210122   4.668   3.606   6.127
 3075SOL     OW10123   0.340   5.775   1.224
 3075SOL    HW110124   0.270   5.704   1.230
 3075SOL    HW210125   0.330   5.838   1.301
 3076SOL     OW10126   0.817   0.348   4.920
 3076SOL    HW110127   0.899   0.383   4.964
 3076SOL    HW210128   0.827   0.353   4.820
 3077SOL     OW10129   5.361   4.332   3.598
 3077SOL    HW110130   5.363   4.403   3.529
 3077SOL    HW210131   5.291   4.354   3.667
 3078SOL     OW10132   2.546   3.339   0.627
 3078SOL    HW110133   2.545   3.357   0.725
 3078SOL    HW210134   2.507   3.249   0.609
 3079SOL     OW10135   5.472   2.804   6.381
 3079SOL    HW110136   5.457   2.706   6.373
 3079SOL    HW210137   5.510   2.824   6.471
 3080SOL     OW10138   5.996   5.866   0.952
 3080SOL    HW110139   5.932   5.903   0.885
 3080SOL    HW210140   5.956   5.871   1.043
 3081SOL     OW10141   6.478   5.101   6.162
 3081SOL    HW110142   6.486   5.201   6.163
 3081SOL    HW210143   6.401   5.075   6.104
 3082SOL     OW10144   2.427   0.250   2.232
 3082SOL    HW110145   2.345   0.224   2.284
 3082SOL    HW210146   2.414   0.226   2.136
 3083SOL     OW10147   3.269   0.693   2.292
 3083SOL    HW110148   3.320   0.672   2.208
 3083SOL    HW210149   3.295   0.630   2.364
 3084SOL     OW10150   4.860   6.427   4.417
 3084SOL    HW110151   4.785   6.435   4.352
 3084SOL    HW210152   4.856   6.503   4.482
 3085SOL     OW10153   0.908   6.163   1.535
 3085SOL    HW110154   0.962   6.239   1.498
 3085SOL    HW210155   0.912   6.164   1.635
 3086SOL     OW10156   5.848   1.759   3.900
 3086SOL    HW110157   5.769   1.704   3.927
 3086SOL    HW210158   5.848   1.771   3.801
 3087SOL     OW10159   5.544   3.096   2.351
 3087SOL    HW110160   5.539   3.092   2.451
 3087SOL    HW210161   5.600   3.175   2.324
 3088SOL     OW10162   3.020   4.021   5.987
 3088SOL    HW110163   3.086   4.040   5.914
 3088SOL    HW210164   3.062   3.958   6.053
 3089SOL     OW10165   2.291   2.547   0.797
 3089SOL    HW110166   2.317   2.451   0.785
 3089SOL    HW210167   2.272   2.563   0.894
 3090SOL     OW10168   0.544   1.791   1.016
 3090SOL    HW110169   0.526   1.811   1.112
 3090SOL    HW210170   0.461   1.807   0.962
 3091SOL     OW10171   2.710   0.151   0.936
 3091SOL    HW110172   2.653   0.123   1.013
 3091SOL    HW210173   2.801   0.111   0.946
 3092SOL     OW10174   3.919   6.320   0.769
 3092SOL    HW110175   3.963   6.409   0.779
 3092SOL    HW210176   3.881   6.291   0.857
 3093SOL     OW10177   4.963   5.662   3.682
 3093SOL    HW110178   5.057   5.628   3.683
 3093SOL    HW210179   4.916   5.631   3.765
 3094SOL     OW10180   3.462   4.999   5.512
 3094SOL    HW110181   3.560   4.981   5.503
 3094SOL    HW210182   3.411   4.929   5.462
 3095SOL     OW10183   2.384   4.783   4.560
 3095SOL    HW110184   2.441   4.864   4.575
 3095SOL    HW210185   2.397   4.719   4.636
 3096SOL     OW10186   0.157   0.599   5.126
 3096SOL    HW110187   0.196   0.518   5.084
 3096SOL    HW210188   0.060   0.583   5.146
 3097SOL     OW10189   1.994   2.975   0.240
 3097SOL    HW110190   2.088   2.994   0.267
 3097SOL    HW210191   1.962   2.891   0.284
 3098SOL     OW10192   4.260   2.191   0.518
 3098SOL    HW110193   4.255   2.274   0.574
 3098SOL    HW210194   4.171   2.145   0.519
 3099SOL     OW10195   1.073   6.157   5.059
 3099SOL    HW110196   1.154   6.216   5.061
 3099SOL    HW210197   1.102   6.062   5.055
 3100SOL     OW10198   6.275   5.661   0.106
 3100SOL    HW110199   6.311   5.659   0.199
 3100SOL    HW210200   6.178   5.685   0.109
 3101SOL     OW10201   4.709   6.926   0.697
 3101SOL    HW110202   4.739   6.929   0.793
 3101SOL    HW210203   4.755   6.851   0.650
 3102SOL     OW10204   0.612   5.627   0.653
 3102SOL    HW110205   0.573   5.719   0.644
 3102SOL    HW210206   0.614   5.600   0.749
 3103SOL     OW10207   4.184   3.754   1.807
 3103SOL    HW110208   4.256   3.821   1.787
 3103SOL    HW210209   4.096   3.800   1.809
 3104SOL     OW10210   6.615   5.244   3.778
 3104SOL    HW110211   6.591   5.149   3.800
 3104SOL    HW210212   6.595   5.262   3.682
 3105SOL     OW10213   6.207   6.083   3.716
 3105SOL    HW110214   6.126   6.026   3.730
 3105SOL    HW210215   6.180   6.178   3.704
 3106SOL     OW10216   6.927   3.043   4.526
 3106SOL    HW110217   6.871   3.097   4.463
 3106SOL    HW210218   6.884   2.954   4.540
 3107SOL     OW10219   2.740   0.095   3.642
 3107SOL    HW110220   2.747   0.007   3.594
 3107SOL    HW210221   2.653   0.098   3.693
 3108SOL     OW10222   3.159   0.701   3.263
 3108SOL    HW110223   3.187   0.610   3.292
 3108SOL    HW210224   3.240   0.757   3.244
 3109SOL     OW10225   4.683   6.148   2.899
 3109SOL    HW110226   4.745   6.177   2.826
 3109SOL    HW210227   4.713   6.188   2.986
 3110SOL     OW10228   1.181   2.752   2.098
 3110SOL    HW110229   1.172   2.754   1.999
 3110SOL    HW210230   1.121   2.681   2.136
 3111SOL     OW10231   6.588   4.908   3.460
 3111SOL    HW110232   6.617   4.828   3.511
 3111SOL    HW210233   6.543   4.973   3.522
 3112SOL     OW10234   3.155   3.556   6.721
 3112SOL    HW110235   3.226   3.492   6.749
 3112SOL    HW210236   3.080   3.553   6.787
 3113SOL     OW10237   4.121   6.887   4.033
 3113SOL    HW110238   4.078   6.837   3.958
 3113SOL    HW210239   4.144   6.980   4.003
 3114SOL     OW10240   5.605   5.518   1.032
 3114SOL    HW110241   5.602   5.513   0.932
 3114SOL    HW210242   5.553   5.442   1.071
 3115SOL     OW10243   2.590   3.365   1.776
 3115SOL    HW110244   2.666   3.389   1.836
 3115SOL    HW210245   2.507   3.409   1.807
 3116SOL     OW10246   6.810   1.650   6.589
 3116SOL    HW110247   6.838   1.561   6.554
 3116SOL    HW210248   6.777   1.707   6.514
 3117SOL     OW10249   3.704   3.617   5.470
 3117SOL    HW110250   3.736   3.526   5.444
 3117SOL    HW210251   3.781   3.670   5.506
 3118SOL     OW10252   5.942   5.247   0.308
 3118SOL    HW110253   6.000   5.168   0.289
 3118SOL    HW210254   5.904   5.282   0.222
 3119SOL     OW10255   1.979   4.797   6.030
 3119SOL    HW110256   1.952   4.766   5.939
 3119SOL    HW210257   2.075   4.823   6.029
 3120SOL     OW10258   2.763   5.788   5.732
 3120SOL    HW110259   2.704   5.771   5.653
 3120SOL    HW210260   2.737   5.874   5.776
 3121SOL     OW10261   0.445   5.736   3.105
 3121SOL    HW110262   0.488   5.736   3.015
 3121SOL    HW210263   0.394   5.821   3.118
 3122SOL     OW10264   2.385   5.252   0.683
 3122SOL    HW110265   2.303   5.275   0.734
 3122SOL    HW210266   2.429   5.172   0.724
 3123SOL     OW10267   3.705   6.650   4.897
 3123SOL    HW110268   3.631   6.693   4.846
 3123SOL    HW210269   3.783   6.635   4.837
 3124SOL     OW10270   3.876   0.297   5.902
 3124SOL    HW110271   3.922   0.276   5.815
 3124SOL    HW210272   3.931   0.263   5.978
 3125SOL     OW10273   6.788   2.180   5.667
 3125SOL    HW110274   6.791   2.143   5.574
 3125SOL    HW210275   6.879   2.210   5.695
 3126SOL     OW10276   3.414   6.901   0.319
 3126SOL    HW110277   3.446   6.836   0.387
 3126SOL    HW210278   3.452   6.878   0.229
 3127SOL     OW10279   1.663   1.048   3.742
 3127SOL    HW110280   1.655   1.141   3.705
 3127SOL    HW210281   1.580   1.024   3.791
 3128SOL     OW10282   1.162   0.854   0.369
 3128SOL    HW110283   1.098   0.777   0.376
 3128SOL    HW210284   1.116   0.938   0.397
 3129SOL     OW10285   1.874   2.775   3.708
 3129SOL    HW110286   1.856   2.865   3.747
 3129SOL    HW210287   1.953   2.733   3.754
 3130SOL     OW10288   2.280   5.564   3.182
 3130SOL    HW110289   2.218   5.635   3.213
 3130SOL    HW210290   2.232   5.476   3.179
 3131SOL     OW10291   0.297   3.252   3.698
 3131SOL    HW110292   0.288   3.158   3.666
 3131SOL    HW210293   0.394   3.275   3.706
 3132SOL     OW10294   5.160   6.232   5.058
 3132SOL    HW110295   5.227   6.251   4.986
 3132SOL    HW210296   5.135   6.135   5.055
 3133SOL     OW10297   2.485   1.772   3.075
 3133SOL    HW110298   2.466   1.735   3.166
 3133SOL    HW210299   2.433   1.856   3.060
 3134SOL     OW10300   5.125   3.479   2.129
 3134SOL    HW110301   5.176   3.393   2.137
 3134SOL    HW210302   5.165   3.534   2.055
 3135SOL     OW10303   2.815   1.566   3.130
 3135SOL    HW110304   2.825   1.564   3.031
 3135SOL    HW210305   2.722   1.541   3.155
 3136SOL     OW10306   6.333   6.836   5.242
 3136SOL    HW110307   6.413   6.848   5.302
 3136SOL    HW210308   6.324   6.739   5.219
 3137SOL     OW10309   6.760   2.051   4.677
 3137SOL    HW110310   6.705   2.133   4.688
 3137SOL    HW210311   6.857   2.076   4.670
 3138SOL     OW10312   5.418   1.796   4.717
 3138SOL    HW110313   5.502   1.844   4.742
 3138SOL    HW210314   5.404   1.804   4.618
 3139SOL     OW10315   5.103   6.475   5.215
 3139SOL    HW110316   5.004   6.467   5.230
 3139SOL    HW210317   5.142   6.383   5.206
 3140SOL     OW10318   6.286   6.134   6.085
 3140SOL    HW110319   6.345   6.149   6.164
 3140SOL    HW210320   6.194   6.168   6.106
 3141SOL     OW10321   0.891   5.479   0.821
 3141SOL    HW110322   0.812   5.514   0.872
 3141SOL    HW210323   0.863   5.458   0.727
 3142SOL     OW10324   3.433   0.069   6.241
 3142SOL    HW110325   3.512   0.041   6.186
 3142SOL    HW210326   3.449   0.161   6.278
 3143SOL     OW10327   0.416   1.796   0.414
 3143SOL    HW110328   0.367   1.824   0.331
 3143SOL    HW210329   0.512   1.821   0.407
 3144SOL     OW10330   1.619   3.986   6.018
 3144SOL    HW110331   1.525   4.015   6.038
 3144SOL    HW210332   1.682   4.030   6.083
 3145SOL     OW10333   3.612   5.925   3.952
 3145SOL    HW110334   3.600   5.847   3.892
 3145SOL    HW210335   3.552   6.000   3.923
 3146SOL     OW10336   2.249   0.597   3.749
 3146SOL    HW110337   2.251   0.576   3.652
 3146SOL    HW210338   2.173   0.548   3.792
 3147SOL     OW10339   3.717   3.999   0.872
 3147SOL    HW110340   3.704   4.024   0.776
 3147SOL    HW210341   3.733   3.901   0.879
 3148SOL     OW10342   3.635   5.386   5.278
 3148SOL    HW110343   3.593   5.476   5.268
 3148SOL    HW210344   3.659   5.370   5.373
 3149SOL     OW10345   3.091   6.180   6.170
 3149SOL    HW110346   3.077   6.252   6.102
 3149SOL    HW210347   3.181   6.139   6.158
 3150SOL     OW10348   0.095   0.276   4.076
 3150SOL    HW110349   0.146   0.226   4.145
 3150SOL    HW210350   0.158   0.330   4.020
 3151SOL     OW10351   3.764   0.242   0.321
 3151SOL    HW110352   3.828   0.194   0.261
 3151SOL    HW210353   3.681   0.187   0.333
 3152SOL     OW10354   1.461   5.165   0.041
 3152SOL    HW110355   1.373   5.162   0.088
 3152SOL    HW210356   1.523   5.096   0.079
 3153SOL     OW10357   6.847   4.277   2.694
 3153SOL    HW110358   6.938   4.237   2.700
 3153SOL    HW210359   6.845   4.363   2.745
 3154SOL     OW10360   5.492   2.416   6.822
 3154SOL    HW110361   5.482   2.413   6.922
 3154SOL    HW210362   5.439   2.342   6.780
 3155SOL     OW10363   4.138   6.405   0.324
 3155SOL    HW110364   4.213   6.469   0.307
 3155SOL    HW210365   4.142   6.330   0.257
 3156SOL     OW10366   3.842   3.487   3.156
 3156SOL    HW110367   3.935   3.486   3.192
 3156SOL    HW210368   3.783   3.432   3.215
 3157SOL     OW10369   1.682   2.835   4.659
 3157SOL    HW110370   1.761   2.894   4.670
 3157SOL    HW210371   1.701   2.767   4.588
 3158SOL     OW10372   3.920   6.216   1.070
 3158SOL    HW110373   3.967   6.136   1.106
 3158SOL    HW210374   3.856   6.251   1.138
 3159SOL     OW10375   5.721   4.720   0.559
 3159SOL    HW110376   5.734   4.786   0.485
 3159SOL    HW210377   5.652   4.754   0.622
 3160SOL     OW10378   5.852   4.911   0.829
 3160SOL    HW110379   5.927   4.973   0.853
 3160SOL    HW210380   5.874   4.863   0.744
 3161SOL     OW10381   0.629   1.869   2.717
 3161SOL    HW110382   0.534   1.882   2.746
 3161SOL    HW210383   0.685   1.843   2.796
 3162SOL     OW10384   6.206   6.943   6.005
 3162SOL    HW110385   6.161   0.010   6.004
 3162SOL    HW210386   6.299   6.953   6.040
 3163SOL     OW10387   2.394   4.757   5.196
 3163SOL    HW110388   2.343   4.718   5.272
 3163SOL    HW210389   2.484   4.788   5.228
 3164SOL     OW10390   5.848   5.672   6.103
 3164SOL    HW110391   5.835   5.742   6.033
 3164SOL    HW210392   5.761   5.651   6.147
 3165SOL     OW10393   0.295   2.494   1.142
 3165SOL    HW110394   0.354   2.503   1.061
 3165SOL    HW210395   0.346   2.522   1.223
 3166SOL     OW10396   4.793   3.007   6.383
 3166SOL    HW110397   4.708   2.955   6.374
 3166SOL    HW210398   4.780   3.081   6.449
 3167SOL     OW10399   0.286   4.033   1.892
 3167SOL    HW110400   0.365   4.086   1.863
 3167SOL    HW210401   0.277   3.952   1.834
 3168SOL     OW10402   4.904   3.433   0.553
 3168SOL    HW110403   4.895   3.359   0.621
 3168SOL    HW210404   4.915   3.520   0.600
 3169SOL     OW10405   1.943   1.970   4.712
 3169SOL    HW110406   1.968   1.940   4.804
 3169SOL    HW210407   1.935   1.891   4.652
 3170SOL     OW10408   5.003   0.741   5.575
 3170SOL    HW110409   4.958   0.741   5.485
 3170SOL    HW210410   4.940   0.777   5.643
 3171SOL     OW10411   6.396   0.162   2.988
 3171SOL    HW110412   6.340   0.183   3.068
 3171SOL    HW210413   6.493   0.162   3.015
 3172SOL     OW10414   5.757   0.405   6.143
 3172SOL    HW110415   5.843   0.413   6.193
 3172SOL    HW210416   5.734   0.308   6.132
 3173SOL     OW10417   1.854   1.479   1.393
 3173SOL    HW110418   1.813   1.392   1.364
 3173SOL    HW210419   1.825   1.499   1.487
 3174SOL     OW10420   1.972   3.261   6.649
 3174SOL    HW110421   2.037   3.316   6.597
 3174SOL    HW210422   1.976   3.288   6.746
 3175SOL     OW10423   6.750   5.764   0.644
 3175SOL    HW110424   6.669   5.823   0.644
 3175SOL    HW210425   6.833   5.820   0.644
 3176SOL     OW10426   1.210   6.162   6.541
 3176SOL    HW110427   1.163   6.142   6.455
 3176SOL    HW210428   1.263   6.083   6.570
 3177SOL     OW10429   0.873   6.707   4.208
 3177SOL    HW110430   0.904   6.649   4.284
 3177SOL    HW210431   0.931   6.788   4.202
 3178SOL     OW10432   2.666   3.622   0.580
 3178SOL    HW110433   2.746   3.628   0.640
 3178SOL    HW210434   2.625   3.531   0.588
 3179SOL     OW10435   1.427   2.579   3.265
 3179SOL    HW110436   1.523   2.599   3.285
 3179SOL    HW210437   1.381   2.662   3.232
 3180SOL     OW10438   5.777   1.613   6.233
 3180SOL    HW110439   5.781   1.710   6.211
 3180SOL    HW210440   5.689   1.591   6.274
 3181SOL     OW10441   0.985   1.370   2.903
 3181SOL    HW110442   0.966   1.414   2.815
 3181SOL    HW210443   0.937   1.419   2.975
 3182SOL     OW10444   1.634   4.845   5.428
 3182SOL    HW110445   1.541   4.811   5.439
 3182SOL    HW210446   1.689   4.775   5.382
 3183SOL     OW10447   4.868   3.035   1.257
 3183SOL    HW110448   4.834   3.125   1.282
 3183SOL    HW210449   4.896   2.986   1.339
 3184SOL     OW10450   0.962   2.085   3.419
 3184SOL    HW110451   0.880   2.029   3.426
 3184SOL    HW210452   0.938   2.174   3.380
 3185SOL     OW10453   0.117   6.333   6.413
 3185SOL    HW110454   0.033   6.383   6.431
 3185SOL    HW210455   0.121   6.306   6.317
 3186SOL     OW10456   3.508   0.614   1.478
 3186SOL    HW110457   3.583   0.671   1.511
 3186SOL    HW210458   3.513   0.524   1.522
 3187SOL     OW10459   2.908   4.259   0.058
 3187SOL    HW110460   2.931   4.332   0.122
 3187SOL    HW210461   2.923   4.171   0.102
 3188SOL     OW10462   4.396   6.931   3.107
 3188SOL    HW110463   4.408   7.019   3.062
 3188SOL    HW210464   4.301   6.901   3.096
 3189SOL     OW10465   0.037   6.760   1.873
 3189SOL    HW110466   6.978   6.705   1.854
 3189SOL    HW210467   0.020   6.855   1.845
 3190SOL     OW10468   0.657   6.671   1.348
 3190SOL    HW110469   0.725   6.743   1.335
 3190SOL    HW210470   0.565   6.710   1.337
 3191SOL     OW10471   3.129   0.184   0.461
 3191SOL    HW110472   3.119   0.093   0.422
 3191SOL    HW210473   3.068   0.248   0.415
 3192SOL     OW10474   5.864   2.320   3.298
 3192SOL    HW110475   5.907   2.320   3.208
 3192SOL    HW210476   5.821   2.232   3.315
 3193SOL     OW10477   4.514   4.270   0.881
 3193SOL    HW110478   4.497   4.358   0.927
 3193SOL    HW210479   4.574   4.285   0.802
 3194SOL     OW10480   1.919   4.693   5.283
 3194SOL    HW110481   1.858   4.671   5.207
 3194SOL    HW210482   1.959   4.783   5.269
 3195SOL     OW10483   0.932   3.855   3.248
 3195SOL    HW110484   0.960   3.760   3.232
 3195SOL    HW210485   0.994   3.916   3.198
 3196SOL     OW10486   0.399   0.020   5.558
 3196SOL    HW110487   0.455   6.963   5.583
 3196SOL    HW210488   0.450   0.103   5.580
 3197SOL     OW10489   0.322   3.884   4.233
 3197SOL    HW110490   0.422   3.875   4.234
 3197SOL    HW210491   0.282   3.799   4.197
 3198SOL     OW10492   5.658   6.395   0.500
 3198SOL    HW110493   5.647   6.440   0.589
 3198SOL    HW210494   5.751   6.358   0.493
 3199SOL     OW10495   3.338   1.571   3.461
 3199SOL    HW110496   3.426   1.615   3.478
 3199SOL    HW210497   3.326   1.558   3.363
 3200SOL     OW10498   0.319   2.095   0.374
 3200SOL    HW110499   0.266   2.018   0.338
 3200SOL    HW210500   0.264   2.146   0.440
 3201SOL     OW10501   4.604   4.342   3.152
 3201SOL    HW110502   4.582   4.431   3.113
 3201SOL    HW210503   4.612   4.351   3.252
 3202SOL     OW10504   1.030   5.915   1.845
 3202SOL    HW110505   1.048   5.823   1.809
 3202SOL    HW210506   0.939   5.917   1.887
 3203SOL     OW10507   5.116   0.369   1.031
 3203SOL    HW110508   5.041   0.320   1.074
 3203SOL    HW210509   5.089   0.464   1.013
 3204SOL     OW10510   6.094   6.075   2.191
 3204SOL    HW110511   6.078   6.142   2.263
 3204SOL    HW210512   6.162   6.110   2.127
 3205SOL     OW10513   0.982   4.110   3.581
 3205SOL    HW110514   1.008   4.015   3.590
 3205SOL    HW210515   0.974   4.133   3.484
 3206SOL     OW10516   1.651   6.603   0.375
 3206SOL    HW110517   1.653   6.580   0.278
 3206SOL    HW210518   1.745   6.619   0.407
 3207SOL     OW10519   0.874   1.390   2.241
 3207SOL    HW110520   0.889   1.292   2.256
 3207SOL    HW210521   0.777   1.411   2.252
 3208SOL     OW10522   6.112   0.521   4.654
 3208SOL    HW110523   6.045   0.512   4.581
 3208SOL    HW210524   6.131   0.432   4.694
 3209SOL     OW10525   2.055   0.129   2.720
 3209SOL    HW110526   2.125   0.201   2.716
 3209SOL    HW210527   2.005   0.126   2.633
 3210SOL     OW10528   0.639   4.938   1.963
 3210SOL    HW110529   0.642   5.005   2.037
 3210SOL    HW210530   0.596   4.980   1.882
 3211SOL     OW10531   1.018   4.166   2.633
 3211SOL    HW110532   0.970   4.120   2.707
 3211SOL    HW210533   1.041   4.101   2.562
 3212SOL     OW10534   4.877   3.289   5.507
 3212SOL    HW110535   4.820   3.343   5.445
 3212SOL    HW210536   4.930   3.222   5.455
 3213SOL     OW10537   4.935   0.287   1.218
 3213SOL    HW110538   4.856   0.277   1.159
 3213SOL    HW210539   4.939   0.210   1.282
 3214SOL     OW10540   4.057   4.241   6.448
 3214SOL    HW110541   3.967   4.198   6.450
 3214SOL    HW210542   4.128   4.171   6.446
 3215SOL     OW10543   6.219   1.398   0.294
 3215SOL    HW110544   6.161   1.325   0.330
 3215SOL    HW210545   6.298   1.410   0.355
 3216SOL     OW10546   5.751   6.632   4.876
 3216SOL    HW110547   5.729   6.536   4.861
 3216SOL    HW210548   5.758   6.679   4.788
 3217SOL     OW10549   6.524   4.122   0.210
 3217SOL    HW110550   6.540   4.207   0.160
 3217SOL    HW210551   6.480   4.143   0.298
 3218SOL     OW10552   3.621   1.565   1.912
 3218SOL    HW110553   3.603   1.630   1.986
 3218SOL    HW210554   3.539   1.510   1.896
 3219SOL     OW10555   0.351   6.918   4.026
 3219SOL    HW110556   0.297   6.996   3.996
 3219SOL    HW210557   0.369   6.926   4.124
 3220SOL     OW10558   5.519   2.966   5.849
 3220SOL    HW110559   5.613   2.934   5.842
 3220SOL    HW210560   5.479   2.936   5.935
 3221SOL     OW10561   3.673   0.694   2.336
 3221SOL    HW110562   3.627   0.685   2.424
 3221SOL    HW210563   3.668   0.789   2.305
 3222SOL     OW10564   6.634   4.240   1.887
 3222SOL    HW110565   6.715   4.184   1.869
 3222SOL    HW210566   6.593   4.212   1.974
 3223SOL     OW10567   2.627   4.610   3.534
 3223SOL    HW110568   2.583   4.548   3.599
 3223SOL    HW210569   2.599   4.704   3.554
 3224SOL     OW10570   3.156   5.999   1.385
 3224SOL    HW110571   3.239   5.961   1.343
 3224SOL    HW210572   3.086   6.009   1.315
 3225SOL     OW10573   1.878   2.798   1.034
 3225SOL    HW110574   1.859   2.741   1.114
 3225SOL    HW210575   1.950   2.864   1.058
 3226SOL     OW10576   0.433   0.655   4.011
 3226SOL    HW110577   0.339   0.674   4.039
 3226SOL    HW210578   0.487   0.738   4.018
 3227SOL     OW10579   1.899   1.950   5.440
 3227SOL    HW110580   1.982   2.006   5.436
 3227SOL    HW210581   1.820   2.006   5.416
 3228SOL     OW10582   4.925   3.384   4.793
 3228SOL    HW110583   4.959   3.451   4.860
 3228SOL    HW210584   4.860   3.428   4.732
 3229SOL     OW10585   4.604   1.734   5.267
 3229SOL    HW110586   4.544   1.654   5.267
 3229SOL    HW210587   4.695   1.708   5.234
 3230SOL     OW10588   1.489   0.621   3.887
 3230SOL    HW110589   1.476   0.710   3.933
 3230SOL    HW210590   1.495   0.636   3.788
 3231SOL     OW10591   4.720   5.164   0.376
 3231SOL    HW110592   4.723   5.094   0.448
 3231SOL    HW210593   4.813   5.185   0.347
 3232SOL     OW10594   1.820   4.334   3.203
 3232SOL    HW110595   1.838   4.316   3.300
 3232SOL    HW210596   1.858   4.423   3.178
 3233SOL     OW10597   1.654   3.874   0.294
 3233SOL    HW110598   1.695   3.916   0.213
 3233SOL    HW210599   1.717   3.884   0.371
 3234SOL     OW10600   6.607   2.556   4.865
 3234SOL    HW110601   6.573   2.648   4.848
 3234SOL    HW210602   6.705   2.560   4.884
 3235SOL     OW10603   5.267   0.774   2.356
 3235SOL    HW110604   5.302   0.783   2.263
 3235SOL    HW210605   5.296   0.853   2.410
 3236SOL     OW10606   0.250   2.792   1.401
 3236SOL    HW110607   0.220   2.811   1.307
 3236SOL    HW210608   0.172   2.793   1.462
 3237SOL     OW10609   3.053   6.303   4.614
 3237SOL    HW110610   3.120   6.263   4.551
 3237SOL    HW210611   2.981   6.237   4.633
 3238SOL     OW10612   6.502   6.211   6.466
 3238SOL    HW110613   6.453   6.155   6.398
 3238SOL    HW210614   6.539   6.151   6.537
 3239SOL     OW10615   0.656   6.078   5.559
 3239SOL    HW110616   0.624   6.074   5.464
 3239SOL    HW210617   0.635   5.991   5.604
 3240SOL     OW10618   0.487   2.213   4.661
 3240SOL    HW110619   0.437   2.291   4.622
 3240SOL    HW210620   0.431   2.169   4.731
 3241SOL     OW10621   4.394   6.877   5.113
 3241SOL    HW110622   4.465   6.808   5.129
 3241SOL    HW210623   4.305   6.832   5.102
 3242SOL     OW10624   3.171   6.930   0.733
 3242SOL    HW110625   3.204   6.837   0.716
 3242SOL    HW210626   3.240   6.996   0.705
 3243SOL     OW10627   3.121   5.302   1.136
 3243SOL    HW110628   3.127   5.401   1.122
 3243SOL    HW210629   3.161   5.255   1.057
 3244SOL     OW10630   1.183   6.308   5.590
 3244SOL    HW110631   1.116   6.276   5.657
 3244SOL    HW210632   1.198   6.406   5.601
 3245SOL     OW10633   3.175   1.816   5.942
 3245SOL    HW110634   3.089   1.766   5.927
 3245SOL    HW210635   3.237   1.760   5.997
 3246SOL     OW10636   5.518   6.278   3.814
 3246SOL    HW110637   5.614   6.308   3.815
 3246SOL    HW210638   5.508   6.198   3.872
 3247SOL     OW10639   6.084   2.926   5.428
 3247SOL    HW110640   6.008   2.981   5.394
 3247SOL    HW210641   6.108   2.956   5.520
 3248SOL     OW10642   5.007   3.656   2.813
 3248SOL    HW110643   4.977   3.666   2.718
 3248SOL    HW210644   5.098   3.617   2.816
 3249SOL     OW10645   3.066   4.730   5.907
 3249SOL    HW110646   3.081   4.773   5.996
 3249SOL    HW210647   3.004   4.651   5.919
 3250SOL     OW10648   4.715   5.317   1.471
 3250SOL    HW110649   4.721   5.228   1.425
 3250SOL    HW210650   4.621   5.350   1.468
 3251SOL     OW10651   3.798   0.454   3.801
 3251SOL    HW110652   3.840   0.459   3.891
 3251SOL    HW210653   3.766   0.545   3.774
 3252SOL     OW10654   3.425   1.947   3.697
 3252SOL    HW110655   3.376   2.017   3.750
 3252SOL    HW210656   3.385   1.941   3.605
 3253SOL     OW10657   5.035   4.397   1.199
 3253SOL    HW110658   5.027   4.363   1.293
 3253SOL    HW210659   4.961   4.359   1.144
 3254SOL     OW10660   6.118   3.734   2.511
 3254SOL    HW110661   6.076   3.789   2.583
 3254SOL    HW210662   6.214   3.719   2.533
 3255SOL     OW10663   4.079   5.175   0.724
 3255SOL    HW110664   4.036   5.259   0.758
 3255SOL    HW210665   4.009   5.117   0.682
 3256SOL     OW10666   6.302   6.562   5.671
 3256SOL    HW110667   6.274   6.522   5.583
 3256SOL    HW210668   6.231   6.623   5.704
 3257SOL     OW10669   2.131   1.704   1.182
 3257SOL    HW110670   2.089   1.644   1.114
 3257SOL    HW210671   2.206   1.755   1.140
 3258SOL     OW10672   4.868   6.840   1.296
 3258SOL    HW110673   4.943   6.792   1.341
 3258SOL    HW210674   4.803   6.774   1.259
 3259SOL     OW10675   5.899   6.355   3.521
 3259SOL    HW110676   5.960   6.289   3.477
 3259SOL    HW210677   5.917   6.447   3.485
 3260SOL     OW10678   1.781   1.582   1.030
 3260SOL    HW110679   1.768   1.663   0.973
 3260SOL    HW210680   1.872   1.545   1.015
 3261SOL     OW10681   4.652   6.897   3.539
 3261SOL    HW110682   4.682   6.924   3.631
 3261SOL    HW210683   4.695   6.957   3.471
 3262SOL     OW10684   3.641   1.709   3.948
 3262SOL    HW110685   3.585   1.627   3.959
 3262SOL    HW210686   3.632   1.743   3.855
 3263SOL     OW10687   3.719   4.863   2.918
 3263SOL    HW110688   3.706   4.852   3.017
 3263SOL    HW210689   3.815   4.844   2.895
 3264SOL     OW10690   4.891   4.791   5.957
 3264SOL    HW110691   4.828   4.853   6.003
 3264SOL    HW210692   4.975   4.840   5.933
 3265SOL     OW10693   5.206   0.188   6.076
 3265SOL    HW110694   5.231   0.285   6.071
 3265SOL    HW210695   5.254   0.137   6.005
 3266SOL     OW10696   1.222   2.784   6.380
 3266SOL    HW110697   1.284   2.743   6.313
 3266SOL    HW210698   1.275   2.824   6.454
 3267SOL     OW10699   5.180   2.862   1.588
 3267SOL    HW110700   5.217   2.778   1.549
 3267SOL    HW210701   5.196   2.863   1.687
 3268SOL     OW10702   1.903   4.979   6.758
 3268SOL    HW110703   1.962   5.054   6.729
 3268SOL    HW210704   1.923   4.898   6.703
 3269SOL     OW10705   4.507   3.438   0.696
 3269SOL    HW110706   4.449   3.481   0.766
 3269SOL    HW210707   4.541   3.350   0.730
 3270SOL     OW10708   0.231   4.977   3.910
 3270SOL    HW110709   0.275   5.060   3.877
 3270SOL    HW210710   0.131   4.988   3.906
 3271SOL     OW10711   4.697   0.165   1.999
 3271SOL    HW110712   4.629   0.238   1.990
 3271SOL    HW210713   4.656   0.086   2.045
 3272SOL     OW10714   4.919   6.364   6.854
 3272SOL    HW110715   4.932   6.285   6.794
 3272SOL    HW210716   4.842   6.346   6.916
 3273SOL     OW10717   1.288   0.679   3.159
 3273SOL    HW110718   1.268   0.681   3.257
 3273SOL    HW210719   1.203   0.682   3.107
 3274SOL     OW10720   2.937   1.571   6.526
 3274SOL    HW110721   2.837   1.565   6.527
 3274SOL    HW210722   2.971   1.587   6.618
 3275SOL     OW10723   4.554   0.819   6.790
 3275SOL    HW110724   4.503   0.859   6.866
 3275SOL    HW210725   4.502   0.744   6.749
 3276SOL     OW10726   2.042   6.199   0.113
 3276SOL    HW110727   2.041   6.102   0.089
 3276SOL    HW210728   1.968   6.217   0.178
 3277SOL     OW10729   6.865   6.293   6.288
 3277SOL    HW110730   6.885   6.359   6.360
 3277SOL    HW210731   6.822   6.340   6.211
 3278SOL     OW10732   0.710   0.760   0.036
 3278SOL    HW110733   0.790   0.813   0.008
 3278SOL    HW210734   0.627   0.811   0.016
 3279SOL     OW10735   1.894   6.469   1.040
 3279SOL    HW110736   1.985   6.489   1.074
 3279SOL    HW210737   1.871   6.374   1.061
 3280SOL     OW10738   2.603   6.509   4.242
 3280SOL    HW110739   2.547   6.553   4.172
 3280SOL    HW210740   2.562   6.523   4.332
 3281SOL     OW10741   2.294   6.436   0.617
 3281SOL    HW110742   2.286   6.407   0.522
 3281SOL    HW210743   2.382   6.481   0.631
 3282SOL     OW10744   2.077   5.437   2.561
 3282SOL    HW110745   2.144   5.382   2.611
 3282SOL    HW210746   1.998   5.380   2.538
 3283SOL     OW10747   1.934   6.663   3.386
 3283SOL    HW110748   2.013   6.607   3.414
 3283SOL    HW210749   1.964   6.757   3.371
 3284SOL     OW10750   1.233   4.936   5.745
 3284SOL    HW110751   1.286   4.999   5.801
 3284SOL    HW210752   1.255   4.950   5.649
 3285SOL     OW10753   0.435   2.934   3.954
 3285SOL    HW110754   0.351   2.887   3.927
 3285SOL    HW210755   0.508   2.867   3.969
 3286SOL     OW10756   4.627   4.551   6.397
 3286SOL    HW110757   4.559   4.623   6.410
 3286SOL    HW210758   4.607   4.501   6.313
 3287SOL     OW10759   0.189   3.410   1.531
 3287SOL    HW110760   0.267   3.450   1.578
 3287SOL    HW210761   0.107   3.462   1.551
 3288SOL     OW10762   0.961   0.045   6.695
 3288SOL    HW110763   0.952   0.048   6.794
 3288SOL    HW210764   0.934   6.978   6.661
 3289SOL     OW10765   1.507   6.089   4.284
 3289SOL    HW110766   1.537   6.182   4.261
 3289SOL    HW210767   1.410   6.090   4.309
 3290SOL     OW10768   0.053   4.817   3.394
 3290SOL    HW110769   0.103   4.903   3.396
 3290SOL    HW210770   0.115   4.743   3.366
 3291SOL     OW10771   1.935   0.792   2.296
 3291SOL    HW110772   2.007   0.747   2.244
 3291SOL    HW210773   1.973   0.869   2.347
 3292SOL     OW10774   0.931   5.729   4.810
 3292SOL    HW110775   0.899   5.683   4.727
 3292SOL    HW210776   0.933   5.662   4.885
 3293SOL     OW10777   6.222   0.838   3.329
 3293SOL    HW110778   6.190   0.933   3.337
 3293SOL    HW210779   6.145   0.776   3.342
 3294SOL     OW10780   0.228   6.799   0.958
 3294SOL    HW110781   0.308   6.740   0.963
 3294SOL    HW210782   0.146   6.746   0.980
 3295SOL     OW10783   2.249   2.574   6.168
 3295SOL    HW110784   2.251   2.637   6.091
 3295SOL    HW210785   2.280   2.621   6.251
 3296SOL     OW10786   0.938   6.567   2.695
 3296SOL    HW110787   0.984   6.550   2.782
 3296SOL    HW210788   0.986   6.641   2.647
 3297SOL     OW10789   3.473   1.330   6.001
 3297SOL    HW110790   3.403   1.377   6.056
 3297SOL    HW210791   3.551   1.308   6.059
 3298SOL     OW10792   0.068   4.578   2.325
 3298SOL    HW110793   0.122   4.592   2.408
 3298SOL    HW210794   0.125   4.598   2.245
 3299SOL     OW10795   1.081   1.650   4.524
 3299SOL    HW110796   1.138   1.568   4.529
 3299SOL    HW210797   1.040   1.667   4.614
 3300SOL     OW10798   6.695   0.263   5.100
 3300SOL    HW110799   6.765   0.276   5.170
 3300SOL    HW210800   6.734   0.215   5.022
 3301SOL     OW10801   6.600   3.856   2.240
 3301SOL    HW110802   6.620   3.891   2.331
 3301SOL    HW210803   6.630   3.921   2.171
 3302SOL     OW10804   1.243   6.143   5.362
 3302SOL    HW110805   1.336   6.146   5.324
 3302SOL    HW210806   1.236   6.209   5.437
 3303SOL     OW10807   2.997   3.372   3.941
 3303SOL    HW110808   2.980   3.404   4.035
 3303SOL    HW210809   3.091   3.394   3.915
 3304SOL     OW10810   1.749   0.438   3.276
 3304SOL    HW110811   1.651   0.438   3.258
 3304SOL    HW210812   1.792   0.517   3.233
 3305SOL     OW10813   0.816   2.977   0.239
 3305SOL    HW110814   0.817   2.882   0.268
 3305SOL    HW210815   0.729   3.019   0.263
 3306SOL     OW10816   1.384   2.576   2.311
 3306SOL    HW110817   1.400   2.673   2.290
 3306SOL    HW210818   1.288   2.563   2.336
 3307SOL     OW10819   0.990   0.191   0.467
 3307SOL    HW110820   1.019   0.212   0.374
 3307SOL    HW210821   0.981   0.092   0.478
 3308SOL     OW10822   5.282   6.218   1.044
 3308SOL    HW110823   5.254   6.240   0.951
 3308SOL    HW210824   5.287   6.303   1.098
 3309SOL     OW10825   1.456   4.741   2.060
 3309SOL    HW110826   1.522   4.779   2.125
 3309SOL    HW210827   1.364   4.749   2.097
 3310SOL     OW10828   1.731   6.959   2.123
 3310SOL    HW110829   1.690   0.027   2.131
 3310SOL    HW210830   1.831   6.968   2.118
 3311SOL     OW10831   3.899   5.623   0.836
 3311SOL    HW110832   3.980   5.577   0.871
 3311SOL    HW210833   3.886   5.710   0.885
 3312SOL     OW10834   1.607   2.727   6.112
 3312SOL    HW110835   1.621   2.668   6.191
 3312SOL    HW210836   1.619   2.823   6.138
 3313SOL     OW10837   6.047   6.475   4.933
 3313SOL    HW110838   5.959   6.434   4.956
 3313SOL    HW210839   6.068   6.457   4.837
 3314SOL     OW10840   0.970   4.575   6.680
 3314SOL    HW110841   0.873   4.562   6.703
 3314SOL    HW210842   1.023   4.584   6.764
 3315SOL     OW10843   6.632   2.814   3.380
 3315SOL    HW110844   6.623   2.910   3.352
 3315SOL    HW210845   6.617   2.755   3.301
 3316SOL     OW10846   4.337   1.297   0.314
 3316SOL    HW110847   4.369   1.281   0.407
 3316SOL    HW210848   4.297   1.388   0.307
 3317SOL     OW10849   4.306   2.097   1.522
 3317SOL    HW110850   4.378   2.062   1.462
 3317SOL    HW210851   4.330   2.076   1.617
 3318SOL     OW10852   2.683   5.436   5.628
 3318SOL    HW110853   2.766   5.428   5.572
 3318SOL    HW210854   2.622   5.505   5.588
 3319SOL     OW10855   6.453   6.225   6.870
 3319SOL    HW110856   6.363   6.227   6.827
 3319SOL    HW210857   6.497   6.137   6.853
 3320SOL     OW10858   0.760   0.501   1.085
 3320SOL    HW110859   0.782   0.536   1.176
 3320SOL    HW210860   0.797   0.563   1.016
 3321SOL     OW10861   3.789   3.937   4.353
 3321SOL    HW110862   3.766   3.843   4.330
 3321SOL    HW210863   3.740   3.963   4.437
 3322SOL     OW10864   4.728   2.025   2.385
 3322SOL    HW110865   4.659   1.974   2.333
 3322SOL    HW210866   4.804   1.963   2.407
 3323SOL     OW10867   1.869   4.587   0.258
 3323SOL    HW110868   1.892   4.682   0.233
 3323SOL    HW210869   1.770   4.576   0.258
 3324SOL     OW10870   6.112   3.263   1.634
 3324SOL    HW110871   6.168   3.333   1.678
 3324SOL    HW210872   6.148   3.173   1.656
 3325SOL     OW10873   0.916   4.908   5.750
 3325SOL    HW110874   0.971   4.840   5.701
 3325SOL    HW210875   0.941   4.907   5.847
 3326SOL     OW10876   5.565   0.527   2.232
 3326SOL    HW110877   5.553   0.609   2.288
 3326SOL    HW210878   5.504   0.531   2.153
 3327SOL     OW10879   4.686   5.927   1.938
 3327SOL    HW110880   4.665   6.017   1.899
 3327SOL    HW210881   4.776   5.930   1.982
 3328SOL     OW10882   6.250   6.769   4.262
 3328SOL    HW110883   6.212   6.822   4.186
 3328SOL    HW210884   6.307   6.828   4.319
 3329SOL     OW10885   5.735   0.624   6.003
 3329SOL    HW110886   5.700   0.700   6.058
 3329SOL    HW210887   5.744   0.542   6.060
 3330SOL     OW10888   6.928   6.822   2.610
 3330SOL    HW110889   6.949   6.744   2.551
 3330SOL    HW210890   6.964   6.906   2.569
 3331SOL     OW10891   1.504   4.058   2.664
 3331SOL    HW110892   1.521   4.119   2.741
 3331SOL    HW210893   1.580   3.995   2.654
 3332SOL     OW10894   3.763   5.291   0.152
 3332SOL    HW110895   3.681   5.346   0.138
 3332SOL    HW210896   3.834   5.348   0.193
 3333SOL     OW10897   1.676   3.691   1.035
 3333SOL    HW110898   1.740   3.642   0.977
 3333SOL    HW210899   1.653   3.635   1.115
 3334SOL     OW10900   1.206   2.239   2.393
 3334SOL    HW110901   1.196   2.338   2.387
 3334SOL    HW210902   1.131   2.194   2.344
 3335SOL     OW10903   3.709   4.250   5.774
 3335SOL    HW110904   3.786   4.304   5.738
 3335SOL    HW210905   3.673   4.293   5.856
 3336SOL     OW10906   3.928   6.119   5.769
 3336SOL    HW110907   3.928   6.021   5.748
 3336SOL    HW210908   4.018   6.146   5.804
 3337SOL     OW10909   3.609   2.877   3.899
 3337SOL    HW110910   3.535   2.942   3.879
 3337SOL    HW210911   3.661   2.859   3.815
 3338SOL     OW10912   2.660   3.242   1.534
 3338SOL    HW110913   2.672   3.317   1.469
 3338SOL    HW210914   2.643   3.280   1.625
 3339SOL     OW10915   0.686   6.448   6.771
 3339SOL    HW110916   0.677   6.425   6.868
 3339SOL    HW210917   0.605   6.498   6.741
 3340SOL     OW10918   4.422   1.158   6.326
 3340SOL    HW110919   4.361   1.222   6.373
 3340SOL    HW210920   4.468   1.101   6.393
 3341SOL     OW10921   1.391   4.096   1.242
 3341SOL    HW110922   1.453   4.029   1.202
 3341SOL    HW210923   1.306   4.098   1.190
 3342SOL     OW10924   5.747   0.311   2.170
 3342SOL    HW110925   5.817   0.326   2.240
 3342SOL    HW210926   5.700   0.398   2.150
 3343SOL     OW10927   3.535   5.387   0.786
 3343SOL    HW110928   3.506   5.355   0.877
 3343SOL    HW210929   3.512   5.484   0.777
 3344SOL     OW10930   1.216   3.414   1.452
 3344SOL    HW110931   1.247   3.468   1.531
 3344SOL    HW210932   1.150   3.467   1.399
 3345SOL     OW10933   5.231   5.354   1.329
 3345SOL    HW110934   5.247   5.453   1.334
 3345SOL    HW210935   5.157   5.329   1.392
 3346SOL     OW10936   1.272   0.794   0.135
 3346SOL    HW110937   1.368   0.768   0.152
 3346SOL    HW210938   1.231   0.825   0.221
 3347SOL     OW10939   1.198   3.876   5.415
 3347SOL    HW110940   1.223   3.900   5.321
 3347SOL    HW210941   1.265   3.812   5.451
 3348SOL     OW10942   3.346   4.017   6.285
 3348SOL    HW110943   3.251   3.994   6.266
 3348SOL    HW210944   3.352   4.112   6.316
 3349SOL     OW10945   1.574   5.725   1.842
 3349SOL    HW110946   1.665   5.706   1.880
 3349SOL    HW210947   1.575   5.710   1.744
 3350SOL     OW10948   2.301   5.018   5.156
 3350SOL    HW110949   2.243   5.002   5.236
 3350SOL    HW210950   2.361   4.939   5.142
 3351SOL     OW10951   5.009   6.774   1.860
 3351SOL    HW110952   5.013   6.807   1.766
 3351SOL    HW210953   5.049   6.683   1.865
 3352SOL     OW10954   5.411   1.319   6.932
 3352SOL    HW110955   5.450   1.410   6.945
 3352SOL    HW210956   5.331   1.325   6.872
 3353SOL     OW10957   3.984   0.930   6.596
 3353SOL    HW110958   4.002   0.924   6.498
 3353SOL    HW210959   4.071   0.935   6.646
 3354SOL     OW10960   2.357   3.151   0.312
 3354SOL    HW110961   2.348   3.075   0.247
 3354SOL    HW210962   2.438   3.204   0.288
 3355SOL     OW10963   1.268   1.122   4.801
 3355SOL    HW110964   1.179   1.080   4.819
 3355SOL    HW210965   1.300   1.094   4.711
 3356SOL     OW10966   3.125   0.991   6.059
 3356SOL    HW110967   3.126   0.922   5.986
 3356SOL    HW210968   3.216   1.031   6.069
 3357SOL     OW10969   2.908   3.659   3.340
 3357SOL    HW110970   2.915   3.713   3.423
 3357SOL    HW210971   2.924   3.718   3.260
 3358SOL     OW10972   0.026   1.932   1.083
 3358SOL    HW110973   0.071   1.980   1.008
 3358SOL    HW210974   0.022   1.992   1.164
 3359SOL     OW10975   1.395   6.730   4.180
 3359SOL    HW110976   1.399   6.636   4.145
 3359SOL    HW210977   1.431   6.792   4.110
 3360SOL     OW10978   1.548   5.274   4.664
 3360SOL    HW110979   1.611   5.346   4.635
 3360SOL    HW210980   1.464   5.316   4.698
 3361SOL     OW10981   6.571   6.734   4.320
 3361SOL    HW110982   6.555   6.784   4.235
 3361SOL    HW210983   6.591   6.799   4.393
 3362SOL     OW10984   3.890   0.341   4.425
 3362SOL    HW110985   3.826   0.288   4.480
 3362SOL    HW210986   3.929   0.284   4.353
 3363SOL     OW10987   5.401   3.773   0.341
 3363SOL    HW110988   5.362   3.761   0.432
 3363SOL    HW210989   5.333   3.752   0.271
 3364SOL     OW10990   1.728   3.532   1.538
 3364SOL    HW110991   1.806   3.479   1.503
 3364SOL    HW210992   1.712   3.506   1.634
 3365SOL     OW10993   1.178   2.572   2.766
 3365SOL    HW110994   1.209   2.618   2.849
 3365SOL    HW210995   1.250   2.574   2.697
 3366SOL     OW10996   6.040   2.410   4.063
 3366SOL    HW110997   5.971   2.476   4.096
 3366SOL    HW210998   6.065   2.433   3.969
 3367SOL     OW10999   3.654   3.207   3.623
 3367SOL    HW111000   3.561   3.237   3.641
 3367SOL    HW211001   3.653   3.114   3.585
 3368SOL     OW11002   2.622   1.018   3.493
 3368SOL    HW111003   2.564   1.075   3.552
 3368SOL    HW211004   2.634   1.062   3.405
 3369SOL     OW11005   5.161   2.833   1.291
 3369SOL    HW111006   5.129   2.799   1.202
 3369SOL    HW211007   5.166   2.757   1.355
 3370SOL     OW11008   0.919   5.285   2.874
 3370SOL    HW111009   1.000   5.301   2.819
 3370SOL    HW211010   0.883   5.372   2.908
 3371SOL     OW11011   2.615   3.006   1.423
 3371SOL    HW111012   2.563   3.017   1.338
 3371SOL    HW211013   2.635   3.096   1.462
 3372SOL     OW11014   5.599   2.633   3.501
 3372SOL    HW111015   5.695   2.633   3.527
 3372SOL    HW211016   5.553   2.711   3.544
 3373SOL     OW11017   0.249   4.376   0.518
 3373SOL    HW111018   0.217   4.466   0.488
 3373SOL    HW211019   0.328   4.349   0.463
 3374SOL     OW11020   1.327   5.477   4.026
 3374SOL    HW111021   1.273   5.394   4.021
 3374SOL    HW211022   1.391   5.472   4.102
 3375SOL     OW11023   0.315   6.182   5.750
 3375SOL    HW111024   0.239   6.246   5.737
 3375SOL    HW211025   0.388   6.227   5.800
 3376SOL     OW11026   3.242   3.417   5.012
 3376SOL    HW111027   3.276   3.466   5.092
 3376SOL    HW211028   3.314   3.411   4.943
 3377SOL     OW11029   6.787   5.394   4.159
 3377SOL    HW111030   6.875   5.350   4.178
 3377SOL    HW211031   6.733   5.397   4.243
 3378SOL     OW11032   0.927   5.716   0.534
 3378SOL    HW111033   0.884   5.697   0.446
 3378SOL    HW211034   0.868   5.684   0.608
 3379SOL     OW11035   5.908   4.228   4.041
 3379SOL    HW111036   5.817   4.269   4.035
 3379SOL    HW211037   5.937   4.225   4.137
 3380SOL     OW11038   2.066   5.411   1.902
 3380SOL    HW111039   2.108   5.320   1.910
 3380SOL    HW211040   1.992   5.419   1.970
 3381SOL     OW11041   2.809   3.926   6.276
 3381SOL    HW111042   2.788   3.840   6.324
 3381SOL    HW211043   2.826   3.906   6.179
 3382SOL     OW11044   6.965   3.749   6.476
 3382SOL    HW111045   6.965   3.723   6.572
 3382SOL    HW211046   6.974   3.849   6.469
 3383SOL     OW11047   3.017   6.020   0.756
 3383SOL    HW111048   2.967   6.103   0.776
 3383SOL    HW211049   2.965   5.964   0.691
 3384SOL     OW11050   2.752   2.778   6.461
 3384SOL    HW111051   2.752   2.870   6.421
 3384SOL    HW211052   2.829   2.769   6.525
 3385SOL     OW11053   5.715   2.853   4.767
 3385SOL    HW111054   5.773   2.933   4.775
 3385SOL    HW211055   5.696   2.834   4.671
 3386SOL     OW11056   0.614   5.722   4.893
 3386SOL    HW111057   0.618   5.789   4.967
 3386SOL    HW211058   0.634   5.630   4.930
 3387SOL     OW11059   6.131   0.023   2.922
 3387SOL    HW111060   6.207   0.088   2.921
 3387SOL    HW211061   6.096   0.011   2.829
 3388SOL     OW11062   0.876   4.094   0.384
 3388SOL    HW111063   0.907   4.050   0.300
 3388SOL    HW211064   0.832   4.027   0.443
 3389SOL     OW11065   6.530   5.366   6.171
 3389SOL    HW111066   6.441   5.377   6.215
 3389SOL    HW211067   6.578   5.454   6.171
 3390SOL     OW11068   3.289   5.650   0.529
 3390SOL    HW111069   3.344   5.732   0.512
 3390SOL    HW211070   3.319   5.577   0.468
 3391SOL     OW11071   5.085   3.901   5.277
 3391SOL    HW111072   5.058   3.992   5.306
 3391SOL    HW211073   5.176   3.904   5.237
 3392SOL     OW11074   5.302   6.332   5.589
 3392SOL    HW111075   5.387   6.381   5.568
 3392SOL    HW211076   5.283   6.265   5.518
 3393SOL     OW11077   3.493   0.158   0.360
 3393SOL    HW111078   3.502   0.190   0.455
 3393SOL    HW211079   3.468   0.061   0.361
 3394SOL     OW11080   2.843   5.462   1.355
 3394SOL    HW111081   2.788   5.390   1.398
 3394SOL    HW211082   2.812   5.477   1.262
 3395SOL     OW11083   1.944   6.538   3.110
 3395SOL    HW111084   1.952   6.633   3.139
 3395SOL    HW211085   1.904   6.484   3.184
 3396SOL     OW11086   4.631   0.641   4.877
 3396SOL    HW111087   4.610   0.674   4.969
 3396SOL    HW211088   4.558   0.668   4.814
 3397SOL     OW11089   2.468   6.102   1.228
 3397SOL    HW111090   2.427   6.090   1.137
 3397SOL    HW211091   2.500   6.197   1.237
 3398SOL     OW11092   6.877   0.942   6.398
 3398SOL    HW111093   6.968   0.973   6.426
 3398SOL    HW211094   6.810   1.012   6.420
 3399SOL     OW11095   0.263   6.125   2.325
 3399SOL    HW111096   0.265   6.172   2.237
 3399SOL    HW211097   0.332   6.166   2.386
 3400SOL     OW11098   3.441   2.707   5.458
 3400SOL    HW111099   3.378   2.630   5.450
 3400SOL    HW211100   3.523   2.678   5.509
 3401SOL     OW11101   6.703   3.185   3.906
 3401SOL    HW111102   6.701   3.285   3.901
 3401SOL    HW211103   6.783   3.151   3.857
 3402SOL     OW11104   5.700   3.350   0.410
 3402SOL    HW111105   5.670   3.445   0.409
 3402SOL    HW211106   5.664   3.304   0.491
 3403SOL     OW11107   5.614   6.393   4.612
 3403SOL    HW111108   5.559   6.476   4.625
 3403SOL    HW211109   5.582   6.344   4.531
 3404SOL     OW11110   5.048   5.211   3.091
 3404SOL    HW111111   5.138   5.173   3.110
 3404SOL    HW211112   4.979   5.139   3.097
 3405SOL     OW11113   4.352   5.971   1.090
 3405SOL    HW111114   4.350   6.049   1.153
 3405SOL    HW211115   4.397   5.997   1.005
 3406SOL     OW11116   3.776   4.974   0.994
 3406SOL    HW111117   3.758   4.922   1.077
 3406SOL    HW211118   3.800   5.068   1.017
 3407SOL     OW11119   1.620   2.710   0.420
 3407SOL    HW111120   1.528   2.740   0.396
 3407SOL    HW211121   1.629   2.706   0.520
 3408SOL     OW11122   4.204   6.344   4.120
 3408SOL    HW111123   4.145   6.410   4.073
 3408SOL    HW211124   4.188   6.252   4.081
 3409SOL     OW11125   4.391   2.190   6.881
 3409SOL    HW111126   4.379   2.284   6.913
 3409SOL    HW211127   4.311   2.161   6.829
 3410SOL     OW11128   6.887   0.620   2.336
 3410SOL    HW111129   6.882   0.560   2.256
 3410SOL    HW211130   6.850   0.572   2.415
 3411SOL     OW11131   5.892   3.182   5.991
 3411SOL    HW111132   5.848   3.135   6.067
 3411SOL    HW211133   5.835   3.259   5.962
 3412SOL     OW11134   5.414   2.847   3.915
 3412SOL    HW111135   5.425   2.915   3.843
 3412SOL    HW211136   5.316   2.831   3.931
 3413SOL     OW11137   0.201   2.619   0.607
 3413SOL    HW111138   0.286   2.666   0.634
 3413SOL    HW211139   0.221   2.523   0.587
 3414SOL     OW11140   3.841   3.038   1.931
 3414SOL    HW111141   3.854   2.954   1.877
 3414SOL    HW211142   3.760   3.086   1.897
 3415SOL     OW11143   2.691   1.435   6.223
 3415SOL    HW111144   2.719   1.518   6.271
 3415SOL    HW211145   2.615   1.393   6.272
 3416SOL     OW11146   5.454   6.600   5.988
 3416SOL    HW111147   5.521   6.661   5.945
 3416SOL    HW211148   5.368   6.650   6.002
 3417SOL     OW11149   5.678   0.300   2.607
 3417SOL    HW111150   5.698   0.322   2.703
 3417SOL    HW211151   5.618   0.371   2.569
 3418SOL     OW11152   4.195   6.055   0.695
 3418SOL    HW111153   4.254   6.115   0.749
 3418SOL    HW211154   4.099   6.072   0.720
 3419SOL     OW11155   3.088   4.779   5.234
 3419SOL    HW111156   3.080   4.836   5.152
 3419SOL    HW211157   3.028   4.700   5.225
 3420SOL     OW11158   4.013   1.073   2.012
 3420SOL    HW111159   4.083   1.038   1.950
 3420SOL    HW211160   3.923   1.062   1.970
 3421SOL     OW11161   0.078   1.571   4.366
 3421SOL    HW111162   0.133   1.577   4.450
 3421SOL    HW211163   0.017   1.650   4.362
 3422SOL     OW11164   3.333   5.707   2.104
 3422SOL    HW111165   3.347   5.740   2.197
 3422SOL    HW211166   3.337   5.607   2.102
 3423SOL     OW11167   2.207   4.676   6.274
 3423SOL    HW111168   2.203   4.670   6.175
 3423SOL    HW211169   2.249   4.763   6.301
 3424SOL     OW11170   5.572   6.969   2.275
 3424SOL    HW111171   5.644   7.001   2.213
 3424SOL    HW211172   5.586   7.008   2.366
 3425SOL     OW11173   5.720   3.004   6.183
 3425SOL    HW111174   5.628   3.001   6.223
 3425SOL    HW211175   5.786   3.033   6.253
 3426SOL     OW11176   6.680   5.599   6.578
 3426SOL    HW111177   6.656   5.538   6.654
 3426SOL    HW211178   6.597   5.635   6.536
 3427SOL     OW11179   2.135   1.472   6.435
 3427SOL    HW111180   2.175   1.551   6.388
 3427SOL    HW211181   2.138   1.393   6.374
 3428SOL     OW11182   5.248   0.489   4.194
 3428SOL    HW111183   5.312   0.552   4.150
 3428SOL    HW211184   5.293   0.401   4.209
 3429SOL     OW11185   4.330   6.291   0.783
 3429SOL    HW111186   4.426   6.283   0.758
 3429SOL    HW211187   4.276   6.312   0.701
 3430SOL     OW11188   3.043   4.645   6.943
 3430SOL    HW111189   2.960   4.700   6.929
 3430SOL    HW211190   3.121   4.693   6.904
 3431SOL     OW11191   0.859   4.495   2.989
 3431SOL    HW111192   0.948   4.502   3.033
 3431SOL    HW211193   0.864   4.533   2.896
 3432SOL     OW11194   0.450   5.225   6.680
 3432SOL    HW111195   0.523   5.292   6.668
 3432SOL    HW211196   0.416   5.195   6.591
 3433SOL     OW11197   0.498   0.616   0.460
 3433SOL    HW111198   0.547   0.579   0.381
 3433SOL    HW211199   0.519   0.713   0.469
 3434SOL     OW11200   3.883   2.056   2.241
 3434SOL    HW111201   3.886   2.156   2.242
 3434SOL    HW211202   3.837   2.024   2.158
 3435SOL     OW11203   2.046   3.016   1.064
 3435SOL    HW111204   2.038   3.090   1.131
 3435SOL    HW211205   2.116   3.040   0.997
 3436SOL     OW11206   4.200   6.161   5.842
 3436SOL    HW111207   4.268   6.089   5.830
 3436SOL    HW211208   4.174   6.167   5.939
 3437SOL     OW11209   1.356   6.642   0.078
 3437SOL    HW111210   1.306   6.604   0.156
 3437SOL    HW211211   1.453   6.618   0.086
 3438SOL     OW11212   2.199   4.133   0.717
 3438SOL    HW111213   2.165   4.071   0.647
 3438SOL    HW211214   2.293   4.107   0.742
 3439SOL     OW11215   2.675   6.064   0.777
 3439SOL    HW111216   2.704   6.159   0.784
 3439SOL    HW211217   2.733   6.017   0.710
 3440SOL     OW11218   3.625   3.825   5.900
 3440SOL    HW111219   3.602   3.862   5.990
 3440SOL    HW211220   3.694   3.753   5.911
 3441SOL     OW11221   6.579   5.010   4.948
 3441SOL    HW111222   6.617   5.034   4.859
 3441SOL    HW211223   6.628   4.932   4.986
 3442SOL     OW11224   1.429   1.907   0.463
 3442SOL    HW111225   1.330   1.900   0.447
 3442SOL    HW211226   1.461   1.825   0.510
 3443SOL     OW11227   0.562   5.965   2.558
 3443SOL    HW111228   0.590   6.026   2.483
 3443SOL    HW211229   0.623   5.886   2.560
 3444SOL     OW11230   0.367   4.287   6.239
 3444SOL    HW111231   0.331   4.335   6.158
 3444SOL    HW211232   0.461   4.258   6.221
 3445SOL     OW11233   5.795   5.381   4.595
 3445SOL    HW111234   5.814   5.452   4.526
 3445SOL    HW211235   5.822   5.292   4.559
 3446SOL     OW11236   4.758   1.871   0.049
 3446SOL    HW111237   4.728   1.939   7.004
 3446SOL    HW211238   4.693   1.870   0.125
 3447SOL     OW11239   5.028   1.564   5.941
 3447SOL    HW111240   5.102   1.626   5.966
 3447SOL    HW211241   5.021   1.559   5.841
 3448SOL     OW11242   0.724   4.841   5.404
 3448SOL    HW111243   0.800   4.906   5.395
 3448SOL    HW211244   0.691   4.840   5.498
 3449SOL     OW11245   1.133   3.822   5.036
 3449SOL    HW111246   1.043   3.863   5.019
 3449SOL    HW211247   1.191   3.887   5.084
 3450SOL     OW11248   2.618   6.670   2.384
 3450SOL    HW111249   2.565   6.734   2.439
 3450SOL    HW211250   2.560   6.595   2.353
 3451SOL     OW11251   1.665   2.032   0.485
 3451SOL    HW111252   1.572   1.995   0.486
 3451SOL    HW211253   1.702   2.028   0.392
 3452SOL     OW11254   4.490   1.005   6.533
 3452SOL    HW111255   4.430   1.023   6.610
 3452SOL    HW211256   4.583   0.989   6.565
 3453SOL     OW11257   4.415   6.321   5.674
 3453SOL    HW111258   4.340   6.270   5.716
 3453SOL    HW211259   4.443   6.395   5.736
 3454SOL     OW11260   1.277   2.733   2.976
 3454SOL    HW111261   1.288   2.808   2.911
 3454SOL    HW211262   1.299   2.766   3.068
 3455SOL     OW11263   0.520   4.447   5.970
 3455SOL    HW111264   0.558   4.459   5.879
 3455SOL    HW211265   0.581   4.489   6.038
 3456SOL     OW11266   4.482   5.532   3.258
 3456SOL    HW111267   4.390   5.556   3.226
 3456SOL    HW211268   4.493   5.433   3.257
 3457SOL     OW11269   4.053   4.218   0.041
 3457SOL    HW111270   4.079   4.125   0.013
 3457SOL    HW211271   3.958   4.218   0.073
 3458SOL     OW11272   4.458   2.149   1.019
 3458SOL    HW111273   4.361   2.164   1.004
 3458SOL    HW211274   4.480   2.052   1.008
 3459SOL     OW11275   6.689   6.804   2.286
 3459SOL    HW111276   6.663   6.723   2.338
 3459SOL    HW211277   6.735   6.777   2.201
 3460SOL     OW11278   4.159   1.538   5.398
 3460SOL    HW111279   4.170   1.582   5.308
 3460SOL    HW211280   4.061   1.526   5.417
 3461SOL     OW11281   4.841   4.208   3.594
 3461SOL    HW111282   4.854   4.201   3.495
 3461SOL    HW211283   4.878   4.294   3.627
 3462SOL     OW11284   1.214   5.018   6.421
 3462SOL    HW111285   1.273   4.991   6.345
 3462SOL    HW211286   1.270   5.054   6.495
 3463SOL     OW11287   5.956   4.409   0.037
 3463SOL    HW111288   5.873   4.364   0.006
 3463SOL    HW211289   6.028   4.341   0.052
 3464SOL     OW11290   0.317   4.252   3.852
 3464SOL    HW111291   0.246   4.222   3.788
 3464SOL    HW211292   0.384   4.179   3.863
 3465SOL     OW11293   0.590   3.010   1.569
 3465SOL    HW111294   0.603   2.912   1.580
 3465SOL    HW211295   0.502   3.036   1.608
 3466SOL     OW11296   6.321   3.803   3.510
 3466SOL    HW111297   6.283   3.711   3.521
 3466SOL    HW211298   6.379   3.805   3.429
 3467SOL     OW11299   1.740   2.671   6.365
 3467SOL    HW111300   1.805   2.617   6.418
 3467SOL    HW211301   1.770   2.767   6.362
 3468SOL     OW11302   4.506   5.781   1.760
 3468SOL    HW111303   4.546   5.791   1.852
 3468SOL    HW211304   4.580   5.775   1.693
 3469SOL     OW11305   5.175   4.288   0.177
 3469SOL    HW111306   5.202   4.207   0.229
 3469SOL    HW211307   5.075   4.291   0.169
 3470SOL     OW11308   6.378   5.229   1.428
 3470SOL    HW111309   6.312   5.190   1.492
 3470SOL    HW211310   6.461   5.174   1.428
 3471SOL     OW11311   4.208   6.537   4.787
 3471SOL    HW111312   4.204   6.629   4.747
 3471SOL    HW211313   4.297   6.523   4.830
 3472SOL     OW11314   4.431   0.662   4.677
 3472SOL    HW111315   4.342   0.708   4.690
 3472SOL    HW211316   4.417   0.563   4.676
 3473SOL     OW11317   4.482   6.102   3.897
 3473SOL    HW111318   4.408   6.086   3.831
 3473SOL    HW211319   4.480   6.197   3.927
 3474SOL     OW11320   4.197   4.552   0.228
 3474SOL    HW111321   4.143   4.605   0.293
 3474SOL    HW211322   4.292   4.583   0.230
 3475SOL     OW11323   1.624   5.067   5.265
 3475SOL    HW111324   1.651   4.989   5.321
 3475SOL    HW211325   1.667   5.150   5.300
 3476SOL     OW11326   3.879   1.730   3.505
 3476SOL    HW111327   3.886   1.663   3.431
 3476SOL    HW211328   3.951   1.714   3.572
 3477SOL     OW11329   4.838   5.282   2.174
 3477SOL    HW111330   4.838   5.276   2.074
 3477SOL    HW211331   4.797   5.369   2.202
 3478SOL     OW11332   3.423   3.907   0.430
 3478SOL    HW111333   3.494   3.905   0.500
 3478SOL    HW211334   3.403   4.002   0.405
 3479SOL     OW11335   1.869   0.424   0.430
 3479SOL    HW111336   1.810   0.343   0.430
 3479SOL    HW211337   1.932   0.419   0.508
 3480SOL     OW11338   1.255   6.556   4.508
 3480SOL    HW111339   1.287   6.643   4.545
 3480SOL    HW211340   1.326   6.487   4.517
 3481SOL     OW11341   2.364   5.636   0.185
 3481SOL    HW111342   2.363   5.540   0.213
 3481SOL    HW211343   2.274   5.675   0.201
 3482SOL     OW11344   0.041   2.458   1.206
 3482SOL    HW111345   0.004   2.503   1.125
 3482SOL    HW211346   0.141   2.454   1.200
 3483SOL     OW11347   3.898   1.156   0.786
 3483SOL    HW111348   3.807   1.116   0.794
 3483SOL    HW211349   3.906   1.205   0.700
 3484SOL     OW11350   3.400   4.083   3.370
 3484SOL    HW111351   3.373   4.117   3.460
 3484SOL    HW211352   3.339   4.009   3.343
 3485SOL     OW11353   6.082   2.151   5.090
 3485SOL    HW111354   6.148   2.081   5.063
 3485SOL    HW211355   6.030   2.180   5.010
 3486SOL     OW11356   5.866   0.792   3.579
 3486SOL    HW111357   5.886   0.889   3.588
 3486SOL    HW211358   5.942   0.746   3.532
 3487SOL     OW11359   1.158   6.949   0.751
 3487SOL    HW111360   1.150   6.959   0.851
 3487SOL    HW211361   1.228   6.881   0.730
 3488SOL     OW11362   6.047   3.730   4.395
 3488SOL    HW111363   6.046   3.752   4.298
 3488SOL    HW211364   5.954   3.709   4.425
 3489SOL     OW11365   2.941   5.451   6.750
 3489SOL    HW111366   2.875   5.393   6.797
 3489SOL    HW211367   2.977   5.520   6.814
 3490SOL     OW11368   4.690   4.056   0.479
 3490SOL    HW111369   4.591   4.065   0.470
 3490SOL    HW211370   4.734   4.140   0.447
 3491SOL     OW11371   5.535   2.652   5.120
 3491SOL    HW111372   5.455   2.711   5.131
 3491SOL    HW211373   5.514   2.580   5.053
 3492SOL     OW11374   6.421   4.629   6.617
 3492SOL    HW111375   6.391   4.624   6.522
 3492SOL    HW211376   6.484   4.554   6.637
 3493SOL     OW11377   6.518   4.123   1.087
 3493SOL    HW111378   6.510   4.137   1.185
 3493SOL    HW211379   6.606   4.158   1.055
 3494SOL     OW11380   3.256   6.398   1.307
 3494SOL    HW111381   3.291   6.483   1.345
 3494SOL    HW211382   3.157   6.393   1.320
 3495SOL     OW11383   5.901   4.799   6.213
 3495SOL    HW111384   5.863   4.716   6.171
 3495SOL    HW211385   5.865   4.879   6.166
 3496SOL     OW11386   0.494   5.497   1.254
 3496SOL    HW111387   0.455   5.529   1.340
 3496SOL    HW211388   0.560   5.563   1.219
 3497SOL     OW11389   3.774   6.995   4.834
 3497SOL    HW111390   3.730   6.938   4.904
 3497SOL    HW211391   3.786   0.065   4.869
 3498SOL     OW11392   0.869   1.537   0.244
 3498SOL    HW111393   0.962   1.529   0.278
 3498SOL    HW211394   0.867   1.511   0.147
 3499SOL     OW11395   7.003   4.057   4.081
 3499SOL    HW111396   6.946   4.131   4.118
 3499SOL    HW211397   6.990   4.052   3.982
 3500SOL     OW11398   5.739   2.907   0.944
 3500SOL    HW111399   5.744   2.996   0.898
 3500SOL    HW211400   5.686   2.843   0.888
 3501SOL     OW11401   0.772   4.747   3.094
 3501SOL    HW111402   0.773   4.686   3.173
 3501SOL    HW211403   0.736   4.699   3.015
 3502SOL     OW11404   0.782   5.013   1.675
 3502SOL    HW111405   0.816   5.063   1.595
 3502SOL    HW211406   0.683   5.026   1.682
 3503SOL     OW11407   3.717   6.836   3.847
 3503SOL    HW111408   3.713   6.851   3.748
 3503SOL    HW211409   3.624   6.831   3.883
 3504SOL     OW11410   2.092   2.974   2.263
 3504SOL    HW111411   2.104   3.070   2.239
 3504SOL    HW211412   2.135   2.956   2.352
 3505SOL     OW11413   4.762   6.340   4.991
 3505SOL    HW111414   4.668   6.361   4.966
 3505SOL    HW211415   4.824   6.402   4.944
 3506SOL     OW11416   6.827   4.558   2.326
 3506SOL    HW111417   6.787   4.624   2.262
 3506SOL    HW211418   6.926   4.562   2.320
 3507SOL     OW11419   7.001   0.084   5.989
 3507SOL    HW111420   0.013   7.013   5.993
 3507SOL    HW211421   7.000   0.123   6.081
 3508SOL     OW11422   6.681   4.215   6.848
 3508SOL    HW111423   6.756   4.148   6.855
 3508SOL    HW211424   6.599   4.170   6.814
 3509SOL     OW11425   5.102   6.829   6.860
 3509SOL    HW111426   5.084   6.894   6.934
 3509SOL    HW211427   5.201   6.816   6.852
 3510SOL     OW11428   1.924   1.470   1.925
 3510SOL    HW111429   1.849   1.487   1.862
 3510SOL    HW211430   1.979   1.553   1.936
 3511SOL     OW11431   1.022   0.729   4.544
 3511SOL    HW111432   0.960   0.777   4.606
 3511SOL    HW211433   1.093   0.683   4.596
 3512SOL     OW11434   4.141   3.051   1.166
 3512SOL    HW111435   4.095   3.109   1.233
 3512SOL    HW211436   4.184   2.974   1.213
 3513SOL     OW11437   6.181   4.300   1.314
 3513SOL    HW111438   6.242   4.380   1.321
 3513SOL    HW211439   6.204   4.234   1.385
 3514SOL     OW11440   2.344   6.125   1.979
 3514SOL    HW111441   2.258   6.091   2.018
 3514SOL    HW211442   2.420   6.072   2.015
 3515SOL     OW11443   3.677   5.764   3.512
 3515SOL    HW111444   3.706   5.858   3.495
 3515SOL    HW211445   3.751   5.701   3.490
 3516SOL     OW11446   1.945   0.704   0.096
 3516SOL    HW111447   1.942   0.761   0.178
 3516SOL    HW211448   1.988   0.616   0.118
 3517SOL     OW11449   0.431   0.598   6.981
 3517SOL    HW111450   0.467   0.511   7.014
 3517SOL    HW211451   0.478   0.624   6.896
 3518SOL     OW11452   4.204   3.116   6.275
 3518SOL    HW111453   4.210   3.106   6.176
 3518SOL    HW211454   4.115   3.155   6.299
 3519SOL     OW11455   3.339   0.090   0.621
 3519SOL    HW111456   3.282   0.153   0.569
 3519SOL    HW211457   3.426   0.134   0.644
 3520SOL     OW11458   3.548   4.834   1.659
 3520SOL    HW111459   3.519   4.910   1.717
 3520SOL    HW211460   3.524   4.747   1.703
 3521SOL     OW11461   6.650   1.892   5.614
 3521SOL    HW111462   6.706   1.950   5.555
 3521SOL    HW211463   6.709   1.847   5.682
 3522SOL     OW11464   2.727   0.634   0.810
 3522SOL    HW111465   2.668   0.703   0.767
 3522SOL    HW211466   2.801   0.679   0.858
 3523SOL     OW11467   2.060   4.435   4.970
 3523SOL    HW111468   2.115   4.427   4.888
 3523SOL    HW211469   2.119   4.429   5.051
 3524SOL     OW11470   2.661   1.350   3.479
 3524SOL    HW111471   2.575   1.401   3.478
 3524SOL    HW211472   2.737   1.414   3.469
 3525SOL     OW11473   1.648   3.064   3.372
 3525SOL    HW111474   1.588   2.987   3.349
 3525SOL    HW211475   1.608   3.149   3.337
 3526SOL     OW11476   3.521   6.336   3.668
 3526SOL    HW111477   3.537   6.284   3.584
 3526SOL    HW211478   3.570   6.423   3.663
 3527SOL     OW11479   5.539   3.553   0.227
 3527SOL    HW111480   5.492   3.618   0.286
 3527SOL    HW211481   5.608   3.600   0.172
 3528SOL     OW11482   1.779   0.169   4.694
 3528SOL    HW111483   1.697   0.163   4.751
 3528SOL    HW211484   1.813   0.263   4.694
 3529SOL     OW11485   3.592   5.511   0.129
 3529SOL    HW111486   3.687   5.541   0.121
 3529SOL    HW211487   3.537   5.559   0.060
 3530SOL     OW11488   1.979   5.634   3.003
 3530SOL    HW111489   2.029   5.635   2.916
 3530SOL    HW211490   1.912   5.709   3.004
 3531SOL     OW11491   4.954   5.014   0.108
 3531SOL    HW111492   5.013   4.936   0.131
 3531SOL    HW211493   4.996   5.099   0.140
 3532SOL     OW11494   2.316   6.798   0.962
 3532SOL    HW111495   2.237   6.857   0.976
 3532SOL    HW211496   2.286   6.703   0.960
 3533SOL     OW11497   1.534   0.911   3.473
 3533SOL    HW111498   1.494   1.003   3.468
 3533SOL    HW211499   1.634   0.918   3.466
 3534SOL     OW11500   5.295   6.876   4.540
 3534SOL    HW111501   5.292   6.847   4.445
 3534SOL    HW211502   5.223   6.831   4.592
 3535SOL     OW11503   4.958   6.217   0.235
 3535SOL    HW111504   4.899   6.293   0.209
 3535SOL    HW211505   4.998   6.235   0.325
 3536SOL     OW11506   1.141   3.587   2.439
 3536SOL    HW111507   1.127   3.600   2.537
 3536SOL    HW211508   1.231   3.547   2.423
 3537SOL     OW11509   2.933   4.990   1.564
 3537SOL    HW111510   2.840   5.026   1.558
 3537SOL    HW211511   2.933   4.892   1.544
 3538SOL     OW11512   4.090   0.646   3.778
 3538SOL    HW111513   4.021   0.711   3.811
 3538SOL    HW211514   4.165   0.696   3.734
 3539SOL     OW11515   4.894   5.466   4.920
 3539SOL    HW111516   4.941   5.555   4.925
 3539SOL    HW211517   4.891   5.436   4.825
 3540SOL     OW11518   3.729   4.809   6.423
 3540SOL    HW111519   3.740   4.771   6.515
 3540SOL    HW211520   3.763   4.744   6.355
 3541SOL     OW11521   0.397   2.879   2.255
 3541SOL    HW111522   0.445   2.966   2.248
 3541SOL    HW211523   0.340   2.878   2.336
 3542SOL     OW11524   5.845   2.084   0.170
 3542SOL    HW111525   5.805   2.174   0.187
 3542SOL    HW211526   5.795   2.015   0.222
 3543SOL     OW11527   6.764   2.685   3.853
 3543SOL    HW111528   6.751   2.738   3.769
 3543SOL    HW211529   6.688   2.620   3.863
 3544SOL     OW11530   2.723   4.616   6.408
 3544SOL    HW111531   2.710   4.680   6.484
 3544SOL    HW211532   2.759   4.529   6.444
 3545SOL     OW11533   3.560   6.805   1.121
 3545SOL    HW111534   3.643   6.854   1.098
 3545SOL    HW211535   3.481   6.854   1.085
 3546SOL     OW11536   6.186   4.639   1.545
 3546SOL    HW111537   6.255   4.664   1.613
 3546SOL    HW211538   6.228   4.636   1.455
 3547SOL     OW11539   0.893   3.783   4.447
 3547SOL    HW111540   0.837   3.703   4.428
 3547SOL    HW211541   0.895   3.801   4.545
 3548SOL     OW11542   6.756   0.425   5.505
 3548SOL    HW111543   6.720   0.480   5.430
 3548SOL    HW211544   6.856   0.433   5.507
 3549SOL     OW11545   2.232   6.570   6.711
 3549SOL    HW111546   2.185   6.586   6.625
 3549SOL    HW211547   2.183   6.615   6.785
 3550SOL     OW11548   5.868   2.133   6.193
 3550SOL    HW111549   5.957   2.136   6.147
 3550SOL    HW211550   5.862   2.207   6.259
 3551SOL     OW11551   5.776   1.426   5.273
 3551SOL    HW111552   5.811   1.484   5.346
 3551SOL    HW211553   5.728   1.347   5.313
 3552SOL     OW11554   0.141   0.351   3.355
 3552SOL    HW111555   0.056   0.318   3.397
 3552SOL    HW211556   0.186   0.275   3.308
 3553SOL     OW11557   6.074   6.161   6.286
 3553SOL    HW111558   6.106   6.163   6.381
 3553SOL    HW211559   6.035   6.072   6.266
 3554SOL     OW11560   5.037   4.457   6.817
 3554SOL    HW111561   5.010   4.527   6.750
 3554SOL    HW211562   5.136   4.444   6.814
 3555SOL     OW11563   2.412   1.425   5.413
 3555SOL    HW111564   2.498   1.389   5.450
 3555SOL    HW211565   2.425   1.451   5.317
 3556SOL     OW11566   6.087   0.875   0.473
 3556SOL    HW111567   6.008   0.829   0.514
 3556SOL    HW211568   6.093   0.850   0.376
 3557SOL     OW11569   4.586   6.377   1.273
 3557SOL    HW111570   4.683   6.376   1.294
 3557SOL    HW211571   4.571   6.421   1.185
 3558SOL     OW11572   4.220   5.467   2.143
 3558SOL    HW111573   4.184   5.462   2.237
 3558SOL    HW211574   4.297   5.404   2.134
 3559SOL     OW11575   3.883   6.545   6.404
 3559SOL    HW111576   3.968   6.571   6.451
 3559SOL    HW211577   3.805   6.565   6.463
 3560SOL     OW11578   2.169   5.996   4.531
 3560SOL    HW111579   2.127   5.961   4.615
 3560SOL    HW211580   2.240   5.932   4.501
 3561SOL     OW11581   3.703   3.001   5.859
 3561SOL    HW111582   3.801   3.005   5.880
 3561SOL    HW211583   3.690   2.952   5.773
 3562SOL     OW11584   2.563   1.350   0.525
 3562SOL    HW111585   2.481   1.353   0.469
 3562SOL    HW211586   2.566   1.265   0.577
 3563SOL     OW11587   0.302   2.434   6.977
 3563SOL    HW111588   0.313   2.532   6.964
 3563SOL    HW211589   0.204   2.411   6.977
 3564SOL     OW11590   6.267   3.631   2.801
 3564SOL    HW111591   6.189   3.570   2.789
 3564SOL    HW211592   6.234   3.722   2.828
 3565SOL     OW11593   4.614   6.099   5.202
 3565SOL    HW111594   4.637   6.017   5.254
 3565SOL    HW211595   4.688   6.119   5.138
 3566SOL     OW11596   1.173   1.012   5.729
 3566SOL    HW111597   1.226   0.989   5.811
 3566SOL    HW211598   1.179   0.937   5.664
 3567SOL     OW11599   0.021   4.606   0.162
 3567SOL    HW111600   6.983   4.648   0.095
 3567SOL    HW211601   0.094   4.557   0.114
 3568SOL     OW11602   3.909   3.781   5.522
 3568SOL    HW111603   3.895   3.869   5.568
 3568SOL    HW211604   3.936   3.796   5.427
 3569SOL     OW11605   1.840   0.687   3.189
 3569SOL    HW111606   1.924   0.740   3.207
 3569SOL    HW211607   1.827   0.677   3.090
 3570SOL     OW11608   5.813   1.821   4.608
 3570SOL    HW111609   5.884   1.793   4.543
 3570SOL    HW211610   5.776   1.739   4.653
 3571SOL     OW11611   5.864   5.584   4.421
 3571SOL    HW111612   5.898   5.665   4.468
 3571SOL    HW211613   5.940   5.538   4.375
 3572SOL     OW11614   6.176   0.057   5.259
 3572SOL    HW111615   6.227   6.996   5.277
 3572SOL    HW211616   6.112   0.075   5.334
 3573SOL     OW11617   0.168   2.152   0.974
 3573SOL    HW111618   0.101   2.226   0.981
 3573SOL    HW211619   0.251   2.187   0.930
 3574SOL     OW11620   6.190   3.560   0.003
 3574SOL    HW111621   6.200   3.465   6.997
 3574SOL    HW211622   6.097   3.592   7.008
 3575SOL     OW11623   6.533   6.715   1.916
 3575SOL    HW111624   6.456   6.770   1.949
 3575SOL    HW211625   6.505   6.665   1.834
 3576SOL     OW11626   0.063   0.523   0.086
 3576SOL    HW111627   7.011   0.463   0.114
 3576SOL    HW211628   0.138   0.468   0.052
 3577SOL     OW11629   2.432   4.710   6.973
 3577SOL    HW111630   2.532   4.720   6.974
 3577SOL    HW211631   2.406   4.636   6.911
 3578SOL     OW11632   3.704   4.548   1.658
 3578SOL    HW111633   3.638   4.574   1.729
 3578SOL    HW211634   3.757   4.469   1.688
 3579SOL     OW11635   1.732   3.871   5.219
 3579SOL    HW111636   1.809   3.877   5.282
 3579SOL    HW211637   1.726   3.779   5.181
 3580SOL     OW11638   6.242   2.449   0.584
 3580SOL    HW111639   6.278   2.361   0.616
 3580SOL    HW211640   6.165   2.476   0.642
 3581SOL     OW11641   6.988   0.962   3.232
 3581SOL    HW111642   7.015   0.901   3.307
 3581SOL    HW211643   0.018   1.046   3.237
 3582SOL     OW11644   0.423   7.008   5.951
 3582SOL    HW111645   0.344   6.947   5.943
 3582SOL    HW211646   0.396   0.067   6.001
 3583SOL     OW11647   1.094   5.676   1.699
 3583SOL    HW111648   1.041   5.629   1.627
 3583SOL    HW211649   1.181   5.707   1.661
 3584SOL     OW11650   5.886   0.507   5.305
 3584SOL    HW111651   5.842   0.540   5.389
 3584SOL    HW211652   5.970   0.459   5.329
 3585SOL     OW11653   2.023   4.805   3.320
 3585SOL    HW111654   2.030   4.877   3.250
 3585SOL    HW211655   2.003   4.718   3.276
 3586SOL     OW11656   1.005   1.161   6.172
 3586SOL    HW111657   1.091   1.118   6.201
 3586SOL    HW211658   0.928   1.104   6.200
 3587SOL     OW11659   3.403   6.559   6.464
 3587SOL    HW111660   3.317   6.516   6.439
 3587SOL    HW211661   3.422   6.635   6.401
 3588SOL     OW11662   2.810   2.239   5.619
 3588SOL    HW111663   2.781   2.334   5.631
 3588SOL    HW211664   2.898   2.237   5.572
 3589SOL     OW11665   3.257   6.739   4.537
 3589SOL    HW111666   3.205   6.702   4.614
 3589SOL    HW211667   3.213   6.711   4.452
 3590SOL     OW11668   1.046   5.733   6.615
 3590SOL    HW111669   1.075   5.824   6.645
 3590SOL    HW211670   1.114   5.665   6.642
 3591SOL     OW11671   5.238   1.818   5.266
 3591SOL    HW111672   5.319   1.779   5.223
 3591SOL    HW211673   5.261   1.907   5.306
 3592SOL     OW11674   5.847   2.071   1.921
 3592SOL    HW111675   5.944   2.094   1.936
 3592SOL    HW211676   5.837   1.973   1.911
 3593SOL     OW11677   0.930   5.283   4.488
 3593SOL    HW111678   1.006   5.239   4.537
 3593SOL    HW211679   0.902   5.225   4.411
 3594SOL     OW11680   3.806   1.459   4.404
 3594SOL    HW111681   3.817   1.409   4.489
 3594SOL    HW211682   3.709   1.481   4.390
 3595SOL     OW11683   2.347   6.273   5.627
 3595SOL    HW111684   2.289   6.238   5.700
 3595SOL    HW211685   2.294   6.333   5.567
 3596SOL     OW11686   0.468   3.578   3.415
 3596SOL    HW111687   0.435   3.605   3.324
 3596SOL    HW211688   0.567   3.564   3.412
 3597SOL     OW11689   4.098   6.847   4.299
 3597SOL    HW111690   4.123   6.750   4.305
 3597SOL    HW211691   4.096   6.875   4.203
 3598SOL     OW11692   1.646   0.350   6.980
 3598SOL    HW111693   1.735   0.373   7.020
 3598SOL    HW211694   1.601   0.434   6.949
 3599SOL     OW11695   6.663   1.867   4.479
 3599SOL    HW111696   6.706   1.949   4.518
 3599SOL    HW211697   6.669   1.870   4.380
 3600SOL     OW11698   6.346   0.075   1.417
 3600SOL    HW111699   6.306   7.008   1.434
 3600SOL    HW211700   6.296   0.144   1.469
 3601SOL     OW11701   6.122   3.618   6.015
 3601SOL    HW111702   6.118   3.697   5.954
 3601SOL    HW211703   6.194   3.555   5.982
 3602SOL     OW11704   2.966   2.323   1.360
 3602SOL    HW111705   3.010   2.336   1.271
 3602SOL    HW211706   2.869   2.305   1.348
 3603SOL     OW11707   4.295   5.089   4.724
 3603SOL    HW111708   4.236   5.011   4.701
 3603SOL    HW211709   4.390   5.067   4.700
 3604SOL     OW11710   6.172   4.088   3.344
 3604SOL    HW111711   6.084   4.067   3.385
 3604SOL    HW211712   6.238   4.113   3.416
 3605SOL     OW11713   6.144   2.147   6.441
 3605SOL    HW111714   6.084   2.094   6.501
 3605SOL    HW211715   6.195   2.085   6.381
 3606SOL     OW11716   2.152   3.903   3.075
 3606SOL    HW111717   2.166   3.934   2.981
 3606SOL    HW211718   2.111   3.977   3.129
 3607SOL     OW11719   4.214   0.078   6.706
 3607SOL    HW111720   4.173   0.057   6.618
 3607SOL    HW211721   4.162   0.151   6.750
 3608SOL     OW11722   1.040   3.102   3.125
 3608SOL    HW111723   1.125   3.146   3.153
 3608SOL    HW211724   1.048   3.003   3.137
 3609SOL     OW11725   6.955   0.051   4.045
 3609SOL    HW111726   7.011   0.133   4.054
 3609SOL    HW211727   6.961   7.021   4.130
 3610SOL     OW11728   1.436   5.364   5.999
 3610SOL    HW111729   1.505   5.330   6.063
 3610SOL    HW211730   1.377   5.429   6.046
 3611SOL     OW11731   4.724   5.368   5.139
 3611SOL    HW111732   4.633   5.353   5.101
 3611SOL    HW211733   4.780   5.417   5.072
 3612SOL     OW11734   2.269   6.054   1.029
 3612SOL    HW111735   2.263   6.129   0.964
 3612SOL    HW211736   2.181   6.006   1.034
 3613SOL     OW11737   4.888   5.052   5.677
 3613SOL    HW111738   4.803   5.103   5.690
 3613SOL    HW211739   4.936   5.086   5.596
 3614SOL     OW11740   3.515   2.855   4.565
 3614SOL    HW111741   3.427   2.876   4.522
 3614SOL    HW211742   3.582   2.833   4.494
 3615SOL     OW11743   5.455   6.329   6.041
 3615SOL    HW111744   5.552   6.304   6.041
 3615SOL    HW211745   5.446   6.428   6.029
 3616SOL     OW11746   6.140   0.854   4.508
 3616SOL    HW111747   6.218   0.916   4.511
 3616SOL    HW211748   6.065   0.892   4.563
 3617SOL     OW11749   6.953   0.862   0.226
 3617SOL    HW111750   0.003   0.833   0.164
 3617SOL    HW211751   6.871   0.807   0.208
 3618SOL     OW11752   2.690   6.361   5.999
 3618SOL    HW111753   2.711   6.307   6.080
 3618SOL    HW211754   2.712   6.309   5.916
 3619SOL     OW11755   5.280   3.564   3.653
 3619SOL    HW111756   5.209   3.610   3.599
 3619SOL    HW211757   5.337   3.508   3.593
 3620SOL     OW11758   6.014   1.636   4.906
 3620SOL    HW111759   5.929   1.657   4.858
 3620SOL    HW211760   6.001   1.555   4.963
 3621SOL     OW11761   1.428   2.804   5.459
 3621SOL    HW111762   1.482   2.882   5.428
 3621SOL    HW211763   1.473   2.719   5.434
 3622SOL     OW11764   0.856   3.838   1.116
 3622SOL    HW111765   0.928   3.768   1.110
 3622SOL    HW211766   0.780   3.812   1.056
 3623SOL     OW11767   6.887   4.703   4.194
 3623SOL    HW111768   6.809   4.758   4.165
 3623SOL    HW211769   6.884   4.692   4.293
 3624SOL     OW11770   2.467   0.922   1.816
 3624SOL    HW111771   2.562   0.893   1.811
 3624SOL    HW211772   2.415   0.883   1.740
 3625SOL     OW11773   0.885   3.082   4.279
 3625SOL    HW111774   0.812   3.083   4.211
 3625SOL    HW211775   0.887   2.992   4.324
 3626SOL     OW11776   2.885   4.059   5.645
 3626SOL    HW111777   2.909   4.127   5.714
 3626SOL    HW211778   2.822   4.099   5.579
 3627SOL     OW11779   3.288   3.234   4.320
 3627SOL    HW111780   3.374   3.229   4.269
 3627SOL    HW211781   3.290   3.314   4.379
 3628SOL     OW11782   2.834   5.780   4.304
 3628SOL    HW111783   2.899   5.709   4.331
 3628SOL    HW211784   2.791   5.756   4.218
 3629SOL     OW11785   5.595   3.221   5.142
 3629SOL    HW111786   5.540   3.184   5.068
 3629SOL    HW211787   5.538   3.234   5.224
 3630SOL     OW11788   5.458   1.151   5.095
 3630SOL    HW111789   5.455   1.238   5.046
 3630SOL    HW211790   5.523   1.158   5.172
 3631SOL     OW11791   2.184   1.086   4.040
 3631SOL    HW111792   2.231   1.060   4.125
 3631SOL    HW211793   2.226   1.168   4.004
 3632SOL     OW11794   4.139   6.899   6.168
 3632SOL    HW111795   4.087   6.821   6.204
 3632SOL    HW211796   4.166   6.880   6.074
 3633SOL     OW11797   1.038   2.995   5.614
 3633SOL    HW111798   1.043   2.898   5.636
 3633SOL    HW211799   1.103   3.016   5.541
 3634SOL     OW11800   3.146   4.922   6.078
 3634SOL    HW111801   3.170   4.923   6.175
 3634SOL    HW211802   3.217   4.968   6.025
 3635SOL     OW11803   1.960   1.514   4.976
 3635SOL    HW111804   1.981   1.590   5.037
 3635SOL    HW211805   1.880   1.537   4.920
 3636SOL     OW11806   1.266   6.192   0.642
 3636SOL    HW111807   1.248   6.192   0.544
 3636SOL    HW211808   1.207   6.125   0.688
 3637SOL     OW11809   4.544   0.977   1.556
 3637SOL    HW111810   4.539   1.067   1.514
 3637SOL    HW211811   4.638   0.943   1.553
 3638SOL     OW11812   6.500   4.752   3.234
 3638SOL    HW111813   6.543   4.823   3.291
 3638SOL    HW211814   6.500   4.666   3.284
 3639SOL     OW11815   2.604   6.385   0.481
 3639SOL    HW111816   2.520   6.337   0.455
 3639SOL    HW211817   2.581   6.462   0.541
 3640SOL     OW11818   2.114   6.988   1.515
 3640SOL    HW111819   2.100   0.003   1.424
 3640SOL    HW211820   2.108   0.038   1.583
 3641SOL     OW11821   2.202   0.559   4.757
 3641SOL    HW111822   2.207   0.460   4.752
 3641SOL    HW211823   2.215   0.589   4.852
 3642SOL     OW11824   5.904   6.705   2.043
 3642SOL    HW111825   5.905   6.800   2.010
 3642SOL    HW211826   5.886   6.644   1.966
 3643SOL     OW11827   3.898   5.347   5.235
 3643SOL    HW111828   3.915   5.249   5.244
 3643SOL    HW211829   3.800   5.364   5.236
 3644SOL     OW11830   6.681   0.118   1.436
 3644SOL    HW111831   6.756   0.126   1.370
 3644SOL    HW211832   6.672   0.204   1.486
 3645SOL     OW11833   3.947   6.235   3.082
 3645SOL    HW111834   4.025   6.259   3.024
 3645SOL    HW211835   3.862   6.266   3.038
 3646SOL     OW11836   0.192   5.419   4.968
 3646SOL    HW111837   0.254   5.489   4.934
 3646SOL    HW211838   0.113   5.462   5.011
 3647SOL     OW11839   2.693   2.704   0.995
 3647SOL    HW111840   2.752   2.658   1.061
 3647SOL    HW211841   2.716   2.802   0.993
 3648SOL     OW11842   3.408   6.493   3.386
 3648SOL    HW111843   3.428   6.585   3.353
 3648SOL    HW211844   3.372   6.499   3.480
 3649SOL     OW11845   3.264   3.250   2.247
 3649SOL    HW111846   3.176   3.255   2.295
 3649SOL    HW211847   3.285   3.154   2.227
 3650SOL     OW11848   5.686   6.809   1.211
 3650SOL    HW111849   5.638   6.869   1.147
 3650SOL    HW211850   5.781   6.799   1.183
 3651SOL     OW11851   1.472   6.380   2.315
 3651SOL    HW111852   1.414   6.302   2.289
 3651SOL    HW211853   1.503   6.368   2.409
 3652SOL     OW11854   4.425   5.290   2.873
 3652SOL    HW111855   4.433   5.234   2.790
 3652SOL    HW211856   4.362   5.365   2.856
 3653SOL     OW11857   6.401   3.093   4.580
 3653SOL    HW111858   6.382   3.102   4.678
 3653SOL    HW211859   6.444   3.004   4.562
 3654SOL     OW11860   1.396   6.749   1.534
 3654SOL    HW111861   1.435   6.670   1.486
 3654SOL    HW211862   1.470   6.802   1.576
 3655SOL     OW11863   6.721   0.970   3.429
 3655SOL    HW111864   6.717   0.910   3.349
 3655SOL    HW211865   6.812   1.012   3.434
 3656SOL     OW11866   2.702   1.768   2.923
 3656SOL    HW111867   2.654   1.708   2.859
 3656SOL    HW211868   2.640   1.792   2.998
 3657SOL     OW11869   4.617   5.108   2.116
 3657SOL    HW111870   4.658   5.019   2.094
 3657SOL    HW211871   4.675   5.181   2.081
 3658SOL     OW11872   1.928   5.354   5.672
 3658SOL    HW111873   1.990   5.418   5.718
 3658SOL    HW211874   1.955   5.261   5.695
 3659SOL     OW11875   1.176   3.752   0.159
 3659SOL    HW111876   1.142   3.719   0.247
 3659SOL    HW211877   1.276   3.755   0.162
 3660SOL     OW11878   4.221   4.935   0.755
 3660SOL    HW111879   4.170   5.020   0.738
 3660SOL    HW211880   4.316   4.957   0.776
 3661SOL     OW11881   5.338   1.871   1.457
 3661SOL    HW111882   5.274   1.944   1.436
 3661SOL    HW211883   5.352   1.814   1.375
 3662SOL     OW11884   2.052   5.914   4.805
 3662SOL    HW111885   1.972   5.855   4.803
 3662SOL    HW211886   2.130   5.863   4.840
 3663SOL     OW11887   1.471   3.670   5.190
 3663SOL    HW111888   1.439   3.765   5.185
 3663SOL    HW211889   1.406   3.615   5.242
 3664SOL     OW11890   3.834   6.942   2.275
 3664SOL    HW111891   3.857   6.889   2.194
 3664SOL    HW211892   3.779   7.021   2.249
 3665SOL     OW11893   1.928   1.157   5.462
 3665SOL    HW111894   1.911   1.107   5.377
 3665SOL    HW211895   1.922   1.255   5.445
 3666SOL     OW11896   0.906   4.360   4.275
 3666SOL    HW111897   0.988   4.386   4.224
 3666SOL    HW211898   0.847   4.303   4.217
 3667SOL     OW11899   0.950   1.553   6.428
 3667SOL    HW111900   1.031   1.527   6.481
 3667SOL    HW211901   0.964   1.644   6.389
 3668SOL     OW11902   1.687   6.123   1.940
 3668SOL    HW111903   1.633   6.065   1.878
 3668SOL    HW211904   1.631   6.201   1.969
 3669SOL     OW11905   5.598   1.609   3.959
 3669SOL    HW111906   5.577   1.528   4.014
 3669SOL    HW211907   5.612   1.583   3.864
 3670SOL     OW11908   2.290   5.429   6.327
 3670SOL    HW111909   2.286   5.464   6.421
 3670SOL    HW211910   2.381   5.395   6.308
 3671SOL     OW11911   2.006   0.766   3.543
 3671SOL    HW111912   1.964   0.759   3.633
 3671SOL    HW211913   2.083   0.703   3.536
 3672SOL     OW11914   6.339   0.090   0.721
 3672SOL    HW111915   6.365   0.181   0.689
 3672SOL    HW211916   6.402   0.060   0.793
 3673SOL     OW11917   4.304   0.339   6.720
 3673SOL    HW111918   4.210   0.341   6.754
 3673SOL    HW211919   4.356   0.415   6.760
 3674SOL     OW11920   1.241   6.644   1.030
 3674SOL    HW111921   1.165   6.616   1.089
 3674SOL    HW211922   1.226   6.611   0.937
 3675SOL     OW11923   1.697   2.416   4.451
 3675SOL    HW111924   1.603   2.387   4.430
 3675SOL    HW211925   1.738   2.354   4.517
 3676SOL     OW11926   1.595   4.629   2.755
 3676SOL    HW111927   1.614   4.647   2.851
 3676SOL    HW211928   1.659   4.681   2.698
 3677SOL     OW11929   6.400   6.506   4.274
 3677SOL    HW111930   6.490   6.545   4.291
 3677SOL    HW211931   6.332   6.579   4.266
 3678SOL     OW11932   1.631   1.618   3.659
 3678SOL    HW111933   1.706   1.675   3.692
 3678SOL    HW211934   1.573   1.671   3.598
 3679SOL     OW11935   6.835   0.949   1.718
 3679SOL    HW111936   6.813   0.864   1.766
 3679SOL    HW211937   6.932   0.949   1.693
 3680SOL     OW11938   5.904   4.611   4.859
 3680SOL    HW111939   5.911   4.556   4.942
 3680SOL    HW211940   5.912   4.708   4.881
 3681SOL     OW11941   5.522   6.190   4.406
 3681SOL    HW111942   5.516   6.093   4.382
 3681SOL    HW211943   5.501   6.246   4.327
 3682SOL     OW11944   0.685   2.635   6.551
 3682SOL    HW111945   0.697   2.734   6.538
 3682SOL    HW211946   0.622   2.618   6.626
 3683SOL     OW11947   5.482   6.049   3.983
 3683SOL    HW111948   5.444   6.035   4.074
 3683SOL    HW211949   5.414   6.022   3.914
 3684SOL     OW11950   1.965   3.282   0.881
 3684SOL    HW111951   1.982   3.327   0.793
 3684SOL    HW211952   1.891   3.216   0.871
 3685SOL     OW11953   6.215   6.969   6.924
 3685SOL    HW111954   6.193   6.975   7.021
 3685SOL    HW211955   6.304   6.925   6.912
 3686SOL     OW11956   6.960   4.314   1.227
 3686SOL    HW111957   6.884   4.292   1.165
 3686SOL    HW211958   0.013   4.351   1.174
 3687SOL     OW11959   3.627   1.346   0.069
 3687SOL    HW111960   3.600   1.345   0.165
 3687SOL    HW211961   3.561   1.293   0.016
 3688SOL     OW11962   6.364   3.327   0.137
 3688SOL    HW111963   6.340   3.418   0.171
 3688SOL    HW211964   6.362   3.261   0.212
 3689SOL     OW11965   2.694   6.910   3.471
 3689SOL    HW111966   2.599   6.897   3.501
 3689SOL    HW211967   2.709   6.858   3.387
 3690SOL     OW11968   4.451   5.760   5.123
 3690SOL    HW111969   4.405   5.687   5.173
 3690SOL    HW211970   4.393   5.791   5.047
 3691SOL     OW11971   3.074   2.906   6.344
 3691SOL    HW111972   3.062   2.809   6.363
 3691SOL    HW211973   3.147   2.943   6.402
 3692SOL     OW11974   0.939   0.041   6.374
 3692SOL    HW111975   0.916   0.089   6.459
 3692SOL    HW211976   0.858   7.017   6.339
 3693SOL     OW11977   2.061   1.371   3.431
 3693SOL    HW111978   2.074   1.369   3.531
 3693SOL    HW211979   2.071   1.278   3.395
 3694SOL     OW11980   2.088   5.630   2.757
 3694SOL    HW111981   2.074   5.570   2.679
 3694SOL    HW211982   2.182   5.622   2.789
 3695SOL     OW11983   1.415   2.611   1.270
 3695SOL    HW111984   1.448   2.692   1.317
 3695SOL    HW211985   1.411   2.629   1.171
 3696SOL     OW11986   3.034   5.729   5.813
 3696SOL    HW111987   2.944   5.734   5.770
 3696SOL    HW211988   3.060   5.819   5.847
 3697SOL     OW11989   5.400   0.426   3.849
 3697SOL    HW111990   5.321   0.365   3.851
 3697SOL    HW211991   5.377   0.513   3.892
 3698SOL     OW11992   3.477   0.439   6.522
 3698SOL    HW111993   3.539   0.412   6.596
 3698SOL    HW211994   3.493   0.381   6.442
 3699SOL     OW11995   1.138   4.716   1.847
 3699SOL    HW111996   1.139   4.644   1.917
 3699SOL    HW211997   1.047   4.756   1.842
 3700SOL     OW11998   0.236   0.581   3.430
 3700SOL    HW111999   0.305   0.547   3.495
 3700SOL    HW212000   0.196   0.503   3.382
 3701SOL     OW12001   5.613   0.682   3.456
 3701SOL    HW112002   5.641   0.725   3.542
 3701SOL    HW212003   5.514   0.678   3.452
 3702SOL     OW12004   5.162   0.851   6.382
 3702SOL    HW112005   5.203   0.813   6.299
 3702SOL    HW212006   5.104   0.928   6.359
 3703SOL     OW12007   3.569   4.577   0.375
 3703SOL    HW112008   3.515   4.549   0.296
 3703SOL    HW212009   3.667   4.569   0.354
 3704SOL     OW12010   2.749   6.826   1.969
 3704SOL    HW112011   2.749   6.898   1.900
 3704SOL    HW212012   2.810   6.853   2.044
 3705SOL     OW12013   6.046   1.361   4.283
 3705SOL    HW112014   6.044   1.397   4.190
 3705SOL    HW212015   5.955   1.369   4.324
 3706SOL     OW12016   2.660   2.386   3.452
 3706SOL    HW112017   2.593   2.446   3.497
 3706SOL    HW212018   2.611   2.316   3.400
 3707SOL     OW12019   4.324   2.494   5.533
 3707SOL    HW112020   4.332   2.431   5.611
 3707SOL    HW212021   4.342   2.587   5.564
 3708SOL     OW12022   6.358   0.326   6.897
 3708SOL    HW112023   6.356   0.425   6.910
 3708SOL    HW212024   6.268   0.294   6.867
 3709SOL     OW12025   5.459   0.428   0.285
 3709SOL    HW112026   5.443   0.509   0.342
 3709SOL    HW212027   5.505   0.456   0.200
 3710SOL     OW12028   0.197   4.560   7.005
 3710SOL    HW112029   0.169   4.556   6.909
 3710SOL    HW212030   0.267   4.491   7.023
 3711SOL     OW12031   7.023   5.145   2.423
 3711SOL    HW112032   0.056   5.220   2.389
 3711SOL    HW212033   7.018   5.073   2.353
 3712SOL     OW12034   1.725   0.205   0.345
 3712SOL    HW112035   1.757   0.144   0.273
 3712SOL    HW212036   1.645   0.165   0.390
 3713SOL     OW12037   3.527   4.893   6.066
 3713SOL    HW112038   3.622   4.908   6.091
 3713SOL    HW212039   3.489   4.976   6.024
 3714SOL     OW12040   4.420   1.528   5.282
 3714SOL    HW112041   4.332   1.497   5.246
 3714SOL    HW212042   4.494   1.490   5.227
 3715SOL     OW12043   5.473   4.126   3.780
 3715SOL    HW112044   5.429   4.197   3.725
 3715SOL    HW212045   5.421   4.112   3.864
 3716SOL     OW12046   0.484   1.636   4.111
 3716SOL    HW112047   0.403   1.580   4.094
 3716SOL    HW212048   0.519   1.617   4.203
 3717SOL     OW12049   6.220   0.545   0.473
 3717SOL    HW112050   6.268   0.467   0.434
 3717SOL    HW212051   6.179   0.519   0.561
 3718SOL     OW12052   0.771   5.420   0.256
 3718SOL    HW112053   0.683   5.394   0.294
 3718SOL    HW212054   0.783   5.519   0.263
 3719SOL     OW12055   3.689   4.644   7.016
 3719SOL    HW112056   3.774   4.658   6.965
 3719SOL    HW212057   3.669   4.547   7.021
 3720SOL     OW12058   0.308   1.254   5.748
 3720SOL    HW112059   0.256   1.195   5.811
 3720SOL    HW212060   0.377   1.305   5.800
 3721SOL     OW12061   4.717   3.766   0.073
 3721SOL    HW112062   4.657   3.690   0.097
 3721SOL    HW212063   4.664   3.838   0.028
 3722SOL     OW12064   5.708   5.980   1.605
 3722SOL    HW112065   5.707   5.996   1.704
 3722SOL    HW212066   5.615   5.984   1.570
 3723SOL     OW12067   4.750   1.094   0.352
 3723SOL    HW112068   4.805   1.048   0.283
 3723SOL    HW212069   4.655   1.065   0.343
 3724SOL     OW12070   6.930   4.806   5.665
 3724SOL    HW112071   6.864   4.836   5.597
 3724SOL    HW212072   6.983   4.729   5.630
 3725SOL     OW12073   6.028   6.084   0.663
 3725SOL    HW112074   5.960   6.050   0.727
 3725SOL    HW212075   6.113   6.103   0.712
 3726SOL     OW12076   6.001   2.903   1.270
 3726SOL    HW112077   6.086   2.934   1.312
 3726SOL    HW212078   5.988   2.805   1.289
 3727SOL     OW12079   2.324   2.864   5.316
 3727SOL    HW112080   2.357   2.930   5.249
 3727SOL    HW212081   2.226   2.849   5.303
 3728SOL     OW12082   0.653   3.442   6.755
 3728SOL    HW112083   0.667   3.453   6.853
 3728SOL    HW212084   0.728   3.388   6.716
 3729SOL     OW12085   0.573   2.622   3.406
 3729SOL    HW112086   0.522   2.666   3.480
 3729SOL    HW212087   0.610   2.692   3.345
 3730SOL     OW12088   2.512   0.440   0.604
 3730SOL    HW112089   2.434   0.383   0.626
 3730SOL    HW212090   2.593   0.406   0.652
 3731SOL     OW12091   3.288   5.848   6.350
 3731SOL    HW112092   3.353   5.922   6.369
 3731SOL    HW212093   3.269   5.798   6.434
 3732SOL     OW12094   1.907   3.761   4.638
 3732SOL    HW112095   1.927   3.858   4.624
 3732SOL    HW212096   1.819   3.752   4.686
 3733SOL     OW12097   3.373   3.136   0.982
 3733SOL    HW112098   3.470   3.146   1.001
 3733SOL    HW212099   3.344   3.043   1.005
 3734SOL     OW12100   4.773   7.006   3.777
 3734SOL    HW112101   4.848   6.992   3.713
 3734SOL    HW212102   4.765   6.927   3.838
 3735SOL     OW12103   3.324   1.960   1.849
 3735SOL    HW112104   3.366   1.975   1.938
 3735SOL    HW212105   3.227   1.984   1.854
 3736SOL     OW12106   4.960   1.110   5.747
 3736SOL    HW112107   4.930   1.179   5.681
 3736SOL    HW212108   4.903   1.028   5.737
 3737SOL     OW12109   3.817   6.615   4.443
 3737SOL    HW112110   3.818   6.627   4.344
 3737SOL    HW212111   3.755   6.681   4.484
 3738SOL     OW12112   0.014   6.992   4.649
 3738SOL    HW112113   0.017   6.895   4.672
 3738SOL    HW212114   0.048   0.022   4.726
 3739SOL     OW12115   1.072   3.195   1.641
 3739SOL    HW112116   1.147   3.239   1.592
 3739SOL    HW212117   1.107   3.152   1.724
 3740SOL     OW12118   5.570   0.521   6.820
 3740SOL    HW112119   5.664   0.485   6.815
 3740SOL    HW212120   5.506   0.452   6.787
 3741SOL     OW12121   3.493   2.352   0.048
 3741SOL    HW112122   3.512   2.448   0.071
 3741SOL    HW212123   3.396   2.343   0.025
 3742SOL     OW12124   3.408   3.310   5.551
 3742SOL    HW112125   3.343   3.256   5.605
 3742SOL    HW212126   3.476   3.352   5.612
 3743SOL     OW12127   1.078   5.702   6.183
 3743SOL    HW112128   1.011   5.657   6.241
 3743SOL    HW212129   1.069   5.801   6.192
 3744SOL     OW12130   6.565   5.124   3.215
 3744SOL    HW112131   6.485   5.088   3.165
 3744SOL    HW212132   6.628   5.049   3.233
 3745SOL     OW12133   5.363   5.990   1.767
 3745SOL    HW112134   5.322   5.903   1.794
 3745SOL    HW212135   5.378   6.046   1.848
 3746SOL     OW12136   4.350   1.299   1.977
 3746SOL    HW112137   4.259   1.331   2.004
 3746SOL    HW212138   4.372   1.333   1.886
 3747SOL     OW12139   2.814   0.332   0.476
 3747SOL    HW112140   2.829   0.428   0.451
 3747SOL    HW212141   2.782   0.327   0.570
 3748SOL     OW12142   5.404   0.564   1.701
 3748SOL    HW112143   5.423   0.517   1.787
 3748SOL    HW212144   5.318   0.531   1.663
 3749SOL     OW12145   1.601   0.375   4.320
 3749SOL    HW112146   1.644   0.417   4.239
 3749SOL    HW212147   1.552   0.445   4.372
 3750SOL     OW12148   6.978   4.332   6.380
 3750SOL    HW112149   6.901   4.286   6.337
 3750SOL    HW212150   6.951   4.368   6.470
 3751SOL     OW12151   1.440   4.080   1.524
 3751SOL    HW112152   1.444   4.062   1.426
 3751SOL    HW212153   1.527   4.122   1.554
 3752SOL     OW12154   5.022   5.817   0.103
 3752SOL    HW112155   4.970   5.784   0.025
 3752SOL    HW212156   5.035   5.916   0.095
 3753SOL     OW12157   0.400   0.185   3.355
 3753SOL    HW112158   0.357   0.233   3.431
 3753SOL    HW212159   0.339   0.113   3.323
 3754SOL     OW12160   2.775   1.367   1.597
 3754SOL    HW112161   2.716   1.317   1.659
 3754SOL    HW212162   2.838   1.424   1.649
 3755SOL     OW12163   2.540   5.530   4.313
 3755SOL    HW112164   2.593   5.575   4.385
 3755SOL    HW212165   2.451   5.574   4.305
 3756SOL     OW12166   1.346   6.768   0.681
 3756SOL    HW112167   1.319   6.675   0.706
 3756SOL    HW212168   1.385   6.768   0.589
 3757SOL     OW12169   0.694   4.188   1.074
 3757SOL    HW112170   0.634   4.110   1.089
 3757SOL    HW212171   0.673   4.260   1.140
 3758SOL     OW12172   1.822   6.808   4.012
 3758SOL    HW112173   1.829   6.810   4.112
 3758SOL    HW212174   1.777   6.724   3.983
 3759SOL     OW12175   5.350   0.251   4.256
 3759SOL    HW112176   5.327   0.208   4.343
 3759SOL    HW212177   5.447   0.238   4.237
 3760SOL     OW12178   1.020   0.785   3.050
 3760SOL    HW112179   0.946   0.727   3.016
 3760SOL    HW212180   1.014   0.875   3.006
 3761SOL     OW12181   4.389   1.776   5.711
 3761SOL    HW112182   4.320   1.823   5.656
 3761SOL    HW212183   4.479   1.815   5.691
 3762SOL     OW12184   0.672   2.747   4.066
 3762SOL    HW112185   0.772   2.750   4.075
 3762SOL    HW212186   0.647   2.681   3.995
 3763SOL     OW12187   0.597   5.435   6.741
 3763SOL    HW112188   0.668   5.495   6.705
 3763SOL    HW212189   0.553   5.479   6.819
 3764SOL     OW12190   3.035   1.236   2.614
 3764SOL    HW112191   3.000   1.147   2.644
 3764SOL    HW212192   2.972   1.278   2.549
 3765SOL     OW12193   5.255   2.709   2.738
 3765SOL    HW112194   5.254   2.793   2.683
 3765SOL    HW212195   5.174   2.654   2.716
 3766SOL     OW12196   1.478   2.893   2.530
 3766SOL    HW112197   1.528   2.882   2.615
 3766SOL    HW212198   1.536   2.865   2.453
 3767SOL     OW12199   1.688   6.076   5.861
 3767SOL    HW112200   1.606   6.132   5.875
 3767SOL    HW212201   1.718   6.039   5.949
 3768SOL     OW12202   1.844   6.624   2.603
 3768SOL    HW112203   1.747   6.637   2.584
 3768SOL    HW212204   1.889   6.586   2.522
 3769SOL     OW12205   5.212   5.481   4.343
 3769SOL    HW112206   5.266   5.529   4.412
 3769SOL    HW212207   5.248   5.388   4.332
 3770SOL     OW12208   2.956   0.627   1.566
 3770SOL    HW112209   2.951   0.724   1.589
 3770SOL    HW212210   2.944   0.615   1.467
 3771SOL     OW12211   6.737   6.061   5.632
 3771SOL    HW112212   6.738   5.963   5.653
 3771SOL    HW212213   6.643   6.089   5.610
 3772SOL     OW12214   1.519   6.321   2.045
 3772SOL    HW112215   1.541   6.357   2.135
 3772SOL    HW212216   1.480   6.394   1.988
 3773SOL     OW12217   4.716   5.068   7.000
 3773SOL    HW112218   4.641   5.098   0.035
 3773SOL    HW212219   4.797   5.050   0.035
 3774SOL     OW12220   6.696   4.682   1.823
 3774SOL    HW112221   6.747   4.597   1.834
 3774SOL    HW212222   6.758   4.760   1.827
 3775SOL     OW12223   5.215   5.130   4.930
 3775SOL    HW112224   5.279   5.171   4.866
 3775SOL    HW212225   5.148   5.199   4.959
 3776SOL     OW12226   4.324   2.947   6.450
 3776SOL    HW112227   4.278   3.011   6.387
 3776SOL    HW212228   4.423   2.955   6.440
 3777SOL     OW12229   3.045   5.158   3.814
 3777SOL    HW112230   3.044   5.072   3.764
 3777SOL    HW212231   2.965   5.213   3.787
 3778SOL     OW12232   3.034   4.935   6.845
 3778SOL    HW112233   3.014   5.026   6.808
 3778SOL    HW212234   3.132   4.921   6.849
 3779SOL     OW12235   6.809   4.655   6.842
 3779SOL    HW112236   6.755   4.676   6.923
 3779SOL    HW212237   6.769   4.578   6.793
 3780SOL     OW12238   6.203   3.215   1.941
 3780SOL    HW112239   6.250   3.176   1.862
 3780SOL    HW212240   6.104   3.218   1.923
 3781SOL     OW12241   1.876   6.764   5.531
 3781SOL    HW112242   1.836   6.835   5.588
 3781SOL    HW212243   1.807   6.696   5.509
 3782SOL     OW12244   4.019   5.382   0.231
 3782SOL    HW112245   4.103   5.380   0.178
 3782SOL    HW212246   4.037   5.420   0.322
 3783SOL     OW12247   4.553   5.267   4.827
 3783SOL    HW112248   4.472   5.243   4.879
 3783SOL    HW212249   4.543   5.360   4.790
 3784SOL     OW12250   5.285   3.031   5.256
 3784SOL    HW112251   5.344   2.994   5.327
 3784SOL    HW212252   5.321   3.118   5.224
 3785SOL     OW12253   1.040   2.389   3.039
 3785SOL    HW112254   1.125   2.431   3.071
 3785SOL    HW212255   1.057   2.342   2.953
 3786SOL     OW12256   1.892   3.059   4.957
 3786SOL    HW112257   1.914   3.032   4.863
 3786SOL    HW212258   1.977   3.072   5.009
 3787SOL     OW12259   5.422   6.367   4.217
 3787SOL    HW112260   5.376   6.303   4.156
 3787SOL    HW212261   5.486   6.423   4.165
 3788SOL     OW12262   5.519   3.253   5.409
 3788SOL    HW112263   5.434   3.277   5.455
 3788SOL    HW212264   5.584   3.217   5.475
 3789SOL     OW12265   2.093   3.193   1.307
 3789SOL    HW112266   2.146   3.135   1.370
 3789SOL    HW212267   2.157   3.246   1.251
 3790SOL     OW12268   0.816   6.797   1.619
 3790SOL    HW112269   0.892   6.777   1.558
 3790SOL    HW212270   0.842   6.778   1.713
 3791SOL     OW12271   4.877   0.677   4.749
 3791SOL    HW112272   4.877   0.770   4.713
 3791SOL    HW212273   4.783   0.651   4.774
 3792SOL     OW12274   6.689   0.085   4.249
 3792SOL    HW112275   6.780   0.089   4.292
 3792SOL    HW212276   6.679   7.020   4.203
 3793SOL     OW12277   3.964   4.430   0.687
 3793SOL    HW112278   3.869   4.427   0.658
 3793SOL    HW212279   4.022   4.390   0.616
 3794SOL     OW12280   1.577   5.132   6.167
 3794SOL    HW112281   1.644   5.096   6.101
 3794SOL    HW212282   1.619   5.134   6.258
 3795SOL     OW12283   3.236   6.547   0.919
 3795SOL    HW112284   3.183   6.574   0.999
 3795SOL    HW212285   3.257   6.449   0.925
 3796SOL     OW12286   5.145   0.851   0.046
 3796SOL    HW112287   5.104   0.934   0.007
 3796SOL    HW212288   5.243   0.852   0.031
 3797SOL     OW12289   0.149   2.835   0.977
 3797SOL    HW112290   0.135   2.879   1.066
 3797SOL    HW212291   0.244   2.804   0.970
 3798SOL     OW12292   1.169   5.075   3.550
 3798SOL    HW112293   1.224   5.113   3.624
 3798SOL    HW212294   1.081   5.122   3.546
 3799SOL     OW12295   0.377   0.938   3.234
 3799SOL    HW112296   0.454   0.982   3.280
 3799SOL    HW212297   0.399   0.842   3.216
 3800SOL     OW12298   5.316   2.543   3.152
 3800SOL    HW112299   5.352   2.529   3.245
 3800SOL    HW212300   5.383   2.594   3.098
 3801SOL     OW12301   6.106   1.153   0.429
 3801SOL    HW112302   6.012   1.186   0.442
 3801SOL    HW212303   6.107   1.053   0.429
 3802SOL     OW12304   6.417   3.364   1.994
 3802SOL    HW112305   6.381   3.454   1.968
 3802SOL    HW212306   6.343   3.297   1.991
 3803SOL     OW12307   4.281   3.847   5.384
 3803SOL    HW112308   4.212   3.911   5.350
 3803SOL    HW212309   4.257   3.754   5.354
 3804SOL     OW12310   3.799   6.373   3.866
 3804SOL    HW112311   3.815   6.291   3.811
 3804SOL    HW212312   3.741   6.437   3.815
 3805SOL     OW12313   2.502   2.158   6.726
 3805SOL    HW112314   2.502   2.248   6.682
 3805SOL    HW212315   2.511   2.169   6.825
 3806SOL     OW12316   2.390   5.103   1.544
 3806SOL    HW112317   2.327   5.157   1.487
 3806SOL    HW212318   2.374   5.006   1.526
 3807SOL     OW12319   0.890   4.350   3.661
 3807SOL    HW112320   0.900   4.253   3.641
 3807SOL    HW212321   0.867   4.399   3.577
 3808SOL     OW12322   2.804   6.596   5.937
 3808SOL    HW112323   2.777   6.608   5.842
 3808SOL    HW212324   2.748   6.524   5.979
 3809SOL     OW12325   5.396   1.476   1.889
 3809SOL    HW112326   5.387   1.551   1.823
 3809SOL    HW212327   5.368   1.390   1.846
 3810SOL     OW12328   5.050   2.275   2.984
 3810SOL    HW112329   5.014   2.323   2.904
 3810SOL    HW212330   5.042   2.335   3.064
 3811SOL     OW12331   6.856   6.079   5.228
 3811SOL    HW112332   6.944   6.066   5.272
 3811SOL    HW212333   6.807   6.154   5.272
 3812SOL     OW12334   4.058   5.779   0.059
 3812SOL    HW112335   4.152   5.749   0.044
 3812SOL    HW212336   4.044   5.797   0.156
 3813SOL     OW12337   5.693   4.304   6.980
 3813SOL    HW112338   5.675   4.210   6.953
 3813SOL    HW212339   5.611   4.342   0.001
 3814SOL     OW12340   0.451   0.314   5.144
 3814SOL    HW112341   0.477   0.218   5.156
 3814SOL    HW212342   0.513   0.372   5.198
 3815SOL     OW12343   5.617   3.322   6.267
 3815SOL    HW112344   5.531   3.367   6.291
 3815SOL    HW212345   5.635   3.334   6.169
 3816SOL     OW12346   6.615   6.307   0.804
 3816SOL    HW112347   6.566   6.350   0.728
 3816SOL    HW212348   6.695   6.258   0.770
 3817SOL     OW12349   4.132   3.698   1.547
 3817SOL    HW112350   4.153   3.684   1.644
 3817SOL    HW212351   4.200   3.759   1.507
 3818SOL     OW12352   5.266   6.021   2.445
 3818SOL    HW112353   5.249   5.930   2.406
 3818SOL    HW212354   5.278   6.087   2.371
 3819SOL     OW12355   6.373   3.518   3.215
 3819SOL    HW112356   6.389   3.611   3.182
 3819SOL    HW212357   6.453   3.487   3.267
 3820SOL     OW12358   3.480   6.629   5.688
 3820SOL    HW112359   3.382   6.649   5.696
 3820SOL    HW212360   3.507   6.567   5.762
 3821SOL     OW12361   1.931   7.017   0.108
 3821SOL    HW112362   1.913   6.984   0.201
 3821SOL    HW212363   1.845   0.017   0.064
 3822SOL     OW12364   4.801   7.016   2.326
 3822SOL    HW112365   4.808   7.005   2.227
 3822SOL    HW212366   4.784   6.927   2.368
 3823SOL     OW12367   5.423   6.443   5.250
 3823SOL    HW112368   5.331   6.457   5.286
 3823SOL    HW212369   5.490   6.475   5.316
 3824SOL     OW12370   2.248   2.976   0.698
 3824SOL    HW112371   2.183   2.984   0.622
 3824SOL    HW212372   2.308   2.898   0.681
 3825SOL     OW12373   0.289   5.022   5.793
 3825SOL    HW112374   0.192   5.008   5.814
 3825SOL    HW212375   0.325   4.939   5.749
 3826SOL     OW12376   5.466   3.581   3.392
 3826SOL    HW112377   5.547   3.613   3.441
 3826SOL    HW212378   5.399   3.655   3.385
 3827SOL     OW12379   0.017   1.937   6.685
 3827SOL    HW112380   0.033   2.024   6.731
 3827SOL    HW212381   7.007   1.954   6.592
 3828SOL     OW12382   4.068   3.362   4.135
 3828SOL    HW112383   4.077   3.376   4.233
 3828SOL    HW212384   3.976   3.331   4.113
 3829SOL     OW12385   0.572   3.052   1.248
 3829SOL    HW112386   0.558   3.067   1.346
 3829SOL    HW212387   0.659   3.005   1.234
 3830SOL     OW12388   5.800   0.305   3.804
 3830SOL    HW112389   5.719   0.357   3.777
 3830SOL    HW212390   5.786   0.208   3.784
 3831SOL     OW12391   4.598   2.459   3.163
 3831SOL    HW112392   4.677   2.521   3.164
 3831SOL    HW212393   4.625   2.372   3.121
 3832SOL     OW12394   6.490   0.841   3.854
 3832SOL    HW112395   6.587   0.864   3.849
 3832SOL    HW212396   6.478   0.752   3.898
 3833SOL     OW12397   1.642   2.918   5.679
 3833SOL    HW112398   1.633   2.964   5.590
 3833SOL    HW212399   1.628   2.820   5.667
 3834SOL     OW12400   5.134   4.622   1.069
 3834SOL    HW112401   5.193   4.694   1.104
 3834SOL    HW212402   5.118   4.554   1.141
 3835SOL     OW12403   4.291   5.599   5.319
 3835SOL    HW112404   4.325   5.559   5.404
 3835SOL    HW212405   4.192   5.613   5.325
 3836SOL     OW12406   6.890   6.411   4.997
 3836SOL    HW112407   6.951   6.332   4.992
 3836SOL    HW212408   6.895   6.452   5.088
 3837SOL     OW12409   4.149   4.890   6.029
 3837SOL    HW112410   4.188   4.959   6.090
 3837SOL    HW212411   4.157   4.800   6.071
 3838SOL     OW12412   6.995   0.547   4.114
 3838SOL    HW112413   6.909   0.498   4.105
 3838SOL    HW212414   0.047   0.482   4.120
 3839SOL     OW12415   5.112   0.701   3.610
 3839SOL    HW112416   5.144   0.788   3.648
 3839SOL    HW212417   5.090   0.638   3.684
 3840SOL     OW12418   3.367   1.418   6.661
 3840SOL    HW112419   3.277   1.417   6.703
 3840SOL    HW212420   3.383   1.331   6.614
 3841SOL     OW12421   5.993   3.982   3.857
 3841SOL    HW112422   5.940   4.053   3.902
 3841SOL    HW212423   6.084   3.977   3.898
 3842SOL     OW12424   2.206   4.311   5.970
 3842SOL    HW112425   2.231   4.220   5.938
 3842SOL    HW212426   2.274   4.378   5.939
 3843SOL     OW12427   5.417   2.315   6.149
 3843SOL    HW112428   5.347   2.337   6.217
 3843SOL    HW212429   5.375   2.276   6.068
 3844SOL     OW12430   6.720   0.370   1.039
 3844SOL    HW112431   6.817   0.354   1.021
 3844SOL    HW212432   6.680   0.290   1.083
 3845SOL     OW12433   1.683   5.878   0.746
 3845SOL    HW112434   1.676   5.908   0.651
 3845SOL    HW212435   1.713   5.782   0.748
 3846SOL     OW12436   0.192   3.415   2.643
 3846SOL    HW112437   0.213   3.511   2.629
 3846SOL    HW212438   0.273   3.359   2.622
 3847SOL     OW12439   0.585   2.006   6.669
 3847SOL    HW112440   0.574   1.910   6.641
 3847SOL    HW212441   0.607   2.061   6.589
 3848SOL     OW12442   6.408   4.360   1.772
 3848SOL    HW112443   6.469   4.331   1.845
 3848SOL    HW212444   6.316   4.324   1.790
 3849SOL     OW12445   0.020   4.824   6.274
 3849SOL    HW112446   0.092   4.854   6.211
 3849SOL    HW212447   0.014   4.889   6.350
 3850SOL     OW12448   3.214   2.422   1.436
 3850SOL    HW112449   3.246   2.363   1.510
 3850SOL    HW212450   3.120   2.398   1.412
 3851SOL     OW12451   0.583   6.193   3.182
 3851SOL    HW112452   0.648   6.210   3.108
 3851SOL    HW212453   0.491   6.217   3.152
 3852SOL     OW12454   1.371   0.471   4.707
 3852SOL    HW112455   1.330   0.405   4.644
 3852SOL    HW212456   1.357   0.440   4.801
 3853SOL     OW12457   2.835   0.687   3.756
 3853SOL    HW112458   2.784   0.742   3.690
 3853SOL    HW212459   2.851   0.740   3.839
 3854SOL     OW12460   0.094   2.265   2.066
 3854SOL    HW112461   0.128   2.188   2.121
 3854SOL    HW212462   0.172   2.312   2.025
 3855SOL     OW12463   3.301   6.688   6.743
 3855SOL    HW112464   3.235   6.704   6.816
 3855SOL    HW212465   3.303   6.591   6.718
 3856SOL     OW12466   0.067   2.663   6.233
 3856SOL    HW112467   0.147   2.708   6.273
 3856SOL    HW212468   0.096   2.611   6.152
 3857SOL     OW12469   2.585   0.473   5.942
 3857SOL    HW112470   2.537   0.501   6.025
 3857SOL    HW212471   2.679   0.508   5.945
 3858SOL     OW12472   4.817   1.331   4.288
 3858SOL    HW112473   4.737   1.367   4.239
 3858SOL    HW212474   4.796   1.239   4.322
 3859SOL     OW12475   5.955   6.854   1.574
 3859SOL    HW112476   5.891   6.789   1.531
 3859SOL    HW212477   5.910   6.942   1.585
 3860SOL     OW12478   1.546   6.797   4.529
 3860SOL    HW112479   1.498   6.794   4.441
 3860SOL    HW212480   1.609   6.874   4.531
 3861SOL     OW12481   2.680   5.289   1.482
 3861SOL    HW112482   2.678   5.189   1.482
 3861SOL    HW212483   2.600   5.325   1.434
 3862SOL     OW12484   1.708   0.736   4.581
 3862SOL    HW112485   1.799   0.718   4.544
 3862SOL    HW212486   1.711   0.730   4.681
 3863SOL     OW12487   3.306   0.443   0.546
 3863SOL    HW112488   3.368   0.518   0.526
 3863SOL    HW212489   3.285   0.393   0.462
 3864SOL     OW12490   1.856   0.369   4.973
 3864SOL    HW112491   1.936   0.318   4.941
 3864SOL    HW212492   1.786   0.304   5.004
 3865SOL     OW12493   4.896   1.262   0.702
 3865SOL    HW112494   4.920   1.302   0.613
 3865SOL    HW212495   4.972   1.207   0.735
 3866SOL     OW12496   2.859   2.016   6.473
 3866SOL    HW112497   2.894   2.098   6.518
 3866SOL    HW212498   2.923   1.941   6.487
 3867SOL     OW12499   0.412   2.930   1.992
 3867SOL    HW112500   0.341   2.952   1.925
 3867SOL    HW212501   0.369   2.902   2.078
 3868SOL     OW12502   4.299   0.805   0.288
 3868SOL    HW112503   4.363   0.873   0.325
 3868SOL    HW212504   4.273   0.741   0.360
 3869SOL     OW12505   4.871   1.581   3.965
 3869SOL    HW112506   4.962   1.557   3.998
 3869SOL    HW212507   4.816   1.615   4.042
 3870SOL     OW12508   0.352   0.656   5.316
 3870SOL    HW112509   0.332   0.745   5.358
 3870SOL    HW212510   0.276   0.628   5.258
 3871SOL     OW12511   2.389   5.820   4.433
 3871SOL    HW112512   2.464   5.813   4.498
 3871SOL    HW212513   2.357   5.728   4.408
 3872SOL     OW12514   2.938   3.307   5.284
 3872SOL    HW112515   2.984   3.218   5.275
 3872SOL    HW212516   3.005   3.375   5.313
 3873SOL     OW12517   4.162   1.828   0.433
 3873SOL    HW112518   4.094   1.838   0.505
 3873SOL    HW212519   4.254   1.826   0.474
 3874SOL     OW12520   2.077   1.200   0.398
 3874SOL    HW112521   1.998   1.183   0.456
 3874SOL    HW212522   2.075   1.139   0.319
 3875SOL     OW12523   1.103   2.115   6.082
 3875SOL    HW112524   1.138   2.205   6.057
 3875SOL    HW212525   1.177   2.048   6.077
 3876SOL     OW12526   3.663   5.286   2.460
 3876SOL    HW112527   3.584   5.279   2.522
 3876SOL    HW212528   3.746   5.258   2.508
 3877SOL     OW12529   0.236   1.949   6.313
 3877SOL    HW112530   0.334   1.926   6.308
 3877SOL    HW212531   0.210   1.999   6.231
 3878SOL     OW12532   5.435   1.101   4.338
 3878SOL    HW112533   5.374   1.045   4.282
 3878SOL    HW212534   5.384   1.179   4.374
 3879SOL     OW12535   5.525   5.747   0.096
 3879SOL    HW112536   5.618   5.776   0.070
 3879SOL    HW212537   5.520   5.647   0.090
 3880SOL     OW12538   4.510   4.498   3.981
 3880SOL    HW112539   4.426   4.552   3.991
 3880SOL    HW212540   4.547   4.477   4.071
 3881SOL     OW12541   1.299   3.351   6.958
 3881SOL    HW112542   1.370   3.314   6.898
 3881SOL    HW212543   1.225   3.388   6.902
 3882SOL     OW12544   0.583   2.139   6.153
 3882SOL    HW112545   0.496   2.131   6.104
 3882SOL    HW212546   0.656   2.099   6.097
 3883SOL     OW12547   4.695   5.696   3.327
 3883SOL    HW112548   4.613   5.654   3.287
 3883SOL    HW212549   4.733   5.635   3.396
 3884SOL     OW12550   0.283   3.813   2.066
 3884SOL    HW112551   0.318   3.800   2.159
 3884SOL    HW212552   0.275   3.910   2.047
 3885SOL     OW12553   5.131   5.517   2.666
 3885SOL    HW112554   5.107   5.445   2.600
 3885SOL    HW212555   5.053   5.536   2.725
 3886SOL     OW12556   2.634   6.295   5.683
 3886SOL    HW112557   2.663   6.262   5.594
 3886SOL    HW212558   2.551   6.350   5.674
 3887SOL     OW12559   1.311   6.145   2.357
 3887SOL    HW112560   1.296   6.066   2.298
 3887SOL    HW212561   1.318   6.114   2.452
 3888SOL     OW12562   5.743   4.927   4.028
 3888SOL    HW112563   5.780   4.959   3.940
 3888SOL    HW212564   5.676   4.855   4.011
 3889SOL     OW12565   5.621   3.926   0.460
 3889SOL    HW112566   5.552   3.875   0.409
 3889SOL    HW212567   5.579   4.006   0.503
 3890SOL     OW12568   5.249   3.016   4.290
 3890SOL    HW112569   5.299   3.044   4.208
 3890SOL    HW212570   5.313   3.002   4.366
 3891SOL     OW12571   5.071   5.434   3.351
 3891SOL    HW112572   5.170   5.447   3.358
 3891SOL    HW212573   5.048   5.413   3.256
 3892SOL     OW12574   6.981   2.166   1.206
 3892SOL    HW112575   6.889   2.159   1.167
 3892SOL    HW212576   7.001   2.263   1.225
 3893SOL     OW12577   3.982   3.903   2.842
 3893SOL    HW112578   4.058   3.883   2.904
 3893SOL    HW212579   3.908   3.946   2.893
 3894SOL     OW12580   4.781   0.565   5.769
 3894SOL    HW112581   4.777   0.581   5.868
 3894SOL    HW212582   4.810   0.471   5.752
 3895SOL     OW12583   1.131   0.383   4.177
 3895SOL    HW112584   1.119   0.300   4.122
 3895SOL    HW212585   1.219   0.379   4.224
 3896SOL     OW12586   1.253   1.435   6.271
 3896SOL    HW112587   1.165   1.433   6.318
 3896SOL    HW212588   1.243   1.394   6.180
 3897SOL     OW12589   4.165   6.357   1.320
 3897SOL    HW112590   4.115   6.433   1.279
 3897SOL    HW212591   4.100   6.287   1.349
 3898SOL     OW12592   3.807   3.069   1.157
 3898SOL    HW112593   3.852   2.980   1.150
 3898SOL    HW212594   3.720   3.059   1.204
 3899SOL     OW12595   3.322   0.499   5.827
 3899SOL    HW112596   3.379   0.426   5.788
 3899SOL    HW212597   3.377   0.582   5.836
 3900SOL     OW12598   4.874   3.645   3.044
 3900SOL    HW112599   4.933   3.625   2.967
 3900SOL    HW212600   4.832   3.735   3.031
 3901SOL     OW12601   2.732   0.399   6.907
 3901SOL    HW112602   2.812   0.437   6.952
 3901SOL    HW212603   2.710   0.455   6.827
 3902SOL     OW12604   5.875   2.698   2.617
 3902SOL    HW112605   5.842   2.687   2.523
 3902SOL    HW212606   5.888   2.607   2.658
 3903SOL     OW12607   3.103   4.572   6.213
 3903SOL    HW112608   3.018   4.624   6.220
 3903SOL    HW212609   3.082   4.480   6.179
 3904SOL     OW12610   1.446   0.494   0.530
 3904SOL    HW112611   1.507   0.478   0.607
 3904SOL    HW212612   1.382   0.418   0.521
 3905SOL     OW12613   6.757   6.061   4.965
 3905SOL    HW112614   6.811   6.071   5.048
 3905SOL    HW212615   6.698   6.141   4.953
 3906SOL     OW12616   6.522   6.535   5.140
 3906SOL    HW112617   6.593   6.469   5.119
 3906SOL    HW212618   6.563   6.621   5.167
 3907SOL     OW12619   6.423   2.102   3.581
 3907SOL    HW112620   6.497   2.145   3.528
 3907SOL    HW212621   6.405   2.011   3.545
 3908SOL     OW12622   2.217   3.545   6.180
 3908SOL    HW112623   2.229   3.643   6.164
 3908SOL    HW212624   2.302   3.507   6.217
 3909SOL     OW12625   5.500   5.356   3.900
 3909SOL    HW112626   5.522   5.382   3.806
 3909SOL    HW212627   5.487   5.256   3.905
 3910SOL     OW12628   4.049   3.581   2.735
 3910SOL    HW112629   4.127   3.523   2.711
 3910SOL    HW212630   4.053   3.666   2.682
 3911SOL     OW12631   6.605   2.250   5.307
 3911SOL    HW112632   6.645   2.323   5.363
 3911SOL    HW212633   6.515   2.226   5.342
 3912SOL     OW12634   5.259   2.836   6.696
 3912SOL    HW112635   5.339   2.884   6.658
 3912SOL    HW212636   5.175   2.878   6.660
 3913SOL     OW12637   0.839   6.835   1.217
 3913SOL    HW112638   0.912   6.815   1.283
 3913SOL    HW212639   0.832   6.934   1.204
 3914SOL     OW12640   3.238   5.510   5.812
 3914SOL    HW112641   3.170   5.577   5.842
 3914SOL    HW212642   3.192   5.424   5.790
 3915SOL     OW12643   6.738   6.147   1.539
 3915SOL    HW112644   6.808   6.077   1.524
 3915SOL    HW212645   6.705   6.180   1.451
 3916SOL     OW12646   0.928   6.930   3.256
 3916SOL    HW112647   0.954   6.932   3.353
 3916SOL    HW212648   0.840   6.976   3.245
 3917SOL     OW12649   2.234   0.285   6.892
 3917SOL    HW112650   2.167   0.211   6.895
 3917SOL    HW212651   2.316   0.253   6.844
 3918SOL     OW12652   5.534   3.209   0.589
 3918SOL    HW112653   5.450   3.202   0.534
 3918SOL    HW212654   5.568   3.118   0.609
 3919SOL     OW12655   3.323   6.683   0.692
 3919SOL    HW112656   3.304   6.636   0.778
 3919SOL    HW212657   3.418   6.713   0.690
 3920SOL     OW12658   2.006   1.507   6.779
 3920SOL    HW112659   1.941   1.545   6.713
 3920SOL    HW212660   2.019   1.573   6.854
 3921SOL     OW12661   1.551   3.961   1.827
 3921SOL    HW112662   1.477   4.008   1.875
 3921SOL    HW212663   1.635   3.966   1.882
 3922SOL     OW12664   1.020   4.639   1.245
 3922SOL    HW112665   1.063   4.572   1.185
 3922SOL    HW212666   1.015   4.727   1.198
 3923SOL     OW12667   6.639   0.355   0.778
 3923SOL    HW112668   6.668   0.390   0.867
 3923SOL    HW212669   6.701   0.390   0.707
 3924SOL     OW12670   6.962   4.995   4.488
 3924SOL    HW112671   6.894   4.923   4.482
 3924SOL    HW212672   0.025   4.957   4.523
 3925SOL     OW12673   1.683   5.191   1.927
 3925SOL    HW112674   1.697   5.134   2.007
 3925SOL    HW212675   1.641   5.277   1.954
 3926SOL     OW12676   3.766   5.066   2.735
 3926SOL    HW112677   3.752   4.999   2.808
 3926SOL    HW212678   3.745   5.024   2.646
 3927SOL     OW12679   0.666   3.377   6.161
 3927SOL    HW112680   0.634   3.308   6.226
 3927SOL    HW212681   0.731   3.335   6.098
 3928SOL     OW12682   5.497   5.765   6.585
 3928SOL    HW112683   5.562   5.811   6.645
 3928SOL    HW212684   5.463   5.683   6.630
 3929SOL     OW12685   1.031   2.129   4.425
 3929SOL    HW112686   0.963   2.118   4.498
 3929SOL    HW212687   1.012   2.064   4.351
 3930SOL     OW12688   2.636   1.645   3.794
 3930SOL    HW112689   2.718   1.588   3.796
 3930SOL    HW212690   2.660   1.740   3.814
 3931SOL     OW12691   5.413   0.510   1.986
 3931SOL    HW112692   5.314   0.495   1.983
 3931SOL    HW212693   5.460   0.422   1.983
 3932SOL     OW12694   1.925   1.712   3.993
 3932SOL    HW112695   1.829   1.683   4.000
 3932SOL    HW212696   1.953   1.710   3.897
 3933SOL     OW12697   0.721   6.963   5.381
 3933SOL    HW112698   0.681   6.933   5.468
 3933SOL    HW212699   0.737   6.884   5.322
 3934SOL     OW12700   5.372   6.677   6.710
 3934SOL    HW112701   5.458   6.639   6.676
 3934SOL    HW212702   5.297   6.614   6.689
 3935SOL     OW12703   4.963   0.414   0.776
 3935SOL    HW112704   4.974   0.513   0.775
 3935SOL    HW212705   5.023   0.375   0.846
 3936SOL     OW12706   0.580   4.619   2.894
 3936SOL    HW112707   0.523   4.538   2.880
 3936SOL    HW212708   0.527   4.689   2.944
 3937SOL     OW12709   0.433   1.332   2.464
 3937SOL    HW112710   0.333   1.336   2.462
 3937SOL    HW212711   0.465   1.366   2.553
 3938SOL     OW12712   6.955   2.133   2.654
 3938SOL    HW112713   6.859   2.139   2.626
 3938SOL    HW212714   7.004   2.214   2.622
 3939SOL     OW12715   2.745   1.879   1.816
 3939SOL    HW112716   2.708   1.793   1.781
 3939SOL    HW212717   2.844   1.882   1.802
 3940SOL     OW12718   4.300   3.399   1.431
 3940SOL    HW112719   4.360   3.365   1.504
 3940SOL    HW212720   4.254   3.482   1.461
 3941SOL     OW12721   4.505   3.831   6.746
 3941SOL    HW112722   4.602   3.807   6.746
 3941SOL    HW212723   4.491   3.912   6.689
 3942SOL     OW12724   6.854   0.089   6.640
 3942SOL    HW112725   6.799   0.106   6.721
 3942SOL    HW212726   6.949   0.118   6.657
 3943SOL     OW12727   0.061   3.294   4.611
 3943SOL    HW112728   0.127   3.294   4.687
 3943SOL    HW212729   0.024   3.202   4.599
 3944SOL     OW12730   4.995   2.385   4.758
 3944SOL    HW112731   4.999   2.288   4.781
 3944SOL    HW212732   5.087   2.418   4.737
 3945SOL     OW12733   0.109   0.924   0.688
 3945SOL    HW112734   0.161   0.842   0.713
 3945SOL    HW212735   0.132   0.950   0.594
 3946SOL     OW12736   4.235   4.664   2.965
 3946SOL    HW112737   4.289   4.612   2.899
 3946SOL    HW212738   4.289   4.678   3.049
 3947SOL     OW12739   6.080   5.102   6.462
 3947SOL    HW112740   6.096   5.181   6.521
 3947SOL    HW212741   6.048   5.133   6.373
 3948SOL     OW12742   6.274   3.931   0.753
 3948SOL    HW112743   6.203   3.906   0.819
 3948SOL    HW212744   6.256   3.886   0.666
 3949SOL     OW12745   5.505   6.184   3.323
 3949SOL    HW112746   5.510   6.142   3.232
 3949SOL    HW212747   5.505   6.113   3.393
 3950SOL     OW12748   1.557   6.151   0.570
 3950SOL    HW112749   1.478   6.124   0.624
 3950SOL    HW212750   1.538   6.235   0.520
 3951SOL     OW12751   5.109   6.951   1.585
 3951SOL    HW112752   5.057   7.012   1.646
 3951SOL    HW212753   5.172   7.006   1.530
 3952SOL     OW12754   5.631   2.209   6.999
 3952SOL    HW112755   5.538   2.182   6.977
 3952SOL    HW212756   5.634   2.245   0.070
 3953SOL     OW12757   3.767   4.049   2.993
 3953SOL    HW112758   3.727   4.101   3.069
 3953SOL    HW212759   3.734   4.086   2.906
 3954SOL     OW12760   4.157   4.841   5.620
 3954SOL    HW112761   4.228   4.783   5.659
 3954SOL    HW212762   4.106   4.886   5.694
 3955SOL     OW12763   3.773   1.121   4.747
 3955SOL    HW112764   3.791   1.048   4.813
 3955SOL    HW212765   3.674   1.135   4.741
 3956SOL     OW12766   2.457   1.294   1.460
 3956SOL    HW112767   2.515   1.222   1.421
 3956SOL    HW212768   2.377   1.252   1.503
 3957SOL     OW12769   4.018   0.602   4.596
 3957SOL    HW112770   3.968   0.515   4.603
 3957SOL    HW212771   3.991   0.649   4.512
 3958SOL     OW12772   5.805   0.200   5.720
 3958SOL    HW112773   5.728   0.256   5.693
 3958SOL    HW212774   5.883   0.258   5.742
 3959SOL     OW12775   4.672   5.779   0.223
 3959SOL    HW112776   4.709   5.691   0.193
 3959SOL    HW212777   4.589   5.765   0.277
 3960SOL     OW12778   5.165   1.989   4.607
 3960SOL    HW112779   5.256   1.984   4.567
 3960SOL    HW212780   5.110   1.911   4.576
 3961SOL     OW12781   5.608   6.454   4.037
 3961SOL    HW112782   5.684   6.514   4.014
 3961SOL    HW212783   5.581   6.402   3.956
 3962SOL     OW12784   0.255   5.642   5.225
 3962SOL    HW112785   0.237   5.677   5.317
 3962SOL    HW212786   0.171   5.605   5.186
 3963SOL     OW12787   4.620   6.951   2.116
 3963SOL    HW112788   4.624   6.962   2.215
 3963SOL    HW212789   4.531   6.912   2.091
 3964SOL     OW12790   5.818   2.992   3.173
 3964SOL    HW112791   5.799   3.077   3.223
 3964SOL    HW212792   5.833   2.918   3.239
 3965SOL     OW12793   4.850   3.970   4.418
 3965SOL    HW112794   4.852   3.879   4.459
 3965SOL    HW212795   4.832   4.039   4.489
 3966SOL     OW12796   2.758   6.212   6.246
 3966SOL    HW112797   2.801   6.122   6.242
 3966SOL    HW212798   2.779   6.255   6.334
 3967SOL     OW12799   1.987   4.549   3.177
 3967SOL    HW112800   2.059   4.501   3.227
 3967SOL    HW212801   2.019   4.572   3.085
 3968SOL     OW12802   3.566   6.777   0.631
 3968SOL    HW112803   3.629   6.709   0.593
 3968SOL    HW212804   3.617   6.841   0.688
 3969SOL     OW12805   0.680   5.044   2.900
 3969SOL    HW112806   0.740   5.034   2.979
 3969SOL    HW212807   0.715   4.990   2.824
 3970SOL     OW12808   4.741   6.200   2.307
 3970SOL    HW112809   4.729   6.118   2.251
 3970SOL    HW212810   4.804   6.180   2.383
 3971SOL     OW12811   2.160   6.164   3.097
 3971SOL    HW112812   2.181   6.069   3.119
 3971SOL    HW212813   2.062   6.173   3.078
 3972SOL     OW12814   2.046   3.787   0.364
 3972SOL    HW112815   2.018   3.698   0.329
 3972SOL    HW212816   2.037   3.856   0.291
 3973SOL     OW12817   1.514   5.160   0.834
 3973SOL    HW112818   1.595   5.187   0.886
 3973SOL    HW212819   1.532   5.072   0.789
 3974SOL     OW12820   2.201   1.229   5.109
 3974SOL    HW112821   2.155   1.228   5.021
 3974SOL    HW212822   2.133   1.237   5.182
 3975SOL     OW12823   5.778   2.623   5.942
 3975SOL    HW112824   5.719   2.542   5.946
 3975SOL    HW212825   5.806   2.649   6.034
 3976SOL     OW12826   2.005   5.043   2.339
 3976SOL    HW112827   2.095   5.084   2.321
 3976SOL    HW212828   1.967   5.080   2.424
 3977SOL     OW12829   1.276   3.433   6.487
 3977SOL    HW112830   1.313   3.504   6.547
 3977SOL    HW212831   1.266   3.470   6.394
 3978SOL     OW12832   6.549   4.468   3.700
 3978SOL    HW112833   6.544   4.381   3.651
 3978SOL    HW212834   6.456   4.500   3.720
 3979SOL     OW12835   3.895   6.998   6.500
 3979SOL    HW112836   3.965   0.037   6.463
 3979SOL    HW212837   3.838   6.965   6.425
 3980SOL     OW12838   5.497   6.104   5.812
 3980SOL    HW112839   5.596   6.112   5.802
 3980SOL    HW212840   5.459   6.064   5.728
 3981SOL     OW12841   4.410   6.331   7.012
 3981SOL    HW112842   4.403   6.409   0.051
 3981SOL    HW212843   4.491   6.340   6.955
 3982SOL     OW12844   3.191   6.659   3.137
 3982SOL    HW112845   3.204   6.739   3.196
 3982SOL    HW212846   3.170   6.579   3.193
 3983SOL     OW12847   3.369   5.834   4.291
 3983SOL    HW112848   3.445   5.899   4.295
 3983SOL    HW212849   3.398   5.746   4.329
 3984SOL     OW12850   6.708   2.565   2.772
 3984SOL    HW112851   6.803   2.539   2.785
 3984SOL    HW212852   6.657   2.489   2.731
 3985SOL     OW12853   4.125   5.168   6.464
 3985SOL    HW112854   4.050   5.208   6.516
 3985SOL    HW212855   4.175   5.103   6.522
 3986SOL     OW12856   5.323   0.788   2.781
 3986SOL    HW112857   5.323   0.887   2.766
 3986SOL    HW212858   5.377   0.744   2.709
 3987SOL     OW12859   3.149   5.176   4.814
 3987SOL    HW112860   3.065   5.169   4.759
 3987SOL    HW212861   3.228   5.161   4.755
 3988SOL     OW12862   3.894   5.959   0.459
 3988SOL    HW112863   3.939   5.958   0.548
 3988SOL    HW212864   3.795   5.962   0.472
 3989SOL     OW12865   5.626   2.222   0.250
 3989SOL    HW112866   5.547   2.163   0.262
 3989SOL    HW212867   5.629   2.288   0.325
 3990SOL     OW12868   6.413   1.704   2.470
 3990SOL    HW112869   6.367   1.784   2.508
 3990SOL    HW212870   6.374   1.682   2.380
 3991SOL     OW12871   6.648   0.637   3.030
 3991SOL    HW112872   6.560   0.602   3.061
 3991SOL    HW212873   6.633   0.706   2.959
 3992SOL     OW12874   3.060   2.041   1.040
 3992SOL    HW112875   3.115   2.052   1.123
 3992SOL    HW212876   3.009   1.955   1.044
 3993SOL     OW12877   1.208   2.797   1.792
 3993SOL    HW112878   1.299   2.786   1.833
 3993SOL    HW212879   1.197   2.732   1.717
 3994SOL     OW12880   2.418   6.195   4.692
 3994SOL    HW112881   2.512   6.198   4.660
 3994SOL    HW212882   2.406   6.118   4.754
 3995SOL     OW12883   1.582   2.121   4.776
 3995SOL    HW112884   1.517   2.069   4.720
 3995SOL    HW212885   1.655   2.156   4.717
 3996SOL     OW12886   6.785   6.478   4.747
 3996SOL    HW112887   6.807   6.424   4.828
 3996SOL    HW212888   6.724   6.553   4.773
 3997SOL     OW12889   4.567   0.887   4.580
 3997SOL    HW112890   4.654   0.864   4.536
 3997SOL    HW212891   4.526   0.804   4.617
 3998SOL     OW12892   4.482   1.782   3.202
 3998SOL    HW112893   4.496   1.878   3.225
 3998SOL    HW212894   4.510   1.724   3.279
 3999SOL     OW12895   4.951   2.370   4.100
 3999SOL    HW112896   4.940   2.465   4.070
 3999SOL    HW212897   4.906   2.309   4.034
 4000SOL     OW12898   4.228   6.620   4.382
 4000SOL    HW112899   4.162   6.547   4.397
 4000SOL    HW212900   4.320   6.582   4.378
 4001SOL     OW12901   0.908   2.374   4.352
 4001SOL    HW112902   0.972   2.297   4.347
 4001SOL    HW212903   0.862   2.384   4.264
 4002SOL     OW12904   2.275   3.862   1.799
 4002SOL    HW112905   2.200   3.834   1.738
 4002SOL    HW212906   2.321   3.780   1.835
 4003SOL     OW12907   3.852   1.962   4.905
 4003SOL    HW112908   3.853   2.038   4.969
 4003SOL    HW212909   3.790   1.982   4.830
 4004SOL     OW12910   7.004   1.726   5.291
 4004SOL    HW112911   6.974   1.807   5.240
 4004SOL    HW212912   6.933   1.656   5.288
 4005SOL     OW12913   6.466   5.140   5.538
 4005SOL    HW112914   6.422   5.174   5.621
 4005SOL    HW212915   6.401   5.143   5.462
 4006SOL     OW12916   3.701   5.720   2.641
 4006SOL    HW112917   3.661   5.684   2.725
 4006SOL    HW212918   3.691   5.652   2.568
 4007SOL     OW12919   6.426   1.703   6.385
 4007SOL    HW112920   6.344   1.647   6.371
 4007SOL    HW212921   6.402   1.783   6.441
 4008SOL     OW12922   2.596   2.483   4.794
 4008SOL    HW112923   2.550   2.504   4.881
 4008SOL    HW212924   2.685   2.441   4.814
 4009SOL     OW12925   3.211   3.398   3.057
 4009SOL    HW112926   3.252   3.436   3.140
 4009SOL    HW212927   3.115   3.426   3.051
 4010SOL     OW12928   1.853   3.006   6.670
 4010SOL    HW112929   1.898   3.090   6.641
 4010SOL    HW212930   1.817   2.959   6.589
 4011SOL     OW12931   1.436   2.674   0.997
 4011SOL    HW112932   1.353   2.713   0.959
 4011SOL    HW212933   1.515   2.725   0.963
 4012SOL     OW12934   5.854   2.635   3.626
 4012SOL    HW112935   5.793   2.611   3.702
 4012SOL    HW212936   5.886   2.729   3.637
 4013SOL     OW12937   4.341   2.377   3.301
 4013SOL    HW112938   4.401   2.421   3.235
 4013SOL    HW212939   4.392   2.358   3.385
 4014SOL     OW12940   5.648   6.657   2.256
 4014SOL    HW112941   5.555   6.672   2.287
 4014SOL    HW212942   5.683   6.740   2.213
 4015SOL     OW12943   4.404   3.591   6.874
 4015SOL    HW112944   4.494   3.547   6.873
 4015SOL    HW212945   4.409   3.680   6.830
 4016SOL     OW12946   3.426   6.128   5.194
 4016SOL    HW112947   3.330   6.120   5.219
 4016SOL    HW212948   3.482   6.127   5.278
 4017SOL     OW12949   6.083   6.782   0.163
 4017SOL    HW112950   6.100   6.876   0.195
 4017SOL    HW212951   6.060   6.724   0.241
 4018SOL     OW12952   2.049   6.458   0.336
 4018SOL    HW112953   2.045   6.459   0.435
 4018SOL    HW212954   1.980   6.395   0.300
 4019SOL     OW12955   4.837   5.397   3.098
 4019SOL    HW112956   4.916   5.337   3.093
 4019SOL    HW212957   4.787   5.394   3.011
 4020SOL     OW12958   5.078   1.797   5.035
 4020SOL    HW112959   5.111   1.854   5.110
 4020SOL    HW212960   5.152   1.740   5.000
 4021SOL     OW12961   4.215   4.270   0.278
 4021SOL    HW112962   4.230   4.369   0.277
 4021SOL    HW212963   4.160   4.244   0.198
 4022SOL     OW12964   5.260   0.559   0.692
 4022SOL    HW112965   5.331   0.555   0.762
 4022SOL    HW212966   5.190   0.624   0.720
 4023SOL     OW12967   0.204   0.348   5.785
 4023SOL    HW112968   0.300   0.330   5.760
 4023SOL    HW212969   0.160   0.261   5.809
 4024SOL     OW12970   4.343   4.633   4.328
 4024SOL    HW112971   4.345   4.579   4.412
 4024SOL    HW212972   4.257   4.685   4.325
 4025SOL     OW12973   1.297   4.139   3.642
 4025SOL    HW112974   1.371   4.147   3.708
 4025SOL    HW212975   1.254   4.049   3.651
 4026SOL     OW12976   4.815   6.992   5.017
 4026SOL    HW112977   4.806   6.905   4.970
 4026SOL    HW212978   4.784   0.043   4.958
 4027SOL     OW12979   3.923   5.098   2.257
 4027SOL    HW112980   3.914   5.076   2.160
 4027SOL    HW212981   3.932   5.197   2.269
 4028SOL     OW12982   2.641   6.139   3.599
 4028SOL    HW112983   2.670   6.047   3.573
 4028SOL    HW212984   2.690   6.167   3.682
 4029SOL     OW12985   1.914   3.641   3.953
 4029SOL    HW112986   1.955   3.619   4.042
 4029SOL    HW212987   1.971   3.708   3.906
 4030SOL     OW12988   1.189   1.707   6.116
 4030SOL    HW112989   1.237   1.629   6.156
 4030SOL    HW212990   1.140   1.678   6.034
 4031SOL     OW12991   5.608   5.726   3.932
 4031SOL    HW112992   5.631   5.817   3.966
 4031SOL    HW212993   5.522   5.695   3.973
 4032SOL     OW12994   3.871   0.120   5.290
 4032SOL    HW112995   3.873   0.045   5.223
 4032SOL    HW212996   3.846   0.084   5.380
 4033SOL     OW12997   3.300   3.666   5.959
 4033SOL    HW112998   3.204   3.663   5.986
 4033SOL    HW212999   3.357   3.683   6.039
 4034SOL     OW13000   5.833   3.104   4.762
 4034SOL    HW113001   5.817   3.175   4.831
 4034SOL    HW213002   5.846   3.146   4.672
 4035SOL     OW13003   0.262   5.087   1.605
 4035SOL    HW113004   0.298   5.006   1.558
 4035SOL    HW213005   0.293   5.169   1.558
 4036SOL     OW13006   6.676   6.300   2.572
 4036SOL    HW113007   6.582   6.287   2.602
 4036SOL    HW213008   6.708   6.219   2.523
 4037SOL     OW13009   6.855   3.946   6.052
 4037SOL    HW113010   6.890   3.876   5.990
 4037SOL    HW213011   6.762   3.922   6.081
 4038SOL     OW13012   6.590   5.220   3.477
 4038SOL    HW113013   6.571   5.193   3.383
 4038SOL    HW213014   6.557   5.314   3.492
 4039SOL     OW13015   3.742   5.746   1.318
 4039SOL    HW113016   3.684   5.737   1.398
 4039SOL    HW213017   3.714   5.679   1.249
 4040SOL     OW13018   3.232   6.552   0.481
 4040SOL    HW113019   3.256   6.615   0.555
 4040SOL    HW213020   3.188   6.471   0.519
 4041SOL     OW13021   1.228   6.149   3.057
 4041SOL    HW113022   1.301   6.081   3.059
 4041SOL    HW213023   1.267   6.241   3.060
 4042SOL     OW13024   5.838   5.844   2.336
 4042SOL    HW113025   5.790   5.776   2.280
 4042SOL    HW213026   5.904   5.797   2.395
 4043SOL     OW13027   6.540   3.799   1.634
 4043SOL    HW113028   6.590   3.775   1.551
 4043SOL    HW213029   6.492   3.886   1.621
 4044SOL     OW13030   5.940   5.528   3.010
 4044SOL    HW113031   5.996   5.599   3.052
 4044SOL    HW213032   5.999   5.463   2.961
 4045SOL     OW13033   2.495   4.615   5.581
 4045SOL    HW113034   2.558   4.561   5.525
 4045SOL    HW213035   2.545   4.653   5.660
 4046SOL     OW13036   0.232   3.161   0.481
 4046SOL    HW113037   0.289   3.135   0.559
 4046SOL    HW213038   0.135   3.153   0.507
 4047SOL     OW13039   2.954   3.833   2.638
 4047SOL    HW113040   2.967   3.734   2.633
 4047SOL    HW213041   2.858   3.855   2.622
 4048SOL     OW13042   4.767   2.460   0.466
 4048SOL    HW113043   4.804   2.516   0.540
 4048SOL    HW213044   4.675   2.493   0.443
 4049SOL     OW13045   6.829   0.572   5.987
 4049SOL    HW113046   6.927   0.581   6.006
 4049SOL    HW213047   6.784   0.660   6.005
 4050SOL     OW13048   3.039   0.586   2.291
 4050SOL    HW113049   2.990   0.622   2.211
 4050SOL    HW213050   3.131   0.626   2.294
 4051SOL     OW13051   1.139   4.022   0.772
 4051SOL    HW113052   1.139   4.041   0.870
 4051SOL    HW213053   1.093   4.096   0.724
 4052SOL     OW13054   1.440   6.793   1.160
 4052SOL    HW113055   1.350   6.759   1.132
 4052SOL    HW213056   1.507   6.720   1.150
 4053SOL     OW13057   3.239   5.372   3.770
 4053SOL    HW113058   3.180   5.298   3.801
 4053SOL    HW213059   3.183   5.446   3.733
 4054SOL     OW13060   5.407   1.771   6.435
 4054SOL    HW113061   5.458   1.701   6.384
 4054SOL    HW213062   5.461   1.800   6.514
 4055SOL     OW13063   4.845   2.866   0.495
 4055SOL    HW113064   4.871   2.955   0.458
 4055SOL    HW213065   4.792   2.816   0.427
 4056SOL     OW13066   4.458   2.852   0.668
 4056SOL    HW113067   4.371   2.816   0.633
 4056SOL    HW213068   4.517   2.877   0.591
 4057SOL     OW13069   6.303   2.187   0.357
 4057SOL    HW113070   6.221   2.205   0.304
 4057SOL    HW213071   6.278   2.160   0.450
 4058SOL     OW13072   0.891   1.934   4.157
 4058SOL    HW113073   0.817   1.891   4.105
 4058SOL    HW213074   0.979   1.914   4.114
 4059SOL     OW13075   6.857   2.010   5.422
 4059SOL    HW113076   6.954   2.028   5.407
 4059SOL    HW213077   6.835   1.917   5.393
 4060SOL     OW13078   3.337   5.891   5.680
 4060SOL    HW113079   3.379   5.910   5.769
 4060SOL    HW213080   3.306   5.977   5.640
 4061SOL     OW13081   2.301   2.724   1.463
 4061SOL    HW113082   2.395   2.703   1.488
 4061SOL    HW213083   2.300   2.778   1.379
 4062SOL     OW13084   3.416   6.442   2.630
 4062SOL    HW113085   3.493   6.380   2.642
 4062SOL    HW213086   3.361   6.443   2.713
 4063SOL     OW13087   2.455   5.200   6.436
 4063SOL    HW113088   2.384   5.190   6.366
 4063SOL    HW213089   2.438   5.135   6.511
 4064SOL     OW13090   6.150   6.909   3.985
 4064SOL    HW113091   6.125   6.862   3.900
 4064SOL    HW213092   6.077   6.971   4.012
 4065SOL     OW13093   0.035   4.533   6.208
 4065SOL    HW113094   7.020   4.486   6.288
 4065SOL    HW213095   0.040   4.631   6.227
 4066SOL     OW13096   5.907   5.261   1.523
 4066SOL    HW113097   5.926   5.359   1.525
 4066SOL    HW213098   5.990   5.211   1.548
 4067SOL     OW13099   5.720   0.944   1.541
 4067SOL    HW113100   5.669   0.903   1.617
 4067SOL    HW213101   5.705   0.891   1.458
 4068SOL     OW13102   5.568   1.080   4.576
 4068SOL    HW113103   5.582   0.990   4.619
 4068SOL    HW213104   5.510   1.070   4.496
 4069SOL     OW13105   6.884   6.255   0.698
 4069SOL    HW113106   6.914   6.178   0.642
 4069SOL    HW213107   6.871   6.335   0.640
 4070SOL     OW13108   0.378   3.691   3.195
 4070SOL    HW113109   0.363   3.644   3.108
 4070SOL    HW213110   0.453   3.757   3.185
 4071SOL     OW13111   2.865   0.593   4.053
 4071SOL    HW113112   2.961   0.607   4.078
 4071SOL    HW213113   2.860   0.543   3.966
 4072SOL     OW13114   1.123   0.143   4.034
 4072SOL    HW113115   1.222   0.139   4.045
 4072SOL    HW213116   1.099   0.119   3.939
 4073SOL     OW13117   2.265   5.102   2.303
 4073SOL    HW113118   2.344   5.161   2.288
 4073SOL    HW213119   2.294   5.017   2.346
 4074SOL     OW13120   0.461   2.883   6.805
 4074SOL    HW113121   0.459   2.983   6.818
 4074SOL    HW213122   0.540   2.845   6.854
 4075SOL     OW13123   5.595   0.421   3.673
 4075SOL    HW113124   5.521   0.407   3.739
 4075SOL    HW213125   5.560   0.472   3.594
 4076SOL     OW13126   1.935   2.477   2.938
 4076SOL    HW113127   2.003   2.461   2.867
 4076SOL    HW213128   1.911   2.574   2.941
 4077SOL     OW13129   3.767   0.877   0.725
 4077SOL    HW113130   3.867   0.875   0.733
 4077SOL    HW213131   3.729   0.937   0.796
 4078SOL     OW13132   4.859   3.936   2.657
 4078SOL    HW113133   4.894   3.843   2.647
 4078SOL    HW213134   4.893   3.993   2.582
 4079SOL     OW13135   5.493   0.410   4.542
 4079SOL    HW113136   5.525   0.498   4.508
 4079SOL    HW213137   5.441   0.363   4.471
 4080SOL     OW13138   3.770   2.906   3.646
 4080SOL    HW113139   3.864   2.941   3.645
 4080SOL    HW213140   3.736   2.899   3.552
 4081SOL     OW13141   2.441   2.216   6.992
 4081SOL    HW113142   2.457   2.123   0.004
 4081SOL    HW213143   2.459   2.282   0.042
 4082SOL     OW13144   0.900   1.904   5.807
 4082SOL    HW113145   0.989   1.878   5.770
 4082SOL    HW213146   0.837   1.826   5.798
 4083SOL     OW13147   6.186   5.229   2.867
 4083SOL    HW113148   6.184   5.145   2.921
 4083SOL    HW213149   6.189   5.205   2.770
 4084SOL     OW13150   4.915   0.254   1.854
 4084SOL    HW113151   4.823   0.229   1.887
 4084SOL    HW213152   4.982   0.233   1.925
 4085SOL     OW13153   2.295   4.265   3.002
 4085SOL    HW113154   2.379   4.320   2.998
 4085SOL    HW213155   2.293   4.214   3.088
 4086SOL     OW13156   5.957   5.255   5.298
 4086SOL    HW113157   5.911   5.339   5.329
 4086SOL    HW213158   5.975   5.196   5.377
 4087SOL     OW13159   2.090   0.841   1.784
 4087SOL    HW113160   2.142   0.881   1.708
 4087SOL    HW213161   2.050   0.914   1.840
 4088SOL     OW13162   0.302   1.557   5.637
 4088SOL    HW113163   0.273   1.602   5.553
 4088SOL    HW213164   0.358   1.477   5.615
 4089SOL     OW13165   1.231   0.857   2.732
 4089SOL    HW113166   1.282   0.802   2.666
 4089SOL    HW213167   1.295   0.909   2.788
 4090SOL     OW13168   3.001   2.523   5.829
 4090SOL    HW113169   2.920   2.478   5.791
 4090SOL    HW213170   3.076   2.456   5.835
 4091SOL     OW13171   3.383   6.190   2.504
 4091SOL    HW113172   3.387   6.284   2.537
 4091SOL    HW213173   3.394   6.188   2.405
 4092SOL     OW13174   5.748   1.659   5.954
 4092SOL    HW113175   5.719   1.722   6.026
 4092SOL    HW213176   5.680   1.587   5.944
 4093SOL     OW13177   5.636   3.818   3.205
 4093SOL    HW113178   5.551   3.830   3.154
 4093SOL    HW213179   5.712   3.806   3.141
 4094SOL     OW13180   6.766   6.843   0.464
 4094SOL    HW113181   6.689   6.905   0.473
 4094SOL    HW213182   6.768   6.780   0.542
 4095SOL     OW13183   1.954   5.352   0.455
 4095SOL    HW113184   1.872   5.352   0.398
 4095SOL    HW213185   1.969   5.260   0.492
 4096SOL     OW13186   0.605   0.114   6.607
 4096SOL    HW113187   0.685   0.153   6.561
 4096SOL    HW213188   0.531   0.182   6.607
 4097SOL     OW13189   0.636   3.631   5.766
 4097SOL    HW113190   0.563   3.567   5.741
 4097SOL    HW213191   0.600   3.696   5.834
 4098SOL     OW13192   1.261   6.036   1.898
 4098SOL    HW113193   1.181   5.984   1.868
 4098SOL    HW213194   1.272   6.025   1.997
 4099SOL     OW13195   6.645   3.492   5.099
 4099SOL    HW113196   6.710   3.422   5.129
 4099SOL    HW213197   6.552   3.459   5.109
 4100SOL     OW13198   2.541   0.557   3.265
 4100SOL    HW113199   2.542   0.604   3.177
 4100SOL    HW213200   2.580   0.617   3.335
 4101SOL     OW13201   6.242   5.849   6.068
 4101SOL    HW113202   6.182   5.822   5.993
 4101SOL    HW213203   6.248   5.949   6.072
 4102SOL     OW13204   1.313   5.779   0.675
 4102SOL    HW113205   1.402   5.749   0.642
 4102SOL    HW213206   1.253   5.700   0.686
 4103SOL     OW13207   2.690   5.396   3.009
 4103SOL    HW113208   2.605   5.389   3.062
 4103SOL    HW213209   2.727   5.304   2.994
 4104SOL     OW13210   1.510   6.168   5.356
 4104SOL    HW113211   1.498   6.069   5.341
 4104SOL    HW213212   1.606   6.187   5.376
 4105SOL     OW13213   3.710   6.664   1.867
 4105SOL    HW113214   3.713   6.567   1.844
 4105SOL    HW213215   3.650   6.712   1.804
 4106SOL     OW13216   1.559   0.048   2.357
 4106SOL    HW113217   1.648   0.005   2.342
 4106SOL    HW213218   1.557   0.138   2.314
 4107SOL     OW13219   1.554   1.131   0.911
 4107SOL    HW113220   1.530   1.176   0.825
 4107SOL    HW213221   1.617   1.188   0.963
 4108SOL     OW13222   6.703   6.595   5.639
 4108SOL    HW113223   6.619   6.616   5.689
 4108SOL    HW213224   6.770   6.668   5.654
 4109SOL     OW13225   5.010   6.468   4.895
 4109SOL    HW113226   5.045   6.402   4.963
 4109SOL    HW213227   5.081   6.488   4.828
 4110SOL     OW13228   4.495   3.181   0.264
 4110SOL    HW113229   4.587   3.215   0.284
 4110SOL    HW213230   4.446   3.246   0.206
 4111SOL     OW13231   5.561   4.723   3.970
 4111SOL    HW113232   5.526   4.722   3.877
 4111SOL    HW213233   5.559   4.630   4.007
 4112SOL     OW13234   4.231   5.870   4.659
 4112SOL    HW113235   4.148   5.838   4.613
 4112SOL    HW213236   4.310   5.853   4.600
 4113SOL     OW13237   4.810   5.094   4.951
 4113SOL    HW113238   4.758   5.173   4.917
 4113SOL    HW213239   4.887   5.126   5.006
 4114SOL     OW13240   0.166   0.822   2.163
 4114SOL    HW113241   0.133   0.798   2.254
 4114SOL    HW213242   0.266   0.821   2.163
 4115SOL     OW13243   4.063   5.762   4.461
 4115SOL    HW113244   4.081   5.665   4.478
 4115SOL    HW213245   4.122   5.795   4.388
 4116SOL     OW13246   6.156   3.347   3.326
 4116SOL    HW113247   6.205   3.386   3.247
 4116SOL    HW213248   6.202   3.263   3.356
 4117SOL     OW13249   0.200   1.248   2.959
 4117SOL    HW113250   0.112   1.250   2.911
 4117SOL    HW213251   0.186   1.220   3.054
 4118SOL     OW13252   1.592   0.499   1.028
 4118SOL    HW113253   1.666   0.515   1.093
 4118SOL    HW213254   1.520   0.445   1.072
 4119SOL     OW13255   0.247   0.847   5.027
 4119SOL    HW113256   0.213   0.854   4.933
 4119SOL    HW213257   0.211   0.764   5.069
 4120SOL     OW13258   2.228   0.900   6.182
 4120SOL    HW113259   2.273   0.955   6.112
 4120SOL    HW213260   2.133   0.884   6.156
 4121SOL     OW13261   6.365   1.005   1.805
 4121SOL    HW113262   6.459   1.030   1.783
 4121SOL    HW213263   6.360   0.970   1.898
 4122SOL     OW13264   1.022   4.832   2.873
 4122SOL    HW113265   1.025   4.757   2.939
 4122SOL    HW213266   1.006   4.918   2.921
 4123SOL     OW13267   5.557   4.319   1.361
 4123SOL    HW113268   5.589   4.281   1.448
 4123SOL    HW213269   5.604   4.274   1.286
 4124SOL     OW13270   6.263   6.995   0.209
 4124SOL    HW113271   6.359   6.968   0.213
 4124SOL    HW213272   6.239   0.022   0.293
 4125SOL     OW13273   0.112   3.032   6.826
 4125SOL    HW113274   0.101   3.063   6.920
 4125SOL    HW213275   0.099   3.108   6.763
 4126SOL     OW13276   1.341   3.976   4.074
 4126SOL    HW113277   1.304   4.068   4.059
 4126SOL    HW213278   1.342   3.955   4.172
 4127SOL     OW13279   5.143   2.165   3.920
 4127SOL    HW113280   5.083   2.208   3.852
 4127SOL    HW213281   5.163   2.231   3.992
 4128SOL     OW13282   6.798   2.335   5.995
 4128SOL    HW113283   6.718   2.365   6.048
 4128SOL    HW213284   6.784   2.241   5.963
 4129SOL     OW13285   3.186   1.346   1.257
 4129SOL    HW113286   3.215   1.421   1.198
 4129SOL    HW213287   3.090   1.359   1.284
 4130SOL     OW13288   5.441   2.655   0.459
 4130SOL    HW113289   5.509   2.729   0.456
 4130SOL    HW213290   5.366   2.677   0.397
 4131SOL     OW13291   4.791   6.161   3.842
 4131SOL    HW113292   4.786   6.258   3.817
 4131SOL    HW213293   4.699   6.125   3.856
 4132SOL     OW13294   6.527   4.290   3.110
 4132SOL    HW113295   6.523   4.301   3.010
 4132SOL    HW213296   6.435   4.270   3.144
 4133SOL     OW13297   5.141   6.107   3.492
 4133SOL    HW113298   5.150   6.029   3.430
 4133SOL    HW213299   5.210   6.176   3.469
 4134SOL     OW13300   1.271   3.762   1.416
 4134SOL    HW113301   1.363   3.785   1.449
 4134SOL    HW213302   1.278   3.690   1.347
 4135SOL     OW13303   6.222   1.256   0.942
 4135SOL    HW113304   6.235   1.276   0.845
 4135SOL    HW213305   6.231   1.157   0.957
 4136SOL     OW13306   0.748   4.433   0.449
 4136SOL    HW113307   0.781   4.429   0.543
 4136SOL    HW213308   0.659   4.387   0.443
 4137SOL     OW13309   6.912   2.722   5.781
 4137SOL    HW113310   6.843   2.687   5.844
 4137SOL    HW213311   6.919   2.821   5.791
 4138SOL     OW13312   4.994   0.191   6.251
 4138SOL    HW113313   5.008   0.144   6.339
 4138SOL    HW213314   5.079   0.189   6.199
 4139SOL     OW13315   1.626   4.417   2.209
 4139SOL    HW113316   1.679   4.426   2.124
 4139SOL    HW213317   1.551   4.482   2.208
 4140SOL     OW13318   2.425   7.001   6.668
 4140SOL    HW113319   2.390   0.071   6.679
 4140SOL    HW213320   2.525   7.003   6.658
 4141SOL     OW13321   5.379   0.744   6.209
 4141SOL    HW113322   5.357   0.748   6.112
 4141SOL    HW213323   5.408   0.834   6.241
 4142SOL     OW13324   6.274   5.791   1.349
 4142SOL    HW113325   6.283   5.728   1.273
 4142SOL    HW213326   6.358   5.845   1.358
 4143SOL     OW13327   6.162   3.943   6.640
 4143SOL    HW113328   6.190   3.897   6.725
 4143SOL    HW213329   6.063   3.936   6.628
 4144SOL     OW13330   4.336   0.654   1.217
 4144SOL    HW113331   4.352   0.560   1.187
 4144SOL    HW213332   4.418   0.709   1.200
 4145SOL     OW13333   5.389   0.387   1.085
 4145SOL    HW113334   5.330   0.353   1.011
 4145SOL    HW213335   5.381   0.487   1.090
 4146SOL     OW13336   4.311   0.262   1.974
 4146SOL    HW113337   4.282   0.201   1.901
 4146SOL    HW213338   4.286   0.223   2.063
 4147SOL     OW13339   4.374   4.791   6.738
 4147SOL    HW113340   4.293   4.821   6.790
 4147SOL    HW213341   4.457   4.825   6.783
 4148SOL     OW13342   2.949   1.657   5.898
 4148SOL    HW113343   2.907   1.576   5.858
 4148SOL    HW213344   2.884   1.703   5.958
 4149SOL     OW13345   1.312   3.647   6.005
 4149SOL    HW113346   1.385   3.655   5.938
 4149SOL    HW213347   1.264   3.560   5.993
 4150SOL     OW13348   5.572   1.430   0.266
 4150SOL    HW113349   5.523   1.348   0.296
 4150SOL    HW213350   5.657   1.439   0.317
 4151SOL     OW13351   2.626   5.803   5.017
 4151SOL    HW113352   2.684   5.775   4.940
 4151SOL    HW213353   2.562   5.729   5.039
 4152SOL     OW13354   2.936   3.725   1.294
 4152SOL    HW113355   3.031   3.702   1.270
 4152SOL    HW213356   2.894   3.775   1.218
 4153SOL     OW13357   6.746   5.754   2.027
 4153SOL    HW113358   6.781   5.751   1.933
 4153SOL    HW213359   6.819   5.785   2.088
 4154SOL     OW13360   0.418   6.933   4.268
 4154SOL    HW113361   0.354   6.919   4.343
 4154SOL    HW213362   0.505   6.889   4.289
 4155SOL     OW13363   6.507   1.171   2.188
 4155SOL    HW113364   6.593   1.214   2.217
 4155SOL    HW213365   6.431   1.212   2.238
 4156SOL     OW13366   0.570   4.532   5.719
 4156SOL    HW113367   0.596   4.601   5.651
 4156SOL    HW213368   0.594   4.442   5.684
 4157SOL     OW13369   4.920   5.874   0.941
 4157SOL    HW113370   4.823   5.861   0.921
 4157SOL    HW213371   4.973   5.852   0.859
 4158SOL     OW13372   0.555   2.848   0.441
 4158SOL    HW113373   0.487   2.919   0.420
 4158SOL    HW213374   0.535   2.809   0.530
 4159SOL     OW13375   3.180   0.758   4.752
 4159SOL    HW113376   3.150   0.854   4.746
 4159SOL    HW213377   3.161   0.712   4.666
 4160SOL     OW13378   1.829   6.789   5.927
 4160SOL    HW113379   1.774   6.768   6.008
 4160SOL    HW213380   1.913   6.834   5.955
 4161SOL     OW13381   3.651   2.964   3.377
 4161SOL    HW113382   3.577   3.030   3.364
 4161SOL    HW213383   3.674   2.922   3.289
 4162SOL     OW13384   5.443   5.996   1.501
 4162SOL    HW113385   5.430   5.984   1.600
 4162SOL    HW213386   5.359   6.032   1.461
 4163SOL     OW13387   3.937   5.532   1.363
 4163SOL    HW113388   3.889   5.555   1.278
 4163SOL    HW213389   3.905   5.592   1.437
 4164SOL     OW13390   5.257   2.049   6.629
 4164SOL    HW113391   5.201   2.010   6.702
 4164SOL    HW213392   5.209   2.041   6.542
 4165SOL     OW13393   3.195   1.828   4.236
 4165SOL    HW113394   3.271   1.893   4.231
 4165SOL    HW213395   3.183   1.784   4.147
 4166SOL     OW13396   5.988   2.346   1.744
 4166SOL    HW113397   5.930   2.394   1.678
 4166SOL    HW213398   5.936   2.329   1.828
 4167SOL     OW13399   3.769   5.402   4.551
 4167SOL    HW113400   3.778   5.499   4.575
 4167SOL    HW213401   3.711   5.394   4.470
 4168SOL     OW13402   5.269   4.513   0.307
 4168SOL    HW113403   5.367   4.494   0.300
 4168SOL    HW213404   5.218   4.441   0.260
 4169SOL     OW13405   5.314   3.410   6.826
 4169SOL    HW113406   5.349   3.504   6.821
 4169SOL    HW213407   5.349   3.366   6.908
 4170SOL     OW13408   0.971   2.894   5.294
 4170SOL    HW113409   0.901   2.848   5.348
 4170SOL    HW213410   0.929   2.966   5.239
 4171SOL     OW13411   0.482   1.418   6.143
 4171SOL    HW113412   0.396   1.469   6.152
 4171SOL    HW213413   0.559   1.482   6.137
 4172SOL     OW13414   2.524   2.419   6.399
 4172SOL    HW113415   2.445   2.398   6.456
 4172SOL    HW213416   2.494   2.471   6.319
 4173SOL     OW13417   4.935   1.693   5.487
 4173SOL    HW113418   4.902   1.729   5.400
 4173SOL    HW213419   4.979   1.604   5.472
 4174SOL     OW13420   3.458   6.374   4.393
 4174SOL    HW113421   3.375   6.320   4.406
 4174SOL    HW213422   3.505   6.383   4.481
 4175SOL     OW13423   1.421   4.651   6.446
 4175SOL    HW113424   1.333   4.683   6.481
 4175SOL    HW213425   1.492   4.719   6.465
 4176SOL     OW13426   5.016   7.002   5.889
 4176SOL    HW113427   5.101   0.020   5.922
 4176SOL    HW213428   5.025   6.902   5.891
 4177SOL     OW13429   4.109   5.202   2.908
 4177SOL    HW113430   4.206   5.176   2.904
 4177SOL    HW213431   4.096   5.274   2.975
 4178SOL     OW13432   3.785   6.299   1.309
 4178SOL    HW113433   3.854   6.230   1.333
 4178SOL    HW213434   3.694   6.264   1.332
 4179SOL     OW13435   4.639   2.645   0.053
 4179SOL    HW113436   4.639   2.546   0.068
 4179SOL    HW213437   4.569   2.668   7.009
 4180SOL     OW13438   3.701   3.666   0.476
 4180SOL    HW113439   3.801   3.662   0.481
 4180SOL    HW213440   3.667   3.581   0.436
 4181SOL     OW13441   5.792   6.129   5.781
 4181SOL    HW113442   5.865   6.131   5.712
 4181SOL    HW213443   5.753   6.220   5.791
 4182SOL     OW13444   0.537   5.862   5.691
 4182SOL    HW113445   0.518   5.785   5.629
 4182SOL    HW213446   0.451   5.903   5.721
 4183SOL     OW13447   4.361   1.996   0.073
 4183SOL    HW113448   4.438   1.963   0.129
 4183SOL    HW213449   4.393   2.067   0.011
 4184SOL     OW13450   3.566   5.669   3.279
 4184SOL    HW113451   3.486   5.726   3.262
 4184SOL    HW213452   3.624   5.712   3.349
 4185SOL     OW13453   4.884   3.599   3.316
 4185SOL    HW113454   4.863   3.682   3.367
 4185SOL    HW213455   4.863   3.612   3.220
 4186SOL     OW13456   1.898   5.350   0.063
 4186SOL    HW113457   1.952   5.267   0.050
 4186SOL    HW213458   1.824   5.353   7.019
 4187SOL     OW13459   2.291   4.069   5.850
 4187SOL    HW113460   2.270   4.039   5.757
 4187SOL    HW213461   2.390   4.066   5.865
 4188SOL     OW13462   4.698   0.259   6.814
 4188SOL    HW113463   4.698   0.210   6.900
 4188SOL    HW213464   4.791   0.291   6.794
 4189SOL     OW13465   4.522   5.269   3.174
 4189SOL    HW113466   4.490   5.181   3.209
 4189SOL    HW213467   4.506   5.273   3.075
 4190SOL     OW13468   6.120   6.611   1.753
 4190SOL    HW113469   6.021   6.623   1.747
 4190SOL    HW213470   6.157   6.588   1.663
 4191SOL     OW13471   4.550   3.147   6.570
 4191SOL    HW113472   4.457   3.173   6.598
 4191SOL    HW213473   4.595   3.098   6.645
 4192SOL     OW13474   1.703   3.589   6.218
 4192SOL    HW113475   1.646   3.578   6.300
 4192SOL    HW213476   1.739   3.500   6.190
 4193SOL     OW13477   0.120   0.826   0.043
 4193SOL    HW113478   0.119   0.734   0.082
 4193SOL    HW213479   0.106   0.820   6.967
 4194SOL     OW13480   5.672   1.228   6.326
 4194SOL    HW113481   5.753   1.177   6.297
 4194SOL    HW213482   5.699   1.294   6.397
 4195SOL     OW13483   2.581   6.783   1.034
 4195SOL    HW113484   2.633   6.863   1.063
 4195SOL    HW213485   2.483   6.804   1.037
 4196SOL     OW13486   0.193   2.406   3.102
 4196SOL    HW113487   0.188   2.341   3.026
 4196SOL    HW213488   0.284   2.404   3.143
 4197SOL     OW13489   3.353   1.322   6.961
 4197SOL    HW113490   3.412   1.265   6.904
 4197SOL    HW213491   3.274   1.351   6.908
 4198SOL     OW13492   6.486   1.880   2.164
 4198SOL    HW113493   6.579   1.848   2.183
 4198SOL    HW213494   6.421   1.829   2.220
 4199SOL     OW13495   0.599   3.680   6.618
 4199SOL    HW113496   0.642   3.598   6.656
 4199SOL    HW213497   0.653   3.713   6.541
 4200SOL     OW13498   4.636   1.738   3.591
 4200SOL    HW113499   4.541   1.766   3.601
 4200SOL    HW213500   4.655   1.663   3.654
 4201SOL     OW13501   5.794   0.003   4.788
 4201SOL    HW113502   5.740   6.961   4.735
 4201SOL    HW213503   5.887   0.007   4.751
 4202SOL     OW13504   4.485   4.226   1.601
 4202SOL    HW113505   4.572   4.274   1.599
 4202SOL    HW213506   4.443   4.236   1.692
 4203SOL     OW13507   5.720   4.463   5.650
 4203SOL    HW113508   5.708   4.528   5.724
 4203SOL    HW213509   5.694   4.506   5.563
 4204SOL     OW13510   1.543   4.224   6.266
 4204SOL    HW113511   1.519   4.288   6.194
 4204SOL    HW213512   1.476   4.150   6.269
 4205SOL     OW13513   4.697   6.632   6.501
 4205SOL    HW113514   4.608   6.617   6.544
 4205SOL    HW213515   4.694   6.715   6.445
 4206SOL     OW13516   2.274   1.765   4.316
 4206SOL    HW113517   2.190   1.781   4.264
 4206SOL    HW213518   2.348   1.738   4.254
 4207SOL     OW13519   1.466   2.145   2.296
 4207SOL    HW113520   1.386   2.181   2.343
 4207SOL    HW213521   1.437   2.091   2.217
 4208SOL     OW13522   2.443   2.256   3.791
 4208SOL    HW113523   2.490   2.315   3.856
 4208SOL    HW213524   2.507   2.229   3.719
 4209SOL     OW13525   6.552   5.850   1.865
 4209SOL    HW113526   6.456   5.826   1.880
 4209SOL    HW213527   6.606   5.821   1.943
 4210SOL     OW13528   3.026   4.268   5.281
 4210SOL    HW113529   2.992   4.357   5.253
 4210SOL    HW213530   3.114   4.279   5.329
 4211SOL     OW13531   3.742   2.737   5.330
 4211SOL    HW113532   3.675   2.772   5.264
 4211SOL    HW213533   3.707   2.654   5.373
 4212SOL     OW13534   0.493   2.107   2.980
 4212SOL    HW113535   0.539   2.187   3.019
 4212SOL    HW213536   0.557   2.030   2.978
 4213SOL     OW13537   3.851   7.014   4.029
 4213SOL    HW113538   3.813   6.939   3.974
 4213SOL    HW213539   3.842   0.077   3.979
 4214SOL     OW13540   6.520   5.788   3.267
 4214SOL    HW113541   6.576   5.706   3.282
 4214SOL    HW213542   6.425   5.768   3.291
 4215SOL     OW13543   5.932   0.158   6.102
 4215SOL    HW113544   6.013   0.162   6.043
 4215SOL    HW213545   5.961   0.158   6.197
 4216SOL     OW13546   2.463   5.319   2.231
 4216SOL    HW113547   2.440   5.408   2.271
 4216SOL    HW213548   2.491   5.331   2.136
 4217SOL     OW13549   1.755   0.158   3.182
 4217SOL    HW113550   1.754   0.258   3.182
 4217SOL    HW213551   1.666   0.124   3.211
 4218SOL     OW13552   2.942   1.100   2.042
 4218SOL    HW113553   2.845   1.081   2.061
 4218SOL    HW213554   2.999   1.031   2.086
 4219SOL     OW13555   3.809   5.032   3.563
 4219SOL    HW113556   3.818   5.039   3.663
 4219SOL    HW213557   3.738   5.094   3.531
 4220SOL     OW13558   6.305   1.971   0.977
 4220SOL    HW113559   6.371   1.951   0.904
 4220SOL    HW213560   6.281   2.069   0.975
 4221SOL     OW13561   0.252   6.431   0.437
 4221SOL    HW113562   0.294   6.522   0.435
 4221SOL    HW213563   0.159   6.439   0.473
 4222SOL     OW13564   4.877   3.353   4.319
 4222SOL    HW113565   4.956   3.338   4.258
 4222SOL    HW213566   4.842   3.445   4.306
 4223SOL     OW13567   3.555   3.860   3.029
 4223SOL    HW113568   3.629   3.922   3.003
 4223SOL    HW213569   3.484   3.862   2.959
 4224SOL     OW13570   4.540   4.825   4.224
 4224SOL    HW113571   4.490   4.751   4.269
 4224SOL    HW213572   4.547   4.904   4.286
 4225SOL     OW13573   1.224   1.985   5.800
 4225SOL    HW113574   1.275   1.952   5.879
 4225SOL    HW213575   1.219   2.085   5.802
 4226SOL     OW13576   0.333   4.933   4.817
 4226SOL    HW113577   0.328   5.032   4.833
 4226SOL    HW213578   0.308   4.885   4.901
 4227SOL     OW13579   4.844   5.184   1.896
 4227SOL    HW113580   4.902   5.111   1.933
 4227SOL    HW213581   4.788   5.148   1.822
 4228SOL     OW13582   1.520   4.667   3.837
 4228SOL    HW113583   1.467   4.746   3.866
 4228SOL    HW213584   1.527   4.602   3.913
 4229SOL     OW13585   5.920   5.882   5.588
 4229SOL    HW113586   5.876   5.969   5.564
 4229SOL    HW213587   6.009   5.877   5.541
 4230SOL     OW13588   6.670   1.510   1.403
 4230SOL    HW113589   6.720   1.428   1.431
 4230SOL    HW213590   6.605   1.486   1.331
 4231SOL     OW13591   0.364   0.569   6.238
 4231SOL    HW113592   0.297   0.496   6.221
 4231SOL    HW213593   0.381   0.618   6.153
 4232SOL     OW13594   1.686   4.881   4.263
 4232SOL    HW113595   1.765   4.925   4.220
 4232SOL    HW213596   1.716   4.799   4.312
 4233SOL     OW13597   4.687   5.404   2.550
 4233SOL    HW113598   4.615   5.472   2.563
 4233SOL    HW213599   4.762   5.444   2.498
 4234SOL     OW13600   3.510   5.235   5.808
 4234SOL    HW113601   3.503   5.330   5.776
 4234SOL    HW213602   3.598   5.198   5.781
 4235SOL     OW13603   7.015   5.931   6.415
 4235SOL    HW113604   6.933   5.979   6.382
 4235SOL    HW213605   0.064   5.997   6.435
 4236SOL     OW13606   0.055   5.688   2.964
 4236SOL    HW113607   0.007   5.774   2.982
 4236SOL    HW213608   0.050   5.667   2.866
 4237SOL     OW13609   0.153   4.561   3.780
 4237SOL    HW113610   0.240   4.597   3.815
 4237SOL    HW213611   0.092   4.541   3.856
 4238SOL     OW13612   2.898   5.991   2.606
 4238SOL    HW113613   2.829   5.988   2.679
 4238SOL    HW213614   2.912   6.086   2.578
 4239SOL     OW13615   4.342   1.141   3.758
 4239SOL    HW113616   4.398   1.177   3.833
 4239SOL    HW213617   4.365   1.045   3.742
 4240SOL     OW13618   5.725   6.992   1.436
 4240SOL    HW113619   5.696   6.940   1.356
 4240SOL    HW213620   5.749   0.062   1.408
 4241SOL     OW13621   6.325   4.469   0.285
 4241SOL    HW113622   6.307   4.566   0.298
 4241SOL    HW213623   6.405   4.442   0.337
 4242SOL     OW13624   3.139   2.152   3.470
 4242SOL    HW113625   3.211   2.083   3.482
 4242SOL    HW213626   3.087   2.162   3.555
 4243SOL     OW13627   4.313   1.544   2.824
 4243SOL    HW113628   4.385   1.490   2.868
 4243SOL    HW213629   4.338   1.641   2.827
 4244SOL     OW13630   3.164   3.098   4.892
 4244SOL    HW113631   3.129   3.175   4.946
 4244SOL    HW213632   3.186   3.022   4.954
 4245SOL     OW13633   6.036   0.327   0.045
 4245SOL    HW113634   5.981   0.247   0.069
 4245SOL    HW213635   6.120   0.328   0.098
 4246SOL     OW13636   6.769   4.085   6.491
 4246SOL    HW113637   6.746   4.148   6.417
 4246SOL    HW213638   6.687   4.034   6.519
 4247SOL     OW13639   0.620   5.869   5.120
 4247SOL    HW113640   0.586   5.922   5.197
 4247SOL    HW213641   0.717   5.847   5.134
 4248SOL     OW13642   2.286   3.883   6.205
 4248SOL    HW113643   2.254   3.864   6.298
 4248SOL    HW213644   2.208   3.905   6.147
 4249SOL     OW13645   5.247   3.824   5.486
 4249SOL    HW113646   5.162   3.835   5.434
 4249SOL    HW213647   5.270   3.727   5.491
 4250SOL     OW13648   1.267   4.237   3.140
 4250SOL    HW113649   1.244   4.210   3.234
 4250SOL    HW213650   1.363   4.264   3.135
 4251SOL     OW13651   5.274   4.998   0.129
 4251SOL    HW113652   5.248   5.094   0.115
 4251SOL    HW213653   5.345   4.973   0.063
 4252SOL     OW13654   0.006   5.578   5.118
 4252SOL    HW113655   6.943   5.526   5.118
 4252SOL    HW213656   7.012   5.670   5.082
 4253SOL     OW13657   3.710   5.984   2.698
 4253SOL    HW113658   3.617   6.004   2.729
 4253SOL    HW213659   3.712   5.896   2.651
 4254SOL     OW13660   2.984   3.967   1.789
 4254SOL    HW113661   2.887   3.948   1.774
 4254SOL    HW213662   3.017   3.915   1.868
 4255SOL     OW13663   0.328   1.794   4.317
 4255SOL    HW113664   0.326   1.894   4.325
 4255SOL    HW213665   0.293   1.767   4.227
 4256SOL     OW13666   2.061   1.083   1.933
 4256SOL    HW113667   2.156   1.113   1.923
 4256SOL    HW213668   2.022   1.122   2.016
 4257SOL     OW13669   4.365   2.321   4.858
 4257SOL    HW113670   4.346   2.395   4.923
 4257SOL    HW213671   4.293   2.252   4.863
 4258SOL     OW13672   5.139   6.423   3.068
 4258SOL    HW113673   5.064   6.437   3.132
 4258SOL    HW213674   5.152   6.325   3.054
 4259SOL     OW13675   1.770   3.368   1.094
 4259SOL    HW113676   1.731   3.277   1.110
 4259SOL    HW213677   1.832   3.364   1.016
 4260SOL     OW13678   3.923   5.696   4.039
 4260SOL    HW113679   3.898   5.677   3.944
 4260SOL    HW213680   4.022   5.694   4.049
 4261SOL     OW13681   1.255   1.363   2.869
 4261SOL    HW113682   1.171   1.376   2.921
 4261SOL    HW213683   1.317   1.303   2.919
 4262SOL     OW13684   6.961   6.711   6.246
 4262SOL    HW113685   6.890   6.771   6.212
 4262SOL    HW213686   0.027   6.754   6.233
 4263SOL     OW13687   4.216   5.103   6.220
 4263SOL    HW113688   4.179   5.135   6.307
 4263SOL    HW213689   4.290   5.164   6.192
 4264SOL     OW13690   0.073   0.495   1.437
 4264SOL    HW113691   0.095   0.454   1.525
 4264SOL    HW213692   0.036   0.587   1.451
 4265SOL     OW13693   1.321   2.139   0.036
 4265SOL    HW113694   1.225   2.144   0.063
 4265SOL    HW213695   1.327   2.135   6.960
 4266SOL     OW13696   3.060   4.681   1.317
 4266SOL    HW113697   2.994   4.709   1.387
 4266SOL    HW213698   3.139   4.638   1.361
 4267SOL     OW13699   1.804   4.534   6.025
 4267SOL    HW113700   1.793   4.633   6.018
 4267SOL    HW213701   1.801   4.493   5.934
 4268SOL     OW13702   1.967   0.672   0.810
 4268SOL    HW113703   1.984   0.709   0.902
 4268SOL    HW213704   1.913   0.589   0.817
 4269SOL     OW13705   2.826   4.191   0.731
 4269SOL    HW113706   2.921   4.178   0.757
 4269SOL    HW213707   2.776   4.236   0.805
 4270SOL     OW13708   3.694   2.718   6.205
 4270SOL    HW113709   3.660   2.624   6.208
 4270SOL    HW213710   3.659   2.769   6.283
 4271SOL     OW13711   1.263   0.275   0.532
 4271SOL    HW113712   1.176   0.245   0.493
 4271SOL    HW213713   1.266   0.252   0.629
 4272SOL     OW13714   6.902   4.171   3.795
 4272SOL    HW113715   6.863   4.261   3.817
 4272SOL    HW213716   6.844   4.124   3.729
 4273SOL     OW13717   5.558   6.667   4.285
 4273SOL    HW113718   5.534   6.600   4.355
 4273SOL    HW213719   5.601   6.621   4.208
 4274SOL     OW13720   1.994   0.562   3.899
 4274SOL    HW113721   1.929   0.612   3.841
 4274SOL    HW213722   2.033   0.625   3.966
 4275SOL     OW13723   1.059   0.248   6.266
 4275SOL    HW113724   1.118   0.311   6.317
 4275SOL    HW213725   1.021   0.180   6.328
 4276SOL     OW13726   1.856   4.718   2.371
 4276SOL    HW113727   1.935   4.754   2.321
 4276SOL    HW213728   1.772   4.756   2.332
 4277SOL     OW13729   0.951   5.327   4.783
 4277SOL    HW113730   0.949   5.399   4.714
 4277SOL    HW213731   1.018   5.257   4.757
 4278SOL     OW13732   1.439   6.745   6.058
 4278SOL    HW113733   1.511   6.814   6.049
 4278SOL    HW213734   1.438   6.710   6.152
 4279SOL     OW13735   3.122   5.805   4.432
 4279SOL    HW113736   3.208   5.809   4.382
 4279SOL    HW213737   3.065   5.883   4.408
 4280SOL     OW13738   4.786   2.850   3.608
 4280SOL    HW113739   4.825   2.934   3.646
 4280SOL    HW213740   4.708   2.821   3.664
 4281SOL     OW13741   2.483   4.165   5.361
 4281SOL    HW113742   2.478   4.252   5.311
 4281SOL    HW213743   2.481   4.089   5.297
 4282SOL     OW13744   0.760   2.975   0.576
 4282SOL    HW113745   0.848   2.930   0.559
 4282SOL    HW213746   0.692   2.942   0.511
 4283SOL     OW13747   2.464   0.561   4.892
 4283SOL    HW113748   2.549   0.607   4.918
 4283SOL    HW213749   2.450   0.571   4.793
 4284SOL     OW13750   6.970   1.739   2.851
 4284SOL    HW113751   6.916   1.723   2.768
 4284SOL    HW213752   6.932   1.685   2.926
 4285SOL     OW13753   0.940   6.170   4.748
 4285SOL    HW113754   0.929   6.090   4.689
 4285SOL    HW213755   0.912   6.147   4.841
 4286SOL     OW13756   5.227   5.863   6.787
 4286SOL    HW113757   5.303   5.925   6.803
 4286SOL    HW213758   5.236   5.783   6.846
 4287SOL     OW13759   4.009   6.683   5.488
 4287SOL    HW113760   4.074   6.759   5.490
 4287SOL    HW213761   4.049   6.603   5.534
 4288SOL     OW13762   1.320   6.160   3.386
 4288SOL    HW113763   1.227   6.192   3.368
 4288SOL    HW213764   1.347   6.094   3.316
 4289SOL     OW13765   6.709   3.668   0.094
 4289SOL    HW113766   6.712   3.748   0.153
 4289SOL    HW213767   6.704   3.697   7.021
 4290SOL     OW13768   2.280   1.692   3.261
 4290SOL    HW113769   2.304   1.761   3.330
 4290SOL    HW213770   2.187   1.660   3.277
 4291SOL     OW13771   6.550   4.494   1.160
 4291SOL    HW113772   6.591   4.484   1.069
 4291SOL    HW213773   6.618   4.475   1.230
 4292SOL     OW13774   5.403   5.626   5.986
 4292SOL    HW113775   5.405   5.649   5.888
 4292SOL    HW213776   5.413   5.710   6.039
 4293SOL     OW13777   0.098   2.368   6.339
 4293SOL    HW113778   0.171   2.361   6.407
 4293SOL    HW213779   0.131   2.419   6.259
 4294SOL     OW13780   5.084   2.291   5.728
 4294SOL    HW113781   5.116   2.227   5.658
 4294SOL    HW213782   4.991   2.267   5.755
 4295SOL     OW13783   3.725   6.365   5.700
 4295SOL    HW113784   3.715   6.283   5.756
 4295SOL    HW213785   3.659   6.363   5.625
 4296SOL     OW13786   2.509   1.204   2.419
 4296SOL    HW113787   2.423   1.166   2.455
 4296SOL    HW213788   2.534   1.286   2.470
 4297SOL     OW13789   5.818   0.917   6.988
 4297SOL    HW113790   5.908   0.876   6.972
 4297SOL    HW213791   5.807   0.937   0.063
 4298SOL     OW13792   2.451   5.370   1.329
 4298SOL    HW113793   2.438   5.323   1.242
 4298SOL    HW213794   2.472   5.467   1.312
 4299SOL     OW13795   0.963   4.429   5.791
 4299SOL    HW113796   0.900   4.359   5.826
 4299SOL    HW213797   1.026   4.455   5.864
 4300SOL     OW13798   5.626   6.729   5.799
 4300SOL    HW113799   5.715   6.687   5.813
 4300SOL    HW213800   5.637   6.827   5.783
 4301SOL     OW13801   2.628   1.138   0.145
 4301SOL    HW113802   2.544   1.181   0.177
 4301SOL    HW213803   2.609   1.084   0.063
 4302SOL     OW13804   0.895   6.819   6.627
 4302SOL    HW113805   0.918   6.752   6.557
 4302SOL    HW213806   0.850   6.773   6.704
 4303SOL     OW13807   0.121   3.863   1.443
 4303SOL    HW113808   0.041   3.851   1.384
 4303SOL    HW213809   0.163   3.951   1.423
 4304SOL     OW13810   3.223   2.879   5.094
 4304SOL    HW113811   3.320   2.863   5.110
 4304SOL    HW213812   3.171   2.800   5.128
 4305SOL     OW13813   5.993   0.993   4.905
 4305SOL    HW113814   6.004   0.894   4.902
 4305SOL    HW213815   6.081   1.038   4.893
 4306SOL     OW13816   5.780   5.913   6.493
 4306SOL    HW113817   5.784   5.814   6.507
 4306SOL    HW213818   5.811   5.935   6.401
 4307SOL     OW13819   5.130   3.439   0.362
 4307SOL    HW113820   5.129   3.341   0.345
 4307SOL    HW213821   5.051   3.464   0.419
 4308SOL     OW13822   4.154   6.914   5.487
 4308SOL    HW113823   4.210   6.937   5.407
 4308SOL    HW213824   4.163   6.986   5.556
 4309SOL     OW13825   1.638   0.942   1.422
 4309SOL    HW113826   1.645   0.967   1.326
 4309SOL    HW213827   1.675   1.016   1.479
 4310SOL     OW13828   1.393   0.677   2.597
 4310SOL    HW113829   1.460   0.719   2.537
 4310SOL    HW213830   1.349   0.601   2.550
 4311SOL     OW13831   1.599   5.662   4.354
 4311SOL    HW113832   1.580   5.735   4.419
 4311SOL    HW213833   1.666   5.598   4.393
 4312SOL     OW13834   1.565   5.728   1.542
 4312SOL    HW113835   1.625   5.648   1.542
 4312SOL    HW213836   1.586   5.784   1.462
 4313SOL     OW13837   5.058   0.550   1.988
 4313SOL    HW113838   5.074   0.456   2.018
 4313SOL    HW213839   4.983   0.589   2.041
 4314SOL     OW13840   5.408   3.677   2.564
 4314SOL    HW113841   5.433   3.637   2.475
 4314SOL    HW213842   5.384   3.773   2.552
 4315SOL     OW13843   2.475   1.512   2.230
 4315SOL    HW113844   2.557   1.489   2.284
 4315SOL    HW213845   2.400   1.534   2.291
 4316SOL     OW13846   0.456   0.794   2.120
 4316SOL    HW113847   0.490   0.791   2.214
 4316SOL    HW213848   0.478   0.883   2.080
 4317SOL     OW13849   3.914   0.395   4.055
 4317SOL    HW113850   3.964   0.477   4.083
 4317SOL    HW213851   3.926   0.323   4.124
 4318SOL     OW13852   6.531   2.536   3.959
 4318SOL    HW113853   6.531   2.629   3.996
 4318SOL    HW213854   6.465   2.481   4.011
 4319SOL     OW13855   2.980   3.167   5.896
 4319SOL    HW113856   2.997   3.096   5.964
 4319SOL    HW213857   2.882   3.170   5.875
 4320SOL     OW13858   0.441   5.589   3.336
 4320SOL    HW113859   0.447   5.670   3.277
 4320SOL    HW213860   0.403   5.513   3.283
 4321SOL     OW13861   0.444   0.584   4.875
 4321SOL    HW113862   0.418   0.490   4.856
 4321SOL    HW213863   0.456   0.597   4.973
 4322SOL     OW13864   5.742   1.453   0.800
 4322SOL    HW113865   5.653   1.480   0.763
 4322SOL    HW213866   5.730   1.382   0.869
 4323SOL     OW13867   0.046   2.092   3.829
 4323SOL    HW113868   6.971   2.095   3.810
 4323SOL    HW213869   0.061   2.106   3.927
 4324SOL     OW13870   5.802   2.623   6.254
 4324SOL    HW113871   5.805   2.702   6.315
 4324SOL    HW213872   5.709   2.586   6.252
 4325SOL     OW13873   2.085   1.865   5.672
 4325SOL    HW113874   1.999   1.904   5.640
 4325SOL    HW213875   2.160   1.894   5.612
 4326SOL     OW13876   6.533   2.470   5.129
 4326SOL    HW113877   6.567   2.468   5.035
 4326SOL    HW213878   6.554   2.383   5.174
 4327SOL     OW13879   5.318   0.398   3.351
 4327SOL    HW113880   5.404   0.367   3.312
 4327SOL    HW213881   5.328   0.491   3.385
 4328SOL     OW13882   5.486   5.088   0.352
 4328SOL    HW113883   5.452   5.067   0.261
 4328SOL    HW213884   5.410   5.109   0.413
 4329SOL     OW13885   4.971   1.793   6.325
 4329SOL    HW113886   4.881   1.754   6.343
 4329SOL    HW213887   5.028   1.786   6.407
 4330SOL     OW13888   0.803   0.713   6.436
 4330SOL    HW113889   0.805   0.761   6.524
 4330SOL    HW213890   0.738   0.638   6.440
 4331SOL     OW13891   4.992   2.426   6.883
 4331SOL    HW113892   5.066   2.370   6.844
 4331SOL    HW213893   4.941   2.470   6.808
 4332SOL     OW13894   5.287   3.599   1.938
 4332SOL    HW113895   5.279   3.646   1.850
 4332SOL    HW213896   5.380   3.565   1.949
 4333SOL     OW13897   6.048   1.778   5.358
 4333SOL    HW113898   6.063   1.847   5.428
 4333SOL    HW213899   6.124   1.779   5.293
 4334SOL     OW13900   4.621   0.238   1.401
 4334SOL    HW113901   4.573   0.221   1.487
 4334SOL    HW213902   4.662   0.329   1.403
 4335SOL     OW13903   3.856   4.462   5.653
 4335SOL    HW113904   3.905   4.455   5.740
 4335SOL    HW213905   3.888   4.543   5.603
 4336SOL     OW13906   1.411   5.981   5.053
 4336SOL    HW113907   1.410   6.080   5.064
 4336SOL    HW213908   1.432   5.938   5.141
 4337SOL     OW13909   0.393   5.146   0.197
 4337SOL    HW113910   0.468   5.089   0.165
 4337SOL    HW213911   0.430   5.220   0.253
 4338SOL     OW13912   5.859   6.081   3.702
 4338SOL    HW113913   5.846   6.178   3.724
 4338SOL    HW213914   5.845   6.026   3.784
 4339SOL     OW13915   6.667   1.111   6.498
 4339SOL    HW113916   6.661   1.078   6.593
 4339SOL    HW213917   6.615   1.196   6.489
 4340SOL     OW13918   4.833   3.507   1.742
 4340SOL    HW113919   4.917   3.465   1.775
 4340SOL    HW213920   4.801   3.574   1.809
 4341SOL     OW13921   0.663   3.957   6.754
 4341SOL    HW113922   0.651   3.951   6.655
 4341SOL    HW213923   0.755   3.927   6.778
 4342SOL     OW13924   0.013   1.999   2.885
 4342SOL    HW113925   6.991   2.041   2.807
 4342SOL    HW213926   0.028   1.901   2.867
 4343SOL     OW13927   2.124   1.569   1.639
 4343SOL    HW113928   2.217   1.539   1.662
 4343SOL    HW213929   2.085   1.618   1.717
 4344SOL     OW13930   2.217   4.061   2.556
 4344SOL    HW113931   2.121   4.070   2.529
 4344SOL    HW213932   2.260   4.151   2.558
 4345SOL     OW13933   2.589   1.619   6.022
 4345SOL    HW113934   2.607   1.528   6.058
 4345SOL    HW213935   2.661   1.682   6.052
 4346SOL     OW13936   0.119   3.023   0.768
 4346SOL    HW113937   0.108   2.974   0.855
 4346SOL    HW213938   0.084   2.966   0.693
 4347SOL     OW13939   5.582   5.818   2.834
 4347SOL    HW113940   5.522   5.786   2.760
 4347SOL    HW213941   5.604   5.742   2.894
 4348SOL     OW13942   1.136   4.034   6.947
 4348SOL    HW113943   1.160   4.055   0.019
 4348SOL    HW213944   1.138   4.118   6.893
 4349SOL     OW13945   0.066   0.598   2.026
 4349SOL    HW113946   0.078   0.676   2.087
 4349SOL    HW213947   0.023   0.523   2.076
 4350SOL     OW13948   4.686   0.652   3.444
 4350SOL    HW113949   4.659   0.656   3.540
 4350SOL    HW213950   4.786   0.643   3.438
 4351SOL     OW13951   2.531   6.554   0.688
 4351SOL    HW113952   2.586   6.531   0.768
 4351SOL    HW213953   2.571   6.634   0.642
 4352SOL     OW13954   6.147   1.246   2.720
 4352SOL    HW113955   6.205   1.177   2.677
 4352SOL    HW213956   6.151   1.331   2.666
 4353SOL     OW13957   2.937   5.481   1.870
 4353SOL    HW113958   3.024   5.433   1.882
 4353SOL    HW213959   2.877   5.427   1.812
 4354SOL     OW13960   2.372   0.956   1.214
 4354SOL    HW113961   2.318   1.033   1.179
 4354SOL    HW213962   2.311   0.878   1.232
 4355SOL     OW13963   4.687   0.852   0.711
 4355SOL    HW113964   4.775   0.900   0.714
 4355SOL    HW213965   4.665   0.817   0.802
 4356SOL     OW13966   3.459   4.194   0.391
 4356SOL    HW113967   3.370   4.238   0.382
 4356SOL    HW213968   3.518   4.221   0.316
 4357SOL     OW13969   6.509   0.806   6.890
 4357SOL    HW113970   6.559   0.746   6.952
 4357SOL    HW213971   6.460   0.875   6.943
 4358SOL     OW13972   6.192   0.985   0.974
 4358SOL    HW113973   6.247   0.902   0.957
 4358SOL    HW213974   6.118   0.963   1.038
 4359SOL     OW13975   6.096   2.808   4.050
 4359SOL    HW113976   6.026   2.747   4.012
 4359SOL    HW213977   6.161   2.755   4.104
 4360SOL     OW13978   2.294   3.345   1.175
 4360SOL    HW113979   2.388   3.338   1.209
 4360SOL    HW213980   2.294   3.391   1.087
 4361SOL     OW13981   5.579   1.668   2.206
 4361SOL    HW113982   5.530   1.619   2.278
 4361SOL    HW213983   5.516   1.727   2.157
 4362SOL     OW13984   5.178   4.075   3.026
 4362SOL    HW113985   5.108   4.016   2.987
 4362SOL    HW213986   5.141   4.167   3.039
 4363SOL     OW13987   5.509   0.963   6.271
 4363SOL    HW113988   5.579   1.023   6.310
 4363SOL    HW213989   5.453   1.016   6.208
 4364SOL     OW13990   3.586   3.955   4.966
 4364SOL    HW113991   3.498   4.002   4.957
 4364SOL    HW213992   3.589   3.907   5.054
 4365SOL     OW13993   3.663   1.604   0.464
 4365SOL    HW113994   3.687   1.612   0.367
 4365SOL    HW213995   3.648   1.507   0.487
 4366SOL     OW13996   5.254   5.072   1.284
 4366SOL    HW113997   5.228   5.045   1.376
 4366SOL    HW213998   5.280   5.168   1.282
 4367SOL     OW13999   0.201   6.872   0.526
 4367SOL    HW114000   0.224   6.914   0.613
 4367SOL    HW214001   0.148   6.936   0.470
 4368SOL     OW14002   4.749   4.395   1.992
 4368SOL    HW114003   4.771   4.440   1.905
 4368SOL    HW214004   4.660   4.351   1.984
 4369SOL     OW14005   3.101   5.769   1.560
 4369SOL    HW114006   3.030   5.815   1.613
 4369SOL    HW214007   3.132   5.829   1.487
 4370SOL     OW14008   5.819   4.317   2.426
 4370SOL    HW114009   5.838   4.225   2.459
 4370SOL    HW214010   5.874   4.335   2.344
 4371SOL     OW14011   0.546   2.253   2.130
 4371SOL    HW114012   0.554   2.350   2.152
 4371SOL    HW214013   0.620   2.203   2.174
 4372SOL     OW14014   4.787   0.214   3.513
 4372SOL    HW114015   4.688   0.223   3.522
 4372SOL    HW214016   4.832   0.293   3.555
 4373SOL     OW14017   6.553   1.849   6.089
 4373SOL    HW114018   6.523   1.936   6.128
 4373SOL    HW214019   6.477   1.809   6.037
 4374SOL     OW14020   3.303   1.537   1.132
 4374SOL    HW114021   3.318   1.529   1.033
 4374SOL    HW214022   3.391   1.546   1.178
 4375SOL     OW14023   3.609   5.967   4.221
 4375SOL    HW114024   3.689   5.935   4.272
 4375SOL    HW214025   3.622   5.947   4.124
 4376SOL     OW14026   6.541   2.100   4.153
 4376SOL    HW114027   6.530   2.163   4.076
 4376SOL    HW214028   6.493   2.137   4.232
 4377SOL     OW14029   6.851   5.069   6.353
 4377SOL    HW114030   6.928   5.033   6.405
 4377SOL    HW214031   6.794   4.993   6.321
 4378SOL     OW14032   2.830   1.459   3.853
 4378SOL    HW114033   2.908   1.471   3.791
 4378SOL    HW214034   2.848   1.384   3.915
 4379SOL     OW14035   3.384   1.899   5.737
 4379SOL    HW114036   3.317   1.957   5.691
 4379SOL    HW214037   3.343   1.862   5.821
 4380SOL     OW14038   0.267   2.056   2.493
 4380SOL    HW114039   0.244   2.128   2.558
 4380SOL    HW214040   0.241   2.084   2.400
 4381SOL     OW14041   1.477   6.314   6.649
 4381SOL    HW114042   1.392   6.341   6.602
 4381SOL    HW214043   1.532   6.395   6.668
 4382SOL     OW14044   0.617   5.013   4.394
 4382SOL    HW114045   0.605   4.934   4.335
 4382SOL    HW214046   0.671   4.988   4.474
 4383SOL     OW14047   6.289   3.615   0.267
 4383SOL    HW114048   6.270   3.573   0.179
 4383SOL    HW214049   6.344   3.697   0.254
 4384SOL     OW14050   5.605   0.255   4.164
 4384SOL    HW114051   5.695   0.294   4.186
 4384SOL    HW214052   5.599   0.241   4.065
 4385SOL     OW14053   4.713   1.575   5.931
 4385SOL    HW114054   4.811   1.564   5.945
 4385SOL    HW214055   4.696   1.634   5.853
 4386SOL     OW14056   1.981   3.611   5.225
 4386SOL    HW114057   2.057   3.633   5.163
 4386SOL    HW214058   1.894   3.636   5.182
 4387SOL     OW14059   5.584   1.874   0.580
 4387SOL    HW114060   5.605   1.970   0.598
 4387SOL    HW214061   5.510   1.844   0.641
 4388SOL     OW14062   5.009   3.970   0.119
 4388SOL    HW114063   5.002   3.870   0.127
 4388SOL    HW214064   5.060   3.992   0.035
 4389SOL     OW14065   1.225   2.393   0.400
 4389SOL    HW114066   1.209   2.422   0.495
 4389SOL    HW214067   1.249   2.474   0.345
 4390SOL     OW14068   0.520   1.553   0.654
 4390SOL    HW114069   0.446   1.619   0.673
 4390SOL    HW214070   0.574   1.586   0.577
 4391SOL     OW14071   0.925   5.790   1.082
 4391SOL    HW114072   0.998   5.856   1.100
 4391SOL    HW214073   0.888   5.805   0.990
 4392SOL     OW14074   0.832   3.255   5.930
 4392SOL    HW114075   0.906   3.188   5.935
 4392SOL    HW214076   0.816   3.281   5.835
 4393SOL     OW14077   5.142   0.780   1.859
 4393SOL    HW114078   5.082   0.848   1.901
 4393SOL    HW214079   5.122   0.690   1.897
 4394SOL     OW14080   1.148   6.940   2.835
 4394SOL    HW114081   1.087   7.004   2.881
 4394SOL    HW214082   1.169   6.973   2.743
 4395SOL     OW14083   1.877   4.809   2.012
 4395SOL    HW114084   1.953   4.767   2.061
 4395SOL    HW214085   1.840   4.743   1.947
 4396SOL     OW14086   2.967   0.958   2.768
 4396SOL    HW114087   2.998   0.868   2.801
 4396SOL    HW214088   2.903   0.997   2.834
 4397SOL     OW14089   3.076   1.581   4.843
 4397SOL    HW114090   3.047   1.677   4.842
 4397SOL    HW214091   3.165   1.573   4.800
 4398SOL     OW14092   1.584   3.040   5.439
 4398SOL    HW114093   1.526   3.121   5.431
 4398SOL    HW214094   1.678   3.064   5.414
 4399SOL     OW14095   2.480   6.381   2.009
 4399SOL    HW114096   2.488   6.429   1.922
 4399SOL    HW214097   2.405   6.316   2.005
 4400SOL     OW14098   1.961   5.754   4.567
 4400SOL    HW114099   1.900   5.676   4.580
 4400SOL    HW214100   1.934   5.804   4.485
 4401SOL     OW14101   3.162   6.825   6.551
 4401SOL    HW114102   3.084   6.770   6.524
 4401SOL    HW214103   3.214   6.778   6.622
 4402SOL     OW14104   2.409   0.547   2.855
 4402SOL    HW114105   2.338   0.618   2.848
 4402SOL    HW214106   2.479   0.575   2.921
 4403SOL     OW14107   0.520   5.081   1.772
 4403SOL    HW114108   0.508   5.168   1.819
 4403SOL    HW214109   0.440   5.062   1.714
 4404SOL     OW14110   0.231   6.685   6.194
 4404SOL    HW114111   0.304   6.665   6.259
 4404SOL    HW214112   0.183   6.600   6.171
 4405SOL     OW14113   1.821   5.274   2.519
 4405SOL    HW114114   1.769   5.266   2.434
 4405SOL    HW214115   1.759   5.295   2.595
 4406SOL     OW14116   6.298   3.946   1.918
 4406SOL    HW114117   6.365   3.872   1.914
 4406SOL    HW214118   6.213   3.911   1.958
 4407SOL     OW14119   6.251   6.448   1.127
 4407SOL    HW114120   6.318   6.437   1.053
 4407SOL    HW214121   6.172   6.389   1.109
 4408SOL     OW14122   4.095   0.715   0.064
 4408SOL    HW114123   4.039   0.649   0.114
 4408SOL    HW214124   4.175   0.740   0.118
 4409SOL     OW14125   3.078   0.805   3.521
 4409SOL    HW114126   3.088   0.709   3.548
 4409SOL    HW214127   3.088   0.813   3.422
 4410SOL     OW14128   0.389   0.558   1.037
 4410SOL    HW114129   0.453   0.481   1.040
 4410SOL    HW214130   0.372   0.590   1.130
 4411SOL     OW14131   4.531   4.676   5.363
 4411SOL    HW114132   4.529   4.764   5.409
 4411SOL    HW214133   4.549   4.604   5.430
 4412SOL     OW14134   4.340   6.310   1.812
 4412SOL    HW114135   4.302   6.389   1.860
 4412SOL    HW214136   4.309   6.310   1.717
 4413SOL     OW14137   4.602   5.179   3.991
 4413SOL    HW114138   4.538   5.104   4.010
 4413SOL    HW214139   4.554   5.266   4.000
 4414SOL     OW14140   5.647   3.892   1.674
 4414SOL    HW114141   5.646   3.947   1.757
 4414SOL    HW214142   5.739   3.894   1.633
 4415SOL     OW14143   1.584   3.518   1.242
 4415SOL    HW114144   1.638   3.449   1.193
 4415SOL    HW214145   1.639   3.556   1.317
 4416SOL     OW14146   4.899   2.591   3.943
 4416SOL    HW114147   4.833   2.573   3.869
 4416SOL    HW214148   4.924   2.687   3.943
 4417SOL     OW14149   0.315   3.847   1.692
 4417SOL    HW114150   0.271   3.867   1.604
 4417SOL    HW214151   0.390   3.784   1.678
 4418SOL     OW14152   6.705   0.563   5.724
 4418SOL    HW114153   6.786   0.544   5.780
 4418SOL    HW214154   6.706   0.504   5.644
 4419SOL     OW14155   6.398   5.667   6.555
 4419SOL    HW114156   6.347   5.724   6.619
 4419SOL    HW214157   6.364   5.682   6.462
 4420SOL     OW14158   3.607   1.469   0.988
 4420SOL    HW114159   3.704   1.493   0.980
 4420SOL    HW214160   3.561   1.539   1.043
 4421SOL     OW14161   2.156   3.098   0.480
 4421SOL    HW114162   2.072   3.124   0.432
 4421SOL    HW214163   2.235   3.129   0.429
 4422SOL     OW14164   6.747   3.066   6.094
 4422SOL    HW114165   6.723   3.024   6.182
 4422SOL    HW214166   6.676   3.131   6.068
 4423SOL     OW14167   6.410   4.308   4.564
 4423SOL    HW114168   6.408   4.339   4.660
 4423SOL    HW214169   6.475   4.233   4.555
 4424SOL     OW14170   5.059   6.074   2.618
 4424SOL    HW114171   5.126   6.042   2.551
 4424SOL    HW214172   5.027   5.997   2.673
 4425SOL     OW14173   0.684   5.658   1.369
 4425SOL    HW114174   0.675   5.749   1.410
 4425SOL    HW214175   0.777   5.646   1.335
 4426SOL     OW14176   0.749   0.842   4.601
 4426SOL    HW114177   0.727   0.787   4.520
 4426SOL    HW214178   0.775   0.934   4.572
 4427SOL     OW14179   2.408   5.566   2.302
 4427SOL    HW114180   2.451   5.642   2.254
 4427SOL    HW214181   2.336   5.601   2.362
 4428SOL     OW14182   6.482   5.390   3.167
 4428SOL    HW114183   6.558   5.448   3.135
 4428SOL    HW214184   6.516   5.299   3.188
 4429SOL     OW14185   3.075   6.561   3.585
 4429SOL    HW114186   3.169   6.560   3.620
 4429SOL    HW214187   3.037   6.653   3.593
 4430SOL     OW14188   5.837   3.775   5.382
 4430SOL    HW114189   5.743   3.794   5.412
 4430SOL    HW214190   5.877   3.859   5.344
 4431SOL     OW14191   3.906   6.566   4.707
 4431SOL    HW114192   3.882   6.609   4.620
 4431SOL    HW214193   4.002   6.585   4.728
 4432SOL     OW14194   0.701   3.612   6.040
 4432SOL    HW114195   0.685   3.532   6.098
 4432SOL    HW214196   0.687   3.588   5.944
 4433SOL     OW14197   0.792   1.186   4.266
 4433SOL    HW114198   0.768   1.138   4.182
 4433SOL    HW214199   0.849   1.265   4.244
 4434SOL     OW14200   6.622   1.101   1.848
 4434SOL    HW114201   6.666   1.189   1.863
 4434SOL    HW214202   6.682   1.042   1.793
 4435SOL     OW14203   2.468   4.269   0.868
 4435SOL    HW114204   2.551   4.277   0.924
 4435SOL    HW214205   2.480   4.198   0.800
 4436SOL     OW14206   4.476   2.428   2.264
 4436SOL    HW114207   4.499   2.345   2.316
 4436SOL    HW214208   4.531   2.504   2.298
 4437SOL     OW14209   6.485   4.416   6.936
 4437SOL    HW114210   6.549   4.341   6.923
 4437SOL    HW214211   6.526   4.484   6.997
 4438SOL     OW14212   4.340   1.136   4.879
 4438SOL    HW114213   4.368   1.041   4.892
 4438SOL    HW214214   4.273   1.161   4.949
 4439SOL     OW14215   2.464   6.009   3.206
 4439SOL    HW114216   2.400   5.967   3.142
 4439SOL    HW214217   2.442   5.979   3.299
 4440SOL     OW14218   1.293   4.444   5.760
 4440SOL    HW114219   1.320   4.349   5.746
 4440SOL    HW214220   1.323   4.475   5.850
 4441SOL     OW14221   7.011   2.378   0.759
 4441SOL    HW114222   6.991   2.436   0.680
 4441SOL    HW214223   0.033   2.432   0.830
 4442SOL     OW14224   1.577   5.056   0.283
 4442SOL    HW114225   1.571   4.963   0.319
 4442SOL    HW214226   1.500   5.110   0.317
 4443SOL     OW14227   0.495   5.707   5.958
 4443SOL    HW114228   0.444   5.781   6.003
 4443SOL    HW214229   0.487   5.718   5.859
 4444SOL     OW14230   5.664   5.230   0.872
 4444SOL    HW114231   5.622   5.311   0.831
 4444SOL    HW214232   5.753   5.213   0.828
 4445SOL     OW14233   1.682   4.033   0.043
 4445SOL    HW114234   1.740   4.008   6.988
 4445SOL    HW214235   1.718   4.115   0.087
 4446SOL     OW14236   4.481   1.762   2.046
 4446SOL    HW114237   4.382   1.770   2.037
 4446SOL    HW214238   4.526   1.805   1.968
 4447SOL     OW14239   3.909   5.855   5.748
 4447SOL    HW114240   3.817   5.860   5.788
 4447SOL    HW214241   3.956   5.774   5.784
 4448SOL     OW14242   3.322   6.557   1.779
 4448SOL    HW114243   3.235   6.520   1.747
 4448SOL    HW214244   3.339   6.524   1.872
 4449SOL     OW14245   3.752   1.905   5.806
 4449SOL    HW114246   3.675   1.849   5.778
 4449SOL    HW214247   3.815   1.918   5.729
 4450SOL     OW14248   2.287   6.529   0.152
 4450SOL    HW114249   2.361   6.559   0.212
 4450SOL    HW214250   2.202   6.523   0.204
 4451SOL     OW14251   4.736   5.278   3.394
 4451SOL    HW114252   4.681   5.297   3.313
 4451SOL    HW214253   4.745   5.361   3.448
 4452SOL     OW14254   5.024   4.919   4.010
 4452SOL    HW114255   5.035   5.017   3.991
 4452SOL    HW214256   4.964   4.907   4.089
 4453SOL     OW14257   6.826   4.705   0.934
 4453SOL    HW114258   6.833   4.751   0.845
 4453SOL    HW214259   6.816   4.774   1.006
 4454SOL     OW14260   1.443   2.251   0.256
 4454SOL    HW114261   1.411   2.225   0.165
 4454SOL    HW214262   1.365   2.257   0.318
 4455SOL     OW14263   1.944   0.677   4.474
 4455SOL    HW114264   2.026   0.629   4.445
 4455SOL    HW214265   1.956   0.776   4.461
 4456SOL     OW14266   2.152   6.076   4.017
 4456SOL    HW114267   2.211   6.113   3.944
 4456SOL    HW214268   2.194   6.095   4.106
 4457SOL     OW14269   1.363   1.985   4.494
 4457SOL    HW114270   1.304   1.919   4.448
 4457SOL    HW214271   1.377   1.957   4.589
 4458SOL     OW14272   1.348   3.183   6.292
 4458SOL    HW114273   1.263   3.143   6.259
 4458SOL    HW214274   1.328   3.270   6.338
 4459SOL     OW14275   1.042   3.431   2.753
 4459SOL    HW114276   0.947   3.456   2.767
 4459SOL    HW214277   1.097   3.461   2.832
 4460SOL     OW14278   0.185   2.939   4.676
 4460SOL    HW114279   0.109   2.990   4.717
 4460SOL    HW214280   0.178   2.942   4.577
 4461SOL     OW14281   2.226   1.130   0.792
 4461SOL    HW114282   2.186   1.039   0.802
 4461SOL    HW214283   2.270   1.138   0.703
 4462SOL     OW14284   6.381   4.146   2.275
 4462SOL    HW114285   6.469   4.147   2.229
 4462SOL    HW214286   6.376   4.220   2.341
 4463SOL     OW14287   5.363   1.702   0.284
 4463SOL    HW114288   5.294   1.723   0.215
 4463SOL    HW214289   5.427   1.634   0.249
 4464SOL     OW14290   0.572   3.976   1.386
 4464SOL    HW114291   0.662   4.009   1.357
 4464SOL    HW214292   0.584   3.892   1.439
 4465SOL     OW14293   3.871   5.353   2.088
 4465SOL    HW114294   3.951   5.390   2.134
 4465SOL    HW214295   3.894   5.264   2.048
 4466SOL     OW14296   0.520   3.124   2.254
 4466SOL    HW114297   0.591   3.194   2.250
 4466SOL    HW214298   0.430   3.168   2.254
 4467SOL     OW14299   5.465   4.754   2.086
 4467SOL    HW114300   5.396   4.721   2.151
 4467SOL    HW214301   5.518   4.676   2.053
 4468SOL     OW14302   1.651   3.128   1.200
 4468SOL    HW114303   1.723   3.074   1.244
 4468SOL    HW214304   1.580   3.150   1.266
 4469SOL     OW14305   2.162   5.614   1.646
 4469SOL    HW114306   2.073   5.614   1.691
 4469SOL    HW214307   2.160   5.551   1.568
 4470SOL     OW14308   0.791   6.963   2.845
 4470SOL    HW114309   0.732   7.010   2.778
 4470SOL    HW214310   0.861   0.003   2.878
 4471SOL     OW14311   0.803   0.260   6.499
 4471SOL    HW114312   0.802   0.301   6.407
 4471SOL    HW214313   0.852   0.321   6.561
 4472SOL     OW14314   1.804   3.084   0.885
 4472SOL    HW114315   1.709   3.091   0.913
 4472SOL    HW214316   1.844   3.000   0.923
 4473SOL     OW14317   0.272   3.260   4.834
 4473SOL    HW114318   0.311   3.170   4.855
 4473SOL    HW214319   0.340   3.330   4.849
 4474SOL     OW14320   2.435   5.935   0.801
 4474SOL    HW114321   2.396   5.994   0.872
 4474SOL    HW214322   2.520   5.975   0.767
 4475SOL     OW14323   0.895   3.754   0.371
 4475SOL    HW114324   0.862   3.659   0.366
 4475SOL    HW214325   0.838   3.806   0.434
 4476SOL     OW14326   5.622   1.240   3.554
 4476SOL    HW114327   5.563   1.245   3.634
 4476SOL    HW214328   5.602   1.316   3.492
 4477SOL     OW14329   0.198   1.278   4.813
 4477SOL    HW114330   0.117   1.276   4.754
 4477SOL    HW214331   0.253   1.196   4.797
 4478SOL     OW14332   1.698   0.627   1.818
 4478SOL    HW114333   1.796   0.637   1.833
 4478SOL    HW214334   1.663   0.710   1.775
 4479SOL     OW14335   2.381   2.597   6.877
 4479SOL    HW114336   2.417   2.503   6.880
 4479SOL    HW214337   2.457   2.662   6.875
 4480SOL     OW14338   0.554   6.847   3.381
 4480SOL    HW114339   0.590   6.767   3.334
 4480SOL    HW214340   0.470   6.876   3.337
 4481SOL     OW14341   1.907   3.465   5.521
 4481SOL    HW114342   1.932   3.383   5.573
 4481SOL    HW214343   1.843   3.440   5.448
 4482SOL     OW14344   2.205   0.311   1.352
 4482SOL    HW114345   2.125   0.253   1.337
 4482SOL    HW214346   2.180   0.388   1.410
 4483SOL     OW14347   1.528   3.587   0.497
 4483SOL    HW114348   1.615   3.538   0.505
 4483SOL    HW214349   1.532   3.670   0.552
 4484SOL     OW14350   2.976   0.713   6.826
 4484SOL    HW114351   2.971   0.615   6.846
 4484SOL    HW214352   3.071   0.744   6.835
 4485SOL     OW14353   0.163   3.657   4.707
 4485SOL    HW114354   0.234   3.607   4.658
 4485SOL    HW214355   0.116   3.594   4.770
 4486SOL     OW14356   5.179   4.430   3.800
 4486SOL    HW114357   5.176   4.529   3.784
 4486SOL    HW214358   5.112   4.406   3.870
 4487SOL     OW14359   0.441   2.936   6.512
 4487SOL    HW114360   0.345   2.948   6.488
 4487SOL    HW214361   0.449   2.890   6.600
 4488SOL     OW14362   6.732   3.762   3.371
 4488SOL    HW114363   6.810   3.824   3.366
 4488SOL    HW214364   6.688   3.757   3.281
 4489SOL     OW14365   3.573   5.963   6.571
 4489SOL    HW114366   3.615   5.914   6.494
 4489SOL    HW214367   3.488   6.007   6.540
 4490SOL     OW14368   5.744   1.696   1.743
 4490SOL    HW114369   5.767   1.613   1.692
 4490SOL    HW214370   5.679   1.751   1.691
 4491SOL     OW14371   0.998   3.761   2.713
 4491SOL    HW114372   0.947   3.755   2.799
 4491SOL    HW214373   1.093   3.783   2.732
 4492SOL     OW14374   6.594   1.027   2.482
 4492SOL    HW114375   6.495   1.037   2.473
 4492SOL    HW214376   6.629   1.101   2.540
 4493SOL     OW14377   5.292   1.643   5.487
 4493SOL    HW114378   5.250   1.716   5.434
 4493SOL    HW214379   5.235   1.561   5.481
 4494SOL     OW14380   1.653   0.731   2.246
 4494SOL    HW114381   1.752   0.737   2.233
 4494SOL    HW214382   1.629   0.769   2.336
 4495SOL     OW14383   4.034   6.710   0.970
 4495SOL    HW114384   4.105   6.774   0.999
 4495SOL    HW214385   4.037   6.700   0.870
 4496SOL     OW14386   2.969   6.272   5.494
 4496SOL    HW114387   2.895   6.204   5.494
 4496SOL    HW214388   3.013   6.273   5.584
 4497SOL     OW14389   4.185   0.804   6.077
 4497SOL    HW114390   4.213   0.869   6.007
 4497SOL    HW214391   4.119   0.740   6.038
 4498SOL     OW14392   0.662   4.999   4.690
 4498SOL    HW114393   0.604   4.920   4.709
 4498SOL    HW214394   0.735   5.004   4.759
 4499SOL     OW14395   6.163   0.935   2.651
 4499SOL    HW114396   6.104   0.907   2.575
 4499SOL    HW214397   6.130   0.894   2.736
 4500SOL     OW14398   3.464   6.412   0.382
 4500SOL    HW114399   3.530   6.468   0.333
 4500SOL    HW214400   3.390   6.470   0.417
 4501SOL     OW14401   5.976   0.589   2.113
 4501SOL    HW114402   5.984   0.519   2.184
 4501SOL    HW214403   6.055   0.651   2.118
 4502SOL     OW14404   1.231   3.990   6.473
 4502SOL    HW114405   1.240   3.963   6.568
 4502SOL    HW214406   1.183   4.078   6.467
 4503SOL     OW14407   3.676   1.778   2.642
 4503SOL    HW114408   3.579   1.772   2.667
 4503SOL    HW214409   3.729   1.716   2.700
 4504SOL     OW14410   1.069   2.567   3.365
 4504SOL    HW114411   0.999   2.635   3.388
 4504SOL    HW214412   1.142   2.569   3.434
 4505SOL     OW14413   6.370   2.639   3.501
 4505SOL    HW114414   6.321   2.705   3.558
 4505SOL    HW214415   6.407   2.685   3.421
 4506SOL     OW14416   4.043   3.829   0.006
 4506SOL    HW114417   4.102   3.807   0.083
 4506SOL    HW214418   4.094   3.881   6.961
 4507SOL     OW14419   5.994   2.389   3.043
 4507SOL    HW114420   6.012   2.292   3.028
 4507SOL    HW214421   5.992   2.436   2.955
 4508SOL     OW14422   6.497   4.882   0.689
 4508SOL    HW114423   6.430   4.923   0.627
 4508SOL    HW214424   6.479   4.784   0.697
 4509SOL     OW14425   5.452   2.063   2.157
 4509SOL    HW114426   5.416   1.971   2.171
 4509SOL    HW214427   5.439   2.117   2.240
 4510SOL     OW14428   4.814   1.601   4.414
 4510SOL    HW114429   4.813   1.501   4.413
 4510SOL    HW214430   4.861   1.635   4.333
 4511SOL     OW14431   7.021   4.805   6.760
 4511SOL    HW114432   0.017   4.876   6.827
 4511SOL    HW214433   6.943   4.750   6.790
 4512SOL     OW14434   3.202   3.214   5.729
 4512SOL    HW114435   3.106   3.202   5.753
 4512SOL    HW214436   3.254   3.134   5.758
 4513SOL     OW14437   0.127   0.546   0.666
 4513SOL    HW114438   0.115   0.563   0.764
 4513SOL    HW214439   0.070   0.609   0.614
 4514SOL     OW14440   4.737   4.899   6.580
 4514SOL    HW114441   4.733   4.860   6.488
 4514SOL    HW214442   4.828   4.939   6.595
 4515SOL     OW14443   4.166   0.930   6.326
 4515SOL    HW114444   4.237   0.999   6.332
 4515SOL    HW214445   4.175   0.879   6.241
 4516SOL     OW14446   3.232   2.144   5.726
 4516SOL    HW114447   3.269   2.211   5.662
 4516SOL    HW214448   3.190   2.192   5.803
 4517SOL     OW14449   4.265   0.419   4.651
 4517SOL    HW114450   4.283   0.323   4.670
 4517SOL    HW214451   4.203   0.456   4.720
 4518SOL     OW14452   0.218   6.989   0.776
 4518SOL    HW114453   0.231   6.912   0.839
 4518SOL    HW214454   0.149   0.028   0.812
 4519SOL     OW14455   4.760   6.582   6.789
 4519SOL    HW114456   4.755   6.576   6.689
 4519SOL    HW214457   4.825   6.514   6.823
 4520SOL     OW14458   4.761   4.829   5.550
 4520SOL    HW114459   4.806   4.873   5.628
 4520SOL    HW214460   4.688   4.888   5.516
 4521SOL     OW14461   4.284   2.173   3.833
 4521SOL    HW114462   4.353   2.129   3.891
 4521SOL    HW214463   4.250   2.107   3.766
 4522SOL     OW14464   5.893   3.481   3.560
 4522SOL    HW114465   5.864   3.438   3.474
 4522SOL    HW214466   5.982   3.524   3.548
 4523SOL     OW14467   7.014   3.284   6.157
 4523SOL    HW114468   6.970   3.199   6.128
 4523SOL    HW214469   0.081   3.264   6.195
 4524SOL     OW14470   1.912   3.639   2.367
 4524SOL    HW114471   1.986   3.649   2.300
 4524SOL    HW214472   1.836   3.589   2.325
 4525SOL     OW14473   3.805   2.588   5.927
 4525SOL    HW114474   3.843   2.496   5.925
 4525SOL    HW214475   3.713   2.587   5.888
 4526SOL     OW14476   1.689   0.371   5.336
 4526SOL    HW114477   1.684   0.297   5.268
 4526SOL    HW214478   1.598   0.410   5.349
 4527SOL     OW14479   0.319   1.625   2.480
 4527SOL    HW114480   0.411   1.660   2.464
 4527SOL    HW214481   0.293   1.641   2.576
 4528SOL     OW14482   5.093   0.775   4.414
 4528SOL    HW114483   5.097   0.812   4.507
 4528SOL    HW214484   5.127   0.681   4.414
 4529SOL     OW14485   2.328   2.109   4.259
 4529SOL    HW114486   2.267   2.074   4.330
 4529SOL    HW214487   2.385   2.034   4.224
 4530SOL     OW14488   3.900   5.330   6.607
 4530SOL    HW114489   3.867   5.404   6.665
 4530SOL    HW214490   3.853   5.332   6.519
 4531SOL     OW14491   1.793   6.375   5.369
 4531SOL    HW114492   1.850   6.317   5.426
 4531SOL    HW214493   1.770   6.459   5.419
 4532SOL     OW14494   6.347   1.142   2.530
 4532SOL    HW114495   6.348   1.225   2.474
 4532SOL    HW214496   6.276   1.080   2.497
 4533SOL     OW14497   2.900   6.381   1.310
 4533SOL    HW114498   2.832   6.451   1.289
 4533SOL    HW214499   2.886   6.348   1.403
 4534SOL     OW14500   5.853   1.498   4.452
 4534SOL    HW114501   5.885   1.582   4.407
 4534SOL    HW214502   5.769   1.518   4.502
 4535SOL     OW14503   1.543   0.801   0.169
 4535SOL    HW114504   1.579   0.776   0.079
 4535SOL    HW214505   1.563   0.728   0.234
 4536SOL     OW14506   3.909   1.251   5.756
 4536SOL    HW114507   3.900   1.169   5.812
 4536SOL    HW214508   3.870   1.329   5.804
 4537SOL     OW14509   3.310   3.303   3.401
 4537SOL    HW114510   3.322   3.391   3.357
 4537SOL    HW214511   3.252   3.314   3.482
 4538SOL     OW14512   0.971   2.455   0.140
 4538SOL    HW114513   1.056   2.505   0.154
 4538SOL    HW214514   0.988   2.376   0.081
 4539SOL     OW14515   1.233   5.502   4.555
 4539SOL    HW114516   1.222   5.445   4.637
 4539SOL    HW214517   1.224   5.445   4.473
 4540SOL     OW14518   1.447   1.395   0.412
 4540SOL    HW114519   1.447   1.311   0.467
 4540SOL    HW214520   1.461   1.372   0.315
 4541SOL     OW14521   4.056   3.520   0.093
 4541SOL    HW114522   4.042   3.507   7.017
 4541SOL    HW214523   4.008   3.448   0.143
 4542SOL     OW14524   0.703   1.557   6.601
 4542SOL    HW114525   0.652   1.626   6.550
 4542SOL    HW214526   0.791   1.542   6.556
 4543SOL     OW14527   4.438   1.736   0.587
 4543SOL    HW114528   4.521   1.680   0.579
 4543SOL    HW214529   4.460   1.822   0.632
 4544SOL     OW14530   4.756   6.466   0.674
 4544SOL    HW114531   4.779   6.496   0.766
 4544SOL    HW214532   4.759   6.545   0.612
 4545SOL     OW14533   2.910   2.748   5.517
 4545SOL    HW114534   2.951   2.791   5.598
 4545SOL    HW214535   2.963   2.668   5.492
 4546SOL     OW14536   4.165   0.253   6.414
 4546SOL    HW114537   4.187   0.156   6.427
 4546SOL    HW214538   4.250   0.306   6.415
 4547SOL     OW14539   0.570   0.354   0.337
 4547SOL    HW114540   0.600   0.263   0.365
 4547SOL    HW214541   0.649   0.411   0.317
 4548SOL     OW14542   3.390   1.137   2.062
 4548SOL    HW114543   3.434   1.113   2.148
 4548SOL    HW214544   3.310   1.079   2.047
 4549SOL     OW14545   6.894   3.416   3.927
 4549SOL    HW114546   6.914   3.329   3.972
 4549SOL    HW214547   6.891   3.489   3.995
 4550SOL     OW14548   1.844   5.698   5.616
 4550SOL    HW114549   1.784   5.776   5.630
 4550SOL    HW214550   1.791   5.613   5.620
 4551SOL     OW14551   3.168   2.458   6.093
 4551SOL    HW114552   3.216   2.540   6.062
 4551SOL    HW214553   3.069   2.474   6.088
 4552SOL     OW14554   4.974   0.824   6.699
 4552SOL    HW114555   5.040   0.766   6.652
 4552SOL    HW214556   4.947   0.781   6.785
 4553SOL     OW14557   0.302   5.895   0.419
 4553SOL    HW114558   0.304   5.994   0.402
 4553SOL    HW214559   0.232   5.853   0.361
 4554SOL     OW14560   5.827   6.785   3.440
 4554SOL    HW114561   5.790   6.733   3.517
 4554SOL    HW214562   5.760   6.787   3.365
 4555SOL     OW14563   0.810   0.838   1.669
 4555SOL    HW114564   0.872   0.886   1.606
 4555SOL    HW214565   0.716   0.854   1.641
 4556SOL     OW14566   5.391   4.099   4.030
 4556SOL    HW114567   5.404   4.191   4.068
 4556SOL    HW214568   5.294   4.085   4.010
 4557SOL     OW14569   6.518   4.888   4.315
 4557SOL    HW114570   6.530   4.975   4.268
 4557SOL    HW214571   6.420   4.869   4.326
 4558SOL     OW14572   0.862   3.916   4.723
 4558SOL    HW114573   0.862   3.820   4.750
 4558SOL    HW214574   0.952   3.941   4.688
 4559SOL     OW14575   0.190   2.791   3.904
 4559SOL    HW114576   0.148   2.788   3.995
 4559SOL    HW214577   0.230   2.702   3.882
 4560SOL     OW14578   6.132   4.603   3.350
 4560SOL    HW114579   6.202   4.631   3.284
 4560SOL    HW214580   6.058   4.557   3.301
 4561SOL     OW14581   4.262   2.290   4.216
 4561SOL    HW114582   4.208   2.326   4.140
 4561SOL    HW214583   4.331   2.358   4.242
 4562SOL     OW14584   3.903   1.286   0.557
 4562SOL    HW114585   3.951   1.372   0.571
 4562SOL    HW214586   3.889   1.271   0.459
 4563SOL     OW14587   1.019   4.018   1.703
 4563SOL    HW114588   1.109   4.059   1.713
 4563SOL    HW214589   1.028   3.929   1.658
 4564SOL     OW14590   1.867   4.290   2.370
 4564SOL    HW114591   1.883   4.222   2.298
 4564SOL    HW214592   1.773   4.323   2.364
 4565SOL     OW14593   2.033   0.186   5.735
 4565SOL    HW114594   2.106   0.255   5.743
 4565SOL    HW214595   2.069   0.097   5.763
 4566SOL     OW14596   6.848   4.053   3.035
 4566SOL    HW114597   6.798   4.061   2.949
 4566SOL    HW214598   6.827   4.131   3.094
 4567SOL     OW14599   6.940   6.658   6.732
 4567SOL    HW114600   6.875   6.645   6.807
 4567SOL    HW214601   6.913   6.737   6.678
 4568SOL     OW14602   0.921   5.213   3.491
 4568SOL    HW114603   0.937   5.237   3.587
 4568SOL    HW214604   0.829   5.243   3.464
 4569SOL     OW14605   1.606   1.888   3.051
 4569SOL    HW114606   1.544   1.953   3.007
 4569SOL    HW214607   1.568   1.861   3.139
 4570SOL     OW14608   5.011   5.460   1.135
 4570SOL    HW114609   5.068   5.464   1.053
 4570SOL    HW214610   4.915   5.447   1.109
 4571SOL     OW14611   2.043   4.340   5.628
 4571SOL    HW114612   2.046   4.276   5.705
 4571SOL    HW214613   1.978   4.308   5.560
 4572SOL     OW14614   4.243   3.176   1.859
 4572SOL    HW114615   4.207   3.174   1.765
 4572SOL    HW214616   4.342   3.159   1.857
 4573SOL     OW14617   2.261   4.931   0.605
 4573SOL    HW114618   2.353   4.916   0.568
 4573SOL    HW214619   2.202   4.854   0.580
 4574SOL     OW14620   4.719   0.811   1.932
 4574SOL    HW114621   4.724   0.907   1.904
 4574SOL    HW214622   4.767   0.800   2.019
 4575SOL     OW14623   6.534   1.109   5.140
 4575SOL    HW114624   6.514   1.190   5.195
 4575SOL    HW214625   6.450   1.060   5.119
 4576SOL     OW14626   3.531   3.922   6.936
 4576SOL    HW114627   3.480   3.902   7.021
 4576SOL    HW214628   3.469   3.913   6.858
 4577SOL     OW14629   0.597   1.694   1.683
 4577SOL    HW114630   0.624   1.657   1.594
 4577SOL    HW214631   0.544   1.778   1.669
 4578SOL     OW14632   2.021   0.776   2.872
 4578SOL    HW114633   2.012   0.872   2.846
 4578SOL    HW214634   1.930   0.736   2.884
 4579SOL     OW14635   4.629   0.709   3.728
 4579SOL    HW114636   4.623   0.720   3.827
 4579SOL    HW214637   4.707   0.762   3.694
 4580SOL     OW14638   1.020   1.235   0.789
 4580SOL    HW114639   1.048   1.319   0.743
 4580SOL    HW214640   0.932   1.205   0.753
 4581SOL     OW14641   2.633   0.437   1.105
 4581SOL    HW114642   2.653   0.344   1.136
 4581SOL    HW214643   2.718   0.484   1.084
 4582SOL     OW14644   6.994   1.041   3.647
 4582SOL    HW114645   0.003   0.972   3.582
 4582SOL    HW214646   0.033   1.045   3.725
 4583SOL     OW14647   1.831   6.732   7.004
 4583SOL    HW114648   1.858   6.809   0.039
 4583SOL    HW214649   1.912   6.680   6.977
 4584SOL     OW14650   0.355   2.000   3.988
 4584SOL    HW114651   0.290   1.966   3.920
 4584SOL    HW214652   0.310   2.006   4.077
 4585SOL     OW14653   1.751   3.255   2.705
 4585SOL    HW114654   1.770   3.159   2.727
 4585SOL    HW214655   1.687   3.292   2.773
 4586SOL     OW14656   6.470   4.739   5.866
 4586SOL    HW114657   6.569   4.746   5.871
 4586SOL    HW214658   6.437   4.794   5.788
 4587SOL     OW14659   4.130   4.136   5.759
 4587SOL    HW114660   4.108   4.154   5.663
 4587SOL    HW214661   4.219   4.176   5.781
 4588SOL     OW14662   3.098   4.216   6.479
 4588SOL    HW114663   3.063   4.168   6.560
 4588SOL    HW214664   3.198   4.213   6.479
 4589SOL     OW14665   5.473   6.631   2.552
 4589SOL    HW114666   5.567   6.657   2.574
 4589SOL    HW214667   5.435   6.696   2.486
 4590SOL     OW14668   2.791   5.492   1.062
 4590SOL    HW114669   2.695   5.488   1.033
 4590SOL    HW214670   2.846   5.531   0.989
 4591SOL     OW14671   2.327   0.988   5.068
 4591SOL    HW114672   2.290   1.081   5.075
 4591SOL    HW214673   2.263   0.931   5.016
 4592SOL     OW14674   2.719   1.901   3.884
 4592SOL    HW114675   2.790   1.945   3.939
 4592SOL    HW214676   2.630   1.944   3.904
 4593SOL     OW14677   1.240   6.085   4.420
 4593SOL    HW114678   1.237   6.050   4.513
 4593SOL    HW214679   1.157   6.137   4.400
 4594SOL     OW14680   2.134   6.223   4.236
 4594SOL    HW114681   2.151   6.313   4.276
 4594SOL    HW214682   2.068   6.173   4.293
 4595SOL     OW14683   5.716   2.066   6.462
 4595SOL    HW114684   5.732   2.110   6.374
 4595SOL    HW214685   5.803   2.033   6.499
 4596SOL     OW14686   1.379   1.046   2.357
 4596SOL    HW114687   1.467   1.063   2.313
 4596SOL    HW214688   1.331   1.133   2.370
 4597SOL     OW14689   2.444   5.903   0.492
 4597SOL    HW114690   2.446   5.814   0.538
 4597SOL    HW214691   2.536   5.924   0.458
 4598SOL     OW14692   0.661   3.522   0.146
 4598SOL    HW114693   0.750   3.508   0.191
 4598SOL    HW214694   0.591   3.540   0.216
 4599SOL     OW14695   3.520   6.714   2.572
 4599SOL    HW114696   3.610   6.704   2.616
 4599SOL    HW214697   3.475   6.625   2.570
 4600SOL     OW14698   6.910   6.510   6.438
 4600SOL    HW114699   6.943   6.577   6.371
 4600SOL    HW214700   6.868   6.559   6.515
 4601SOL     OW14701   1.696   0.654   5.765
 4601SOL    HW114702   1.695   0.724   5.694
 4601SOL    HW214703   1.708   0.564   5.722
 4602SOL     OW14704   3.936   1.810   6.517
 4602SOL    HW114705   3.848   1.809   6.471
 4602SOL    HW214706   4.000   1.868   6.466
 4603SOL     OW14707   4.197   7.011   1.269
 4603SOL    HW114708   4.194   6.922   1.313
 4603SOL    HW214709   4.190   0.060   1.338
 4604SOL     OW14710   0.613   0.064   3.879
 4604SOL    HW114711   0.675   0.133   3.915
 4604SOL    HW214712   0.578   0.008   3.954
 4605SOL     OW14713   4.218   0.999   1.411
 4605SOL    HW114714   4.198   1.096   1.421
 4605SOL    HW214715   4.316   0.983   1.422
 4606SOL     OW14716   6.880   6.976   5.093
 4606SOL    HW114717   6.864   0.012   5.014
 4606SOL    HW214718   6.953   7.015   5.150
 4607SOL     OW14719   2.596   1.799   1.047
 4607SOL    HW114720   2.576   1.804   1.145
 4607SOL    HW214721   2.576   1.887   1.004
 4608SOL     OW14722   7.001   3.031   4.830
 4608SOL    HW114723   6.920   2.974   4.844
 4608SOL    HW214724   6.999   3.108   4.894
 4609SOL     OW14725   5.108   5.022   6.818
 4609SOL    HW114726   5.097   5.050   6.913
 4609SOL    HW214727   5.030   5.054   6.764
 4610SOL     OW14728   5.049   5.252   0.258
 4610SOL    HW114729   5.088   5.186   0.323
 4610SOL    HW214730   4.985   5.312   0.306
 4611SOL     OW14731   0.063   1.061   6.793
 4611SOL    HW114732   0.005   1.090   6.869
 4611SOL    HW214733   0.156   1.045   6.826
 4612SOL     OW14734   2.754   1.207   2.743
 4612SOL    HW114735   2.753   1.119   2.694
 4612SOL    HW214736   2.798   1.195   2.832
 4613SOL     OW14737   1.441   5.626   2.035
 4613SOL    HW114738   1.485   5.666   1.954
 4613SOL    HW214739   1.450   5.689   2.112
 4614SOL     OW14740   0.203   4.583   3.344
 4614SOL    HW114741   0.252   4.508   3.300
 4614SOL    HW214742   0.169   4.553   3.433
 4615SOL     OW14743   1.513   4.499   6.681
 4615SOL    HW114744   1.483   4.563   6.610
 4615SOL    HW214745   1.582   4.437   6.644
 4616SOL     OW14746   1.414   4.011   6.263
 4616SOL    HW114747   1.355   4.012   6.344
 4616SOL    HW214748   1.469   3.927   6.263
 4617SOL     OW14749   7.005   3.339   3.332
 4617SOL    HW114750   0.065   3.372   3.377
 4617SOL    HW214751   6.946   3.294   3.399
 4618SOL     OW14752   2.414   3.550   5.630
 4618SOL    HW114753   2.409   3.546   5.729
 4618SOL    HW214754   2.324   3.530   5.591
 4619SOL     OW14755   4.399   6.100   6.326
 4619SOL    HW114756   4.475   6.165   6.318
 4619SOL    HW214757   4.323   6.144   6.375
 4620SOL     OW14758   1.081   4.384   1.664
 4620SOL    HW114759   1.027   4.427   1.591
 4620SOL    HW214760   1.022   4.365   1.742
 4621SOL     OW14761   3.263   0.380   2.773
 4621SOL    HW114762   3.238   0.330   2.690
 4621SOL    HW214763   3.361   0.394   2.775
 4622SOL     OW14764   5.195   0.057   0.622
 4622SOL    HW114765   5.207   0.152   0.593
 4622SOL    HW214766   5.284   0.014   0.633
 4623SOL     OW14767   3.183   4.885   2.404
 4623SOL    HW114768   3.085   4.888   2.384
 4623SOL    HW214769   3.198   4.904   2.501
 4624SOL     OW14770   5.060   1.555   1.647
 4624SOL    HW114771   5.057   1.494   1.727
 4624SOL    HW214772   5.128   1.626   1.662
 4625SOL     OW14773   1.499   6.355   1.590
 4625SOL    HW114774   1.416   6.363   1.645
 4625SOL    HW214775   1.543   6.267   1.609
 4626SOL     OW14776   4.031   3.231   2.021
 4626SOL    HW114777   3.956   3.170   1.993
 4626SOL    HW214778   4.113   3.209   1.968
 4627SOL     OW14779   5.626   0.336   5.146
 4627SOL    HW114780   5.662   0.279   5.072
 4627SOL    HW214781   5.700   0.358   5.209
 4628SOL     OW14782   6.195   4.612   2.847
 4628SOL    HW114783   6.246   4.633   2.930
 4628SOL    HW214784   6.097   4.609   2.868
 4629SOL     OW14785   1.757   5.266   0.287
 4629SOL    HW114786   1.681   5.201   0.289
 4629SOL    HW214787   1.793   5.272   0.194
 4630SOL     OW14788   1.848   3.785   1.469
 4630SOL    HW114789   1.796   3.700   1.477
 4630SOL    HW214790   1.863   3.806   1.373
 4631SOL     OW14791   6.476   0.882   3.229
 4631SOL    HW114792   6.551   0.820   3.253
 4631SOL    HW214793   6.393   0.853   3.276
 4632SOL     OW14794   2.856   4.754   3.169
 4632SOL    HW114795   2.866   4.787   3.076
 4632SOL    HW214796   2.926   4.796   3.227
 4633SOL     OW14797   4.885   2.397   4.503
 4633SOL    HW114798   4.884   2.497   4.511
 4633SOL    HW214799   4.949   2.360   4.570
 4634SOL     OW14800   3.877   3.064   4.611
 4634SOL    HW114801   3.846   3.019   4.527
 4634SOL    HW214802   3.890   2.995   4.683
 4635SOL     OW14803   4.597   6.127   2.578
 4635SOL    HW114804   4.573   6.131   2.481
 4635SOL    HW214805   4.598   6.220   2.616
 4636SOL     OW14806   1.589   6.321   6.231
 4636SOL    HW114807   1.586   6.240   6.289
 4636SOL    HW214808   1.497   6.346   6.203
 4637SOL     OW14809   1.993   2.104   3.209
 4637SOL    HW114810   2.004   2.150   3.297
 4637SOL    HW214811   2.063   2.137   3.145
 4638SOL     OW14812   3.580   4.786   0.544
 4638SOL    HW114813   3.552   4.714   0.481
 4638SOL    HW214814   3.500   4.817   0.597
 4639SOL     OW14815   3.769   1.963   2.022
 4639SOL    HW114816   3.724   2.052   2.029
 4639SOL    HW214817   3.767   1.933   1.926
 4640SOL     OW14818   6.119   2.992   0.780
 4640SOL    HW114819   6.069   2.930   0.840
 4640SOL    HW214820   6.179   3.051   0.835
 4641SOL     OW14821   1.739   5.518   4.604
 4641SOL    HW114822   1.770   5.500   4.697
 4641SOL    HW214823   1.644   5.548   4.606
 4642SOL     OW14824   6.062   1.437   5.627
 4642SOL    HW114825   6.086   1.484   5.712
 4642SOL    HW214826   6.130   1.366   5.608
 4643SOL     OW14827   0.685   1.662   0.427
 4643SOL    HW114828   0.769   1.619   0.393
 4643SOL    HW214829   0.616   1.661   0.355
 4644SOL     OW14830   1.042   0.438   0.845
 4644SOL    HW114831   1.132   0.479   0.831
 4644SOL    HW214832   0.972   0.496   0.804
 4645SOL     OW14833   6.320   2.268   4.817
 4645SOL    HW114834   6.268   2.353   4.808
 4645SOL    HW214835   6.261   2.190   4.794
 4646SOL     OW14836   2.084   3.972   2.778
 4646SOL    HW114837   2.051   3.878   2.765
 4646SOL    HW214838   2.147   3.996   2.705
 4647SOL     OW14839   1.973   6.443   1.761
 4647SOL    HW114840   1.948   6.409   1.851
 4647SOL    HW214841   2.055   6.499   1.768
 4648SOL     OW14842   3.049   1.254   4.676
 4648SOL    HW114843   3.104   1.178   4.642
 4648SOL    HW214844   2.960   1.254   4.630
 4649SOL     OW14845   5.840   1.797   0.604
 4649SOL    HW114846   5.744   1.823   0.607
 4649SOL    HW214847   5.848   1.698   0.595
 4650SOL     OW14848   4.426   5.539   1.074
 4650SOL    HW114849   4.371   5.456   1.079
 4650SOL    HW214850   4.428   5.584   1.163
 4651SOL     OW14851   0.597   4.002   6.496
 4651SOL    HW114852   0.498   3.989   6.502
 4651SOL    HW214853   0.638   3.923   6.451
 4652SOL     OW14854   6.893   0.103   5.506
 4652SOL    HW114855   6.945   0.078   5.588
 4652SOL    HW214856   6.797   0.117   5.530
 4653SOL     OW14857   7.014   5.694   1.073
 4653SOL    HW114858   0.066   5.742   1.029
 4653SOL    HW214859   6.940   5.679   1.008
 4654SOL     OW14860   0.893   0.977   5.740
 4654SOL    HW114861   0.983   1.016   5.760
 4654SOL    HW214862   0.857   1.019   5.657
 4655SOL     OW14863   5.304   3.625   2.908
 4655SOL    HW114864   5.340   3.532   2.901
 4655SOL    HW214865   5.257   3.637   2.995
 4656SOL     OW14866   6.124   1.010   2.110
 4656SOL    HW114867   6.070   1.000   2.026
 4656SOL    HW214868   6.222   1.004   2.088
 4657SOL     OW14869   3.642   1.309   2.770
 4657SOL    HW114870   3.670   1.384   2.711
 4657SOL    HW214871   3.564   1.261   2.729
 4658SOL     OW14872   1.339   1.999   6.435
 4658SOL    HW114873   1.344   1.899   6.442
 4658SOL    HW214874   1.409   2.040   6.493
 4659SOL     OW14875   2.087   4.367   0.810
 4659SOL    HW114876   2.126   4.439   0.753
 4659SOL    HW214877   2.110   4.277   0.771
 4660SOL     OW14878   0.306   5.343   4.153
 4660SOL    HW114879   0.341   5.249   4.162
 4660SOL    HW214880   0.206   5.342   4.150
 4661SOL     OW14881   0.792   1.545   5.620
 4661SOL    HW114882   0.783   1.446   5.608
 4661SOL    HW214883   0.875   1.576   5.573
 4662SOL     OW14884   2.814   0.629   5.942
 4662SOL    HW114885   2.805   0.715   5.893
 4662SOL    HW214886   2.911   0.602   5.944
 4663SOL     OW14887   0.938   6.944   0.607
 4663SOL    HW114888   0.868   7.010   0.635
 4663SOL    HW214889   1.013   6.945   0.673
 4664SOL     OW14890   5.998   6.743   6.033
 4664SOL    HW114891   5.916   6.764   6.087
 4664SOL    HW214892   6.063   6.818   6.041
 4665SOL     OW14893   0.233   0.301   3.006
 4665SOL    HW114894   0.248   0.202   3.011
 4665SOL    HW214895   0.314   0.349   3.040
 4666SOL     OW14896   1.514   2.517   5.837
 4666SOL    HW114897   1.537   2.420   5.846
 4666SOL    HW214898   1.502   2.557   5.928
 4667SOL     OW14899   6.232   3.164   0.942
 4667SOL    HW114900   6.308   3.182   1.005
 4667SOL    HW214901   6.148   3.201   0.980
 4668SOL     OW14902   4.581   1.998   4.557
 4668SOL    HW114903   4.598   2.048   4.473
 4668SOL    HW214904   4.484   1.977   4.564
 4669SOL     OW14905   5.115   6.831   6.583
 4669SOL    HW114906   5.128   6.838   6.682
 4669SOL    HW214907   5.197   6.790   6.542
 4670SOL     OW14908   0.244   3.529   6.431
 4670SOL    HW114909   0.221   3.591   6.356
 4670SOL    HW214910   0.210   3.566   6.517
 4671SOL     OW14911   0.008   2.940   1.992
 4671SOL    HW114912   7.009   3.010   1.924
 4671SOL    HW214913   0.058   2.981   2.068
 4672SOL     OW14914   2.773   3.567   0.090
 4672SOL    HW114915   2.770   3.643   0.156
 4672SOL    HW214916   2.807   3.485   0.136
 4673SOL     OW14917   5.851   0.749   0.520
 4673SOL    HW114918   5.803   0.662   0.535
 4673SOL    HW214919   5.837   0.808   0.599
 4674SOL     OW14920   1.030   2.822   0.657
 4674SOL    HW114921   1.059   2.901   0.710
 4674SOL    HW214922   1.008   2.746   0.718
 4675SOL     OW14923   1.889   5.693   6.685
 4675SOL    HW114924   1.925   5.781   6.653
 4675SOL    HW214925   1.939   5.664   6.766
 4676SOL     OW14926   0.548   6.065   4.460
 4676SOL    HW114927   0.524   6.060   4.363
 4676SOL    HW214928   0.533   5.976   4.503
 4677SOL     OW14929   3.633   6.543   0.224
 4677SOL    HW114930   3.627   6.580   0.131
 4677SOL    HW214931   3.723   6.564   0.263
 4678SOL     OW14932   2.298   4.364   0.038
 4678SOL    HW114933   2.387   4.381   7.017
 4678SOL    HW214934   2.290   4.422   0.119
 4679SOL     OW14935   2.507   6.555   5.466
 4679SOL    HW114936   2.466   6.517   5.548
 4679SOL    HW214937   2.449   6.628   5.429
 4680SOL     OW14938   0.731   4.793   0.077
 4680SOL    HW114939   0.788   4.835   0.006
 4680SOL    HW214940   0.704   4.701   0.049
 4681SOL     OW14941   6.596   5.764   4.999
 4681SOL    HW114942   6.651   5.685   5.023
 4681SOL    HW214943   6.643   5.848   5.029
 4682SOL     OW14944   2.522   6.786   0.549
 4682SOL    HW114945   2.606   6.812   0.501
 4682SOL    HW214946   2.514   6.839   0.634
 4683SOL     OW14947   0.240   4.649   2.951
 4683SOL    HW114948   0.287   4.693   3.027
 4683SOL    HW214949   0.196   4.719   2.894
 4684SOL     OW14950   1.525   1.372   5.173
 4684SOL    HW114951   1.566   1.363   5.083
 4684SOL    HW214952   1.511   1.281   5.213
 4685SOL     OW14953   4.946   4.810   4.983
 4685SOL    HW114954   4.888   4.878   4.937
 4685SOL    HW214955   5.041   4.822   4.952
 4686SOL     OW14956   4.789   6.041   0.124
 4686SOL    HW114957   4.774   5.948   0.158
 4686SOL    HW214958   4.872   6.078   0.166
 4687SOL     OW14959   5.045   6.703   4.530
 4687SOL    HW114960   4.961   6.713   4.583
 4687SOL    HW214961   5.044   6.766   4.452
 4688SOL     OW14962   0.220   1.874   0.635
 4688SOL    HW114963   0.292   1.851   0.570
 4688SOL    HW214964   0.167   1.952   0.599
 4689SOL     OW14965   1.789   5.050   4.758
 4689SOL    HW114966   1.823   4.956   4.759
 4689SOL    HW214967   1.708   5.055   4.700
 4690SOL     OW14968   1.547   1.325   0.689
 4690SOL    HW114969   1.610   1.269   0.636
 4690SOL    HW214970   1.593   1.410   0.717
 4691SOL     OW14971   3.810   4.585   0.247
 4691SOL    HW114972   3.849   4.494   0.235
 4691SOL    HW214973   3.773   4.617   0.159
 4692SOL     OW14974   0.651   5.614   3.549
 4692SOL    HW114975   0.558   5.596   3.581
 4692SOL    HW214976   0.655   5.607   3.450
 4693SOL     OW14977   0.843   0.407   2.887
 4693SOL    HW114978   0.781   0.356   2.828
 4693SOL    HW214979   0.852   0.361   2.975
 4694SOL     OW14980   1.498   0.962   5.723
 4694SOL    HW114981   1.574   0.936   5.663
 4694SOL    HW214982   1.467   1.054   5.701
 4695SOL     OW14983   3.151   2.957   2.608
 4695SOL    HW114984   3.144   2.869   2.655
 4695SOL    HW214985   3.082   3.019   2.644
 4696SOL     OW14986   6.151   3.326   0.481
 4696SOL    HW114987   6.199   3.395   0.535
 4696SOL    HW214988   6.112   3.368   0.399
 4697SOL     OW14989   1.284   5.869   6.866
 4697SOL    HW114990   1.324   5.778   6.877
 4697SOL    HW214991   1.314   5.928   6.941
 4698SOL     OW14992   6.197   2.921   2.397
 4698SOL    HW114993   6.138   2.989   2.441
 4698SOL    HW214994   6.283   2.965   2.371
 4699SOL     OW14995   6.709   6.631   2.938
 4699SOL    HW114996   6.723   6.593   2.846
 4699SOL    HW214997   6.781   6.696   2.958
 4700SOL     OW14998   5.408   6.655   0.036
 4700SOL    HW114999   5.465   6.602   0.098
 4700SOL    HW215000   5.380   6.598   6.982
 4701SOL     OW15001   0.854   0.511   7.015
 4701SOL    HW115002   0.920   0.532   6.943
 4701SOL    HW215003   0.794   0.590   0.006
 4702SOL     OW15004   2.727   3.732   0.318
 4702SOL    HW115005   2.700   3.816   0.272
 4702SOL    HW215006   2.670   3.718   0.399
 4703SOL     OW15007   0.844   0.885   1.984
 4703SOL    HW115008   0.828   0.873   1.886
 4703SOL    HW215009   0.803   0.971   2.014
 4704SOL     OW15010   4.591   0.143   0.029
 4704SOL    HW115011   4.644   0.185   0.103
 4704SOL    HW215012   4.495   0.170   0.037
 4705SOL     OW15013   3.366   4.086   4.363
 4705SOL    HW115014   3.423   4.090   4.444
 4705SOL    HW215015   3.353   3.991   4.335
 4706SOL     OW15016   5.131   4.816   0.602
 4706SOL    HW115017   5.136   4.834   0.700
 4706SOL    HW215018   5.155   4.720   0.585
 4707SOL     OW15019   3.058   5.632   1.105
 4707SOL    HW115020   3.033   5.655   1.199
 4707SOL    HW215021   3.118   5.703   1.068
 4708SOL     OW15022   1.848   3.067   2.470
 4708SOL    HW115023   1.859   3.153   2.420
 4708SOL    HW215024   1.760   3.067   2.518
 4709SOL     OW15025   2.471   4.453   0.417
 4709SOL    HW115026   2.475   4.354   0.425
 4709SOL    HW215027   2.554   4.493   0.456
 4710SOL     OW15028   4.743   3.241   1.430
 4710SOL    HW115029   4.646   3.255   1.410
 4710SOL    HW215030   4.788   3.329   1.443
 4711SOL     OW15031   2.858   0.034   3.002
 4711SOL    HW115032   2.894   7.000   3.077
 4711SOL    HW215033   2.805   7.000   2.940
 4712SOL     OW15034   1.666   4.286   6.547
 4712SOL    HW115035   1.727   4.212   6.576
 4712SOL    HW215036   1.634   4.269   6.454
 4713SOL     OW15037   1.672   5.503   1.008
 4713SOL    HW115038   1.610   5.574   1.043
 4713SOL    HW215039   1.694   5.439   1.082
 4714SOL     OW15040   3.856   2.130   0.916
 4714SOL    HW115041   3.800   2.050   0.938
 4714SOL    HW215042   3.836   2.159   0.822
 4715SOL     OW15043   4.908   3.825   4.864
 4715SOL    HW115044   4.952   3.894   4.921
 4715SOL    HW215045   4.882   3.746   4.920
 4716SOL     OW15046   2.376   5.123   6.944
 4716SOL    HW115047   2.448   5.123   6.875
 4716SOL    HW215048   2.323   5.039   6.937
 4717SOL     OW15049   1.947   5.222   4.120
 4717SOL    HW115050   2.036   5.259   4.146
 4717SOL    HW215051   1.932   5.135   4.165
 4718SOL     OW15052   5.376   1.221   0.191
 4718SOL    HW115053   5.386   1.230   0.092
 4718SOL    HW215054   5.302   1.280   0.222
 4719SOL     OW15055   4.606   2.967   1.623
 4719SOL    HW115056   4.666   3.004   1.551
 4719SOL    HW215057   4.619   3.020   1.707
 4720SOL     OW15058   3.097   0.883   3.800
 4720SOL    HW115059   3.097   0.853   3.705
 4720SOL    HW215060   3.005   0.915   3.825
 4721SOL     OW15061   1.377   1.719   1.090
 4721SOL    HW115062   1.456   1.696   1.146
 4721SOL    HW215063   1.293   1.691   1.138
 4722SOL     OW15064   3.371   0.539   2.484
 4722SOL    HW115065   3.442   0.585   2.538
 4722SOL    HW215066   3.390   0.441   2.481
 4723SOL     OW15067   3.104   0.269   5.408
 4723SOL    HW115068   3.183   0.329   5.422
 4723SOL    HW215069   3.076   0.273   5.312
 4724SOL     OW15070   4.694   4.619   1.398
 4724SOL    HW115071   4.781   4.644   1.441
 4724SOL    HW215072   4.692   4.520   1.382
 4725SOL     OW15073   5.832   5.182   2.997
 4725SOL    HW115074   5.791   5.243   3.064
 4725SOL    HW215075   5.859   5.234   2.916
 4726SOL     OW15076   0.087   6.260   4.995
 4726SOL    HW115077   0.154   6.335   4.998
 4726SOL    HW215078   0.087   6.211   5.082
 4727SOL     OW15079   6.518   6.475   1.050
 4727SOL    HW115080   6.567   6.434   0.973
 4727SOL    HW215081   6.541   6.571   1.057
 4728SOL     OW15082   6.783   1.041   7.002
 4728SOL    HW115083   6.729   1.018   0.060
 4728SOL    HW215084   6.872   1.076   0.007
 4729SOL     OW15085   2.860   0.943   0.636
 4729SOL    HW115086   2.871   0.964   0.539
 4729SOL    HW215087   2.775   0.893   0.650
 4730SOL     OW15088   1.945   0.811   5.511
 4730SOL    HW115089   2.005   0.851   5.580
 4730SOL    HW215090   1.999   0.787   5.430
 4731SOL     OW15091   4.976   2.132   6.949
 4731SOL    HW115092   4.992   2.057   6.885
 4731SOL    HW215093   4.878   2.137   6.971
 4732SOL     OW15094   0.033   1.184   0.073
 4732SOL    HW115095   0.085   1.260   0.035
 4732SOL    HW215096   0.007   1.203   0.167
 4733SOL     OW15097   7.001   3.353   3.641
 4733SOL    HW115098   6.989   3.367   3.739
 4733SOL    HW215099   0.068   3.387   3.613
 4734SOL     OW15100   5.335   4.706   5.681
 4734SOL    HW115101   5.269   4.780   5.668
 4734SOL    HW215102   5.428   4.742   5.667
 4735SOL     OW15103   0.496   4.040   3.960
 4735SOL    HW115104   0.535   4.032   4.051
 4735SOL    HW215105   0.518   3.957   3.907
 4736SOL     OW15106   2.031   0.088   1.301
 4736SOL    HW115107   1.940   0.104   1.263
 4736SOL    HW215108   2.093   0.062   1.227
 4737SOL     OW15109   3.464   5.051   1.819
 4737SOL    HW115110   3.444   5.143   1.786
 4737SOL    HW215111   3.382   5.011   1.859
 4738SOL     OW15112   0.144   6.360   2.916
 4738SOL    HW115113   0.056   6.336   2.875
 4738SOL    HW215114   0.136   6.359   3.016
 4739SOL     OW15115   4.310   6.931   1.624
 4739SOL    HW115116   4.260   6.848   1.648
 4739SOL    HW215117   4.259   6.981   1.554
 4740SOL     OW15118   0.629   2.176   3.669
 4740SOL    HW115119   0.683   2.258   3.689
 4740SOL    HW215120   0.673   2.096   3.709
 4741SOL     OW15121   3.783   3.559   1.694
 4741SOL    HW115122   3.728   3.509   1.761
 4741SOL    HW215123   3.880   3.541   1.711
 4742SOL     OW15124   4.275   1.036   0.665
 4742SOL    HW115125   4.361   1.034   0.614
 4742SOL    HW215126   4.201   1.067   0.605
 4743SOL     OW15127   1.693   6.229   0.881
 4743SOL    HW115128   1.685   6.144   0.830
 4743SOL    HW215129   1.638   6.300   0.836
 4744SOL     OW15130   1.881   5.653   1.716
 4744SOL    HW115131   1.860   5.642   1.813
 4744SOL    HW215132   1.830   5.586   1.663
 4745SOL     OW15133   1.993   3.506   0.322
 4745SOL    HW115134   2.062   3.444   0.284
 4745SOL    HW215135   1.919   3.517   0.256
 4746SOL     OW15136   5.057   5.554   4.121
 4746SOL    HW115137   5.111   5.549   4.205
 4746SOL    HW215138   5.098   5.496   4.051
 4747SOL     OW15139   3.238   0.582   6.595
 4747SOL    HW115140   3.169   0.509   6.595
 4747SOL    HW215141   3.328   0.541   6.579
 4748SOL     OW15142   1.988   0.228   1.971
 4748SOL    HW115143   2.043   0.202   1.891
 4748SOL    HW215144   2.017   0.319   2.003
 4749SOL     OW15145   2.064   1.821   0.900
 4749SOL    HW115146   2.089   1.735   0.855
 4749SOL    HW215147   2.128   1.839   0.974
 4750SOL     OW15148   4.533   3.394   6.075
 4750SOL    HW115149   4.498   3.329   6.143
 4750SOL    HW215150   4.459   3.456   6.048
 4751SOL     OW15151   4.752   1.480   2.630
 4751SOL    HW115152   4.822   1.503   2.562
 4751SOL    HW215153   4.676   1.544   2.622
 4752SOL     OW15154   5.968   1.903   0.011
 4752SOL    HW115155   5.966   1.951   6.946
 4752SOL    HW215156   5.920   1.958   0.080
 4753SOL     OW15157   2.647   6.147   5.128
 4753SOL    HW115158   2.668   6.148   5.030
 4753SOL    HW215159   2.715   6.202   5.177
 4754SOL     OW15160   4.891   4.203   0.179
 4754SOL    HW115161   4.898   4.223   0.081
 4754SOL    HW215162   4.918   4.109   0.196
 4755SOL     OW15163   0.748   1.618   0.823
 4755SOL    HW115164   0.679   1.615   0.895
 4755SOL    HW215165   0.804   1.700   0.833
 4756SOL     OW15166   6.833   4.135   5.604
 4756SOL    HW115167   6.792   4.044   5.600
 4756SOL    HW215168   6.914   4.137   5.545
 4757SOL     OW15169   2.378   3.509   0.273
 4757SOL    HW115170   2.301   3.493   0.211
 4757SOL    HW215171   2.445   3.436   0.262
 4758SOL     OW15172   2.450   5.339   3.416
 4758SOL    HW115173   2.355   5.332   3.446
 4758SOL    HW215174   2.480   5.434   3.422
 4759SOL     OW15175   0.692   6.268   2.577
 4759SOL    HW115176   0.725   6.354   2.538
 4759SOL    HW215177   0.755   6.239   2.649
 4760SOL     OW15178   1.816   6.200   1.118
 4760SOL    HW115179   1.747   6.151   1.171
 4760SOL    HW215180   1.780   6.218   1.026
 4761SOL     OW15181   4.881   6.531   1.626
 4761SOL    HW115182   4.868   6.432   1.630
 4761SOL    HW215183   4.799   6.577   1.659
 4762SOL     OW15184   1.818   0.602   2.935
 4762SOL    HW115185   1.753   0.640   2.868
 4762SOL    HW215186   1.808   0.503   2.938
 4763SOL     OW15187   5.338   5.548   2.048
 4763SOL    HW115188   5.424   5.530   1.999
 4763SOL    HW215189   5.302   5.462   2.085
 4764SOL     OW15190   4.844   3.320   6.946
 4764SOL    HW115191   4.931   3.366   6.963
 4764SOL    HW215192   4.770   3.372   6.989
 4765SOL     OW15193   3.827   2.175   5.913
 4765SOL    HW115194   3.789   2.089   5.878
 4765SOL    HW215195   3.911   2.198   5.864
 4766SOL     OW15196   1.114   1.026   4.471
 4766SOL    HW115197   1.092   0.931   4.448
 4766SOL    HW215198   1.030   1.075   4.492
 4767SOL     OW15199   1.958   4.889   3.567
 4767SOL    HW115200   1.985   4.867   3.473
 4767SOL    HW215201   2.001   4.975   3.594
 4768SOL     OW15202   4.797   2.406   6.037
 4768SOL    HW115203   4.885   2.388   6.080
 4768SOL    HW215204   4.749   2.479   6.088
 4769SOL     OW15205   1.568   3.182   0.667
 4769SOL    HW115206   1.623   3.146   0.592
 4769SOL    HW215207   1.589   3.131   0.751
 4770SOL     OW15208   6.617   1.566   3.457
 4770SOL    HW115209   6.610   1.508   3.376
 4770SOL    HW215210   6.574   1.521   3.535
 4771SOL     OW15211   1.890   0.268   3.931
 4771SOL    HW115212   1.981   0.285   3.970
 4771SOL    HW215213   1.862   0.345   3.875
 4772SOL     OW15214   2.854   5.143   3.015
 4772SOL    HW115215   2.848   5.136   3.115
 4772SOL    HW215216   2.869   5.052   2.976
 4773SOL     OW15217   3.112   4.938   5.015
 4773SOL    HW115218   3.190   4.890   4.975
 4773SOL    HW215219   3.133   5.035   5.022
 4774SOL     OW15220   0.998   4.246   0.598
 4774SOL    HW115221   0.958   4.204   0.517
 4774SOL    HW215222   1.095   4.267   0.580
 4775SOL     OW15223   5.688   5.174   5.198
 4775SOL    HW115224   5.667   5.160   5.102
 4775SOL    HW215225   5.784   5.200   5.208
 4776SOL     OW15226   0.306   1.822   4.966
 4776SOL    HW115227   0.370   1.747   4.980
 4776SOL    HW215228   0.214   1.786   4.953
 4777SOL     OW15229   1.577   6.794   3.135
 4777SOL    HW115230   1.605   6.774   3.229
 4777SOL    HW215231   1.501   6.734   3.109
 4778SOL     OW15232   1.930   0.375   0.024
 4778SOL    HW115233   1.993   0.390   0.100
 4778SOL    HW215234   1.952   0.439   6.973
 4779SOL     OW15235   4.911   0.956   4.698
 4779SOL    HW115236   4.881   1.031   4.639
 4779SOL    HW215237   4.976   0.991   4.765
 4780SOL     OW15238   4.923   3.217   4.554
 4780SOL    HW115239   4.940   3.274   4.634
 4780SOL    HW215240   4.880   3.273   4.482
 4781SOL     OW15241   1.301   5.280   1.964
 4781SOL    HW115242   1.281   5.185   1.942
 4781SOL    HW215243   1.288   5.337   1.882
 4782SOL     OW15244   0.866   6.065   3.658
 4782SOL    HW115245   0.848   6.090   3.753
 4782SOL    HW215246   0.801   5.995   3.629
 4783SOL     OW15247   0.545   3.229   6.339
 4783SOL    HW115248   0.453   3.262   6.320
 4783SOL    HW215249   0.542   3.131   6.356
 4784SOL     OW15250   5.433   3.390   0.052
 4784SOL    HW115251   5.353   3.374   0.110
 4784SOL    HW215252   5.500   3.445   0.102
 4785SOL     OW15253   0.778   0.068   4.140
 4785SOL    HW115254   0.844   0.022   4.080
 4785SOL    HW215255   0.743   0.003   4.208
 4786SOL     OW15256   1.078   5.596   0.083
 4786SOL    HW115257   1.039   5.687   0.081
 4786SOL    HW215258   1.102   5.571   0.177
 4787SOL     OW15259   5.064   1.317   4.694
 4787SOL    HW115260   5.102   1.352   4.780
 4787SOL    HW215261   4.969   1.346   4.686
 4788SOL     OW15262   6.641   5.843   1.035
 4788SOL    HW115263   6.660   5.839   1.133
 4788SOL    HW215264   6.683   5.764   0.990
 4789SOL     OW15265   6.172   0.453   2.982
 4789SOL    HW115266   6.233   0.461   3.061
 4789SOL    HW215267   6.130   0.363   2.981
 4790SOL     OW15268   6.964   2.290   4.467
 4790SOL    HW115269   6.893   2.253   4.408
 4790SOL    HW215270   7.020   2.215   4.503
 4791SOL     OW15271   0.688   0.106   0.053
 4791SOL    HW115272   0.655   0.063   0.137
 4791SOL    HW215273   0.638   0.068   6.998
 4792SOL     OW15274   1.029   3.906   2.135
 4792SOL    HW115275   1.102   3.910   2.203
 4792SOL    HW215276   1.058   3.849   2.058
 4793SOL     OW15277   0.856   3.913   5.046
 4793SOL    HW115278   0.760   3.905   5.073
 4793SOL    HW215279   0.861   3.964   4.960
 4794SOL     OW15280   5.134   1.895   5.586
 4794SOL    HW115281   5.070   1.817   5.584
 4794SOL    HW215282   5.088   1.976   5.549
 4795SOL     OW15283   0.090   1.080   6.505
 4795SOL    HW115284   0.112   1.171   6.470
 4795SOL    HW215285   0.098   1.079   6.604
 4796SOL     OW15286   4.915   1.263   5.492
 4796SOL    HW115287   4.942   1.314   5.411
 4796SOL    HW215288   4.838   1.203   5.469
 4797SOL     OW15289   2.350   5.100   5.764
 4797SOL    HW115290   2.441   5.098   5.721
 4797SOL    HW215291   2.339   5.186   5.814
 4798SOL     OW15292   2.976   6.025   0.136
 4798SOL    HW115293   2.933   5.999   0.050
 4798SOL    HW215294   3.040   6.101   0.119
 4799SOL     OW15295   3.629   3.000   0.424
 4799SOL    HW115296   3.688   3.072   0.387
 4799SOL    HW215297   3.621   3.011   0.523
 4800SOL     OW15298   0.917   4.698   0.269
 4800SOL    HW115299   0.923   4.601   0.246
 4800SOL    HW215300   0.846   4.741   0.213
 4801SOL     OW15301   4.915   2.238   3.324
 4801SOL    HW115302   4.888   2.190   3.241
 4801SOL    HW215303   4.981   2.309   3.302
 4802SOL     OW15304   6.905   0.656   4.746
 4802SOL    HW115305   6.857   0.723   4.802
 4802SOL    HW215306   6.877   0.564   4.772
 4803SOL     OW15307   4.956   4.001   5.607
 4803SOL    HW115308   4.922   3.928   5.548
 4803SOL    HW215309   4.979   4.081   5.551
 4804SOL     OW15310   5.223   2.285   0.545
 4804SOL    HW115311   5.129   2.317   0.531
 4804SOL    HW215312   5.270   2.281   0.457
 4805SOL     OW15313   5.368   1.792   6.895
 4805SOL    HW115314   5.411   1.710   6.933
 4805SOL    HW215315   5.429   1.870   6.907
 4806SOL     OW15316   1.035   1.992   3.108
 4806SOL    HW115317   0.965   2.059   3.134
 4806SOL    HW215318   1.076   2.019   3.021
 4807SOL     OW15319   6.893   4.305   6.711
 4807SOL    HW115320   6.931   4.220   6.675
 4807SOL    HW215321   6.812   4.284   6.767
 4808SOL     OW15322   3.665   6.059   2.289
 4808SOL    HW115323   3.689   6.125   2.360
 4808SOL    HW215324   3.722   5.977   2.299
 4809SOL     OW15325   3.142   3.512   1.708
 4809SOL    HW115326   3.082   3.515   1.628
 4809SOL    HW215327   3.088   3.525   1.791
 4810SOL     OW15328   1.870   5.158   4.432
 4810SOL    HW115329   1.921   5.140   4.516
 4810SOL    HW215330   1.861   5.074   4.379
 4811SOL     OW15331   3.541   3.157   4.499
 4811SOL    HW115332   3.639   3.153   4.516
 4811SOL    HW215333   3.491   3.126   4.580
 4812SOL     OW15334   1.975   6.517   2.396
 4812SOL    HW115335   1.916   6.500   2.317
 4812SOL    HW215336   2.037   6.439   2.408
 4813SOL     OW15337   0.729   2.595   4.929
 4813SOL    HW115338   0.660   2.614   4.858
 4813SOL    HW215339   0.818   2.629   4.897
 4814SOL     OW15340   6.347   2.837   0.811
 4814SOL    HW115341   6.280   2.899   0.769
 4814SOL    HW215342   6.299   2.765   0.861
 4815SOL     OW15343   5.897   4.133   2.229
 4815SOL    HW115344   5.927   4.074   2.154
 4815SOL    HW215345   5.847   4.079   2.297
 4816SOL     OW15346   2.875   0.329   2.468
 4816SOL    HW115347   2.847   0.387   2.391
 4816SOL    HW215348   2.867   0.233   2.442
 4817SOL     OW15349   4.314   2.404   0.689
 4817SOL    HW115350   4.374   2.434   0.615
 4817SOL    HW215351   4.339   2.451   0.774
 4818SOL     OW15352   4.587   6.530   4.351
 4818SOL    HW115353   4.577   6.437   4.315
 4818SOL    HW215354   4.549   6.534   4.443
 4819SOL     OW15355   3.043   1.164   0.030
 4819SOL    HW115356   2.976   1.235   0.056
 4819SOL    HW215357   2.994   1.082   0.003
 4820SOL     OW15358   6.742   3.996   1.602
 4820SOL    HW115359   6.656   3.960   1.639
 4820SOL    HW215360   6.785   3.926   1.545
 4821SOL     OW15361   6.925   5.808   1.800
 4821SOL    HW115362   6.934   5.877   1.728
 4821SOL    HW215363   7.000   5.817   1.865
 4822SOL     OW15364   0.644   3.407   1.252
 4822SOL    HW115365   0.638   3.462   1.335
 4822SOL    HW215366   0.552   3.375   1.226
 4823SOL     OW15367   0.649   1.278   3.240
 4823SOL    HW115368   0.566   1.334   3.232
 4823SOL    HW215369   0.717   1.327   3.296
 4824SOL     OW15370   5.639   1.818   2.460
 4824SOL    HW115371   5.629   1.725   2.497
 4824SOL    HW215372   5.651   1.813   2.361
 4825SOL     OW15373   1.168   3.475   3.939
 4825SOL    HW115374   1.232   3.534   3.890
 4825SOL    HW215375   1.219   3.400   3.982
 4826SOL     OW15376   6.740   6.802   0.100
 4826SOL    HW115377   6.761   6.720   0.047
 4826SOL    HW215378   6.825   6.843   0.134
 4827SOL     OW15379   4.985   1.987   6.713
 4827SOL    HW115380   4.975   1.890   6.689
 4827SOL    HW215381   4.904   2.037   6.684
 4828SOL     OW15382   5.409   3.537   6.541
 4828SOL    HW115383   5.380   3.598   6.615
 4828SOL    HW215384   5.434   3.448   6.578
 4829SOL     OW15385   3.611   0.433   5.274
 4829SOL    HW115386   3.586   0.348   5.320
 4829SOL    HW215387   3.568   0.436   5.184
 4830SOL     OW15388   4.538   5.498   4.690
 4830SOL    HW115389   4.623   5.486   4.639
 4830SOL    HW215390   4.533   5.591   4.726
 4831SOL     OW15391   6.074   2.433   6.914
 4831SOL    HW115392   6.097   2.530   6.926
 4831SOL    HW215393   6.043   2.417   6.821
 4832SOL     OW15394   2.021   2.454   6.159
 4832SOL    HW115395   2.103   2.511   6.164
 4832SOL    HW215396   1.981   2.463   6.068
 4833SOL     OW15397   6.155   1.607   3.471
 4833SOL    HW115398   6.218   1.654   3.409
 4833SOL    HW215399   6.103   1.539   3.420
 4834SOL     OW15400   5.999   0.406   3.486
 4834SOL    HW115401   6.087   0.453   3.494
 4834SOL    HW215402   5.985   0.347   3.566
 4835SOL     OW15403   1.908   1.494   6.115
 4835SOL    HW115404   2.000   1.490   6.077
 4835SOL    HW215405   1.862   1.406   6.100
 4836SOL     OW15406   5.701   3.309   2.320
 4836SOL    HW115407   5.748   3.329   2.235
 4836SOL    HW215408   5.712   3.385   2.384
 4837SOL     OW15409   0.670   4.450   0.748
 4837SOL    HW115410   0.610   4.516   0.704
 4837SOL    HW215411   0.650   4.358   0.713
 4838SOL     OW15412   2.704   5.682   2.647
 4838SOL    HW115413   2.803   5.694   2.634
 4838SOL    HW215414   2.684   5.683   2.745
 4839SOL     OW15415   0.635   6.845   6.491
 4839SOL    HW115416   0.720   6.800   6.519
 4839SOL    HW215417   0.642   6.943   6.509
 4840SOL     OW15418   6.429   6.215   5.821
 4840SOL    HW115419   6.386   6.169   5.899
 4840SOL    HW215420   6.433   6.152   5.743
 4841SOL     OW15421   1.940   5.760   1.271
 4841SOL    HW115422   1.964   5.668   1.242
 4841SOL    HW215423   1.944   5.767   1.370
 4842SOL     OW15424   3.411   6.632   1.352
 4842SOL    HW115425   3.476   6.610   1.424
 4842SOL    HW215426   3.457   6.684   1.280
 4843SOL     OW15427   1.452   3.599   6.942
 4843SOL    HW115428   1.390   3.537   6.991
 4843SOL    HW215429   1.450   3.689   6.985
 4844SOL     OW15430   0.768   1.924   5.049
 4844SOL    HW115431   0.717   1.887   4.971
 4844SOL    HW215432   0.723   1.896   5.134
 4845SOL     OW15433   5.792   5.615   3.705
 4845SOL    HW115434   5.749   5.671   3.776
 4845SOL    HW215435   5.842   5.673   3.641
 4846SOL     OW15436   0.563   4.979   6.791
 4846SOL    HW115437   0.660   4.989   6.768
 4846SOL    HW215438   0.512   5.057   6.754
 4847SOL     OW15439   4.884   3.097   4.856
 4847SOL    HW115440   4.880   3.040   4.774
 4847SOL    HW215441   4.884   3.194   4.829
 4848SOL     OW15442   2.657   2.638   1.743
 4848SOL    HW115443   2.733   2.607   1.685
 4848SOL    HW215444   2.617   2.721   1.704
 4849SOL     OW15445   2.018   6.399   5.702
 4849SOL    HW115446   2.075   6.344   5.763
 4849SOL    HW215447   1.936   6.429   5.751
 4850SOL     OW15448   3.614   6.841   3.578
 4850SOL    HW115449   3.662   6.823   3.492
 4850SOL    HW215450   3.533   6.897   3.559
 4851SOL     OW15451   5.017   1.482   5.321
 4851SOL    HW115452   4.956   1.469   5.242
 4851SOL    HW215453   5.112   1.478   5.290
 4852SOL     OW15454   1.837   1.881   1.821
 4852SOL    HW115455   1.809   1.926   1.906
 4852SOL    HW215456   1.787   1.795   1.810
 4853SOL     OW15457   3.532   1.918   1.642
 4853SOL    HW115458   3.455   1.943   1.700
 4853SOL    HW215459   3.610   1.977   1.664
 4854SOL     OW15460   3.576   0.256   6.748
 4854SOL    HW115461   3.493   0.209   6.780
 4854SOL    HW215462   3.630   0.284   6.827
 4855SOL     OW15463   6.701   3.016   2.765
 4855SOL    HW115464   6.602   3.022   2.775
 4855SOL    HW215465   6.744   3.090   2.819
 4856SOL     OW15466   0.904   4.280   2.414
 4856SOL    HW115467   0.888   4.199   2.358
 4856SOL    HW215468   0.947   4.252   2.500
 4857SOL     OW15469   0.452   1.037   5.653
 4857SOL    HW115470   0.480   0.974   5.725
 4857SOL    HW215471   0.383   1.100   5.689
 4858SOL     OW15472   1.510   0.863   4.060
 4858SOL    HW115473   1.461   0.854   4.147
 4858SOL    HW215474   1.607   0.845   4.075
 4859SOL     OW15475   3.720   5.886   6.124
 4859SOL    HW115476   3.777   5.966   6.145
 4859SOL    HW215477   3.726   5.820   6.200
 4860SOL     OW15478   3.581   4.179   0.649
 4860SOL    HW115479   3.550   4.150   0.558
 4860SOL    HW215480   3.636   4.261   0.642
 4861SOL     OW15481   4.471   4.053   6.201
 4861SOL    HW115482   4.400   3.999   6.155
 4861SOL    HW215483   4.428   4.127   6.254
 4862SOL     OW15484   0.396   0.095   0.605
 4862SOL    HW115485   0.341   0.055   0.679
 4862SOL    HW215486   0.392   0.194   0.612
 4863SOL     OW15487   5.231   4.648   6.364
 4863SOL    HW115488   5.190   4.669   6.275
 4863SOL    HW215489   5.216   4.552   6.386
 4864SOL     OW15490   3.617   1.334   4.165
 4864SOL    HW115491   3.588   1.239   4.159
 4864SOL    HW215492   3.657   1.363   4.078
 4865SOL     OW15493   1.680   0.116   5.192
 4865SOL    HW115494   1.650   0.061   5.270
 4865SOL    HW215495   1.746   0.063   5.138
 4866SOL     OW15496   6.670   4.239   6.295
 4866SOL    HW115497   6.670   4.221   6.197
 4866SOL    HW215498   6.590   4.295   6.318
 4867SOL     OW15499   4.479   1.334   2.951
 4867SOL    HW115500   4.508   1.342   3.046
 4867SOL    HW215501   4.428   1.248   2.939
 4868SOL     OW15502   6.803   4.457   0.439
 4868SOL    HW115503   6.801   4.551   0.406
 4868SOL    HW215504   6.868   4.449   0.515
 4869SOL     OW15505   0.963   1.813   0.885
 4869SOL    HW115506   0.907   1.887   0.846
 4869SOL    HW215507   1.037   1.791   0.822
 4870SOL     OW15508   0.121   7.021   1.154
 4870SOL    HW115509   0.081   6.933   1.179
 4870SOL    HW215510   0.159   7.016   1.062
 4871SOL     OW15511   0.896   1.553   3.126
 4871SOL    HW115512   0.899   1.647   3.159
 4871SOL    HW215513   0.961   1.498   3.178
 4872SOL     OW15514   5.558   6.485   2.847
 4872SOL    HW115515   5.629   6.555   2.853
 4872SOL    HW215516   5.548   6.456   2.752
 4873SOL     OW15517   6.898   5.522   4.668
 4873SOL    HW115518   6.881   5.451   4.600
 4873SOL    HW215519   6.990   5.559   4.656
 4874SOL     OW15520   4.829   2.977   3.146
 4874SOL    HW115521   4.772   2.916   3.201
 4874SOL    HW215522   4.806   2.966   3.049
 4875SOL     OW15523   5.815   6.362   5.116
 4875SOL    HW115524   5.782   6.269   5.132
 4875SOL    HW215525   5.738   6.427   5.126
 4876SOL     OW15526   0.137   1.241   1.975
 4876SOL    HW115527   0.154   1.187   2.057
 4876SOL    HW215528   0.135   1.338   1.999
 4877SOL     OW15529   6.688   1.482   6.276
 4877SOL    HW115530   6.620   1.433   6.330
 4877SOL    HW215531   6.704   1.572   6.317
 4878SOL     OW15532   6.478   3.479   2.400
 4878SOL    HW115533   6.444   3.549   2.337
 4878SOL    HW215534   6.555   3.431   2.358
 4879SOL     OW15535   5.297   0.794   3.217
 4879SOL    HW115536   5.253   0.883   3.226
 4879SOL    HW215537   5.234   0.730   3.172
 4880SOL     OW15538   7.021   2.993   6.256
 4880SOL    HW115539   6.924   3.014   6.240
 4880SOL    HW215540   0.011   2.894   6.254
 4881SOL     OW15541   1.512   2.937   1.700
 4881SOL    HW115542   1.549   2.923   1.792
 4881SOL    HW215543   1.422   2.893   1.694
 4882SOL     OW15544   4.705   2.122   4.336
 4882SOL    HW115545   4.787   2.068   4.316
 4882SOL    HW215546   4.731   2.208   4.380
 4883SOL     OW15547   6.106   4.467   0.442
 4883SOL    HW115548   6.069   4.382   0.480
 4883SOL    HW215549   6.173   4.446   0.372
 4884SOL     OW15550   1.823   1.092   1.569
 4884SOL    HW115551   1.796   1.170   1.512
 4884SOL    HW215552   1.922   1.084   1.569
 4885SOL     OW15553   1.303   4.926   0.163
 4885SOL    HW115554   1.396   4.889   0.169
 4885SOL    HW215555   1.286   4.958   0.070
 4886SOL     OW15556   3.073   0.343   2.166
 4886SOL    HW115557   3.144   0.357   2.097
 4886SOL    HW215558   3.071   0.421   2.229
 4887SOL     OW15559   4.541   6.133   0.315
 4887SOL    HW115560   4.459   6.077   0.306
 4887SOL    HW215561   4.613   6.097   0.255
 4888SOL     OW15562   4.534   0.526   3.263
 4888SOL    HW115563   4.597   0.558   3.334
 4888SOL    HW215564   4.455   0.586   3.258
 4889SOL     OW15565   6.513   3.109   3.728
 4889SOL    HW115566   6.455   3.097   3.809
 4889SOL    HW215567   6.601   3.148   3.756
 4890SOL     OW15568   6.773   1.631   4.917
 4890SOL    HW115569   6.802   1.594   4.828
 4890SOL    HW215570   6.739   1.724   4.904
 4891SOL     OW15571   2.637   5.697   0.252
 4891SOL    HW115572   2.693   5.617   0.273
 4891SOL    HW215573   2.544   5.668   0.229
 4892SOL     OW15574   5.460   5.010   2.930
 4892SOL    HW115575   5.431   4.915   2.933
 4892SOL    HW215576   5.558   5.015   2.909
 4893SOL     OW15577   1.540   3.124   0.953
 4893SOL    HW115578   1.558   3.153   1.047
 4893SOL    HW215579   1.452   3.161   0.924
 4894SOL     OW15580   4.903   5.877   1.289
 4894SOL    HW115581   4.816   5.831   1.310
 4894SOL    HW215582   4.915   5.881   1.189
 4895SOL     OW15583   0.363   3.978   5.296
 4895SOL    HW115584   0.373   4.077   5.298
 4895SOL    HW215585   0.315   3.947   5.379
 4896SOL     OW15586   2.838   5.140   4.969
 4896SOL    HW115587   2.851   5.043   4.990
 4896SOL    HW215588   2.907   5.194   5.018
 4897SOL     OW15589   1.830   1.032   5.206
 4897SOL    HW115590   1.848   1.094   5.130
 4897SOL    HW215591   1.810   0.941   5.170
 4898SOL     OW15592   5.078   1.846   3.946
 4898SOL    HW115593   5.141   1.880   3.876
 4898SOL    HW215594   5.118   1.767   3.992
 4899SOL     OW15595   6.317   6.529   2.130
 4899SOL    HW115596   6.261   6.498   2.054
 4899SOL    HW215597   6.334   6.628   2.120
 4900SOL     OW15598   3.874   6.119   6.124
 4900SOL    HW115599   3.881   6.215   6.152
 4900SOL    HW215600   3.927   6.105   6.040
 4901SOL     OW15601   1.512   0.561   6.898
 4901SOL    HW115602   1.422   0.602   6.915
 4901SOL    HW215603   1.583   0.630   6.913
 4902SOL     OW15604   2.772   0.389   5.301
 4902SOL    HW115605   2.715   0.427   5.375
 4902SOL    HW215606   2.753   0.291   5.292
 4903SOL     OW15607   5.245   3.642   3.158
 4903SOL    HW115608   5.187   3.715   3.194
 4903SOL    HW215609   5.205   3.553   3.182
 4904SOL     OW15610   1.922   0.544   1.474
 4904SOL    HW115611   1.908   0.643   1.464
 4904SOL    HW215612   1.834   0.498   1.478
 4905SOL     OW15613   2.382   0.200   2.858
 4905SOL    HW115614   2.341   0.279   2.903
 4905SOL    HW215615   2.443   0.153   2.922
 4906SOL     OW15616   5.412   3.675   4.979
 4906SOL    HW115617   5.351   3.651   4.903
 4906SOL    HW215618   5.389   3.619   5.059
 4907SOL     OW15619   3.931   2.494   0.141
 4907SOL    HW115620   3.832   2.489   0.152
 4907SOL    HW215621   3.972   2.528   0.226
 4908SOL     OW15622   3.479   6.804   6.333
 4908SOL    HW115623   3.472   6.861   6.414
 4908SOL    HW215624   3.569   6.815   6.291
 4909SOL     OW15625   4.830   5.209   4.171
 4909SOL    HW115626   4.817   5.152   4.252
 4909SOL    HW215627   4.756   5.190   4.106
 4910SOL     OW15628   4.037   2.238   6.881
 4910SOL    HW115629   3.973   2.302   6.840
 4910SOL    HW215630   4.077   2.278   6.963
 4911SOL     OW15631   6.519   4.278   2.749
 4911SOL    HW115632   6.436   4.232   2.717
 4911SOL    HW215633   6.562   4.327   2.673
 4912SOL     OW15634   5.684   2.801   4.505
 4912SOL    HW115635   5.607   2.838   4.454
 4912SOL    HW215636   5.735   2.738   4.448
 4913SOL     OW15637   0.565   3.827   4.729
 4913SOL    HW115638   0.622   3.886   4.673
 4913SOL    HW215639   0.469   3.850   4.716
 4914SOL     OW15640   3.788   6.725   4.173
 4914SOL    HW115641   3.751   6.640   4.135
 4914SOL    HW215642   3.870   6.751   4.122
 4915SOL     OW15643   4.009   5.604   5.278
 4915SOL    HW115644   3.942   5.660   5.327
 4915SOL    HW215645   3.974   5.511   5.268
 4916SOL     OW15646   5.281   1.965   3.809
 4916SOL    HW115647   5.224   2.046   3.822
 4916SOL    HW215648   5.354   1.985   3.744
 4917SOL     OW15649   4.072   6.740   6.577
 4917SOL    HW115650   4.024   6.826   6.593
 4917SOL    HW215651   4.137   6.752   6.502
 4918SOL     OW15652   5.657   5.051   3.789
 4918SOL    HW115653   5.581   5.051   3.853
 4918SOL    HW215654   5.626   5.020   3.699
 4919SOL     OW15655   3.504   3.615   2.304
 4919SOL    HW115656   3.581   3.661   2.259
 4919SOL    HW215657   3.531   3.522   2.330
 4920SOL     OW15658   5.997   1.460   6.333
 4920SOL    HW115659   5.914   1.514   6.315
 4920SOL    HW215660   6.037   1.431   6.246
 4921SOL     OW15661   6.878   6.533   1.670
 4921SOL    HW115662   6.824   6.452   1.696
 4921SOL    HW215663   6.828   6.616   1.694
 4922SOL     OW15664   4.229   2.052   5.934
 4922SOL    HW115665   4.194   2.119   5.999
 4922SOL    HW215666   4.245   1.965   5.980
 4923SOL     OW15667   3.694   1.677   1.565
 4923SOL    HW115668   3.749   1.636   1.638
 4923SOL    HW215669   3.646   1.757   1.600
 4924SOL     OW15670   2.201   0.838   5.331
 4924SOL    HW115671   2.233   0.746   5.312
 4924SOL    HW215672   2.226   0.898   5.254
 4925SOL     OW15673   4.850   5.539   3.474
 4925SOL    HW115674   4.926   5.504   3.419
 4925SOL    HW215675   4.887   5.589   3.552
 4926SOL     OW15676   5.746   3.070   1.830
 4926SOL    HW115677   5.649   3.079   1.808
 4926SOL    HW215678   5.759   2.992   1.891
 4927SOL     OW15679   2.651   1.800   7.007
 4927SOL    HW115680   2.741   1.806   6.963
 4927SOL    HW215681   2.633   1.705   0.011
 4928SOL     OW15682   6.930   1.830   0.453
 4928SOL    HW115683   6.967   1.798   0.540
 4928SOL    HW215684   6.995   1.808   0.380
 4929SOL     OW15685   0.111   0.431   4.817
 4929SOL    HW115686   0.066   0.520   4.805
 4929SOL    HW215687   0.171   0.414   4.739
 4930SOL     OW15688   4.922   5.549   2.813
 4930SOL    HW115689   4.889   5.623   2.871
 4930SOL    HW215690   4.850   5.480   2.802
 4931SOL     OW15691   6.545   0.221   1.186
 4931SOL    HW115692   6.485   0.286   1.234
 4931SOL    HW215693   6.573   0.149   1.250
 4932SOL     OW15694   3.415   3.306   2.766
 4932SOL    HW115695   3.392   3.298   2.863
 4932SOL    HW215696   3.464   3.393   2.751
 4933SOL     OW15697   1.171   0.701   5.400
 4933SOL    HW115698   1.140   0.678   5.307
 4933SOL    HW215699   1.097   0.685   5.465
 4934SOL     OW15700   3.340   6.740   2.908
 4934SOL    HW115701   3.282   6.737   2.989
 4934SOL    HW215702   3.294   6.793   2.836
 4935SOL     OW15703   0.415   1.077   5.127
 4935SOL    HW115704   0.388   1.125   5.210
 4935SOL    HW215705   0.348   1.004   5.108
 4936SOL     OW15706   4.917   2.262   0.920
 4936SOL    HW115707   4.827   2.305   0.932
 4936SOL    HW215708   4.907   2.162   0.928
 4937SOL     OW15709   4.215   2.898   5.424
 4937SOL    HW115710   4.137   2.854   5.378
 4937SOL    HW215711   4.183   2.981   5.470
 4938SOL     OW15712   3.813   4.220   6.806
 4938SOL    HW115713   3.784   4.124   6.805
 4938SOL    HW215714   3.912   4.225   6.818
 4939SOL     OW15715   4.403   4.250   6.394
 4939SOL    HW115716   4.349   4.297   6.463
 4939SOL    HW215717   4.463   4.316   6.348
 4940SOL     OW15718   2.329   5.712   3.917
 4940SOL    HW115719   2.389   5.787   3.947
 4940SOL    HW215720   2.381   5.626   3.918
 4941SOL     OW15721   5.742   0.445   0.994
 4941SOL    HW115722   5.703   0.430   1.085
 4941SOL    HW215723   5.828   0.496   1.003
 4942SOL     OW15724   4.686   2.678   5.979
 4942SOL    HW115725   4.672   2.668   5.881
 4942SOL    HW215726   4.720   2.770   5.999
 4943SOL     OW15727   5.651   2.833   1.224
 4943SOL    HW115728   5.686   2.876   1.141
 4943SOL    HW215729   5.664   2.895   1.301
 4944SOL     OW15730   2.094   3.642   2.161
 4944SOL    HW115731   2.147   3.565   2.126
 4944SOL    HW215732   2.154   3.704   2.212
 4945SOL     OW15733   6.963   6.050   4.103
 4945SOL    HW115734   6.950   6.016   4.196
 4945SOL    HW215735   0.038   6.046   4.079
 4946SOL     OW15736   0.032   3.749   1.947
 4946SOL    HW115737   0.005   3.814   2.018
 4946SOL    HW215738   0.130   3.756   1.931
 4947SOL     OW15739   6.302   0.737   0.960
 4947SOL    HW115740   6.305   0.649   1.008
 4947SOL    HW215741   6.390   0.753   0.915
 4948SOL     OW15742   2.340   1.569   2.467
 4948SOL    HW115743   2.325   1.537   2.561
 4948SOL    HW215744   2.265   1.628   2.440
 4949SOL     OW15745   5.267   2.545   4.649
 4949SOL    HW115746   5.335   2.490   4.599
 4949SOL    HW215747   5.295   2.641   4.649
 4950SOL     OW15748   3.438   4.958   5.093
 4950SOL    HW115749   3.476   5.004   5.012
 4950SOL    HW215750   3.448   5.019   5.172
 4951SOL     OW15751   4.256   1.581   4.430
 4951SOL    HW115752   4.314   1.660   4.409
 4951SOL    HW215753   4.165   1.613   4.457
 4952SOL     OW15754   6.551   4.591   4.246
 4952SOL    HW115755   6.534   4.689   4.248
 4952SOL    HW215756   6.572   4.559   4.338
 4953SOL     OW15757   1.170   4.543   2.061
 4953SOL    HW115758   1.248   4.541   2.124
 4953SOL    HW215759   1.085   4.528   2.113
 4954SOL     OW15760   6.222   6.470   0.295
 4954SOL    HW115761   6.171   6.459   0.380
 4954SOL    HW215762   6.314   6.432   0.306
 4955SOL     OW15763   1.923   0.813   1.421
 4955SOL    HW115764   1.984   0.889   1.442
 4955SOL    HW215765   1.839   0.849   1.380
 4956SOL     OW15766   6.291   6.519   3.477
 4956SOL    HW115767   6.205   6.549   3.435
 4956SOL    HW215768   6.338   6.457   3.414
 4957SOL     OW15769   1.874   5.727   3.687
 4957SOL    HW115770   1.913   5.747   3.776
 4957SOL    HW215771   1.852   5.813   3.640
 4958SOL     OW15772   6.809   6.598   6.973
 4958SOL    HW115773   6.894   6.551   6.997
 4958SOL    HW215774   6.759   6.544   6.906
 4959SOL     OW15775   0.561   1.794   0.094
 4959SOL    HW115776   0.603   1.784   0.004
 4959SOL    HW215777   0.561   1.706   0.142
 4960SOL     OW15778   4.285   0.025   5.702
 4960SOL    HW115779   4.328   6.958   5.695
 4960SOL    HW215780   4.317   0.071   5.785
 4961SOL     OW15781   5.271   0.677   5.499
 4961SOL    HW115782   5.189   0.709   5.547
 4961SOL    HW215783   5.345   0.665   5.566
 4962SOL     OW15784   0.077   2.513   2.509
 4962SOL    HW115785   0.080   2.539   2.605
 4962SOL    HW215786   0.152   2.557   2.460
 4963SOL     OW15787   6.791   4.801   1.260
 4963SOL    HW115788   6.834   4.873   1.316
 4963SOL    HW215789   6.851   4.721   1.258
 4964SOL     OW15790   3.870   6.630   3.543
 4964SOL    HW115791   3.878   6.686   3.460
 4964SOL    HW215792   3.922   6.545   3.531
 4965SOL     OW15793   0.086   6.112   4.486
 4965SOL    HW115794   0.105   6.162   4.570
 4965SOL    HW215795   0.164   6.052   4.464
 4966SOL     OW15796   4.173   5.290   4.549
 4966SOL    HW115797   4.150   5.367   4.608
 4966SOL    HW215798   4.221   5.220   4.602
 4967SOL     OW15799   5.964   2.008   6.611
 4967SOL    HW115800   6.043   1.956   6.643
 4967SOL    HW215801   5.914   2.045   6.689
 4968SOL     OW15802   5.348   4.148   6.912
 4968SOL    HW115803   5.337   4.240   6.873
 4968SOL    HW215804   5.440   4.114   6.890
 4969SOL     OW15805   1.602   1.657   1.240
 4969SOL    HW115806   1.681   1.640   1.181
 4969SOL    HW215807   1.630   1.715   1.316
 4970SOL     OW15808   1.914   2.757   5.642
 4970SOL    HW115809   1.929   2.834   5.704
 4970SOL    HW215810   1.818   2.731   5.643
 4971SOL     OW15811   6.730   5.464   3.900
 4971SOL    HW115812   6.687   5.387   3.852
 4971SOL    HW215813   6.775   5.430   3.983
 4972SOL     OW15814   1.646   2.084   5.132
 4972SOL    HW115815   1.723   2.021   5.119
 4972SOL    HW215816   1.623   2.126   5.045
 4973SOL     OW15817   5.641   5.558   2.979
 4973SOL    HW115818   5.594   5.477   2.944
 4973SOL    HW215819   5.719   5.579   2.920
 4974SOL     OW15820   4.050   6.426   6.869
 4974SOL    HW115821   3.956   6.392   6.856
 4974SOL    HW215822   4.049   6.526   6.869
 4975SOL     OW15823   3.878   6.608   0.344
 4975SOL    HW115824   3.957   6.547   0.347
 4975SOL    HW215825   3.907   6.700   0.372
 4976SOL     OW15826   2.857   0.826   4.336
 4976SOL    HW115827   2.787   0.823   4.264
 4976SOL    HW215828   2.924   0.896   4.314
 4977SOL     OW15829   3.393   2.556   0.663
 4977SOL    HW115830   3.476   2.604   0.636
 4977SOL    HW215831   3.353   2.511   0.583
 4978SOL     OW15832   5.941   4.262   6.362
 4978SOL    HW115833   5.919   4.176   6.316
 4978SOL    HW215834   6.027   4.251   6.413
 4979SOL     OW15835   1.867   2.062   4.283
 4979SOL    HW115836   1.854   2.146   4.230
 4979SOL    HW215837   1.826   2.072   4.374
 4980SOL     OW15838   2.114   4.693   2.873
 4980SOL    HW115839   2.047   4.752   2.828
 4980SOL    HW215840   2.091   4.597   2.855
 4981SOL     OW15841   4.975   6.157   5.297
 4981SOL    HW115842   5.071   6.180   5.314
 4981SOL    HW215843   4.969   6.065   5.258
 4982SOL     OW15844   2.705   2.340   6.858
 4982SOL    HW115845   2.715   2.327   6.759
 4982SOL    HW215846   2.691   2.251   6.902
 4983SOL     OW15847   6.399   3.188   4.863
 4983SOL    HW115848   6.303   3.200   4.887
 4983SOL    HW215849   6.454   3.181   4.946
 4984SOL     OW15850   5.090   3.855   3.240
 4984SOL    HW115851   5.052   3.945   3.220
 4984SOL    HW215852   5.027   3.804   3.299
 4985SOL     OW15853   5.952   3.938   2.050
 4985SOL    HW115854   5.925   3.849   2.012
 4985SOL    HW215855   6.013   3.924   2.128
 4986SOL     OW15856   4.560   4.595   3.030
 4986SOL    HW115857   4.511   4.663   3.085
 4986SOL    HW215858   4.522   4.593   2.938
 4987SOL     OW15859   0.643   3.250   0.525
 4987SOL    HW115860   0.689   3.174   0.573
 4987SOL    HW215861   0.646   3.234   0.427
 4988SOL     OW15862   1.854   1.945   5.061
 4988SOL    HW115863   1.903   1.864   5.094
 4988SOL    HW215864   1.920   2.010   5.023
 4989SOL     OW15865   6.882   1.192   0.928
 4989SOL    HW115866   6.809   1.258   0.947
 4989SOL    HW215867   6.969   1.241   0.921
 4990SOL     OW15868   1.555   2.297   6.331
 4990SOL    HW115869   1.638   2.301   6.277
 4990SOL    HW215870   1.525   2.390   6.355
 4991SOL     OW15871   2.890   1.901   5.339
 4991SOL    HW115872   2.792   1.909   5.321
 4991SOL    HW215873   2.938   1.980   5.301
 4992SOL     OW15874   4.819   6.615   4.648
 4992SOL    HW115875   4.722   6.635   4.634
 4992SOL    HW215876   4.836   6.598   4.745
 4993SOL     OW15877   1.694   6.142   4.470
 4993SOL    HW115878   1.624   6.115   4.403
 4993SOL    HW215879   1.785   6.130   4.429
 4994SOL     OW15880   0.506   6.662   3.014
 4994SOL    HW115881   0.577   6.706   2.959
 4994SOL    HW215882   0.440   6.617   2.954
 4995SOL     OW15883   5.655   2.950   5.305
 4995SOL    HW115884   5.578   2.904   5.348
 4995SOL    HW215885   5.650   3.048   5.324
 4996SOL     OW15886   0.593   1.554   3.422
 4996SOL    HW115887   0.650   1.477   3.450
 4996SOL    HW215888   0.622   1.586   3.331
 4997SOL     OW15889   0.246   2.526   3.868
 4997SOL    HW115890   0.148   2.505   3.872
 4997SOL    HW215891   0.296   2.445   3.836
 4998SOL     OW15892   0.790   5.567   5.557
 4998SOL    HW115893   0.835   5.487   5.596
 4998SOL    HW215894   0.795   5.643   5.621
 4999SOL     OW15895   6.087   4.267   0.901
 4999SOL    HW115896   6.163   4.331   0.913
 4999SOL    HW215897   6.083   4.206   0.980
 5000SOL     OW15898   6.918   5.121   4.239
 5000SOL    HW115899   6.873   5.069   4.167
 5000SOL    HW215900   6.929   5.063   4.320
 5001SOL     OW15901   5.165   4.323   5.640
 5001SOL    HW115902   5.178   4.226   5.619
 5001SOL    HW215903   5.072   4.350   5.617
 5002SOL     OW15904   1.846   2.504   1.487
 5002SOL    HW115905   1.817   2.468   1.575
 5002SOL    HW215906   1.869   2.601   1.495
 5003SOL     OW15907   6.783   4.962   4.028
 5003SOL    HW115908   6.710   4.982   3.963
 5003SOL    HW215909   6.870   4.958   3.979
 5004SOL     OW15910   2.245   4.680   5.974
 5004SOL    HW115911   2.231   4.619   5.896
 5004SOL    HW215912   2.235   4.775   5.945
 5005SOL     OW15913   4.761   1.891   0.433
 5005SOL    HW115914   4.793   1.833   0.507
 5005SOL    HW215915   4.839   1.933   0.387
 5006SOL     OW15916   5.390   4.503   2.534
 5006SOL    HW115917   5.377   4.502   2.435
 5006SOL    HW215918   5.450   4.428   2.560
 5007SOL     OW15919   4.626   1.410   5.158
 5007SOL    HW115920   4.724   1.420   5.178
 5007SOL    HW215921   4.614   1.369   5.068
 5008SOL     OW15922   6.450   0.783   3.546
 5008SOL    HW115923   6.520   0.737   3.601
 5008SOL    HW215924   6.484   0.873   3.518
 5009SOL     OW15925   1.940   5.972   1.973
 5009SOL    HW115926   1.978   6.018   2.053
 5009SOL    HW215927   1.877   6.034   1.926
 5010SOL     OW15928   3.485   3.442   5.908
 5010SOL    HW115929   3.510   3.375   5.977
 5010SOL    HW215930   3.388   3.466   5.918
 5011SOL     OW15931   1.416   2.043   3.710
 5011SOL    HW115932   1.470   2.073   3.632
 5011SOL    HW215933   1.467   2.060   3.794
 5012SOL     OW15934   5.984   3.340   6.999
 5012SOL    HW115935   5.979   3.437   6.977
 5012SOL    HW215936   5.978   3.286   6.915
 5013SOL     OW15937   4.627   2.264   5.527
 5013SOL    HW115938   4.579   2.340   5.571
 5013SOL    HW215939   4.720   2.292   5.503
 5014SOL     OW15940   6.854   5.811   6.683
 5014SOL    HW115941   6.808   5.729   6.719
 5014SOL    HW215942   6.951   5.792   6.672
 5015SOL     OW15943   5.613   1.831   3.137
 5015SOL    HW115944   5.626   1.873   3.047
 5015SOL    HW215945   5.532   1.870   3.181
 5016SOL     OW15946   2.835   6.111   2.013
 5016SOL    HW115947   2.777   6.060   2.077
 5016SOL    HW215948   2.884   6.046   1.954
 5017SOL     OW15949   1.123   2.127   1.856
 5017SOL    HW115950   1.084   2.053   1.911
 5017SOL    HW215951   1.222   2.113   1.848
 5018SOL     OW15952   6.717   4.745   3.665
 5018SOL    HW115953   6.811   4.746   3.698
 5018SOL    HW215954   6.654   4.749   3.743
 5019SOL     OW15955   2.269   5.382   5.498
 5019SOL    HW115956   2.238   5.418   5.410
 5019SOL    HW215957   2.343   5.316   5.483
 5020SOL     OW15958   4.266   5.379   6.700
 5020SOL    HW115959   4.338   5.318   6.733
 5020SOL    HW215960   4.184   5.367   6.756
 5021SOL     OW15961   2.271   4.505   5.740
 5021SOL    HW115962   2.233   4.414   5.726
 5021SOL    HW215963   2.350   4.518   5.680
 5022SOL     OW15964   2.470   3.833   0.531
 5022SOL    HW115965   2.436   3.822   0.437
 5022SOL    HW215966   2.548   3.773   0.545
 5023SOL     OW15967   0.434   3.111   4.625
 5023SOL    HW115968   0.479   3.113   4.715
 5023SOL    HW215969   0.335   3.106   4.637
 5024SOL     OW15970   4.864   3.684   5.479
 5024SOL    HW115971   4.771   3.651   5.494
 5024SOL    HW215972   4.929   3.626   5.528
 5025SOL     OW15973   6.006   0.919   4.236
 5025SOL    HW115974   6.070   0.979   4.188
 5025SOL    HW215975   6.035   0.909   4.331
 5026SOL     OW15976   0.974   5.545   3.010
 5026SOL    HW115977   0.999   5.521   3.104
 5026SOL    HW215978   1.051   5.591   2.965
 5027SOL     OW15979   1.146   6.003   3.617
 5027SOL    HW115980   1.048   6.014   3.598
 5027SOL    HW215981   1.195   5.990   3.530
 5028SOL     OW15982   1.075   6.532   2.943
 5028SOL    HW115983   1.157   6.583   2.915
 5028SOL    HW215984   1.028   6.583   3.015
 5029SOL     OW15985   6.743   0.972   3.752
 5029SOL    HW115986   6.684   1.052   3.740
 5029SOL    HW215987   6.832   0.990   3.712
 5030SOL     OW15988   1.312   6.062   0.038
 5030SOL    HW115989   1.350   6.132   6.999
 5030SOL    HW215990   1.214   6.078   0.050
 5031SOL     OW15991   5.509   0.772   6.777
 5031SOL    HW115992   5.524   0.676   6.797
 5031SOL    HW215993   5.520   0.788   6.679
 5032SOL     OW15994   1.495   5.396   2.666
 5032SOL    HW115995   1.467   5.300   2.659
 5032SOL    HW215996   1.554   5.409   2.745
 5033SOL     OW15997   0.587   4.336   4.709
 5033SOL    HW115998   0.639   4.326   4.624
 5033SOL    HW215999   0.609   4.261   4.771
 5034SOL     OW16000   6.960   3.700   5.985
 5034SOL    HW116001   0.009   3.669   6.047
 5034SOL    HW216002   7.001   3.737   5.902
 5035SOL     OW16003   6.770   4.210   1.001
 5035SOL    HW116004   6.736   4.240   0.912
 5035SOL    HW216005   6.845   4.145   0.988
 5036SOL     OW16006   1.561   0.879   2.493
 5036SOL    HW116007   1.474   0.927   2.486
 5036SOL    HW216008   1.630   0.940   2.531
 5037SOL     OW16009   4.883   3.138   2.617
 5037SOL    HW116010   4.914   3.198   2.544
 5037SOL    HW216011   4.891   3.185   2.705
 5038SOL     OW16012   3.477   5.478   5.706
 5038SOL    HW116013   3.377   5.478   5.710
 5038SOL    HW216014   3.510   5.565   5.670
 5039SOL     OW16015   1.779   2.332   2.734
 5039SOL    HW116016   1.775   2.388   2.651
 5039SOL    HW216017   1.832   2.381   2.804
 5040SOL     OW16018   3.145   3.359   6.061
 5040SOL    HW116019   3.087   3.439   6.051
 5040SOL    HW216020   3.104   3.282   6.012
 5041SOL     OW16021   0.118   5.419   0.819
 5041SOL    HW116022   0.059   5.438   0.897
 5041SOL    HW216023   0.206   5.384   0.851
 5042SOL     OW16024   6.010   1.674   6.032
 5042SOL    HW116025   5.917   1.651   6.003
 5042SOL    HW216026   6.029   1.769   6.008
 5043SOL     OW16027   5.185   6.284   4.047
 5043SOL    HW116028   5.126   6.203   4.046
 5043SOL    HW216029   5.210   6.307   3.953
 5044SOL     OW16030   6.059   4.603   1.811
 5044SOL    HW116031   6.157   4.621   1.806
 5044SOL    HW216032   6.010   4.668   1.753
 5045SOL     OW16033   5.932   3.174   5.353
 5045SOL    HW116034   5.917   3.230   5.271
 5045SOL    HW216035   5.993   3.222   5.416
 5046SOL     OW16036   3.878   3.352   5.976
 5046SOL    HW116037   3.790   3.315   6.005
 5046SOL    HW216038   3.937   3.277   5.945
 5047SOL     OW16039   0.512   1.774   2.144
 5047SOL    HW116040   0.528   1.676   2.133
 5047SOL    HW216041   0.599   1.821   2.162
 5048SOL     OW16042   5.674   3.455   1.125
 5048SOL    HW116043   5.649   3.473   1.220
 5048SOL    HW216044   5.677   3.541   1.075
 5049SOL     OW16045   0.958   1.730   1.371
 5049SOL    HW116046   0.917   1.778   1.293
 5049SOL    HW216047   1.008   1.795   1.428
 5050SOL     OW16048   2.039   4.307   6.973
 5050SOL    HW116049   1.986   4.296   0.033
 5050SOL    HW216050   2.134   4.327   6.996
 5051SOL     OW16051   2.613   3.755   6.424
 5051SOL    HW116052   2.570   3.665   6.425
 5051SOL    HW216053   2.711   3.746   6.441
 5052SOL     OW16054   5.637   2.834   0.429
 5052SOL    HW116055   5.728   2.840   0.471
 5052SOL    HW216056   5.646   2.841   0.330
 5053SOL     OW16057   1.563   3.936   1.062
 5053SOL    HW116058   1.616   3.982   0.991
 5053SOL    HW216059   1.599   3.844   1.077
 5054SOL     OW16060   4.028   6.425   5.607
 5054SOL    HW116061   3.931   6.408   5.628
 5054SOL    HW216062   4.084   6.396   5.684
 5055SOL     OW16063   1.398   1.075   4.224
 5055SOL    HW116064   1.427   1.114   4.137
 5055SOL    HW216065   1.302   1.047   4.218
 5056SOL     OW16066   3.497   2.142   5.874
 5056SOL    HW116067   3.410   2.176   5.838
 5056SOL    HW216068   3.516   2.051   5.837
 5057SOL     OW16069   0.164   3.829   3.298
 5057SOL    HW116070   0.239   3.772   3.266
 5057SOL    HW216071   0.093   3.835   3.228
 5058SOL     OW16072   3.491   1.881   0.702
 5058SOL    HW116073   3.470   1.975   0.675
 5058SOL    HW216074   3.471   1.819   0.625
 5059SOL     OW16075   5.179   2.168   2.405
 5059SOL    HW116076   5.140   2.257   2.429
 5059SOL    HW216077   5.140   2.137   2.318
 5060SOL     OW16078   0.019   3.844   5.187
 5060SOL    HW116079   0.102   3.874   5.139
 5060SOL    HW216080   7.001   3.923   5.233
 5061SOL     OW16081   3.891   2.919   6.167
 5061SOL    HW116082   3.937   2.917   6.256
 5061SOL    HW216083   3.831   2.839   6.160
 5062SOL     OW16084   5.522   1.115   3.039
 5062SOL    HW116085   5.469   1.063   2.972
 5062SOL    HW216086   5.616   1.081   3.040
 5063SOL     OW16087   0.493   1.839   1.262
 5063SOL    HW116088   0.561   1.847   1.335
 5063SOL    HW216089   0.402   1.844   1.301
 5064SOL     OW16090   5.643   4.588   1.275
 5064SOL    HW116091   5.629   4.493   1.303
 5064SOL    HW216092   5.665   4.592   1.178
 5065SOL     OW16093   2.151   1.807   2.556
 5065SOL    HW116094   2.234   1.798   2.611
 5065SOL    HW216095   2.160   1.887   2.496
 5066SOL     OW16096   1.292   5.159   2.662
 5066SOL    HW116097   1.309   5.116   2.750
 5066SOL    HW216098   1.215   5.115   2.617
 5067SOL     OW16099   5.594   2.584   1.373
 5067SOL    HW116100   5.567   2.677   1.345
 5067SOL    HW216101   5.513   2.528   1.384
 5068SOL     OW16102   1.494   6.506   1.105
 5068SOL    HW116103   1.572   6.474   1.052
 5068SOL    HW216104   1.418   6.528   1.043
 5069SOL     OW16105   4.674   5.445   5.784
 5069SOL    HW116106   4.637   5.382   5.715
 5069SOL    HW216107   4.598   5.487   5.834
 5070SOL     OW16108   6.278   3.393   5.934
 5070SOL    HW116109   6.365   3.408   5.886
 5070SOL    HW216110   6.293   3.336   6.014
 5071SOL     OW16111   2.537   6.134   2.947
 5071SOL    HW116112   2.481   6.089   2.877
 5071SOL    HW216113   2.522   6.089   3.035
 5072SOL     OW16114   0.968   1.459   1.933
 5072SOL    HW116115   0.972   1.406   1.848
 5072SOL    HW216116   0.898   1.420   1.993
 5073SOL     OW16117   1.622   1.174   3.363
 5073SOL    HW116118   1.617   1.262   3.316
 5073SOL    HW216119   1.716   1.140   3.361
 5074SOL     OW16120   3.775   1.959   1.309
 5074SOL    HW116121   3.681   1.930   1.326
 5074SOL    HW216122   3.795   2.042   1.362
 5075SOL     OW16123   6.168   2.500   0.307
 5075SOL    HW116124   6.219   2.494   0.393
 5075SOL    HW216125   6.117   2.415   0.292
 5076SOL     OW16126   0.288   0.744   6.021
 5076SOL    HW116127   0.245   0.813   6.079
 5076SOL    HW216128   0.366   0.784   5.974
 5077SOL     OW16129   0.932   4.445   3.907
 5077SOL    HW116130   0.865   4.382   3.946
 5077SOL    HW216131   0.935   4.433   3.808
 5078SOL     OW16132   6.365   2.269   3.283
 5078SOL    HW116133   6.325   2.332   3.349
 5078SOL    HW216134   6.463   2.260   3.299
 5079SOL     OW16135   1.665   3.716   4.777
 5079SOL    HW116136   1.695   3.625   4.804
 5079SOL    HW216137   1.581   3.709   4.724
 5080SOL     OW16138   6.458   5.627   6.922
 5080SOL    HW116139   6.449   5.717   6.881
 5080SOL    HW216140   6.391   5.617   6.996
 5081SOL     OW16141   2.289   4.962   5.428
 5081SOL    HW116142   2.298   4.863   5.420
 5081SOL    HW216143   2.217   4.983   5.495
 5082SOL     OW16144   5.827   6.572   1.806
 5082SOL    HW116145   5.737   6.610   1.784
 5082SOL    HW216146   5.815   6.479   1.841
 5083SOL     OW16147   1.614   0.047   3.528
 5083SOL    HW116148   1.624   6.974   3.555
 5083SOL    HW216149   1.569   0.053   3.439
 5084SOL     OW16150   3.735   4.939   5.812
 5084SOL    HW116151   3.637   4.954   5.801
 5084SOL    HW216152   3.753   4.841   5.819
 5085SOL     OW16153   0.226   4.396   5.576
 5085SOL    HW116154   0.130   4.422   5.585
 5085SOL    HW216155   0.284   4.477   5.576
 5086SOL     OW16156   0.624   4.810   2.412
 5086SOL    HW116157   0.608   4.717   2.445
 5086SOL    HW216158   0.675   4.807   2.327
 5087SOL     OW16159   0.183   4.960   1.835
 5087SOL    HW116160   0.209   5.025   1.764
 5087SOL    HW216161   0.118   5.004   1.898
 5088SOL     OW16162   4.929   5.092   2.336
 5088SOL    HW116163   5.027   5.111   2.335
 5088SOL    HW216164   4.881   5.158   2.278
 5089SOL     OW16165   5.291   6.508   6.276
 5089SOL    HW116166   5.239   6.565   6.213
 5089SOL    HW216167   5.275   6.411   6.256
 5090SOL     OW16168   2.305   6.590   4.642
 5090SOL    HW116169   2.303   6.517   4.711
 5090SOL    HW216170   2.298   6.679   4.687
 5091SOL     OW16171   6.601   6.628   6.120
 5091SOL    HW116172   6.581   6.629   6.022
 5091SOL    HW216173   6.523   6.663   6.171
 5092SOL     OW16174   4.122   3.632   4.117
 5092SOL    HW116175   4.104   3.539   4.149
 5092SOL    HW216176   4.096   3.698   4.188
 5093SOL     OW16177   2.903   2.231   3.299
 5093SOL    HW116178   2.995   2.211   3.332
 5093SOL    HW216179   2.854   2.285   3.368
 5094SOL     OW16180   2.164   5.884   5.218
 5094SOL    HW116181   2.115   5.970   5.204
 5094SOL    HW216182   2.239   5.898   5.283
 5095SOL     OW16183   0.274   1.414   3.324
 5095SOL    HW116184   0.305   1.422   3.419
 5095SOL    HW216185   0.190   1.468   3.312
 5096SOL     OW16186   6.565   3.265   5.924
 5096SOL    HW116187   6.657   3.258   5.886
 5096SOL    HW216188   6.521   3.348   5.890
 5097SOL     OW16189   0.860   1.128   5.500
 5097SOL    HW116190   0.907   1.200   5.449
 5097SOL    HW216191   0.806   1.073   5.437
 5098SOL     OW16192   2.734   2.328   0.322
 5098SOL    HW116193   2.820   2.280   0.338
 5098SOL    HW216194   2.733   2.413   0.374
 5099SOL     OW16195   2.324   5.984   2.379
 5099SOL    HW116196   2.395   6.001   2.310
 5099SOL    HW216197   2.363   5.930   2.453
 5100SOL     OW16198   5.452   3.555   2.325
 5100SOL    HW116199   5.368   3.562   2.270
 5100SOL    HW216200   5.530   3.539   2.265
 5101SOL     OW16201   3.171   1.371   5.175
 5101SOL    HW116202   3.135   1.300   5.235
 5101SOL    HW216203   3.251   1.414   5.218
 5102SOL     OW16204   5.623   4.748   4.959
 5102SOL    HW116205   5.599   4.812   5.032
 5102SOL    HW216206   5.722   4.743   4.950
 5103SOL     OW16207   0.604   0.573   6.010
 5103SOL    HW116208   0.658   0.560   5.927
 5103SOL    HW216209   0.650   0.640   6.069
 5104SOL     OW16210   4.148   3.592   3.312
 5104SOL    HW116211   4.117   3.500   3.337
 5104SOL    HW216212   4.133   3.653   3.389
 5105SOL     OW16213   4.322   3.259   6.713
 5105SOL    HW116214   4.240   3.316   6.714
 5105SOL    HW216215   4.342   3.226   6.805
 5106SOL     OW16216   3.303   1.675   1.683
 5106SOL    HW116217   3.395   1.710   1.670
 5106SOL    HW216218   3.298   1.581   1.649
 5107SOL     OW16219   6.200   5.296   0.344
 5107SOL    HW116220   6.235   5.327   0.432
 5107SOL    HW216221   6.100   5.290   0.347
 5108SOL     OW16222   3.674   4.411   1.208
 5108SOL    HW116223   3.638   4.437   1.118
 5108SOL    HW216224   3.641   4.477   1.276
 5109SOL     OW16225   1.541   2.917   2.805
 5109SOL    HW116226   1.635   2.950   2.800
 5109SOL    HW216227   1.539   2.831   2.857
 5110SOL     OW16228   4.170   6.734   5.152
 5110SOL    HW116229   4.071   6.739   5.166
 5110SOL    HW216230   4.213   6.694   5.233
 5111SOL     OW16231   2.070   5.676   5.862
 5111SOL    HW116232   2.053   5.749   5.796
 5111SOL    HW216233   2.081   5.589   5.813
 5112SOL     OW16234   1.378   5.568   3.009
 5112SOL    HW116235   1.299   5.626   3.031
 5112SOL    HW216236   1.352   5.472   3.016
 5113SOL     OW16237   1.969   4.003   0.939
 5113SOL    HW116238   2.061   4.039   0.954
 5113SOL    HW216239   1.903   4.061   0.985
 5114SOL     OW16240   4.360   4.491   1.290
 5114SOL    HW116241   4.281   4.487   1.350
 5114SOL    HW216242   4.388   4.586   1.276
 5115SOL     OW16243   1.573   4.252   0.372
 5115SOL    HW116244   1.486   4.270   0.327
 5115SOL    HW216245   1.562   4.176   0.436
 5116SOL     OW16246   0.231   6.756   5.225
 5116SOL    HW116247   0.324   6.750   5.262
 5116SOL    HW216248   0.235   6.753   5.125
 5117SOL     OW16249   0.190   3.298   3.089
 5117SOL    HW116250   0.122   3.324   3.158
 5117SOL    HW216251   0.150   3.232   3.026
 5118SOL     OW16252   3.897   5.530   0.026
 5118SOL    HW116253   3.954   5.610   0.006
 5118SOL    HW216254   3.945   5.472   0.092
 5119SOL     OW16255   5.805   1.535   0.355
 5119SOL    HW116256   5.839   1.561   0.265
 5119SOL    HW216257   5.879   1.543   0.423
 5120SOL     OW16258   5.535   6.630   6.330
 5120SOL    HW116259   5.620   6.602   6.284
 5120SOL    HW216260   5.457   6.586   6.285
 5121SOL     OW16261   1.639   3.220   6.923
 5121SOL    HW116262   1.649   3.126   6.956
 5121SOL    HW216263   1.657   3.223   6.825
 5122SOL     OW16264   4.416   4.739   3.194
 5122SOL    HW116265   4.410   4.665   3.262
 5122SOL    HW216266   4.444   4.823   3.240
 5123SOL     OW16267   4.742   2.378   1.741
 5123SOL    HW116268   4.680   2.367   1.664
 5123SOL    HW216269   4.727   2.305   1.808
 5124SOL     OW16270   0.803   6.412   4.708
 5124SOL    HW116271   0.864   6.334   4.719
 5124SOL    HW216272   0.712   6.388   4.742
 5125SOL     OW16273   6.181   2.224   3.680
 5125SOL    HW116274   6.278   2.246   3.680
 5125SOL    HW216275   6.160   2.164   3.602
 5126SOL     OW16276   2.342   1.089   1.974
 5126SOL    HW116277   2.330   1.051   2.066
 5126SOL    HW216278   2.407   1.033   1.923
 5127SOL     OW16279   2.128   6.206   6.752
 5127SOL    HW116280   2.207   6.191   6.693
 5127SOL    HW216281   2.155   6.256   6.834
 5128SOL     OW16282   4.804   0.039   1.646
 5128SOL    HW116283   4.705   0.032   1.652
 5128SOL    HW216284   4.835   0.117   1.702
 5129SOL     OW16285   6.323   6.065   0.516
 5129SOL    HW116286   6.361   6.157   0.521
 5129SOL    HW216287   6.223   6.070   0.519
 5130SOL     OW16288   5.761   4.764   2.268
 5130SOL    HW116289   5.808   4.779   2.182
 5130SOL    HW216290   5.754   4.666   2.286
 5131SOL     OW16291   2.367   2.728   2.536
 5131SOL    HW116292   2.391   2.699   2.629
 5131SOL    HW216293   2.416   2.672   2.470
 5132SOL     OW16294   2.744   6.126   5.441
 5132SOL    HW116295   2.665   6.094   5.495
 5132SOL    HW216296   2.768   6.056   5.373
 5133SOL     OW16297   3.544   6.397   5.496
 5133SOL    HW116298   3.509   6.476   5.547
 5133SOL    HW216299   3.543   6.418   5.398
 5134SOL     OW16300   6.240   4.110   6.168
 5134SOL    HW116301   6.292   4.089   6.085
 5134SOL    HW216302   6.215   4.024   6.214
 5135SOL     OW16303   6.735   1.906   4.173
 5135SOL    HW116304   6.724   1.867   4.081
 5135SOL    HW216305   6.679   1.988   4.182
 5136SOL     OW16306   3.610   2.437   6.302
 5136SOL    HW116307   3.638   2.378   6.378
 5136SOL    HW216308   3.642   2.398   6.216
 5137SOL     OW16309   3.518   3.276   0.260
 5137SOL    HW116310   3.569   3.310   0.339
 5137SOL    HW216311   3.580   3.235   0.194
 5138SOL     OW16312   2.063   3.413   5.985
 5138SOL    HW116313   2.123   3.462   6.049
 5138SOL    HW216314   2.042   3.472   5.908
 5139SOL     OW16315   0.989   6.945   3.512
 5139SOL    HW116316   1.064   6.969   3.574
 5139SOL    HW216317   0.902   6.967   3.556
 5140SOL     OW16318   2.971   2.783   1.691
 5140SOL    HW116319   2.943   2.826   1.776
 5140SOL    HW216320   2.945   2.840   1.613
 5141SOL     OW16321   0.803   4.243   5.871
 5141SOL    HW116322   0.830   4.158   5.918
 5141SOL    HW216323   0.709   4.234   5.839
 5142SOL     OW16324   5.945   3.063   2.737
 5142SOL    HW116325   5.895   3.043   2.652
 5142SOL    HW216326   5.884   3.051   2.815
 5143SOL     OW16327   0.163   5.203   5.159
 5143SOL    HW116328   0.102   5.130   5.127
 5143SOL    HW216329   0.172   5.273   5.088
 5144SOL     OW16330   2.119   1.713   4.841
 5144SOL    HW116331   2.192   1.689   4.777
 5144SOL    HW216332   2.081   1.630   4.881
 5145SOL     OW16333   3.358   5.111   5.990
 5145SOL    HW116334   3.368   5.137   6.086
 5145SOL    HW216335   3.412   5.173   5.933
 5146SOL     OW16336   2.738   4.803   0.247
 5146SOL    HW116337   2.729   4.715   0.293
 5146SOL    HW216338   2.778   4.870   0.309
 5147SOL     OW16339   0.056   5.289   6.507
 5147SOL    HW116340   7.012   5.344   6.456
 5147SOL    HW216341   0.020   5.271   6.599
 5148SOL     OW16342   0.374   0.795   0.689
 5148SOL    HW116343   0.380   0.895   0.694
 5148SOL    HW216344   0.406   0.764   0.600
 5149SOL     OW16345   0.478   0.329   5.802
 5149SOL    HW116346   0.523   0.378   5.877
 5149SOL    HW216347   0.536   0.253   5.774
 5150SOL     OW16348   1.806   5.507   4.880
 5150SOL    HW116349   1.740   5.468   4.944
 5150SOL    HW216350   1.899   5.495   4.915
 5151SOL     OW16351   4.366   1.277   5.689
 5151SOL    HW116352   4.372   1.362   5.635
 5151SOL    HW216353   4.300   1.216   5.646
 5152SOL     OW16354   0.119   4.890   0.285
 5152SOL    HW116355   0.126   4.861   0.190
 5152SOL    HW216356   0.103   4.989   0.289
 5153SOL     OW16357   1.977   2.283   1.148
 5153SOL    HW116358   1.920   2.208   1.113
 5153SOL    HW216359   2.044   2.246   1.212
 5154SOL     OW16360   1.803   4.745   5.037
 5154SOL    HW116361   1.713   4.785   5.021
 5154SOL    HW216362   1.865   4.815   5.072
 5155SOL     OW16363   3.572   0.665   2.892
 5155SOL    HW116364   3.524   0.632   2.974
 5155SOL    HW216365   3.670   0.671   2.911
 5156SOL     OW16366   5.315   2.876   5.710
 5156SOL    HW116367   5.334   2.886   5.612
 5156SOL    HW216368   5.391   2.913   5.763
 5157SOL     OW16369   6.218   2.263   4.224
 5157SOL    HW116370   6.166   2.254   4.309
 5157SOL    HW216371   6.156   2.291   4.150
 5158SOL     OW16372   3.435   0.524   1.012
 5158SOL    HW116373   3.531   0.532   1.040
 5158SOL    HW216374   3.378   0.573   1.078
 5159SOL     OW16375   1.999   3.395   4.789
 5159SOL    HW116376   1.980   3.386   4.886
 5159SOL    HW216377   2.073   3.333   4.764
 5160SOL     OW16378   2.801   2.321   3.919
 5160SOL    HW116379   2.856   2.315   4.002
 5160SOL    HW216380   2.710   2.355   3.942
 5161SOL     OW16381   2.355   3.014   6.426
 5161SOL    HW116382   2.284   3.068   6.381
 5161SOL    HW216383   2.419   2.979   6.357
 5162SOL     OW16384   6.690   5.361   4.421
 5162SOL    HW116385   6.781   5.341   4.456
 5162SOL    HW216386   6.633   5.279   4.429
 5163SOL     OW16387   5.409   4.393   1.014
 5163SOL    HW116388   5.318   4.430   1.001
 5163SOL    HW216389   5.406   4.293   1.005
 5164SOL     OW16390   6.635   5.950   5.254
 5164SOL    HW116391   6.652   5.887   5.330
 5164SOL    HW216392   6.720   5.997   5.231
 5165SOL     OW16393   5.591   3.916   4.729
 5165SOL    HW116394   5.648   3.865   4.793
 5165SOL    HW216395   5.504   3.869   4.717
 5166SOL     OW16396   1.655   0.276   2.184
 5166SOL    HW116397   1.582   0.343   2.201
 5166SOL    HW216398   1.670   0.268   2.085
 5167SOL     OW16399   2.038   7.012   6.027
 5167SOL    HW116400   2.061   6.928   6.076
 5167SOL    HW216401   2.113   0.055   6.036
 5168SOL     OW16402   3.549   2.158   2.870
 5168SOL    HW116403   3.464   2.144   2.818
 5168SOL    HW216404   3.627   2.146   2.810
 5169SOL     OW16405   4.131   4.268   6.753
 5169SOL    HW116406   4.098   4.289   6.662
 5169SOL    HW216407   4.169   4.351   6.795
 5170SOL     OW16408   4.267   5.119   4.324
 5170SOL    HW116409   4.226   5.197   4.372
 5170SOL    HW216410   4.223   5.108   4.235
 5171SOL     OW16411   2.448   4.547   4.748
 5171SOL    HW116412   2.501   4.576   4.828
 5171SOL    HW216413   2.367   4.497   4.779
 5172SOL     OW16414   1.563   4.865   0.016
 5172SOL    HW116415   1.495   4.859   6.966
 5172SOL    HW216416   1.556   4.784   0.074
 5173SOL     OW16417   0.197   2.335   5.468
 5173SOL    HW116418   0.181   2.357   5.565
 5173SOL    HW216419   0.109   2.330   5.421
 5174SOL     OW16420   2.243   4.949   5.960
 5174SOL    HW116421   2.284   4.996   5.881
 5174SOL    HW216422   2.238   5.012   6.037
 5175SOL     OW16423   0.192   5.758   6.260
 5175SOL    HW116424   0.144   5.823   6.319
 5175SOL    HW216425   0.171   5.665   6.289
 5176SOL     OW16426   5.439   3.887   6.191
 5176SOL    HW116427   5.480   3.828   6.121
 5176SOL    HW216428   5.464   3.982   6.173
 5177SOL     OW16429   5.191   5.699   6.275
 5177SOL    HW116430   5.214   5.791   6.308
 5177SOL    HW216431   5.171   5.703   6.177
 5178SOL     OW16432   3.064   3.346   1.357
 5178SOL    HW116433   3.010   3.406   1.416
 5178SOL    HW216434   3.118   3.401   1.293
 5179SOL     OW16435   3.154   6.696   5.738
 5179SOL    HW116436   3.132   6.664   5.830
 5179SOL    HW216437   3.070   6.707   5.685
 5180SOL     OW16438   3.620   1.957   0.288
 5180SOL    HW116439   3.690   1.889   0.267
 5180SOL    HW216440   3.640   2.043   0.242
 5181SOL     OW16441   2.778   5.956   2.867
 5181SOL    HW116442   2.803   5.866   2.905
 5181SOL    HW216443   2.729   6.009   2.936
 5182SOL     OW16444   4.421   4.097   1.363
 5182SOL    HW116445   4.451   4.144   1.446
 5182SOL    HW216446   4.498   4.089   1.299
 5183SOL     OW16447   3.888   0.818   3.860
 5183SOL    HW116448   3.868   0.912   3.832
 5183SOL    HW216449   3.812   0.758   3.833
 5184SOL     OW16450   1.241   1.936   3.314
 5184SOL    HW116451   1.178   1.969   3.384
 5184SOL    HW216452   1.204   1.956   3.223
 5185SOL     OW16453   4.035   0.100   1.060
 5185SOL    HW116454   4.064   0.059   1.147
 5185SOL    HW216455   4.025   0.198   1.071
 5186SOL     OW16456   4.781   4.319   0.418
 5186SOL    HW116457   4.814   4.292   0.327
 5186SOL    HW216458   4.846   4.383   0.459
 5187SOL     OW16459   4.907   1.964   4.286
 5187SOL    HW116460   4.974   1.937   4.355
 5187SOL    HW216461   4.905   1.896   4.212
 5188SOL     OW16462   1.138   1.935   3.703
 5188SOL    HW116463   1.160   2.029   3.677
 5188SOL    HW216464   1.152   1.875   3.624
 5189SOL     OW16465   4.166   6.241   6.717
 5189SOL    HW116466   4.106   6.296   6.774
 5189SOL    HW216467   4.255   6.231   6.762
 5190SOL     OW16468   2.206   2.629   2.063
 5190SOL    HW116469   2.257   2.543   2.061
 5190SOL    HW216470   2.184   2.653   2.158
 5191SOL     OW16471   5.017   0.057   2.475
 5191SOL    HW116472   4.930   0.055   2.425
 5191SOL    HW216473   5.092   0.042   2.411
 5192SOL     OW16474   6.134   3.753   1.301
 5192SOL    HW116475   6.038   3.747   1.273
 5192SOL    HW216476   6.169   3.845   1.281
 5193SOL     OW16477   4.337   4.684   2.201
 5193SOL    HW116478   4.333   4.640   2.112
 5193SOL    HW216479   4.253   4.736   2.217
 5194SOL     OW16480   5.062   1.474   0.158
 5194SOL    HW116481   5.050   1.573   0.148
 5194SOL    HW216482   5.113   1.456   0.242
 5195SOL     OW16483   6.449   6.817   5.493
 5195SOL    HW116484   6.429   6.719   5.483
 5195SOL    HW216485   6.389   6.856   5.563
 5196SOL     OW16486   6.416   3.694   2.582
 5196SOL    HW116487   6.462   3.614   2.542
 5196SOL    HW216488   6.371   3.667   2.667
 5197SOL     OW16489   3.598   5.659   5.536
 5197SOL    HW116490   3.557   5.743   5.573
 5197SOL    HW216491   3.686   5.680   5.493
 5198SOL     OW16492   4.087   1.460   4.950
 5198SOL    HW116493   4.048   1.488   4.862
 5198SOL    HW216494   4.044   1.375   4.980
 5199SOL     OW16495   6.886   5.916   1.482
 5199SOL    HW116496   6.911   5.933   1.386
 5199SOL    HW216497   6.816   5.844   1.486
 5200SOL     OW16498   6.835   0.419   4.863
 5200SOL    HW116499   6.932   0.394   4.859
 5200SOL    HW216500   6.782   0.352   4.811
 5201SOL     OW16501   6.027   4.769   5.543
 5201SOL    HW116502   5.983   4.701   5.485
 5201SOL    HW216503   5.968   4.849   5.551
 5202SOL     OW16504   3.909   2.511   6.236
 5202SOL    HW116505   3.921   2.514   6.335
 5202SOL    HW216506   3.870   2.598   6.205
 5203SOL     OW16507   1.556   0.584   6.251
 5203SOL    HW116508   1.474   0.578   6.195
 5203SOL    HW216509   1.578   0.494   6.288
 5204SOL     OW16510   2.317   0.862   1.592
 5204SOL    HW116511   2.298   0.934   1.525
 5204SOL    HW216512   2.329   0.775   1.546
 5205SOL     OW16513   6.624   0.396   1.807
 5205SOL    HW116514   6.537   0.355   1.832
 5205SOL    HW216515   6.635   0.392   1.707
 5206SOL     OW16516   0.916   5.137   3.792
 5206SOL    HW116517   0.928   5.201   3.868
 5206SOL    HW216518   0.828   5.090   3.801
 5207SOL     OW16519   5.341   0.104   5.119
 5207SOL    HW116520   5.397   0.070   5.194
 5207SOL    HW216521   5.356   0.202   5.108
 5208SOL     OW16522   0.147   2.102   0.078
 5208SOL    HW116523   0.052   2.084   0.105
 5208SOL    HW216524   0.148   2.142   7.009
 5209SOL     OW16525   5.733   6.679   3.682
 5209SOL    HW116526   5.712   6.581   3.688
 5209SOL    HW216527   5.651   6.732   3.704
 5210SOL     OW16528   5.625   4.554   0.979
 5210SOL    HW116529   5.547   4.492   0.967
 5210SOL    HW216530   5.709   4.508   0.947
 5211SOL     OW16531   5.103   3.059   5.015
 5211SOL    HW116532   5.181   3.034   5.072
 5211SOL    HW216533   5.058   2.976   4.981
 5212SOL     OW16534   6.906   4.145   0.106
 5212SOL    HW116535   6.995   4.189   0.118
 5212SOL    HW216536   6.834   4.214   0.117
 5213SOL     OW16537   3.612   2.927   3.084
 5213SOL    HW116538   3.546   2.916   3.010
 5213SOL    HW216539   3.705   2.914   3.048
 5214SOL     OW16540   5.625   3.407   5.995
 5214SOL    HW116541   5.631   3.489   5.939
 5214SOL    HW216542   5.587   3.332   5.941
 5215SOL     OW16543   0.421   5.414   5.298
 5215SOL    HW116544   0.365   5.480   5.247
 5215SOL    HW216545   0.365   5.335   5.323
 5216SOL     OW16546   6.549   3.714   1.319
 5216SOL    HW116547   6.539   3.669   1.230
 5216SOL    HW216548   6.588   3.805   1.306
 5217SOL     OW16549   4.424   0.130   2.987
 5217SOL    HW116550   4.377   0.213   3.019
 5217SOL    HW216551   4.410   0.120   2.889
 5218SOL     OW16552   5.960   6.696   0.375
 5218SOL    HW116553   5.970   6.726   0.470
 5218SOL    HW216554   5.957   6.596   0.372
 5219SOL     OW16555   3.559   1.953   5.182
 5219SOL    HW116556   3.501   1.872   5.176
 5219SOL    HW216557   3.570   1.993   5.091
 5220SOL     OW16558   1.946   4.827   4.724
 5220SOL    HW116559   2.032   4.849   4.769
 5220SOL    HW216560   1.913   4.738   4.755
 5221SOL     OW16561   5.240   6.138   1.379
 5221SOL    HW116562   5.141   6.125   1.388
 5221SOL    HW216563   5.259   6.219   1.323
 5222SOL     OW16564   6.842   3.619   2.329
 5222SOL    HW116565   6.748   3.607   2.299
 5222SOL    HW216566   6.844   3.645   2.426
 5223SOL     OW16567   6.846   2.729   0.777
 5223SOL    HW116568   6.768   2.703   0.720
 5223SOL    HW216569   6.919   2.768   0.720
 5224SOL     OW16570   1.393   1.588   4.736
 5224SOL    HW116571   1.297   1.597   4.762
 5224SOL    HW216572   1.412   1.493   4.709
 5225SOL     OW16573   6.957   2.291   5.403
 5225SOL    HW116574   6.921   2.216   5.347
 5225SOL    HW216575   6.883   2.354   5.426
 5226SOL     OW16576   0.441   6.514   4.349
 5226SOL    HW116577   0.469   6.588   4.287
 5226SOL    HW216578   0.483   6.429   4.318
 5227SOL     OW16579   1.031   3.073   5.915
 5227SOL    HW116580   1.077   3.135   5.851
 5227SOL    HW216581   1.063   2.980   5.899
 5228SOL     OW16582   1.370   2.019   5.248
 5228SOL    HW116583   1.455   2.056   5.211
 5228SOL    HW216584   1.387   1.927   5.283
 5229SOL     OW16585   3.739   2.020   6.684
 5229SOL    HW116586   3.828   1.978   6.666
 5229SOL    HW216587   3.724   2.025   6.783
 5230SOL     OW16588   6.540   0.105   2.045
 5230SOL    HW116589   6.560   0.061   1.957
 5230SOL    HW216590   6.522   0.034   2.113
 5231SOL     OW16591   6.557   3.791   1.940
 5231SOL    HW116592   6.603   3.865   1.991
 5231SOL    HW216593   6.581   3.797   1.844
 5232SOL     OW16594   1.653   2.253   5.843
 5232SOL    HW116595   1.750   2.244   5.864
 5232SOL    HW216596   1.611   2.162   5.839
 5233SOL     OW16597   3.366   0.216   3.755
 5233SOL    HW116598   3.403   0.259   3.837
 5233SOL    HW216599   3.309   0.282   3.706
 5234SOL     OW16600   3.014   2.640   6.368
 5234SOL    HW116601   2.951   2.564   6.382
 5234SOL    HW216602   3.060   2.629   6.280
 5235SOL     OW16603   2.594   2.093   1.736
 5235SOL    HW116604   2.654   2.031   1.787
 5235SOL    HW216605   2.620   2.188   1.755
 5236SOL     OW16606   3.258   4.942   1.937
 5236SOL    HW116607   3.320   4.912   2.010
 5236SOL    HW216608   3.167   4.957   1.974
 5237SOL     OW16609   2.083   1.325   2.390
 5237SOL    HW116610   2.030   1.402   2.354
 5237SOL    HW216611   2.114   1.346   2.483
 5238SOL     OW16612   6.896   0.355   2.773
 5238SOL    HW116613   6.862   0.423   2.707
 5238SOL    HW216614   6.863   0.265   2.747
 5239SOL     OW16615   2.511   4.026   1.277
 5239SOL    HW116616   2.451   4.105   1.293
 5239SOL    HW216617   2.579   4.049   1.207
 5240SOL     OW16618   2.058   3.945   6.023
 5240SOL    HW116619   2.100   4.019   5.972
 5240SOL    HW216620   1.965   3.971   6.050
 5241SOL     OW16621   1.952   6.321   3.333
 5241SOL    HW116622   1.940   6.368   3.420
 5241SOL    HW216623   2.043   6.279   3.330
 5242SOL     OW16624   4.121   6.813   5.900
 5242SOL    HW116625   4.055   6.738   5.912
 5242SOL    HW216626   4.201   6.780   5.851
 5243SOL     OW16627   3.173   5.635   3.701
 5243SOL    HW116628   3.201   5.670   3.790
 5243SOL    HW216629   3.244   5.655   3.633
 5244SOL     OW16630   4.253   1.049   6.719
 5244SOL    HW116631   4.240   1.124   6.783
 5244SOL    HW216632   4.208   0.967   6.755
 5245SOL     OW16633   3.148   4.005   2.305
 5245SOL    HW116634   3.176   3.986   2.399
 5245SOL    HW216635   3.067   4.064   2.306
 5246SOL     OW16636   5.977   3.586   6.395
 5246SOL    HW116637   6.011   3.680   6.388
 5246SOL    HW216638   5.933   3.561   6.309
 5247SOL     OW16639   4.896   1.380   6.105
 5247SOL    HW116640   4.886   1.293   6.056
 5247SOL    HW216641   4.947   1.444   6.048
 5248SOL     OW16642   4.837   1.019   3.984
 5248SOL    HW116643   4.898   1.082   4.031
 5248SOL    HW216644   4.859   1.018   3.886
 5249SOL     OW16645   6.903   5.269   1.130
 5249SOL    HW116646   6.986   5.257   1.185
 5249SOL    HW216647   6.837   5.325   1.179
 5250SOL     OW16648   2.194   5.185   1.030
 5250SOL    HW116649   2.185   5.087   1.018
 5250SOL    HW216650   2.170   5.232   0.945
 5251SOL     OW16651   0.450   4.419   6.473
 5251SOL    HW116652   0.427   4.361   6.395
 5251SOL    HW216653   0.520   4.486   6.446
 5252SOL     OW16654   3.978   5.476   2.728
 5252SOL    HW116655   3.977   5.567   2.687
 5252SOL    HW216656   4.043   5.474   2.804
 5253SOL     OW16657   0.350   6.222   4.884
 5253SOL    HW116658   0.412   6.227   4.805
 5253SOL    HW216659   0.256   6.213   4.851
 5254SOL     OW16660   4.405   6.164   2.837
 5254SOL    HW116661   4.388   6.184   2.741
 5254SOL    HW216662   4.503   6.156   2.853
 5255SOL     OW16663   0.082   1.519   5.795
 5255SOL    HW116664   0.165   1.517   5.739
 5255SOL    HW216665   0.017   1.451   5.761
 5256SOL     OW16666   5.042   1.323   2.541
 5256SOL    HW116667   4.985   1.273   2.606
 5256SOL    HW216668   5.016   1.420   2.541
 5257SOL     OW16669   4.713   2.171   6.697
 5257SOL    HW116670   4.775   2.217   6.632
 5257SOL    HW216671   4.619   2.190   6.671
 5258SOL     OW16672   4.850   1.705   5.182
 5258SOL    HW116673   4.891   1.615   5.167
 5258SOL    HW216674   4.921   1.776   5.180
 5259SOL     OW16675   5.404   5.714   4.135
 5259SOL    HW116676   5.307   5.704   4.155
 5259SOL    HW216677   5.451   5.627   4.151
 5260SOL     OW16678   1.917   5.834   1.534
 5260SOL    HW116679   1.969   5.916   1.558
 5260SOL    HW216680   1.904   5.777   1.616
 5261SOL     OW16681   6.217   4.887   6.976
 5261SOL    HW116682   6.251   4.806   6.929
 5261SOL    HW216683   6.222   4.966   6.914
 5262SOL     OW16684   1.714   1.650   1.780
 5262SOL    HW116685   1.688   1.598   1.698
 5262SOL    HW216686   1.632   1.693   1.818
 5263SOL     OW16687   1.730   6.001   3.263
 5263SOL    HW116688   1.723   5.915   3.212
 5263SOL    HW216689   1.786   6.066   3.212
 5264SOL     OW16690   0.103   3.081   2.200
 5264SOL    HW116691   0.031   3.132   2.153
 5264SOL    HW216692   0.172   3.145   2.233
 5265SOL     OW16693   6.718   6.299   5.299
 5265SOL    HW116694   6.623   6.310   5.327
 5265SOL    HW216695   6.775   6.364   5.350
 5266SOL     OW16696   1.386   0.057   6.099
 5266SOL    HW116697   1.324   0.003   6.156
 5266SOL    HW216698   1.336   0.134   6.059
 5267SOL     OW16699   5.632   1.588   4.585
 5267SOL    HW116700   5.575   1.662   4.548
 5267SOL    HW216701   5.576   1.507   4.599
 5268SOL     OW16702   5.244   0.500   6.071
 5268SOL    HW116703   5.270   0.552   5.989
 5268SOL    HW216704   5.157   0.536   6.106
 5269SOL     OW16705   1.392   0.240   4.573
 5269SOL    HW116706   1.407   0.164   4.636
 5269SOL    HW216707   1.480   0.281   4.548
 5270SOL     OW16708   0.818   2.070   6.030
 5270SOL    HW116709   0.826   2.050   5.932
 5270SOL    HW216710   0.909   2.084   6.069
 5271SOL     OW16711   1.479   5.563   4.657
 5271SOL    HW116712   1.451   5.628   4.728
 5271SOL    HW216713   1.399   5.537   4.603
 5272SOL     OW16714   4.359   0.664   6.397
 5272SOL    HW116715   4.344   0.745   6.341
 5272SOL    HW216716   4.271   0.621   6.417
 5273SOL     OW16717   2.934   1.560   2.882
 5273SOL    HW116718   2.907   1.582   2.789
 5273SOL    HW216719   2.985   1.637   2.921
 5274SOL     OW16720   5.744   4.833   1.358
 5274SOL    HW116721   5.727   4.734   1.352
 5274SOL    HW216722   5.769   4.868   1.268
 5275SOL     OW16723   5.254   1.592   6.227
 5275SOL    HW116724   5.211   1.648   6.297
 5275SOL    HW216725   5.287   1.651   6.153
 5276SOL     OW16726   3.760   6.422   1.728
 5276SOL    HW116727   3.808   6.462   1.650
 5276SOL    HW216728   3.780   6.325   1.734
 5277SOL     OW16729   2.215   3.206   1.875
 5277SOL    HW116730   2.219   3.298   1.913
 5277SOL    HW216731   2.134   3.158   1.910
 5278SOL     OW16732   3.629   3.130   2.464
 5278SOL    HW116733   3.671   3.159   2.378
 5278SOL    HW216734   3.534   3.105   2.448
 5279SOL     OW16735   1.726   5.938   2.772
 5279SOL    HW116736   1.693   5.910   2.682
 5279SOL    HW216737   1.750   6.035   2.770
 5280SOL     OW16738   4.009   0.986   4.660
 5280SOL    HW116739   3.941   1.060   4.668
 5280SOL    HW216740   4.056   0.992   4.572
 5281SOL     OW16741   6.807   2.174   3.779
 5281SOL    HW116742   6.784   2.219   3.692
 5281SOL    HW216743   6.748   2.094   3.791
 5282SOL     OW16744   4.756   2.347   1.164
 5282SOL    HW116745   4.793   2.438   1.182
 5282SOL    HW216746   4.700   2.350   1.081
 5283SOL     OW16747   4.699   4.576   6.061
 5283SOL    HW116748   4.778   4.583   6.123
 5283SOL    HW216749   4.707   4.646   5.990
 5284SOL     OW16750   4.741   2.840   3.902
 5284SOL    HW116751   4.797   2.922   3.916
 5284SOL    HW216752   4.718   2.801   3.991
 5285SOL     OW16753   4.227   6.258   2.561
 5285SOL    HW116754   4.140   6.248   2.513
 5285SOL    HW216755   4.235   6.352   2.595
 5286SOL     OW16756   2.020   4.957   1.815
 5286SOL    HW116757   1.960   4.914   1.882
 5286SOL    HW216758   2.071   5.032   1.858
 5287SOL     OW16759   1.210   1.233   2.393
 5287SOL    HW116760   1.224   1.331   2.375
 5287SOL    HW216761   1.187   1.220   2.490
 5288SOL     OW16762   4.408   0.087   1.131
 5288SOL    HW116763   4.502   0.054   1.140
 5288SOL    HW216764   4.352   0.049   1.204
 5289SOL     OW16765   1.249   6.288   1.221
 5289SOL    HW116766   1.284   6.197   1.200
 5289SOL    HW216767   1.283   6.354   1.154
 5290SOL     OW16768   5.722   6.087   0.204
 5290SOL    HW116769   5.627   6.060   0.218
 5290SOL    HW216770   5.780   6.005   0.199
 5291SOL     OW16771   0.889   5.827   0.058
 5291SOL    HW116772   0.896   5.927   0.064
 5291SOL    HW216773   0.878   5.800   6.986
 5292SOL     OW16774   5.332   1.803   0.687
 5292SOL    HW116775   5.319   1.773   0.781
 5292SOL    HW216776   5.259   1.865   0.661
 5293SOL     OW16777   2.057   1.403   4.095
 5293SOL    HW116778   1.986   1.336   4.114
 5293SOL    HW216779   2.021   1.472   4.031
 5294SOL     OW16780   3.998   2.546   6.515
 5294SOL    HW116781   4.042   2.458   6.500
 5294SOL    HW216782   3.990   2.562   6.614
 5295SOL     OW16783   6.708   1.252   2.590
 5295SOL    HW116784   6.706   1.288   2.683
 5295SOL    HW216785   6.666   1.317   2.527
 5296SOL     OW16786   0.312   2.689   6.357
 5296SOL    HW116787   0.296   2.629   6.435
 5296SOL    HW216788   0.341   2.779   6.389
 5297SOL     OW16789   1.028   2.541   2.153
 5297SOL    HW116790   1.067   2.454   2.126
 5297SOL    HW216791   0.932   2.546   2.124
 5298SOL     OW16792   1.370   4.637   1.747
 5298SOL    HW116793   1.422   4.646   1.832
 5298SOL    HW216794   1.277   4.668   1.760
 5299SOL     OW16795   3.299   0.340   0.282
 5299SOL    HW116796   3.361   0.406   0.240
 5299SOL    HW216797   3.348   0.255   0.301
 5300SOL     OW16798   0.174   5.247   3.567
 5300SOL    HW116799   0.187   5.204   3.656
 5300SOL    HW216800   0.104   5.317   3.574
 5301SOL     OW16801   5.334   0.336   6.485
 5301SOL    HW116802   5.341   0.243   6.522
 5301SOL    HW216803   5.381   0.340   6.397
 5302SOL     OW16804   6.657   4.003   3.966
 5302SOL    HW116805   6.701   3.939   3.903
 5302SOL    HW216806   6.693   3.989   4.058
 5303SOL     OW16807   1.726   4.736   3.523
 5303SOL    HW116808   1.682   4.702   3.606
 5303SOL    HW216809   1.819   4.764   3.543
 5304SOL     OW16810   4.382   2.754   5.645
 5304SOL    HW116811   4.311   2.781   5.580
 5304SOL    HW216812   4.436   2.833   5.671
 5305SOL     OW16813   3.422   1.701   4.708
 5305SOL    HW116814   3.463   1.791   4.689
 5305SOL    HW216815   3.379   1.666   4.626
 5306SOL     OW16816   2.516   6.914   4.125
 5306SOL    HW116817   2.435   6.973   4.124
 5306SOL    HW216818   2.595   6.967   4.155
 5307SOL     OW16819   5.169   7.015   0.046
 5307SOL    HW116820   5.255   0.039   0.026
 5307SOL    HW216821   5.144   0.007   0.142
 5308SOL     OW16822   6.114   1.719   1.967
 5308SOL    HW116823   6.212   1.733   1.951
 5308SOL    HW216824   6.086   1.633   1.924
 5309SOL     OW16825   4.068   3.431   5.262
 5309SOL    HW116826   3.979   3.433   5.307
 5309SOL    HW216827   4.095   3.336   5.246
 5310SOL     OW16828   5.282   2.918   1.002
 5310SOL    HW116829   5.329   2.905   1.089
 5310SOL    HW216830   5.281   2.832   0.951
 5311SOL     OW16831   0.048   6.457   0.074
 5311SOL    HW116832   0.123   6.436   0.012
 5311SOL    HW216833   0.071   6.537   0.129
 5312SOL     OW16834   0.322   3.154   1.244
 5312SOL    HW116835   0.299   3.149   1.341
 5312SOL    HW216836   0.421   3.142   1.232
 5313SOL     OW16837   0.238   6.172   0.496
 5313SOL    HW116838   0.163   6.132   0.443
 5313SOL    HW216839   0.260   6.263   0.460
 5314SOL     OW16840   3.546   5.368   1.305
 5314SOL    HW116841   3.516   5.351   1.399
 5314SOL    HW216842   3.478   5.332   1.242
 5315SOL     OW16843   5.636   1.400   2.028
 5315SOL    HW116844   5.570   1.411   1.953
 5315SOL    HW216845   5.645   1.486   2.078
 5316SOL     OW16846   5.397   5.568   4.530
 5316SOL    HW116847   5.418   5.510   4.608
 5316SOL    HW216848   5.476   5.573   4.469
 5317SOL     OW16849   6.666   5.126   2.038
 5317SOL    HW116850   6.665   5.226   2.033
 5317SOL    HW216851   6.601   5.089   1.973
 5318SOL     OW16852   0.221   2.574   3.601
 5318SOL    HW116853   0.209   2.579   3.701
 5318SOL    HW216854   0.171   2.495   3.566
 5319SOL     OW16855   3.164   6.279   2.997
 5319SOL    HW116856   3.146   6.311   3.090
 5319SOL    HW216857   3.077   6.268   2.949
 5320SOL     OW16858   6.756   2.894   6.648
 5320SOL    HW116859   6.824   2.825   6.621
 5320SOL    HW216860   6.799   2.962   6.707
 5321SOL     OW16861   2.591   4.304   6.287
 5321SOL    HW116862   2.538   4.221   6.268
 5321SOL    HW216863   2.680   4.278   6.327
 5322SOL     OW16864   2.197   5.968   0.619
 5322SOL    HW116865   2.198   5.894   0.686
 5322SOL    HW216866   2.290   6.003   0.607
 5323SOL     OW16867   5.484   3.153   0.253
 5323SOL    HW116868   5.424   3.117   0.324
 5323SOL    HW216869   5.545   3.221   0.292
 5324SOL     OW16870   4.500   3.243   1.270
 5324SOL    HW116871   4.457   3.311   1.330
 5324SOL    HW216872   4.469   3.152   1.294
 5325SOL     OW16873   3.201   6.424   5.617
 5325SOL    HW116874   3.222   6.397   5.711
 5325SOL    HW216875   3.161   6.516   5.616
 5326SOL     OW16876   0.369   0.435   2.359
 5326SOL    HW116877   0.399   0.379   2.436
 5326SOL    HW216878   0.380   0.532   2.381
 5327SOL     OW16879   6.324   0.451   4.086
 5327SOL    HW116880   6.243   0.508   4.101
 5327SOL    HW216881   6.381   0.451   4.168
 5328SOL     OW16882   3.507   5.184   6.936
 5328SOL    HW116883   3.555   5.106   6.895
 5328SOL    HW216884   3.411   5.181   6.910
 5329SOL     OW16885   0.458   5.980   6.440
 5329SOL    HW116886   0.465   5.909   6.509
 5329SOL    HW216887   0.513   5.955   6.360
 5330SOL     OW16888   3.976   5.101   0.371
 5330SOL    HW116889   3.933   5.061   0.452
 5330SOL    HW216890   4.061   5.053   0.351
 5331SOL     OW16891   5.763   1.628   6.620
 5331SOL    HW116892   5.719   1.717   6.615
 5331SOL    HW216893   5.856   1.634   6.583
 5332SOL     OW16894   6.500   2.817   6.712
 5332SOL    HW116895   6.498   2.766   6.798
 5332SOL    HW216896   6.595   2.840   6.689
 5333SOL     OW16897   1.436   0.124   4.038
 5333SOL    HW116898   1.489   0.133   4.122
 5333SOL    HW216899   1.422   0.215   3.998
 5334SOL     OW16900   3.038   6.200   1.527
 5334SOL    HW116901   3.099   6.137   1.479
 5334SOL    HW216902   2.959   6.151   1.562
 5335SOL     OW16903   7.018   5.071   2.009
 5335SOL    HW116904   7.010   5.045   2.105
 5335SOL    HW216905   7.006   5.170   2.000
 5336SOL     OW16906   1.736   3.616   5.104
 5336SOL    HW116907   1.722   3.580   5.012
 5336SOL    HW216908   1.648   3.623   5.151
 5337SOL     OW16909   6.536   3.042   0.536
 5337SOL    HW116910   6.493   2.956   0.510
 5337SOL    HW216911   6.615   3.024   0.594
 5338SOL     OW16912   0.083   3.557   0.670
 5338SOL    HW116913   0.045   3.548   0.578
 5338SOL    HW216914   0.107   3.466   0.705
 5339SOL     OW16915   5.531   2.889   3.236
 5339SOL    HW116916   5.443   2.900   3.189
 5339SOL    HW216917   5.599   2.949   3.192
 5340SOL     OW16918   5.046   3.324   1.219
 5340SOL    HW116919   5.042   3.350   1.122
 5340SOL    HW216920   5.024   3.227   1.228
 5341SOL     OW16921   4.869   4.709   3.536
 5341SOL    HW116922   4.842   4.759   3.618
 5341SOL    HW216923   4.879   4.773   3.460
 5342SOL     OW16924   6.171   5.994   4.982
 5342SOL    HW116925   6.208   5.995   4.889
 5342SOL    HW216926   6.088   5.937   4.984
 5343SOL     OW16927   3.587   3.241   6.795
 5343SOL    HW116928   3.601   3.235   6.696
 5343SOL    HW216929   3.595   3.149   6.835
 5344SOL     OW16930   6.433   2.080   6.611
 5344SOL    HW116931   6.405   2.080   6.707
 5344SOL    HW216932   6.530   2.055   6.605
 5345SOL     OW16933   3.132   1.825   0.322
 5345SOL    HW116934   3.051   1.767   0.324
 5345SOL    HW216935   3.188   1.807   0.403
 5346SOL     OW16936   2.684   6.433   3.379
 5346SOL    HW116937   2.622   6.354   3.369
 5346SOL    HW216938   2.653   6.490   3.455
 5347SOL     OW16939   5.897   1.583   5.465
 5347SOL    HW116940   5.960   1.530   5.521
 5347SOL    HW216941   5.943   1.665   5.431
 5348SOL     OW16942   4.656   2.913   5.499
 5348SOL    HW116943   4.614   2.923   5.409
 5348SOL    HW216944   4.593   2.946   5.569
 5349SOL     OW16945   0.701   3.984   0.817
 5349SOL    HW116946   0.691   3.920   0.893
 5349SOL    HW216947   0.775   4.048   0.838
 5350SOL     OW16948   0.923   6.653   6.394
 5350SOL    HW116949   0.924   6.559   6.429
 5350SOL    HW216950   1.018   6.684   6.382
 5351SOL     OW16951   0.350   5.893   3.758
 5351SOL    HW116952   0.334   5.956   3.682
 5351SOL    HW216953   0.386   5.806   3.722
 5352SOL     OW16954   1.050   2.558   6.124
 5352SOL    HW116955   0.981   2.517   6.065
 5352SOL    HW216956   1.037   2.525   6.218
 5353SOL     OW16957   2.994   6.860   3.916
 5353SOL    HW116958   3.064   6.915   3.870
 5353SOL    HW216959   2.983   6.891   4.010
 5354SOL     OW16960   3.746   5.923   2.024
 5354SOL    HW116961   3.753   5.888   2.117
 5354SOL    HW216962   3.805   6.003   2.014
 5355SOL     OW16963   5.180   5.361   5.339
 5355SOL    HW116964   5.273   5.364   5.375
 5355SOL    HW216965   5.122   5.311   5.402
 5356SOL     OW16966   0.728   0.014   1.555
 5356SOL    HW116967   0.774   6.954   1.585
 5356SOL    HW216968   0.700   0.068   1.635
 5357SOL     OW16969   6.416   3.258   2.549
 5357SOL    HW116970   6.437   3.336   2.490
 5357SOL    HW216971   6.318   3.241   2.548
 5358SOL     OW16972   6.139   1.231   6.446
 5358SOL    HW116973   6.082   1.314   6.450
 5358SOL    HW216974   6.181   1.224   6.355
 5359SOL     OW16975   2.615   2.734   6.916
 5359SOL    HW116976   2.667   2.815   6.942
 5359SOL    HW216977   2.634   2.660   6.981
 5360SOL     OW16978   5.880   5.845   3.552
 5360SOL    HW116979   5.846   5.926   3.600
 5360SOL    HW216980   5.811   5.811   3.490
 5361SOL     OW16981   1.797   3.830   2.939
 5361SOL    HW116982   1.845   3.918   2.943
 5361SOL    HW216983   1.861   3.758   2.914
 5362SOL     OW16984   6.339   1.201   4.205
 5362SOL    HW116985   6.253   1.251   4.214
 5362SOL    HW216986   6.340   1.123   4.267
 5363SOL     OW16987   6.027   5.195   4.467
 5363SOL    HW116988   6.030   5.118   4.404
 5363SOL    HW216989   6.052   5.279   4.419
 5364SOL     OW16990   4.425   2.259   1.806
 5364SOL    HW116991   4.433   2.313   1.722
 5364SOL    HW216992   4.454   2.315   1.884
 5365SOL     OW16993   3.249   3.707   5.445
 5365SOL    HW116994   3.211   3.799   5.449
 5365SOL    HW216995   3.279   3.678   5.536
 5366SOL     OW16996   0.503   4.579   3.245
 5366SOL    HW116997   0.545   4.591   3.335
 5366SOL    HW216998   0.403   4.587   3.254
 5367SOL     OW16999   6.115   6.233   1.452
 5367SOL    HW117000   6.182   6.229   1.527
 5367SOL    HW217001   6.119   6.147   1.400
 5368SOL     OW17002   0.475   5.443   4.655
 5368SOL    HW117003   0.493   5.494   4.572
 5368SOL    HW217004   0.517   5.352   4.648
 5369SOL     OW17005   4.450   6.761   2.824
 5369SOL    HW117006   4.480   6.798   2.912
 5369SOL    HW217007   4.371   6.813   2.791
 5370SOL     OW17008   2.689   2.714   0.731
 5370SOL    HW117009   2.726   2.628   0.695
 5370SOL    HW217010   2.683   2.708   0.831
 5371SOL     OW17011   6.173   5.032   3.407
 5371SOL    HW117012   6.216   5.061   3.493
 5371SOL    HW217013   6.074   5.048   3.412
 5372SOL     OW17014   1.534   6.873   4.008
 5372SOL    HW117015   1.633   6.869   4.024
 5372SOL    HW217016   1.505   6.969   4.002
 5373SOL     OW17017   3.716   0.318   6.980
 5373SOL    HW117018   3.724   0.409   7.021
 5373SOL    HW217019   3.801   0.268   6.994
 5374SOL     OW17020   1.260   4.096   1.723
 5374SOL    HW117021   1.302   4.087   1.814
 5374SOL    HW217022   1.331   4.091   1.653
 5375SOL     OW17023   2.560   4.605   5.021
 5375SOL    HW117024   2.502   4.643   5.094
 5375SOL    HW217025   2.656   4.612   5.048
 5376SOL     OW17026   0.905   0.929   1.435
 5376SOL    HW117027   0.928   1.027   1.433
 5376SOL    HW217028   0.989   0.876   1.450
 5377SOL     OW17029   1.128   2.537   2.406
 5377SOL    HW117030   1.067   2.565   2.480
 5377SOL    HW217031   1.089   2.567   2.319
 5378SOL     OW17032   5.548   6.618   3.248
 5378SOL    HW117033   5.500   6.590   3.165
 5378SOL    HW217034   5.609   6.544   3.277
 5379SOL     OW17035   2.654   2.304   4.210
 5379SOL    HW117036   2.637   2.345   4.299
 5379SOL    HW217037   2.699   2.215   4.222
 5380SOL     OW17038   5.123   6.535   1.771
 5380SOL    HW117039   5.091   6.533   1.676
 5380SOL    HW217040   5.075   6.466   1.824
 5381SOL     OW17041   3.226   1.989   2.685
 5381SOL    HW117042   3.263   1.902   2.650
 5381SOL    HW217043   3.256   2.003   2.779
 5382SOL     OW17044   4.811   0.473   2.833
 5382SOL    HW117045   4.901   0.429   2.839
 5382SOL    HW217046   4.772   0.482   2.925
 5383SOL     OW17047   2.683   3.860   5.329
 5383SOL    HW117048   2.614   3.893   5.264
 5383SOL    HW217049   2.764   3.918   5.324
 5384SOL     OW17050   4.924   6.582   6.152
 5384SOL    HW117051   4.939   6.488   6.122
 5384SOL    HW217052   4.941   6.588   6.250
 5385SOL     OW17053   3.547   3.827   0.646
 5385SOL    HW117054   3.595   3.790   0.567
 5385SOL    HW217055   3.558   3.766   0.724
 5386SOL     OW17056   4.410   4.513   3.343
 5386SOL    HW117057   4.354   4.436   3.313
 5386SOL    HW217058   4.494   4.479   3.386
 5387SOL     OW17059   0.887   2.488   3.862
 5387SOL    HW117060   0.802   2.507   3.911
 5387SOL    HW217061   0.908   2.391   3.868
 5388SOL     OW17062   0.150   6.398   3.519
 5388SOL    HW117063   0.194   6.311   3.541
 5388SOL    HW217064   0.060   6.380   3.480
 5389SOL     OW17065   5.465   1.752   4.424
 5389SOL    HW117066   5.385   1.696   4.403
 5389SOL    HW217067   5.534   1.741   4.353
 5390SOL     OW17068   5.936   2.869   3.665
 5390SOL    HW117069   5.853   2.886   3.718
 5390SOL    HW217070   5.938   2.929   3.585
 5391SOL     OW17071   4.276   2.871   1.296
 5391SOL    HW117072   4.309   2.787   1.339
 5391SOL    HW217073   4.331   2.949   1.328
 5392SOL     OW17074   5.179   0.537   4.451
 5392SOL    HW117075   5.198   0.485   4.368
 5392SOL    HW217076   5.112   0.487   4.507
 5393SOL     OW17077   3.974   2.075   3.198
 5393SOL    HW117078   3.983   2.118   3.287
 5393SOL    HW217079   3.917   1.993   3.206
 5394SOL     OW17080   0.104   2.686   2.979
 5394SOL    HW117081   0.045   2.735   2.915
 5394SOL    HW217082   0.115   2.740   3.063
 5395SOL     OW17083   0.107   1.325   0.963
 5395SOL    HW117084   0.077   1.392   0.895
 5395SOL    HW217085   0.204   1.339   0.981
 5396SOL     OW17086   4.701   2.705   0.312
 5396SOL    HW117087   4.621   2.754   0.345
 5396SOL    HW217088   4.691   2.688   0.214
 5397SOL     OW17089   0.243   0.180   1.855
 5397SOL    HW117090   0.272   0.230   1.937
 5397SOL    HW217091   0.322   0.135   1.813
 5398SOL     OW17092   5.949   1.978   3.230
 5398SOL    HW117093   5.851   1.997   3.239
 5398SOL    HW217094   5.996   2.001   3.316
 5399SOL     OW17095   2.951   2.925   0.217
 5399SOL    HW117096   2.910   3.008   0.180
 5399SOL    HW217097   2.938   2.850   0.152
 5400SOL     OW17098   5.704   2.402   1.117
 5400SOL    HW117099   5.686   2.418   1.214
 5400SOL    HW217100   5.768   2.326   1.107
 5401SOL     OW17101   4.929   3.809   1.468
 5401SOL    HW117102   4.920   3.833   1.371
 5401SOL    HW217103   4.969   3.718   1.477
 5402SOL     OW17104   1.283   6.292   1.779
 5402SOL    HW117105   1.302   6.196   1.801
 5402SOL    HW217106   1.203   6.323   1.830
 5403SOL     OW17107   5.921   2.217   5.627
 5403SOL    HW117108   5.896   2.229   5.531
 5403SOL    HW217109   5.880   2.291   5.681
 5404SOL     OW17110   4.783   6.705   0.528
 5404SOL    HW117111   4.783   6.681   0.431
 5404SOL    HW217112   4.869   6.750   0.551
 5405SOL     OW17113   6.871   5.457   6.373
 5405SOL    HW117114   6.784   5.412   6.393
 5405SOL    HW217115   6.854   5.551   6.344
 5406SOL     OW17116   2.155   1.108   5.550
 5406SOL    HW117117   2.189   1.015   5.565
 5406SOL    HW217118   2.058   1.104   5.526
 5407SOL     OW17119   2.575   0.584   2.615
 5407SOL    HW117120   2.546   0.513   2.551
 5407SOL    HW217121   2.526   0.573   2.702
 5408SOL     OW17122   1.570   2.050   4.346
 5408SOL    HW117123   1.526   2.139   4.349
 5408SOL    HW217124   1.503   1.979   4.370
 5409SOL     OW17125   0.611   3.629   2.808
 5409SOL    HW117126   0.699   3.590   2.836
 5409SOL    HW217127   0.609   3.640   2.709
 5410SOL     OW17128   6.370   1.929   0.267
 5410SOL    HW117129   6.325   1.913   0.179
 5410SOL    HW217130   6.330   2.010   0.311
 5411SOL     OW17131   3.314   5.271   1.701
 5411SOL    HW117132   3.309   5.306   1.607
 5411SOL    HW217133   3.240   5.205   1.715
 5412SOL     OW17134   1.287   2.294   6.004
 5412SOL    HW117135   1.359   2.239   6.045
 5412SOL    HW217136   1.286   2.385   6.044
 5413SOL     OW17137   6.631   5.472   5.835
 5413SOL    HW117138   6.708   5.464   5.899
 5413SOL    HW217139   6.620   5.568   5.808
 5414SOL     OW17140   5.590   5.685   6.300
 5414SOL    HW117141   5.557   5.714   6.390
 5414SOL    HW217142   5.574   5.758   6.233
 5415SOL     OW17143   1.866   1.443   6.392
 5415SOL    HW117144   1.851   1.490   6.305
 5415SOL    HW217145   1.962   1.454   6.420
 5416SOL     OW17146   3.764   5.834   6.418
 5416SOL    HW117147   3.844   5.888   6.390
 5416SOL    HW217148   3.792   5.764   6.484
 5417SOL     OW17149   5.547   0.250   2.016
 5417SOL    HW117150   5.516   0.155   2.021
 5417SOL    HW217151   5.619   0.265   2.083
 5418SOL     OW17152   0.660   3.753   5.336
 5418SOL    HW117153   0.757   3.747   5.357
 5418SOL    HW217154   0.633   3.850   5.329
 5419SOL     OW17155   4.090   1.669   5.822
 5419SOL    HW117156   4.173   1.616   5.835
 5419SOL    HW217157   4.100   1.728   5.742
 5420SOL     OW17158   2.261   1.966   1.028
 5420SOL    HW117159   2.282   2.032   1.100
 5420SOL    HW217160   2.334   1.968   0.959
 5421SOL     OW17161   4.106   4.843   1.421
 5421SOL    HW117162   4.099   4.913   1.350
 5421SOL    HW217163   4.184   4.784   1.401
 5422SOL     OW17164   2.949   6.338   3.492
 5422SOL    HW117165   2.860   6.367   3.455
 5422SOL    HW217166   3.004   6.418   3.513
 5423SOL     OW17167   4.156   6.969   2.006
 5423SOL    HW117168   4.065   6.927   1.999
 5423SOL    HW217169   4.167   0.014   1.934
 5424SOL     OW17170   3.639   3.460   5.147
 5424SOL    HW117171   3.567   3.490   5.210
 5424SOL    HW217172   3.613   3.373   5.105
 5425SOL     OW17173   1.276   5.040   5.497
 5425SOL    HW117174   1.306   4.976   5.427
 5425SOL    HW217175   1.320   5.129   5.481
 5426SOL     OW17176   0.779   4.170   0.039
 5426SOL    HW117177   0.808   4.181   6.967
 5426SOL    HW217178   0.843   4.110   0.087
 5427SOL     OW17179   4.131   2.065   6.715
 5427SOL    HW117180   4.094   2.124   6.786
 5427SOL    HW217181   4.128   1.970   6.745
 5428SOL     OW17182   4.164   5.996   2.912
 5428SOL    HW117183   4.247   6.051   2.901
 5428SOL    HW217184   4.151   5.975   3.008
 5429SOL     OW17185   2.437   6.591   4.048
 5429SOL    HW117186   2.476   6.663   3.991
 5429SOL    HW217187   2.369   6.630   4.110
 5430SOL     OW17188   1.626   4.566   5.331
 5430SOL    HW117189   1.559   4.493   5.348
 5430SOL    HW217190   1.690   4.536   5.260
 5431SOL     OW17191   5.164   4.651   1.424
 5431SOL    HW117192   5.197   4.706   1.501
 5431SOL    HW217193   5.221   4.571   1.412
 5432SOL     OW17194   0.367   5.172   6.170
 5432SOL    HW117195   0.404   5.101   6.110
 5432SOL    HW217196   0.273   5.194   6.141
 5433SOL     OW17197   2.628   0.394   1.538
 5433SOL    HW117198   2.618   0.487   1.502
 5433SOL    HW217199   2.710   0.389   1.595
 5434SOL     OW17200   5.146   5.862   4.313
 5434SOL    HW117201   5.173   5.939   4.369
 5434SOL    HW217202   5.063   5.820   4.349
 5435SOL     OW17203   6.504   3.941   6.643
 5435SOL    HW117204   6.458   3.999   6.710
 5435SOL    HW217205   6.435   3.894   6.588
 5436SOL     OW17206   1.563   4.248   1.981
 5436SOL    HW117207   1.474   4.287   1.957
 5436SOL    HW217208   1.634   4.317   1.968
 5437SOL     OW17209   3.649   6.620   6.543
 5437SOL    HW117210   3.557   6.584   6.525
 5437SOL    HW217211   3.654   6.652   6.638
 5438SOL     OW17212   5.735   6.729   2.859
 5438SOL    HW117213   5.823   6.691   2.831
 5438SOL    HW217214   5.671   6.727   2.782
 5439SOL     OW17215   1.476   3.760   1.656
 5439SOL    HW117216   1.553   3.722   1.605
 5439SOL    HW217217   1.508   3.837   1.712
 5440SOL     OW17218   6.425   0.184   4.309
 5440SOL    HW117219   6.506   0.135   4.279
 5440SOL    HW217220   6.440   0.282   4.301
 5441SOL     OW17221   5.606   1.509   5.047
 5441SOL    HW117222   5.617   1.427   4.991
 5441SOL    HW217223   5.635   1.489   5.141
 5442SOL     OW17224   2.584   0.232   6.462
 5442SOL    HW117225   2.571   0.239   6.560
 5442SOL    HW217226   2.679   0.253   6.439
 5443SOL     OW17227   5.835   0.605   3.806
 5443SOL    HW117228   5.824   0.507   3.795
 5443SOL    HW217229   5.879   0.643   3.725
 5444SOL     OW17230   1.242   0.953   6.007
 5444SOL    HW117231   1.164   0.958   6.070
 5444SOL    HW217232   1.302   0.877   6.033
 5445SOL     OW17233   5.751   6.670   5.159
 5445SOL    HW117234   5.776   6.762   5.189
 5445SOL    HW217235   5.753   6.666   5.059
 5446SOL     OW17236   1.547   5.218   5.606
 5446SOL    HW117237   1.485   5.178   5.674
 5446SOL    HW217238   1.633   5.167   5.606
 5447SOL     OW17239   6.480   2.027   1.404
 5447SOL    HW117240   6.521   1.958   1.345
 5447SOL    HW217241   6.489   1.999   1.500
 5448SOL     OW17242   6.593   4.726   1.531
 5448SOL    HW117243   6.614   4.669   1.451
 5448SOL    HW217244   6.639   4.688   1.611
 5449SOL     OW17245   2.229   0.110   2.392
 5449SOL    HW117246   2.252   0.023   2.350
 5449SOL    HW217247   2.301   0.136   2.456
 5450SOL     OW17248   4.560   5.518   1.868
 5450SOL    HW117249   4.478   5.564   1.835
 5450SOL    HW217250   4.632   5.586   1.884
 5451SOL     OW17251   0.789   6.094   3.922
 5451SOL    HW117252   0.781   6.190   3.945
 5451SOL    HW217253   0.701   6.048   3.935
 5452SOL     OW17254   1.859   4.091   2.912
 5452SOL    HW117255   1.830   4.186   2.908
 5452SOL    HW217256   1.921   4.071   2.837
 5453SOL     OW17257   6.058   4.885   4.621
 5453SOL    HW117258   6.043   4.926   4.711
 5453SOL    HW217259   6.009   4.938   4.552
 5454SOL     OW17260   5.787   3.957   2.407
 5454SOL    HW117261   5.800   3.945   2.505
 5454SOL    HW217262   5.808   3.872   2.359
 5455SOL     OW17263   2.260   1.951   3.436
 5455SOL    HW117264   2.354   1.919   3.425
 5455SOL    HW217265   2.251   2.042   3.395
 5456SOL     OW17266   5.420   2.433   0.812
 5456SOL    HW117267   5.458   2.418   0.721
 5456SOL    HW217268   5.451   2.360   0.873
 5457SOL     OW17269   6.621   1.869   0.153
 5457SOL    HW117270   6.537   1.886   0.205
 5457SOL    HW217271   6.700   1.889   0.209
 5458SOL     OW17272   6.169   5.253   5.596
 5458SOL    HW117273   6.116   5.337   5.584
 5458SOL    HW217274   6.234   5.265   5.672
 5459SOL     OW17275   2.384   3.545   5.292
 5459SOL    HW117276   2.473   3.576   5.325
 5459SOL    HW217277   2.371   3.449   5.318
 5460SOL     OW17278   0.591   0.658   1.423
 5460SOL    HW117279   0.542   0.603   1.355
 5460SOL    HW217280   0.535   0.665   1.506
 5461SOL     OW17281   6.172   1.820   6.688
 5461SOL    HW117282   6.174   1.775   6.599
 5461SOL    HW217283   6.195   1.754   6.759
 5462SOL     OW17284   5.310   5.398   6.220
 5462SOL    HW117285   5.276   5.489   6.199
 5462SOL    HW217286   5.362   5.363   6.142
 5463SOL     OW17287   1.819   5.378   6.435
 5463SOL    HW117288   1.916   5.391   6.458
 5463SOL    HW217289   1.793   5.440   6.362
 5464SOL     OW17290   2.019   5.644   4.195
 5464SOL    HW117291   1.942   5.583   4.177
 5464SOL    HW217292   2.059   5.674   4.108
 5465SOL     OW17293   0.778   0.633   4.872
 5465SOL    HW117294   0.680   0.637   4.887
 5465SOL    HW217295   0.797   0.575   4.793
 5466SOL     OW17296   4.730   2.354   5.060
 5466SOL    HW117297   4.718   2.407   4.976
 5466SOL    HW217298   4.824   2.364   5.093
 5467SOL     OW17299   6.289   3.058   3.891
 5467SOL    HW117300   6.290   3.052   3.991
 5467SOL    HW217301   6.206   3.104   3.860
 5468SOL     OW17302   0.240   2.456   1.683
 5468SOL    HW117303   0.247   2.379   1.619
 5468SOL    HW217304   0.283   2.432   1.769
 5469SOL     OW17305   3.908   1.881   3.909
 5469SOL    HW117306   3.833   1.840   3.960
 5469SOL    HW217307   3.923   1.974   3.942
 5470SOL     OW17308   2.953   4.982   3.424
 5470SOL    HW117309   3.033   4.950   3.373
 5470SOL    HW217310   2.961   4.954   3.519
 5471SOL     OW17311   5.790   0.493   3.346
 5471SOL    HW117312   5.870   0.476   3.403
 5471SOL    HW217313   5.742   0.574   3.380
 5472SOL     OW17314   2.360   4.352   6.639
 5472SOL    HW117315   2.297   4.294   6.589
 5472SOL    HW217316   2.415   4.405   6.574
 5473SOL     OW17317   2.633   4.840   1.865
 5473SOL    HW117318   2.716   4.785   1.872
 5473SOL    HW217319   2.573   4.800   1.796
 5474SOL     OW17320   1.309   5.004   1.887
 5474SOL    HW117321   1.269   4.914   1.868
 5474SOL    HW217322   1.383   5.022   1.823
 5475SOL     OW17323   1.237   0.710   5.080
 5475SOL    HW117324   1.265   0.806   5.084
 5475SOL    HW217325   1.140   0.705   5.054
 5476SOL     OW17326   2.124   0.804   5.012
 5476SOL    HW117327   2.152   0.709   5.002
 5476SOL    HW217328   2.067   0.831   4.934
 5477SOL     OW17329   2.173   3.246   2.656
 5477SOL    HW117330   2.200   3.152   2.635
 5477SOL    HW217331   2.151   3.294   2.571
 5478SOL     OW17332   6.487   3.502   5.825
 5478SOL    HW117333   6.548   3.559   5.880
 5478SOL    HW217334   6.482   3.537   5.732
 5479SOL     OW17335   5.556   2.996   4.197
 5479SOL    HW117336   5.516   2.905   4.206
 5479SOL    HW217337   5.641   3.001   4.249
 5480SOL     OW17338   1.486   3.495   4.502
 5480SOL    HW117339   1.484   3.514   4.404
 5480SOL    HW217340   1.536   3.569   4.548
 5481SOL     OW17341   4.566   1.416   6.511
 5481SOL    HW117342   4.648   1.430   6.567
 5481SOL    HW217343   4.592   1.377   6.423
 5482SOL     OW17344   5.572   4.147   2.851
 5482SOL    HW117345   5.562   4.048   2.844
 5482SOL    HW217346   5.630   4.168   2.930
 5483SOL     OW17347   6.522   2.655   6.938
 5483SOL    HW117348   6.493   2.573   6.890
 5483SOL    HW217349   6.459   2.674   7.013
 5484SOL     OW17350   6.266   0.778   5.353
 5484SOL    HW117351   6.258   0.681   5.329
 5484SOL    HW217352   6.208   0.833   5.293
 5485SOL     OW17353   3.169   0.962   4.077
 5485SOL    HW117354   3.256   1.001   4.045
 5485SOL    HW217355   3.140   0.890   4.015
 5486SOL     OW17356   0.888   0.282   3.642
 5486SOL    HW117357   0.977   0.324   3.658
 5486SOL    HW217358   0.816   0.343   3.675
 5487SOL     OW17359   4.436   5.423   1.476
 5487SOL    HW117360   4.456   5.389   1.568
 5487SOL    HW217361   4.434   5.523   1.476
 5488SOL     OW17362   5.307   1.242   5.744
 5488SOL    HW117363   5.293   1.340   5.740
 5488SOL    HW217364   5.250   1.203   5.817
 5489SOL     OW17365   6.934   3.861   2.214
 5489SOL    HW117366   6.968   3.924   2.284
 5489SOL    HW217367   6.932   3.768   2.251
 5490SOL     OW17368   3.248   2.063   6.416
 5490SOL    HW117369   3.258   2.057   6.317
 5490SOL    HW217370   3.254   1.972   6.456
 5491SOL     OW17371   6.904   5.359   2.696
 5491SOL    HW117372   6.826   5.320   2.746
 5491SOL    HW217373   6.871   5.427   2.630
 5492SOL     OW17374   0.934   1.318   4.690
 5492SOL    HW117375   0.900   1.385   4.756
 5492SOL    HW217376   0.989   1.364   4.621
 5493SOL     OW17377   3.412   1.857   0.957
 5493SOL    HW117378   3.437   1.876   0.862
 5493SOL    HW217379   3.313   1.841   0.963
 5494SOL     OW17380   5.535   3.078   2.636
 5494SOL    HW117381   5.577   3.014   2.701
 5494SOL    HW217382   5.545   3.171   2.670
 5495SOL     OW17383   3.805   3.094   3.919
 5495SOL    HW117384   3.817   3.101   3.820
 5495SOL    HW217385   3.750   3.013   3.940
 5496SOL     OW17386   5.057   5.574   2.079
 5496SOL    HW117387   5.017   5.525   2.001
 5496SOL    HW217388   5.156   5.579   2.069
 5497SOL     OW17389   5.388   0.276   0.801
 5497SOL    HW117390   5.485   0.262   0.820
 5497SOL    HW217391   5.370   0.255   0.705
 5498SOL     OW17392   4.754   1.117   4.445
 5498SOL    HW117393   4.659   1.135   4.421
 5498SOL    HW217394   4.779   1.024   4.418
 5499SOL     OW17395   0.647   0.932   5.440
 5499SOL    HW117396   0.609   1.020   5.468
 5499SOL    HW217397   0.586   0.888   5.374
 5500SOL     OW17398   1.752   6.709   0.972
 5500SOL    HW117399   1.734   6.773   1.046
 5500SOL    HW217400   1.803   6.631   1.007
 5501SOL     OW17401   3.070   0.577   2.570
 5501SOL    HW117402   3.165   0.549   2.559
 5501SOL    HW217403   3.023   0.573   2.482
 5502SOL     OW17404   4.567   3.502   0.445
 5502SOL    HW117405   4.525   3.500   0.536
 5502SOL    HW217406   4.619   3.418   0.430
 5503SOL     OW17407   0.206   6.546   4.146
 5503SOL    HW117408   0.305   6.534   4.149
 5503SOL    HW217409   0.181   6.597   4.063
 5504SOL     OW17410   2.973   2.166   4.466
 5504SOL    HW117411   2.945   2.255   4.503
 5504SOL    HW217412   2.909   2.096   4.494
 5505SOL     OW17413   3.380   4.602   0.161
 5505SOL    HW117414   3.308   4.548   0.118
 5505SOL    HW217415   3.396   4.684   0.106
 5506SOL     OW17416   0.178   6.635   5.663
 5506SOL    HW117417   0.154   6.538   5.673
 5506SOL    HW217418   0.277   6.644   5.662
 5507SOL     OW17419   3.243   4.944   5.645
 5507SOL    HW117420   3.336   4.977   5.661
 5507SOL    HW217421   3.209   4.979   5.558
 5508SOL     OW17422   1.396   0.683   5.571
 5508SOL    HW117423   1.470   0.751   5.577
 5508SOL    HW217424   1.318   0.723   5.525
 5509SOL     OW17425   6.273   0.213   6.523
 5509SOL    HW117426   6.259   0.121   6.486
 5509SOL    HW217427   6.211   0.228   6.600
 5510SOL     OW17428   6.534   1.010   6.296
 5510SOL    HW117429   6.582   1.053   6.372
 5510SOL    HW217430   6.513   0.915   6.318
 5511SOL     OW17431   6.704   3.062   1.597
 5511SOL    HW117432   6.647   3.137   1.632
 5511SOL    HW217433   6.740   3.009   1.673
 5512SOL     OW17434   6.863   0.436   0.304
 5512SOL    HW117435   6.957   0.432   0.340
 5512SOL    HW217436   6.810   0.360   0.341
 5513SOL     OW17437   3.149   6.105   5.181
 5513SOL    HW117438   3.170   6.091   5.084
 5513SOL    HW217439   3.132   6.017   5.224
 5514SOL     OW17440   6.206   5.732   3.792
 5514SOL    HW117441   6.181   5.716   3.696
 5514SOL    HW217442   6.222   5.645   3.837
 5515SOL     OW17443   6.783   3.640   3.088
 5515SOL    HW117444   6.795   3.565   3.152
 5515SOL    HW217445   6.775   3.604   2.995
 5516SOL     OW17446   1.027   2.246   6.998
 5516SOL    HW117447   1.043   2.278   6.905
 5516SOL    HW217448   0.939   2.199   7.003
 5517SOL     OW17449   2.709   1.168   2.249
 5517SOL    HW117450   2.756   1.085   2.279
 5517SOL    HW217451   2.647   1.199   2.320
 5518SOL     OW17452   5.271   4.235   5.335
 5518SOL    HW117453   5.295   4.323   5.376
 5518SOL    HW217454   5.248   4.247   5.239
 5519SOL     OW17455   5.385   3.868   3.089
 5519SOL    HW117456   5.342   3.782   3.116
 5519SOL    HW217457   5.315   3.934   3.064
 5520SOL     OW17458   1.924   2.773   0.713
 5520SOL    HW117459   1.911   2.675   0.698
 5520SOL    HW217460   1.972   2.788   0.800
 5521SOL     OW17461   5.284   5.352   0.023
 5521SOL    HW117462   5.309   5.268   0.072
 5521SOL    HW217463   5.194   5.341   7.004
 5522SOL     OW17464   1.981   2.574   1.898
 5522SOL    HW117465   2.051   2.617   1.955
 5522SOL    HW217466   2.001   2.476   1.890
 5523SOL     OW17467   3.526   0.400   1.654
 5523SOL    HW117468   3.602   0.420   1.716
 5523SOL    HW217469   3.441   0.398   1.706
 5524SOL     OW17470   6.099   5.938   5.813
 5524SOL    HW117471   6.016   5.888   5.787
 5524SOL    HW217472   6.097   6.029   5.773
 5525SOL     OW17473   6.553   5.638   3.759
 5525SOL    HW117474   6.623   5.597   3.819
 5525SOL    HW217475   6.476   5.669   3.815
 5526SOL     OW17476   4.955   3.034   4.323
 5526SOL    HW117477   4.914   3.107   4.378
 5526SOL    HW217478   5.054   3.046   4.319
 5527SOL     OW17479   2.015   3.611   6.911
 5527SOL    HW117480   1.923   3.574   6.927
 5527SOL    HW217481   2.012   3.679   6.838
 5528SOL     OW17482   6.590   3.415   2.823
 5528SOL    HW117483   6.593   3.512   2.844
 5528SOL    HW217484   6.555   3.401   2.731
 5529SOL     OW17485   1.413   1.074   3.932
 5529SOL    HW117486   1.318   1.063   3.903
 5529SOL    HW217487   1.448   0.986   3.964
 5530SOL     OW17488   6.588   3.060   6.966
 5530SOL    HW117489   6.494   3.050   6.999
 5530SOL    HW217490   6.619   3.154   6.983
 5531SOL     OW17491   2.177   3.241   6.859
 5531SOL    HW117492   2.084   3.239   6.898
 5531SOL    HW217493   2.212   3.148   6.854
 5532SOL     OW17494   2.298   2.139   1.220
 5532SOL    HW117495   2.298   2.120   1.319
 5532SOL    HW217496   2.347   2.224   1.203
 5533SOL     OW17497   3.565   0.249   0.615
 5533SOL    HW117498   3.486   0.309   0.631
 5533SOL    HW217499   3.645   0.306   0.598
 5534SOL     OW17500   0.279   4.262   5.351
 5534SOL    HW117501   0.334   4.322   5.294
 5534SOL    HW217502   0.267   4.305   5.441
 5535SOL     OW17503   6.261   3.485   3.785
 5535SOL    HW117504   6.347   3.483   3.835
 5535SOL    HW217505   6.186   3.463   3.847
 5536SOL     OW17506   3.229   0.774   4.360
 5536SOL    HW117507   3.271   0.686   4.338
 5536SOL    HW217508   3.299   0.846   4.358
 5537SOL     OW17509   4.192   1.206   5.108
 5537SOL    HW117510   4.183   1.108   5.124
 5537SOL    HW217511   4.230   1.250   5.190
 5538SOL     OW17512   5.526   2.026   2.595
 5538SOL    HW117513   5.489   2.087   2.524
 5538SOL    HW217514   5.552   1.939   2.553
 5539SOL     OW17515   2.609   0.139   6.912
 5539SOL    HW117516   2.528   0.120   6.967
 5539SOL    HW217517   2.669   0.202   6.960
 5540SOL     OW17518   5.670   6.990   5.628
 5540SOL    HW117519   5.574   7.011   5.606
 5540SOL    HW217520   5.713   0.047   5.669
 5541SOL     OW17521   4.349   3.375   0.131
 5541SOL    HW117522   4.319   3.310   0.062
 5541SOL    HW217523   4.275   3.441   0.150
 5542SOL     OW17524   4.457   4.609   0.266
 5542SOL    HW117525   4.482   4.552   0.344
 5542SOL    HW217526   4.509   4.580   0.186
 5543SOL     OW17527   1.197   0.470   6.389
 5543SOL    HW117528   1.275   0.413   6.363
 5543SOL    HW217529   1.216   0.517   6.475
 5544SOL     OW17530   3.866   5.028   0.615
 5544SOL    HW117531   3.781   5.081   0.622
 5544SOL    HW217532   3.854   4.938   0.657
 5545SOL     OW17533   5.052   0.991   3.568
 5545SOL    HW117534   5.061   1.003   3.470
 5545SOL    HW217535   5.041   1.080   3.612
 5546SOL     OW17536   0.241   5.045   4.162
 5546SOL    HW117537   0.266   5.002   4.075
 5546SOL    HW217538   0.147   5.022   4.185
 5547SOL     OW17539   4.753   2.496   4.817
 5547SOL    HW117540   4.764   2.591   4.787
 5547SOL    HW217541   4.841   2.449   4.808
 5548SOL     OW17542   0.476   4.435   5.233
 5548SOL    HW117543   0.459   4.439   5.135
 5548SOL    HW217544   0.573   4.416   5.249
 5549SOL     OW17545   3.890   3.129   0.674
 5549SOL    HW117546   3.889   3.092   0.767
 5549SOL    HW217547   3.841   3.216   0.672
 5550SOL     OW17548   2.454   4.058   1.670
 5550SOL    HW117549   2.469   4.115   1.750
 5550SOL    HW217550   2.386   3.988   1.691
 5551SOL     OW17551   2.191   5.012   2.606
 5551SOL    HW117552   2.223   4.918   2.598
 5551SOL    HW217553   2.269   5.073   2.618
 5552SOL     OW17554   1.149   0.205   0.242
 5552SOL    HW117555   1.087   0.179   0.168
 5552SOL    HW217556   1.207   0.281   0.211
 5553SOL     OW17557   5.453   0.313   6.970
 5553SOL    HW117558   5.449   0.397   0.001
 5553SOL    HW217559   5.402   0.325   6.885
 5554SOL     OW17560   6.820   2.228   1.581
 5554SOL    HW117561   6.737   2.252   1.630
 5554SOL    HW217562   6.833   2.290   1.504
 5555SOL     OW17563   1.190   4.808   2.190
 5555SOL    HW117564   1.138   4.885   2.153
 5555SOL    HW217565   1.129   4.732   2.208
 5556SOL     OW17566   0.077   1.137   4.467
 5556SOL    HW117567   0.055   1.049   4.510
 5556SOL    HW217568   0.176   1.152   4.471
 5557SOL     OW17569   4.004   6.370   3.340
 5557SOL    HW117570   4.031   6.462   3.310
 5557SOL    HW217571   4.011   6.307   3.263
 5558SOL     OW17572   4.502   4.240   0.063
 5558SOL    HW117573   4.452   4.159   0.092
 5558SOL    HW217574   4.486   4.315   0.127
 5559SOL     OW17575   3.562   0.684   2.616
 5559SOL    HW117576   3.553   0.647   2.708
 5559SOL    HW217577   3.586   0.781   2.621
 5560SOL     OW17578   0.564   5.290   3.517
 5560SOL    HW117579   0.603   5.198   3.522
 5560SOL    HW217580   0.536   5.320   3.608
 5561SOL     OW17581   3.919   6.626   2.974
 5561SOL    HW117582   3.960   6.592   2.890
 5561SOL    HW217583   3.876   6.714   2.957
 5562SOL     OW17584   3.533   3.641   1.047
 5562SOL    HW117585   3.538   3.736   1.077
 5562SOL    HW217586   3.437   3.615   1.033
 5563SOL     OW17587   2.539   4.497   2.276
 5563SOL    HW117588   2.488   4.500   2.190
 5563SOL    HW217589   2.622   4.552   2.268
 5564SOL     OW17590   4.706   6.863   6.323
 5564SOL    HW117591   4.705   6.819   6.233
 5564SOL    HW217592   4.793   6.911   6.336
 5565SOL     OW17593   3.650   1.502   6.378
 5565SOL    HW117594   3.576   1.435   6.370
 5565SOL    HW217595   3.703   1.504   6.294
 5566SOL     OW17596   1.522   4.368   5.968
 5566SOL    HW117597   1.567   4.455   5.988
 5566SOL    HW217598   1.574   4.319   5.898
 5567SOL     OW17599   0.447   4.562   0.268
 5567SOL    HW117600   0.359   4.590   0.306
 5567SOL    HW217601   0.519   4.621   0.305
 5568SOL     OW17602   4.920   4.655   1.529
 5568SOL    HW117603   4.919   4.740   1.582
 5568SOL    HW217604   4.997   4.656   1.465
 5569SOL     OW17605   2.446   2.598   2.797
 5569SOL    HW117606   2.414   2.561   2.885
 5569SOL    HW217607   2.513   2.536   2.758
 5570SOL     OW17608   6.958   3.756   1.632
 5570SOL    HW117609   6.972   3.809   1.715
 5570SOL    HW217610   0.016   3.763   1.573
 5571SOL     OW17611   6.544   4.757   1.134
 5571SOL    HW117612   6.532   4.659   1.146
 5571SOL    HW217613   6.629   4.786   1.178
 5572SOL     OW17614   1.941   3.999   4.990
 5572SOL    HW117615   1.940   3.901   5.007
 5572SOL    HW217616   2.002   4.044   5.055
 5573SOL     OW17617   3.305   4.980   3.654
 5573SOL    HW117618   3.395   4.945   3.626
 5573SOL    HW217619   3.301   5.079   3.637
 5574SOL     OW17620   0.597   2.374   4.989
 5574SOL    HW117621   0.607   2.298   4.925
 5574SOL    HW217622   0.666   2.444   4.970
 5575SOL     OW17623   0.032   0.004   1.799
 5575SOL    HW117624   0.061   0.007   1.703
 5575SOL    HW217625   0.083   0.072   1.851
 5576SOL     OW17626   1.412   4.977   2.859
 5576SOL    HW117627   1.353   5.015   2.931
 5576SOL    HW217628   1.502   4.956   2.898
 5577SOL     OW17629   1.832   2.626   5.947
 5577SOL    HW117630   1.899   2.699   5.938
 5577SOL    HW217631   1.764   2.651   6.016
 5578SOL     OW17632   3.138   3.928   3.446
 5578SOL    HW117633   3.186   3.983   3.514
 5578SOL    HW217634   3.055   3.890   3.486
 5579SOL     OW17635   6.736   2.842   2.327
 5579SOL    HW117636   6.701   2.811   2.416
 5579SOL    HW217637   6.835   2.835   2.327
 5580SOL     OW17638   5.556   2.242   5.368
 5580SOL    HW117639   5.543   2.324   5.424
 5580SOL    HW217640   5.640   2.196   5.396
 5581SOL     OW17641   1.631   2.535   6.661
 5581SOL    HW117642   1.598   2.458   6.715
 5581SOL    HW217643   1.718   2.510   6.617
 5582SOL     OW17644   2.997   2.779   5.937
 5582SOL    HW117645   3.008   2.683   5.911
 5582SOL    HW217646   2.901   2.806   5.927
 5583SOL     OW17647   5.643   0.015   1.024
 5583SOL    HW117648   5.669   0.062   0.940
 5583SOL    HW217649   5.554   0.049   1.055
 5584SOL     OW17650   1.921   3.270   4.180
 5584SOL    HW117651   1.858   3.343   4.206
 5584SOL    HW217652   1.914   3.252   4.082
 5585SOL     OW17653   5.383   5.128   1.803
 5585SOL    HW117654   5.451   5.200   1.816
 5585SOL    HW217655   5.350   5.097   1.892
 5586SOL     OW17656   0.601   4.527   0.014
 5586SOL    HW117657   0.552   4.561   0.094
 5586SOL    HW217658   0.544   4.461   6.988
 5587SOL     OW17659   6.516   0.737   5.905
 5587SOL    HW117660   6.566   0.660   5.865
 5587SOL    HW217661   6.575   0.786   5.969
 5588SOL     OW17662   3.828   6.912   1.010
 5588SOL    HW117663   3.876   6.994   1.042
 5588SOL    HW217664   3.885   6.832   1.025
 5589SOL     OW17665   5.955   5.003   5.917
 5589SOL    HW117666   5.967   4.910   5.882
 5589SOL    HW217667   6.023   5.021   5.988
 5590SOL     OW17668   6.216   5.357   3.259
 5590SOL    HW117669   6.185   5.283   3.200
 5590SOL    HW217670   6.316   5.365   3.253
 5591SOL     OW17671   5.229   1.181   1.875
 5591SOL    HW117672   5.236   1.174   1.975
 5591SOL    HW217673   5.281   1.107   1.833
 5592SOL     OW17674   0.661   4.129   3.003
 5592SOL    HW117675   0.675   4.056   3.069
 5592SOL    HW217676   0.666   4.218   3.050
 5593SOL     OW17677   0.740   3.915   0.543
 5593SOL    HW117678   0.736   3.910   0.643
 5593SOL    HW217679   0.647   3.919   0.506
 5594SOL     OW17680   6.469   2.071   5.872
 5594SOL    HW117681   6.554   2.034   5.910
 5594SOL    HW217682   6.487   2.108   5.780
 5595SOL     OW17683   1.266   2.178   6.788
 5595SOL    HW117684   1.340   2.230   6.746
 5595SOL    HW217685   1.192   2.241   6.814
 5596SOL     OW17686   3.227   5.952   3.480
 5596SOL    HW117687   3.142   6.001   3.458
 5596SOL    HW217688   3.259   5.980   3.570
 5597SOL     OW17689   5.170   3.340   2.732
 5597SOL    HW117690   5.077   3.370   2.756
 5597SOL    HW217691   5.212   3.296   2.812
 5598SOL     OW17692   5.306   1.419   5.181
 5598SOL    HW117693   5.361   1.501   5.193
 5598SOL    HW217694   5.328   1.353   5.252
 5599SOL     OW17695   1.253   0.292   3.398
 5599SOL    HW117696   1.167   0.315   3.445
 5599SOL    HW217697   1.233   0.232   3.320
 5600SOL     OW17698   1.638   2.539   5.099
 5600SOL    HW117699   1.586   2.469   5.049
 5600SOL    HW217700   1.654   2.618   5.038
 5601SOL     OW17701   2.599   0.985   6.252
 5601SOL    HW117702   2.582   0.901   6.202
 5601SOL    HW217703   2.640   1.053   6.191
 5602SOL     OW17704   1.567   1.030   0.314
 5602SOL    HW117705   1.593   1.011   0.408
 5602SOL    HW217706   1.548   0.944   0.266
 5603SOL     OW17707   5.789   5.193   5.818
 5603SOL    HW117708   5.875   5.146   5.836
 5603SOL    HW217709   5.717   5.154   5.874
 5604SOL     OW17710   5.809   1.328   6.053
 5604SOL    HW117711   5.816   1.395   6.127
 5604SOL    HW217712   5.715   1.327   6.018
 5605SOL     OW17713   1.494   2.583   6.392
 5605SOL    HW117714   1.489   2.532   6.478
 5605SOL    HW217715   1.585   2.623   6.382
 5606SOL     OW17716   5.724   0.165   3.082
 5606SOL    HW117717   5.713   0.071   3.049
 5606SOL    HW217718   5.803   0.169   3.144
 5607SOL     OW17719   5.731   0.564   1.290
 5607SOL    HW117720   5.830   0.555   1.291
 5607SOL    HW217721   5.690   0.486   1.337
 5608SOL     OW17722   3.880   6.743   5.266
 5608SOL    HW117723   3.787   6.716   5.240
 5608SOL    HW217724   3.898   6.714   5.360
 5609SOL     OW17725   1.365   5.297   5.415
 5609SOL    HW117726   1.384   5.367   5.347
 5609SOL    HW217727   1.442   5.290   5.479
 5610SOL     OW17728   4.731   0.300   6.364
 5610SOL    HW117729   4.692   0.376   6.312
 5610SOL    HW217730   4.726   0.217   6.310
 5611SOL     OW17731   2.089   4.534   3.840
 5611SOL    HW117732   2.102   4.437   3.856
 5611SOL    HW217733   1.991   4.555   3.843
 5612SOL     OW17734   2.655   0.174   5.102
 5612SOL    HW117735   2.730   0.115   5.069
 5612SOL    HW217736   2.571   0.149   5.055
 5613SOL     OW17737   3.871   5.287   1.684
 5613SOL    HW117738   3.804   5.353   1.716
 5613SOL    HW217739   3.963   5.322   1.699
 5614SOL     OW17740   4.743   2.200   3.536
 5614SOL    HW117741   4.803   2.204   3.456
 5614SOL    HW217742   4.769   2.122   3.593
 5615SOL     OW17743   1.530   1.230   1.649
 5615SOL    HW117744   1.471   1.241   1.569
 5615SOL    HW217745   1.580   1.315   1.666
 5616SOL     OW17746   2.271   0.108   4.570
 5616SOL    HW117747   2.186   0.072   4.608
 5616SOL    HW217748   2.274   0.089   4.471
 5617SOL     OW17749   1.029   0.412   5.062
 5617SOL    HW117750   1.088   0.369   5.131
 5617SOL    HW217751   1.016   0.508   5.085
 5618SOL     OW17752   6.789   4.307   3.152
 5618SOL    HW117753   6.691   4.289   3.154
 5618SOL    HW217754   6.805   4.405   3.167
 5619SOL     OW17755   2.115   3.785   4.993
 5619SOL    HW117756   2.178   3.853   5.031
 5619SOL    HW217757   2.146   3.756   4.903
 5620SOL     OW17758   3.953   1.656   6.869
 5620SOL    HW117759   4.034   1.648   6.810
 5620SOL    HW217760   3.966   1.730   6.934
 5621SOL     OW17761   2.618   2.131   6.320
 5621SOL    HW117762   2.714   2.114   6.343
 5621SOL    HW217763   2.588   2.217   6.360
 5622SOL     OW17764   5.305   0.741   5.197
 5622SOL    HW117765   5.292   0.696   5.285
 5622SOL    HW217766   5.397   0.722   5.163
 5623SOL     OW17767   0.378   6.077   0.157
 5623SOL    HW117768   0.294   6.117   0.122
 5623SOL    HW217769   0.386   5.983   0.124
 5624SOL     OW17770   0.424   4.107   2.132
 5624SOL    HW117771   0.515   4.074   2.108
 5624SOL    HW217772   0.363   4.097   2.054
 5625SOL     OW17773   6.175   2.241   5.718
 5625SOL    HW117774   6.086   2.232   5.673
 5625SOL    HW217775   6.246   2.201   5.660
 5626SOL     OW17776   5.102   6.477   4.225
 5626SOL    HW117777   5.039   6.449   4.298
 5626SOL    HW217778   5.139   6.396   4.180
 5627SOL     OW17779   0.971   6.578   1.132
 5627SOL    HW117780   0.978   6.533   1.221
 5627SOL    HW217781   0.903   6.652   1.137
 5628SOL     OW17782   1.800   1.578   4.485
 5628SOL    HW117783   1.721   1.548   4.431
 5628SOL    HW217784   1.879   1.523   4.462
 5629SOL     OW17785   3.863   2.965   2.989
 5629SOL    HW117786   3.888   2.950   2.893
 5629SOL    HW217787   3.939   3.010   3.036
 5630SOL     OW17788   6.851   4.249   1.558
 5630SOL    HW117789   6.813   4.157   1.547
 5630SOL    HW217790   6.948   4.247   1.533
 5631SOL     OW17791   5.113   0.631   6.536
 5631SOL    HW117792   5.127   0.706   6.472
 5631SOL    HW217793   5.195   0.573   6.538
 5632SOL     OW17794   3.139   2.970   0.041
 5632SOL    HW117795   3.106   2.942   6.974
 5632SOL    HW217796   3.069   2.950   0.110
 5633SOL     OW17797   6.823   3.286   5.173
 5633SOL    HW117798   6.892   3.290   5.245
 5633SOL    HW217799   6.867   3.271   5.084
 5634SOL     OW17800   5.162   5.700   4.670
 5634SOL    HW117801   5.254   5.737   4.687
 5634SOL    HW217802   5.116   5.684   4.757
 5635SOL     OW17803   3.192   1.962   5.335
 5635SOL    HW117804   3.135   2.011   5.268
 5635SOL    HW217805   3.154   1.871   5.351
 5636SOL     OW17806   3.933   6.002   4.713
 5636SOL    HW117807   4.021   6.045   4.729
 5636SOL    HW217808   3.889   6.045   4.634
 5637SOL     OW17809   6.506   0.203   2.739
 5637SOL    HW117810   6.480   0.194   2.835
 5637SOL    HW217811   6.575   0.274   2.729
 5638SOL     OW17812   5.633   4.048   6.874
 5638SOL    HW117813   5.596   4.041   6.782
 5638SOL    HW217814   5.724   4.008   6.877
 5639SOL     OW17815   3.671   0.808   7.012
 5639SOL    HW117816   3.652   0.783   6.917
 5639SOL    HW217817   3.636   0.900   0.007
 5640SOL     OW17818   1.844   6.902   2.454
 5640SOL    HW117819   1.855   6.835   2.380
 5640SOL    HW217820   1.824   6.854   2.539
 5641SOL     OW17821   6.337   5.631   4.688
 5641SOL    HW117822   6.322   5.623   4.787
 5641SOL    HW217823   6.422   5.585   4.663
 5642SOL     OW17824   1.968   1.663   0.251
 5642SOL    HW117825   1.898   1.660   0.322
 5642SOL    HW217826   2.011   1.573   0.242
 5643SOL     OW17827   5.516   1.938   5.962
 5643SOL    HW117828   5.546   2.005   5.894
 5643SOL    HW217829   5.498   1.985   6.049
 5644SOL     OW17830   2.829   0.543   6.260
 5644SOL    HW117831   2.848   0.450   6.293
 5644SOL    HW217832   2.748   0.542   6.202
 5645SOL     OW17833   5.612   4.141   4.867
 5645SOL    HW117834   5.599   4.064   4.805
 5645SOL    HW217835   5.679   4.205   4.827
 5646SOL     OW17836   1.108   4.459   2.695
 5646SOL    HW117837   1.068   4.370   2.672
 5646SOL    HW217838   1.111   4.470   2.794
 5647SOL     OW17839   5.980   6.636   2.721
 5647SOL    HW117840   6.005   6.613   2.815
 5647SOL    HW217841   6.023   6.723   2.695
 5648SOL     OW17842   4.606   5.889   3.755
 5648SOL    HW117843   4.638   5.938   3.674
 5648SOL    HW217844   4.575   5.954   3.824
 5649SOL     OW17845   1.110   6.574   4.049
 5649SOL    HW117846   1.041   6.605   4.114
 5649SOL    HW217847   1.162   6.498   4.089
 5650SOL     OW17848   6.119   4.253   5.953
 5650SOL    HW117849   6.190   4.256   5.883
 5650SOL    HW217850   6.156   4.212   6.036
 5651SOL     OW17851   3.036   1.087   0.428
 5651SOL    HW117852   3.089   1.015   0.473
 5651SOL    HW217853   3.015   1.159   0.495
 5652SOL     OW17854   0.190   5.938   2.724
 5652SOL    HW117855   0.276   5.978   2.756
 5652SOL    HW217856   0.118   5.957   2.790
 5653SOL     OW17857   6.960   0.406   2.171
 5653SOL    HW117858   0.015   0.375   2.225
 5653SOL    HW217859   6.939   0.339   2.100
 5654SOL     OW17860   3.076   5.926   4.903
 5654SOL    HW117861   3.176   5.922   4.893
 5654SOL    HW217862   3.034   5.921   4.812
 5655SOL     OW17863   5.180   2.759   4.958
 5655SOL    HW117864   5.256   2.810   4.918
 5655SOL    HW217865   5.203   2.662   4.961
 5656SOL     OW17866   6.599   3.416   0.022
 5656SOL    HW117867   6.518   3.388   0.074
 5656SOL    HW217868   6.624   3.509   0.048
 5657SOL     OW17869   5.141   5.425   4.715
 5657SOL    HW117870   5.168   5.516   4.683
 5657SOL    HW217871   5.219   5.380   4.759
 5658SOL     OW17872   2.375   2.951   5.567
 5658SOL    HW117873   2.365   2.893   5.486
 5658SOL    HW217874   2.421   3.036   5.541
 5659SOL     OW17875   2.428   4.096   6.336
 5659SOL    HW117876   2.467   4.054   6.418
 5659SOL    HW217877   2.405   4.025   6.269
 5660SOL     OW17878   4.471   0.560   5.508
 5660SOL    HW117879   4.459   0.469   5.549
 5660SOL    HW217880   4.561   0.565   5.465
 5661SOL     OW17881   0.843   5.818   6.053
 5661SOL    HW117882   0.942   5.829   6.041
 5661SOL    HW217883   0.821   5.721   6.063
 5662SOL     OW17884   3.060   6.668   1.108
 5662SOL    HW117885   2.974   6.626   1.135
 5662SOL    HW217886   3.101   6.715   1.186
 5663SOL     OW17887   1.395   3.262   5.731
 5663SOL    HW117888   1.432   3.223   5.815
 5663SOL    HW217889   1.307   3.219   5.711
 5664SOL     OW17890   4.693   4.685   4.451
 5664SOL    HW117891   4.692   4.756   4.381
 5664SOL    HW217892   4.748   4.715   4.529
 5665SOL     OW17893   1.641   1.593   0.757
 5665SOL    HW117894   1.682   1.684   0.765
 5665SOL    HW217895   1.618   1.559   0.848
 5666SOL     OW17896   6.047   2.704   4.850
 5666SOL    HW117897   5.968   2.685   4.908
 5666SOL    HW217898   6.103   2.776   4.892
 5667SOL     OW17899   2.562   4.683   3.933
 5667SOL    HW117900   2.646   4.675   3.880
 5667SOL    HW217901   2.582   4.668   4.030
 5668SOL     OW17902   4.876   3.959   3.685
 5668SOL    HW117903   4.906   3.955   3.780
 5668SOL    HW217904   4.845   4.051   3.663
 5669SOL     OW17905   5.288   4.411   6.087
 5669SOL    HW117906   5.273   4.471   6.009
 5669SOL    HW217907   5.255   4.319   6.065
 5670SOL     OW17908   1.609   2.676   3.592
 5670SOL    HW117909   1.698   2.686   3.637
 5670SOL    HW217910   1.540   2.651   3.660
 5671SOL     OW17911   6.990   5.010   3.844
 5671SOL    HW117912   6.939   5.076   3.790
 5671SOL    HW217913   7.002   4.926   3.791
 5672SOL     OW17914   5.223   3.397   4.643
 5672SOL    HW117915   5.210   3.315   4.697
 5672SOL    HW217916   5.311   3.393   4.596
 5673SOL     OW17917   0.792   1.873   0.651
 5673SOL    HW117918   0.731   1.809   0.605
 5673SOL    HW217919   0.741   1.924   0.720
 5674SOL     OW17920   2.476   4.862   4.893
 5674SOL    HW117921   2.510   4.780   4.938
 5674SOL    HW217922   2.552   4.910   4.849
 5675SOL     OW17923   2.798   2.388   1.077
 5675SOL    HW117924   2.701   2.405   1.058
 5675SOL    HW217925   2.854   2.448   1.021
 5676SOL     OW17926   3.356   1.375   1.954
 5676SOL    HW117927   3.349   1.276   1.962
 5676SOL    HW217928   3.280   1.418   2.002
 5677SOL     OW17929   0.288   1.505   6.437
 5677SOL    HW117930   0.265   1.598   6.466
 5677SOL    HW217931   0.358   1.467   6.497
 5678SOL     OW17932   3.442   2.001   2.093
 5678SOL    HW117933   3.376   2.032   2.161
 5678SOL    HW217934   3.507   2.073   2.074
 5679SOL     OW17935   6.774   4.372   5.463
 5679SOL    HW117936   6.679   4.405   5.464
 5679SOL    HW217937   6.777   4.279   5.499
 5680SOL     OW17938   0.938   5.607   5.092
 5680SOL    HW117939   0.938   5.573   5.186
 5680SOL    HW217940   0.867   5.560   5.040
 5681SOL     OW17941   1.068   3.854   3.581
 5681SOL    HW117942   1.168   3.857   3.586
 5681SOL    HW217943   1.040   3.776   3.525
 5682SOL     OW17944   1.767   4.457   1.246
 5682SOL    HW117945   1.803   4.516   1.174
 5682SOL    HW217946   1.781   4.361   1.221
 5683SOL     OW17947   6.536   0.335   6.273
 5683SOL    HW117948   6.562   0.407   6.337
 5683SOL    HW217949   6.584   0.348   6.186
 5684SOL     OW17950   2.167   3.192   4.768
 5684SOL    HW117951   2.209   3.188   4.859
 5684SOL    HW217952   2.167   3.100   4.728
 5685SOL     OW17953   2.501   1.976   2.088
 5685SOL    HW117954   2.525   1.886   2.054
 5685SOL    HW217955   2.548   2.046   2.034
 5686SOL     OW17956   4.763   5.324   5.401
 5686SOL    HW117957   4.734   5.336   5.306
 5686SOL    HW217958   4.854   5.283   5.403
 5687SOL     OW17959   1.942   6.666   6.369
 5687SOL    HW117960   1.892   6.641   6.452
 5687SOL    HW217961   1.879   6.711   6.305
 5688SOL     OW17962   2.044   1.863   3.074
 5688SOL    HW117963   1.994   1.924   3.135
 5688SOL    HW217964   2.093   1.916   3.005
 5689SOL     OW17965   0.574   2.521   1.247
 5689SOL    HW117966   0.585   2.585   1.323
 5689SOL    HW217967   0.580   2.427   1.281
 5690SOL     OW17968   2.576   5.171   6.761
 5690SOL    HW117969   2.581   5.181   6.662
 5690SOL    HW217970   2.652   5.114   6.792
 5691SOL     OW17971   4.676   2.223   2.987
 5691SOL    HW117972   4.713   2.157   3.052
 5691SOL    HW217973   4.579   2.205   2.973
 5692SOL     OW17974   6.326   4.632   1.795
 5692SOL    HW117975   6.411   4.678   1.823
 5692SOL    HW217976   6.338   4.533   1.803
 5693SOL     OW17977   4.216   0.540   1.943
 5693SOL    HW117978   4.252   0.606   1.877
 5693SOL    HW217979   4.227   0.448   1.907
 5694SOL     OW17980   0.775   0.337   1.460
 5694SOL    HW117981   0.857   0.351   1.515
 5694SOL    HW217982   0.702   0.301   1.517
 5695SOL     OW17983   2.683   1.180   1.765
 5695SOL    HW117984   2.773   1.173   1.808
 5695SOL    HW217985   2.612   1.162   1.833
 5696SOL     OW17986   0.698   0.295   4.027
 5696SOL    HW117987   0.633   0.337   4.091
 5696SOL    HW217988   0.735   0.211   4.068
 5697SOL     OW17989   6.719   2.105   6.610
 5697SOL    HW117990   6.707   2.161   6.692
 5697SOL    HW217991   6.805   2.054   6.617
 5698SOL     OW17992   3.278   1.972   4.562
 5698SOL    HW117993   3.223   1.889   4.561
 5698SOL    HW217994   3.238   2.039   4.624
 5699SOL     OW17995   2.145   2.715   2.308
 5699SOL    HW117996   2.174   2.732   2.402
 5699SOL    HW217997   2.132   2.802   2.261
 5700SOL     OW17998   6.797   0.092   2.672
 5700SOL    HW117999   6.838   0.102   2.582
 5700SOL    HW218000   6.716   0.033   2.666
 5701SOL     OW18001   1.165   0.592   0.601
 5701SOL    HW118002   1.091   0.657   0.618
 5701SOL    HW218003   1.242   0.610   0.662
 5702SOL     OW18004   2.051   7.021   4.745
 5702SOL    HW118005   1.962   0.035   4.719
 5702SOL    HW218006   2.079   0.038   4.832
 5703SOL     OW18007   0.166   2.989   5.930
 5703SOL    HW118008   0.078   2.985   5.883
 5703SOL    HW218009   0.213   3.074   5.905
 5704SOL     OW18010   3.858   5.183   4.161
 5704SOL    HW118011   3.760   5.166   4.170
 5704SOL    HW218012   3.899   5.188   4.253
 5705SOL     OW18013   6.404   0.996   5.477
 5705SOL    HW118014   6.502   0.988   5.495
 5705SOL    HW218015   6.365   0.905   5.463
 5706SOL     OW18016   5.142   2.043   1.310
 5706SOL    HW118017   5.078   2.108   1.350
 5706SOL    HW218018   5.171   2.077   1.220
 5707SOL     OW18019   6.184   5.398   1.276
 5707SOL    HW118020   6.150   5.459   1.347
 5707SOL    HW218021   6.251   5.335   1.316
 5708SOL     OW18022   4.928   6.031   2.078
 5708SOL    HW118023   5.010   6.085   2.062
 5708SOL    HW218024   4.948   5.958   2.143
 5709SOL     OW18025   0.152   2.526   2.782
 5709SOL    HW118026   0.150   2.576   2.869
 5709SOL    HW218027   0.183   2.432   2.798
 5710SOL     OW18028   4.660   1.495   0.322
 5710SOL    HW118029   4.696   1.477   0.230
 5710SOL    HW218030   4.567   1.530   0.314
 5711SOL     OW18031   4.955   1.570   2.456
 5711SOL    HW118032   4.946   1.667   2.476
 5711SOL    HW218033   4.961   1.556   2.357
 5712SOL     OW18034   5.999   6.067   0.011
 5712SOL    HW118035   6.017   5.983   0.062
 5712SOL    HW218036   5.999   6.145   0.075
 5713SOL     OW18037   1.402   0.757   0.462
 5713SOL    HW118038   1.316   0.795   0.429
 5713SOL    HW218039   1.387   0.665   0.497
 5714SOL     OW18040   6.523   0.227   0.420
 5714SOL    HW118041   6.456   0.246   0.349
 5714SOL    HW218042   6.498   0.277   0.503
 5715SOL     OW18043   0.296   6.868   1.702
 5715SOL    HW118044   0.196   6.866   1.697
 5715SOL    HW218045   0.328   6.789   1.755
 5716SOL     OW18046   6.973   4.536   5.588
 5716SOL    HW118047   6.957   4.522   5.686
 5716SOL    HW218048   6.911   4.478   5.535
 5717SOL     OW18049   0.747   5.514   3.253
 5717SOL    HW118050   0.715   5.420   3.249
 5717SOL    HW218051   0.709   5.566   3.176
 5718SOL     OW18052   1.234   3.857   6.706
 5718SOL    HW118053   1.175   3.779   6.722
 5718SOL    HW218054   1.232   3.918   6.786
 5719SOL     OW18055   2.897   3.580   0.763
 5719SOL    HW118056   2.938   3.492   0.784
 5719SOL    HW218057   2.968   3.650   0.754
 5720SOL     OW18058   2.858   4.547   5.935
 5720SOL    HW118059   2.854   4.450   5.957
 5720SOL    HW218060   2.838   4.600   6.018
 5721SOL     OW18061   1.926   3.271   6.938
 5721SOL    HW118062   1.887   3.181   6.959
 5721SOL    HW218063   1.860   3.342   6.965
 5722SOL     OW18064   1.346   0.222   7.000
 5722SOL    HW118065   1.313   0.128   7.011
 5722SOL    HW218066   1.411   0.226   6.924
 5723SOL     OW18067   4.080   3.333   0.799
 5723SOL    HW118068   4.028   3.356   0.881
 5723SOL    HW218069   4.047   3.246   0.762
 5724SOL     OW18070   5.626   2.398   5.992
 5724SOL    HW118071   5.683   2.324   5.957
 5724SOL    HW218072   5.536   2.363   6.017
 5725SOL     OW18073   0.207   4.563   4.949
 5725SOL    HW118074   0.147   4.586   4.872
 5725SOL    HW218075   0.247   4.647   4.987
 5726SOL     OW18076   5.229   4.378   2.209
 5726SOL    HW118077   5.180   4.354   2.125
 5726SOL    HW218078   5.164   4.395   2.282
 5727SOL     OW18079   1.114   2.806   5.090
 5727SOL    HW118080   1.053   2.843   5.159
 5727SOL    HW218081   1.208   2.837   5.107
 5728SOL     OW18082   3.610   6.705   5.241
 5728SOL    HW118083   3.575   6.611   5.244
 5728SOL    HW218084   3.588   6.751   5.327
 5729SOL     OW18085   2.673   1.853   5.047
 5729SOL    HW118086   2.628   1.879   5.132
 5729SOL    HW218087   2.606   1.810   4.986
 5730SOL     OW18088   6.762   3.954   5.046
 5730SOL    HW118089   6.749   3.864   5.005
 5730SOL    HW218090   6.834   4.003   4.997
 5731SOL     OW18091   0.744   6.695   2.832
 5731SOL    HW118092   0.773   6.791   2.822
 5731SOL    HW218093   0.813   6.635   2.793
 5732SOL     OW18094   0.304   0.678   3.170
 5732SOL    HW118095   0.293   0.652   3.266
 5732SOL    HW218096   0.225   0.648   3.117
 5733SOL     OW18097   2.720   0.767   4.991
 5733SOL    HW118098   2.653   0.768   5.065
 5733SOL    HW218099   2.812   0.768   5.029
 5734SOL     OW18100   1.655   6.699   3.366
 5734SOL    HW118101   1.735   6.645   3.392
 5734SOL    HW218102   1.618   6.745   3.447
 5735SOL     OW18103   3.126   0.766   1.356
 5735SOL    HW118104   3.122   0.854   1.403
 5735SOL    HW218105   3.216   0.755   1.313
 5736SOL     OW18106   1.314   5.331   0.904
 5736SOL    HW118107   1.401   5.283   0.893
 5736SOL    HW218108   1.302   5.395   0.829
 5737SOL     OW18109   5.448   4.005   0.122
 5737SOL    HW118110   5.403   4.009   0.211
 5737SOL    HW218111   5.427   4.088   0.071
 5738SOL     OW18112   0.974   4.678   4.713
 5738SOL    HW118113   1.006   4.728   4.794
 5738SOL    HW218114   0.878   4.653   4.726
 5739SOL     OW18115   0.651   2.675   1.484
 5739SOL    HW118116   0.726   2.630   1.531
 5739SOL    HW218117   0.566   2.660   1.534
 5740SOL     OW18118   4.063   5.261   6.844
 5740SOL    HW118119   4.013   5.286   6.761
 5740SOL    HW218120   3.999   5.223   6.911
 5741SOL     OW18121   0.428   3.590   1.671
 5741SOL    HW118122   0.402   3.565   1.764
 5741SOL    HW218123   0.511   3.645   1.673
 5742SOL     OW18124   0.432   5.661   4.452
 5742SOL    HW118125   0.452   5.650   4.354
 5742SOL    HW218126   0.507   5.709   4.496
 5743SOL     OW18127   1.930   6.152   4.903
 5743SOL    HW118128   1.908   6.119   4.995
 5743SOL    HW218129   1.948   6.075   4.843
 5744SOL     OW18130   5.787   0.242   1.354
 5744SOL    HW118131   5.714   0.248   1.422
 5744SOL    HW218132   5.864   0.299   1.381
 5745SOL     OW18133   1.531   3.033   3.080
 5745SOL    HW118134   1.449   3.061   3.130
 5745SOL    HW218135   1.508   2.960   3.016
 5746SOL     OW18136   6.262   3.890   6.913
 5746SOL    HW118137   6.237   3.797   6.886
 5746SOL    HW218138   6.312   3.887   6.999
 5747SOL     OW18139   1.197   6.383   3.785
 5747SOL    HW118140   1.194   6.328   3.869
 5747SOL    HW218141   1.286   6.427   3.777
 5748SOL     OW18142   2.164   6.674   4.168
 5748SOL    HW118143   2.166   6.600   4.102
 5748SOL    HW218144   2.141   6.638   4.259
 5749SOL     OW18145   1.729   0.981   2.822
 5749SOL    HW118146   1.649   1.025   2.781
 5749SOL    HW218147   1.810   1.038   2.806
 5750SOL     OW18148   5.577   6.281   2.532
 5750SOL    HW118149   5.540   6.319   2.447
 5750SOL    HW218150   5.510   6.220   2.573
 5751SOL     OW18151   0.773   2.878   6.031
 5751SOL    HW118152   0.740   2.819   6.105
 5751SOL    HW218153   0.723   2.964   6.033
 5752SOL     OW18154   1.130   1.399   6.555
 5752SOL    HW118155   1.139   1.417   6.652
 5752SOL    HW218156   1.117   1.301   6.540
 5753SOL     OW18157   4.540   1.869   0.215
 5753SOL    HW118158   4.600   1.907   0.285
 5753SOL    HW218159   4.534   1.770   0.227
 5754SOL     OW18160   5.780   5.453   0.416
 5754SOL    HW118161   5.820   5.364   0.392
 5754SOL    HW218162   5.681   5.445   0.421
 5755SOL     OW18163   3.334   3.639   1.571
 5755SOL    HW118164   3.283   3.586   1.639
 5755SOL    HW218165   3.320   3.736   1.587
 5756SOL     OW18166   6.743   6.234   4.188
 5756SOL    HW118167   6.801   6.206   4.112
 5756SOL    HW218168   6.740   6.334   4.192
 5757SOL     OW18169   6.453   6.288   2.107
 5757SOL    HW118170   6.420   6.380   2.129
 5757SOL    HW218171   6.402   6.253   2.028
 5758SOL     OW18172   2.648   1.305   5.517
 5758SOL    HW118173   2.578   1.238   5.540
 5758SOL    HW218174   2.690   1.340   5.601
 5759SOL     OW18175   0.584   1.645   5.450
 5759SOL    HW118176   0.652   1.615   5.516
 5759SOL    HW218177   0.540   1.564   5.409
 5760SOL     OW18178   0.245   5.834   0.968
 5760SOL    HW118179   0.224   5.931   0.955
 5760SOL    HW218180   0.256   5.815   1.066
 5761SOL     OW18181   4.914   0.277   4.982
 5761SOL    HW118182   4.833   0.235   4.942
 5761SOL    HW218183   4.996   0.237   4.941
 5762SOL     OW18184   6.032   6.481   1.352
 5762SOL    HW118185   6.081   6.398   1.378
 5762SOL    HW218186   6.005   6.475   1.256
 5763SOL     OW18187   2.324   1.130   0.540
 5763SOL    HW118188   2.353   1.041   0.506
 5763SOL    HW218189   2.244   1.162   0.488
 5764SOL     OW18190   4.464   3.222   6.274
 5764SOL    HW118191   4.376   3.175   6.270
 5764SOL    HW218192   4.517   3.188   6.352
 5765SOL     OW18193   6.408   5.204   0.138
 5765SOL    HW118194   6.443   5.274   0.200
 5765SOL    HW218195   6.315   5.228   0.109
 5766SOL     OW18196   2.846   1.188   3.317
 5766SOL    HW118197   2.808   1.267   3.366
 5766SOL    HW218198   2.858   1.112   3.380
 5767SOL     OW18199   5.477   0.000   0.593
 5767SOL    HW118200   5.519   0.084   0.558
 5767SOL    HW218201   5.548   6.954   0.606
 5768SOL     OW18202   6.277   0.411   2.303
 5768SOL    HW118203   6.304   0.381   2.394
 5768SOL    HW218204   6.182   0.385   2.285
 5769SOL     OW18205   1.911   5.037   3.148
 5769SOL    HW118206   1.891   5.018   3.051
 5769SOL    HW218207   2.008   5.059   3.158
 5770SOL     OW18208   5.610   2.045   1.294
 5770SOL    HW118209   5.580   1.964   1.345
 5770SOL    HW218210   5.582   2.128   1.343
 5771SOL     OW18211   1.181   1.101   0.982
 5771SOL    HW118212   1.120   1.022   0.980
 5771SOL    HW218213   1.129   1.184   0.961
 5772SOL     OW18214   6.670   4.996   5.728
 5772SOL    HW118215   6.700   5.007   5.823
 5772SOL    HW218216   6.680   5.082   5.680
 5773SOL     OW18217   5.406   5.795   4.852
 5773SOL    HW118218   5.486   5.813   4.910
 5773SOL    HW218219   5.356   5.717   4.888
 5774SOL     OW18220   2.395   4.887   2.377
 5774SOL    HW118221   2.410   4.816   2.446
 5774SOL    HW218222   2.447   4.865   2.294
 5775SOL     OW18223   0.580   0.885   0.478
 5775SOL    HW118224   0.679   0.889   0.487
 5775SOL    HW218225   0.543   0.978   0.470
 5776SOL     OW18226   4.761   0.898   5.652
 5776SOL    HW118227   4.694   0.848   5.706
 5776SOL    HW218228   4.726   0.990   5.633
 5777SOL     OW18229   5.508   6.952   5.250
 5777SOL    HW118230   5.444   6.905   5.310
 5777SOL    HW218231   5.526   6.894   5.170
 5778SOL     OW18232   2.936   0.127   4.106
 5778SOL    HW118233   2.901   0.041   4.143
 5778SOL    HW218234   2.973   0.183   4.180
 5779SOL     OW18235   4.166   0.240   1.399
 5779SOL    HW118236   4.156   0.274   1.493
 5779SOL    HW218237   4.121   0.303   1.336
 5780SOL     OW18238   5.978   3.946   0.549
 5780SOL    HW118239   5.985   3.892   0.633
 5780SOL    HW218240   5.915   3.901   0.486
 5781SOL     OW18241   3.291   4.219   5.244
 5781SOL    HW118242   3.294   4.251   5.339
 5781SOL    HW218243   3.198   4.189   5.222
 5782SOL     OW18244   4.165   1.551   3.153
 5782SOL    HW118245   4.206   1.626   3.100
 5782SOL    HW218246   4.065   1.553   3.141
 5783SOL     OW18247   2.901   6.260   2.571
 5783SOL    HW118248   2.948   6.319   2.505
 5783SOL    HW218249   2.803   6.277   2.566
 5784SOL     OW18250   1.482   6.389   0.436
 5784SOL    HW118251   1.395   6.409   0.392
 5784SOL    HW218252   1.542   6.469   0.429
 5785SOL     OW18253   2.293   2.384   6.510
 5785SOL    HW118254   2.232   2.385   6.589
 5785SOL    HW218255   2.247   2.341   6.432
 5786SOL     OW18256   0.715   2.072   5.720
 5786SOL    HW118257   0.797   2.020   5.745
 5786SOL    HW218258   0.733   2.169   5.731
 5787SOL     OW18259   0.506   2.669   4.795
 5787SOL    HW118260   0.554   2.702   4.714
 5787SOL    HW218261   0.407   2.682   4.783
 5788SOL     OW18262   0.438   1.905   1.651
 5788SOL    HW118263   0.353   1.921   1.600
 5788SOL    HW218264   0.427   1.938   1.745
 5789SOL     OW18265   2.868   5.935   6.638
 5789SOL    HW118266   2.919   5.894   6.563
 5789SOL    HW218267   2.917   6.016   6.671
 5790SOL     OW18268   0.023   6.444   2.490
 5790SOL    HW118269   0.072   6.524   2.454
 5790SOL    HW218270   6.962   6.431   2.438
 5791SOL     OW18271   3.936   0.615   0.833
 5791SOL    HW118272   3.991   0.698   0.828
 5791SOL    HW218273   3.979   0.543   0.778
 5792SOL     OW18274   4.930   2.524   2.054
 5792SOL    HW118275   4.883   2.573   1.981
 5792SOL    HW218276   5.024   2.556   2.061
 5793SOL     OW18277   4.001   1.726   0.256
 5793SOL    HW118278   4.004   1.781   0.173
 5793SOL    HW218279   4.058   1.768   0.326
 5794SOL     OW18280   3.065   5.669   6.921
 5794SOL    HW118281   3.096   5.646   7.014
 5794SOL    HW218282   3.110   5.753   6.891
 5795SOL     OW18283   0.935   0.127   0.976
 5795SOL    HW118284   0.962   0.165   1.064
 5795SOL    HW218285   0.927   0.201   0.909
 5796SOL     OW18286   4.945   0.606   6.217
 5796SOL    HW118287   4.940   0.512   6.251
 5796SOL    HW218288   4.854   0.646   6.215
 5797SOL     OW18289   6.775   2.473   0.018
 5797SOL    HW118290   6.778   2.569   7.012
 5797SOL    HW218291   6.682   2.438   0.010
 5798SOL     OW18292   2.147   2.642   4.399
 5798SOL    HW118293   2.069   2.675   4.345
 5798SOL    HW218294   2.197   2.573   4.348
 5799SOL     OW18295   2.469   0.309   3.627
 5799SOL    HW118296   2.482   0.231   3.689
 5799SOL    HW218297   2.371   0.317   3.605
 5800SOL     OW18298   1.079   6.377   1.981
 5800SOL    HW118299   1.015   6.453   1.985
 5800SOL    HW218300   1.126   6.367   2.069
 5801SOL     OW18301   1.808   1.738   2.972
 5801SOL    HW118302   1.895   1.785   2.986
 5801SOL    HW218303   1.732   1.801   2.991
 5802SOL     OW18304   0.197   6.834   2.765
 5802SOL    HW118305   0.122   6.894   2.794
 5802SOL    HW218306   0.258   6.883   2.704
 5803SOL     OW18307   0.465   6.656   4.101
 5803SOL    HW118308   0.538   6.633   4.036
 5803SOL    HW218309   0.418   6.738   4.069
 5804SOL     OW18310   6.038   1.846   3.547
 5804SOL    HW118311   6.089   1.760   3.549
 5804SOL    HW218312   6.097   1.917   3.508
 5805SOL     OW18313   0.784   2.533   1.683
 5805SOL    HW118314   0.713   2.463   1.680
 5805SOL    HW218315   0.777   2.584   1.768
 5806SOL     OW18316   6.870   4.102   1.836
 5806SOL    HW118317   6.861   4.075   1.741
 5806SOL    HW218318   6.936   4.177   1.843
 5807SOL     OW18319   1.203   1.530   1.824
 5807SOL    HW118320   1.109   1.550   1.853
 5807SOL    HW218321   1.207   1.439   1.783
 5808SOL     OW18322   6.640   0.198   5.546
 5808SOL    HW118323   6.600   0.185   5.456
 5808SOL    HW218324   6.699   0.279   5.545
 5809SOL     OW18325   0.275   3.037   4.186
 5809SOL    HW118326   0.262   3.130   4.221
 5809SOL    HW218327   0.326   3.040   4.100
 5810SOL     OW18328   1.513   6.980   5.360
 5810SOL    HW118329   1.510   6.903   5.296
 5810SOL    HW218330   1.500   6.946   5.454
 5811SOL     OW18331   3.151   5.208   0.042
 5811SOL    HW118332   3.239   5.229   0.085
 5811SOL    HW218333   3.137   5.109   0.041
 5812SOL     OW18334   6.558   3.845   6.328
 5812SOL    HW118335   6.465   3.821   6.356
 5812SOL    HW218336   6.621   3.773   6.355
 5813SOL     OW18337   6.295   4.847   0.896
 5813SOL    HW118338   6.282   4.827   0.799
 5813SOL    HW218339   6.263   4.940   0.916
 5814SOL     OW18340   5.395   1.005   2.439
 5814SOL    HW118341   5.374   1.101   2.417
 5814SOL    HW218342   5.431   1.000   2.532
 5815SOL     OW18343   6.196   3.706   4.639
 5815SOL    HW118344   6.142   3.685   4.557
 5815SOL    HW218345   6.139   3.754   4.705
 5816SOL     OW18346   6.682   4.246   0.739
 5816SOL    HW118347   6.731   4.180   0.682
 5816SOL    HW218348   6.583   4.236   0.723
 5817SOL     OW18349   0.064   2.862   3.670
 5817SOL    HW118350   0.044   2.781   3.614
 5817SOL    HW218351   0.081   2.834   3.765
 5818SOL     OW18352   2.258   0.098   3.926
 5818SOL    HW118353   2.292   0.145   4.007
 5818SOL    HW218354   2.206   0.017   3.954
 5819SOL     OW18355   4.035   4.299   0.926
 5819SOL    HW118356   3.973   4.323   0.851
 5819SOL    HW218357   4.066   4.382   0.971
 5820SOL     OW18358   0.392   6.567   2.378
 5820SOL    HW118359   0.393   6.633   2.454
 5820SOL    HW218360   0.304   6.572   2.330
 5821SOL     OW18361   6.274   6.816   2.103
 5821SOL    HW118362   6.353   6.864   2.142
 5821SOL    HW218363   6.194   6.833   2.160
 5822SOL     OW18364   0.856   4.045   2.831
 5822SOL    HW118365   0.779   4.105   2.855
 5822SOL    HW218366   0.872   3.980   2.905
 5823SOL     OW18367   2.329   6.670   5.080
 5823SOL    HW118368   2.393   6.596   5.057
 5823SOL    HW218369   2.353   6.753   5.029
 5824SOL     OW18370   2.148   6.041   2.146
 5824SOL    HW118371   2.145   5.949   2.108
 5824SOL    HW218372   2.227   6.050   2.207
 5825SOL     OW18373   4.295   1.808   5.343
 5825SOL    HW118374   4.285   1.709   5.356
 5825SOL    HW218375   4.376   1.826   5.287
 5826SOL     OW18376   1.475   6.121   4.761
 5826SOL    HW118377   1.437   6.198   4.710
 5826SOL    HW218378   1.571   6.139   4.783
 5827SOL     OW18379   2.138   3.613   3.026
 5827SOL    HW118380   2.181   3.698   3.057
 5827SOL    HW218381   2.107   3.560   3.105
 5828SOL     OW18382   4.465   6.497   4.877
 5828SOL    HW118383   4.532   6.569   4.897
 5828SOL    HW218384   4.432   6.458   4.963
 5829SOL     OW18385   2.470   0.921   2.762
 5829SOL    HW118386   2.396   0.856   2.744
 5829SOL    HW218387   2.469   0.945   2.859
 5830SOL     OW18388   4.753   5.467   4.485
 5830SOL    HW118389   4.826   5.524   4.448
 5830SOL    HW218390   4.676   5.466   4.421
 5831SOL     OW18391   2.077   1.455   4.488
 5831SOL    HW118392   2.065   1.456   4.587
 5831SOL    HW218393   2.170   1.483   4.464
 5832SOL     OW18394   2.055   4.870   4.021
 5832SOL    HW118395   1.996   4.896   3.945
 5832SOL    HW218396   2.138   4.828   3.985
 5833SOL     OW18397   3.216   4.669   1.105
 5833SOL    HW118398   3.308   4.701   1.125
 5833SOL    HW218399   3.158   4.680   1.186
 5834SOL     OW18400   5.779   2.374   6.616
 5834SOL    HW118401   5.792   2.327   6.703
 5834SOL    HW218402   5.825   2.462   6.618
 5835SOL     OW18403   4.106   1.436   3.861
 5835SOL    HW118404   4.084   1.450   3.958
 5835SOL    HW218405   4.192   1.386   3.853
 5836SOL     OW18406   5.014   5.254   1.477
 5836SOL    HW118407   4.921   5.286   1.465
 5836SOL    HW218408   5.014   5.154   1.485
 5837SOL     OW18409   2.672   4.165   6.991
 5837SOL    HW118410   2.763   4.201   7.011
 5837SOL    HW218411   2.611   4.241   6.966
 5838SOL     OW18412   3.306   3.071   0.388
 5838SOL    HW118413   3.272   3.144   0.329
 5838SOL    HW218414   3.398   3.044   0.359
 5839SOL     OW18415   2.047   1.493   0.995
 5839SOL    HW118416   2.136   1.515   0.955
 5839SOL    HW218417   2.058   1.471   1.092
 5840SOL     OW18418   6.836   3.622   2.807
 5840SOL    HW118419   6.765   3.652   2.743
 5840SOL    HW218420   6.909   3.691   2.811
 5841SOL     OW18421   5.051   1.900   0.624
 5841SOL    HW118422   5.022   1.951   0.543
 5841SOL    HW218423   4.990   1.822   0.638
 5842SOL     OW18424   3.652   2.053   2.452
 5842SOL    HW118425   3.650   1.971   2.510
 5842SOL    HW218426   3.718   2.039   2.378
 5843SOL     OW18427   3.217   3.345   1.124
 5843SOL    HW118428   3.263   3.275   1.070
 5843SOL    HW218429   3.266   3.357   1.211
 5844SOL     OW18430   0.174   5.864   4.845
 5844SOL    HW118431   0.161   5.786   4.783
 5844SOL    HW218432   0.249   5.844   4.907
 5845SOL     OW18433   2.284   6.408   3.032
 5845SOL    HW118434   2.234   6.331   3.073
 5845SOL    HW218435   2.234   6.493   3.049
 5846SOL     OW18436   0.334   4.790   5.665
 5846SOL    HW118437   0.311   4.773   5.569
 5846SOL    HW218438   0.292   4.719   5.722
 5847SOL     OW18439   1.941   4.222   5.998
 5847SOL    HW118440   2.029   4.270   6.007
 5847SOL    HW218441   1.891   4.259   5.919
 5848SOL     OW18442   2.688   6.305   1.552
 5848SOL    HW118443   2.594   6.299   1.584
 5848SOL    HW218444   2.732   6.215   1.559
 5849SOL     OW18445   2.820   5.949   6.180
 5849SOL    HW118446   2.897   5.911   6.231
 5849SOL    HW218447   2.753   5.878   6.160
 5850SOL     OW18448   5.717   2.192   1.720
 5850SOL    HW118449   5.766   2.160   1.801
 5850SOL    HW218450   5.737   2.289   1.706
 5851SOL     OW18451   1.005   3.395   4.648
 5851SOL    HW118452   0.933   3.338   4.607
 5851SOL    HW218453   1.012   3.377   4.746
 5852SOL     OW18454   5.002   4.555   2.877
 5852SOL    HW118455   5.082   4.516   2.833
 5852SOL    HW218456   4.924   4.550   2.815
 5853SOL     OW18457   4.212   5.207   0.085
 5853SOL    HW118458   4.201   5.113   0.117
 5853SOL    HW218459   4.239   5.207   7.012
 5854SOL     OW18460   2.679   4.519   5.318
 5854SOL    HW118461   2.698   4.533   5.415
 5854SOL    HW218462   2.766   4.520   5.267
 5855SOL     OW18463   1.829   2.214   4.650
 5855SOL    HW118464   1.882   2.138   4.687
 5855SOL    HW218465   1.831   2.291   4.715
 5856SOL     OW18466   0.630   0.112   2.219
 5856SOL    HW118467   0.551   0.156   2.263
 5856SOL    HW218468   0.704   0.102   2.286
 5857SOL     OW18469   5.831   5.319   0.052
 5857SOL    HW118470   5.731   5.329   0.054
 5857SOL    HW218471   5.864   5.330   6.981
 5858SOL     OW18472   2.713   1.577   2.333
 5858SOL    HW118473   2.719   1.636   2.252
 5858SOL    HW218474   2.659   1.623   2.403
 5859SOL     OW18475   5.568   5.455   1.911
 5859SOL    HW118476   5.579   5.373   1.967
 5859SOL    HW218477   5.650   5.511   1.918
 5860SOL     OW18478   2.098   3.375   2.438
 5860SOL    HW118479   2.103   3.309   2.363
 5860SOL    HW218480   2.070   3.464   2.402
 5861SOL     OW18481   5.604   0.337   5.610
 5861SOL    HW118482   5.587   0.272   5.535
 5861SOL    HW218483   5.623   0.427   5.571
 5862SOL     OW18484   6.468   4.917   2.846
 5862SOL    HW118485   6.431   4.850   2.782
 5862SOL    HW218486   6.395   4.950   2.906
 5863SOL     OW18487   4.039   0.356   5.659
 5863SOL    HW118488   4.076   0.303   5.583
 5863SOL    HW218489   4.005   0.444   5.624
 5864SOL     OW18490   3.670   3.385   3.363
 5864SOL    HW118491   3.664   3.387   3.463
 5864SOL    HW218492   3.585   3.421   3.324
 5865SOL     OW18493   6.171   6.902   1.449
 5865SOL    HW118494   6.088   6.874   1.497
 5865SOL    HW218495   6.182   6.847   1.366
 5866SOL     OW18496   3.409   3.289   3.699
 5866SOL    HW118497   3.324   3.329   3.662
 5866SOL    HW218498   3.399   3.276   3.797
 5867SOL     OW18499   4.155   1.461   0.527
 5867SOL    HW118500   4.171   1.522   0.604
 5867SOL    HW218501   4.222   1.386   0.529
 5868SOL     OW18502   1.284   1.005   0.724
 5868SOL    HW118503   1.252   1.066   0.797
 5868SOL    HW218504   1.382   1.019   0.710
 5869SOL     OW18505   2.067   5.376   3.116
 5869SOL    HW118506   2.052   5.471   3.086
 5869SOL    HW218507   2.015   5.358   3.199
 5870SOL     OW18508   4.433   6.868   4.570
 5870SOL    HW118509   4.433   6.883   4.472
 5870SOL    HW218510   4.375   6.936   4.615
 5871SOL     OW18511   3.855   3.623   3.505
 5871SOL    HW118512   3.784   3.653   3.570
 5871SOL    HW218513   3.844   3.526   3.486
 5872SOL     OW18514   3.388   5.937   1.219
 5872SOL    HW118515   3.397   5.884   1.135
 5872SOL    HW218516   3.448   6.016   1.216
 5873SOL     OW18517   4.037   6.284   1.911
 5873SOL    HW118518   3.968   6.247   1.972
 5873SOL    HW218519   4.119   6.307   1.963
 5874SOL     OW18520   0.172   4.270   4.923
 5874SOL    HW118521   0.265   4.233   4.918
 5874SOL    HW218522   0.175   4.361   4.965
 5875SOL     OW18523   3.834   2.473   1.264
 5875SOL    HW118524   3.771   2.534   1.312
 5875SOL    HW218525   3.927   2.509   1.269
 5876SOL     OW18526   3.631   2.901   2.608
 5876SOL    HW118527   3.557   2.856   2.558
 5876SOL    HW218528   3.643   2.994   2.573
 5877SOL     OW18529   5.335   4.453   1.444
 5877SOL    HW118530   5.413   4.413   1.395
 5877SOL    HW218531   5.363   4.475   1.538
 5878SOL     OW18532   1.265   3.885   2.286
 5878SOL    HW118533   1.338   3.953   2.277
 5878SOL    HW218534   1.305   3.793   2.281
 5879SOL     OW18535   2.169   3.826   4.190
 5879SOL    HW118536   2.197   3.921   4.177
 5879SOL    HW218537   2.160   3.807   4.287
 5880SOL     OW18538   3.040   5.540   6.521
 5880SOL    HW118539   3.005   5.502   6.606
 5880SOL    HW218540   3.110   5.479   6.484
 5881SOL     OW18541   1.837   6.500   4.299
 5881SOL    HW118542   1.917   6.553   4.326
 5881SOL    HW218543   1.860   6.402   4.299
 5882SOL     OW18544   4.692   0.098   2.923
 5882SOL    HW118545   4.708   0.158   3.001
 5882SOL    HW218546   4.595   0.074   2.919
 5883SOL     OW18547   1.206   2.829   4.706
 5883SOL    HW118548   1.210   2.911   4.761
 5883SOL    HW218549   1.174   2.752   4.762
 5884SOL     OW18550   6.996   0.915   2.965
 5884SOL    HW118551   0.056   0.920   2.909
 5884SOL    HW218552   7.020   0.917   3.062
 5885SOL     OW18553   5.365   6.870   0.390
 5885SOL    HW118554   5.363   6.912   0.480
 5885SOL    HW218555   5.446   6.902   0.340
 5886SOL     OW18556   6.155   1.731   6.380
 5886SOL    HW118557   6.165   1.818   6.331
 5886SOL    HW218558   6.103   1.667   6.323
 5887SOL     OW18559   3.837   5.970   2.962
 5887SOL    HW118560   3.798   5.980   2.871
 5887SOL    HW218561   3.926   6.016   2.965
 5888SOL     OW18562   6.608   6.197   2.306
 5888SOL    HW118563   6.586   6.242   2.220
 5888SOL    HW218564   6.587   6.099   2.299
 5889SOL     OW18565   2.971   6.956   6.803
 5889SOL    HW118566   2.951   6.953   6.705
 5889SOL    HW218567   2.895   6.915   6.854
 5890SOL     OW18568   3.961   5.129   6.127
 5890SOL    HW118569   4.052   5.106   6.160
 5890SOL    HW218570   3.921   5.199   6.185
 5891SOL     OW18571   1.617   3.424   5.684
 5891SOL    HW118572   1.533   3.372   5.699
 5891SOL    HW218573   1.690   3.361   5.658
 5892SOL     OW18574   2.218   6.245   2.705
 5892SOL    HW118575   2.199   6.265   2.801
 5892SOL    HW218576   2.151   6.178   2.672
 5893SOL     OW18577   1.430   2.030   2.902
 5893SOL    HW118578   1.497   2.065   2.836
 5893SOL    HW218579   1.400   2.104   2.962
 5894SOL     OW18580   1.528   3.750   4.283
 5894SOL    HW118581   1.483   3.680   4.228
 5894SOL    HW218582   1.603   3.790   4.232
 5895SOL     OW18583   5.793   4.370   3.330
 5895SOL    HW118584   5.762   4.280   3.360
 5895SOL    HW218585   5.802   4.430   3.409
 5896SOL     OW18586   5.066   2.985   5.927
 5896SOL    HW118587   5.165   2.992   5.925
 5896SOL    HW218588   5.039   2.905   5.982
 5897SOL     OW18589   4.320   5.308   0.872
 5897SOL    HW118590   4.253   5.263   0.813
 5897SOL    HW218591   4.398   5.338   0.816
 5898SOL     OW18592   2.544   6.901   3.166
 5898SOL    HW118593   2.512   6.901   3.071
 5898SOL    HW218594   2.524   6.990   3.207
 5899SOL     OW18595   5.229   0.730   3.934
 5899SOL    HW118596   5.243   0.775   4.023
 5899SOL    HW218597   5.225   0.799   3.862
 5900SOL     OW18598   3.958   5.109   1.984
 5900SOL    HW118599   3.868   5.081   1.953
 5900SOL    HW218600   4.026   5.084   1.915
 5901SOL     OW18601   2.860   6.121   4.713
 5901SOL    HW118602   2.787   6.167   4.663
 5901SOL    HW218603   2.832   6.111   4.809
 5902SOL     OW18604   5.914   2.394   0.121
 5902SOL    HW118605   5.994   2.378   0.064
 5902SOL    HW218606   5.928   2.354   0.212
 5903SOL     OW18607   0.101   2.511   6.000
 5903SOL    HW118608   0.004   2.496   6.016
 5903SOL    HW218609   0.122   2.499   5.903
 5904SOL     OW18610   1.622   2.975   1.945
 5904SOL    HW118611   1.703   2.966   2.005
 5904SOL    HW218612   1.579   3.064   1.961
 5905SOL     OW18613   0.517   4.576   2.470
 5905SOL    HW118614   0.429   4.559   2.516
 5905SOL    HW218615   0.541   4.496   2.415
 5906SOL     OW18616   0.612   0.141   3.027
 5906SOL    HW118617   0.596   0.110   3.121
 5906SOL    HW218618   0.670   0.074   2.981
 5907SOL     OW18619   2.208   6.929   2.803
 5907SOL    HW118620   2.162   6.840   2.794
 5907SOL    HW218621   2.141   7.002   2.792
 5908SOL     OW18622   0.805   2.463   5.952
 5908SOL    HW118623   0.737   2.530   5.923
 5908SOL    HW218624   0.845   2.419   5.871
 5909SOL     OW18625   6.046   4.729   0.369
 5909SOL    HW118626   6.146   4.728   0.374
 5909SOL    HW218627   6.009   4.645   0.410
 5910SOL     OW18628   1.137   1.727   3.516
 5910SOL    HW118629   1.165   1.631   3.517
 5910SOL    HW218630   1.074   1.744   3.440
 5911SOL     OW18631   6.705   5.855   6.964
 5911SOL    HW118632   6.661   5.845   0.031
 5911SOL    HW218633   6.636   5.881   6.897
 5912SOL     OW18634   0.364   0.138   3.675
 5912SOL    HW118635   0.335   0.056   3.627
 5912SOL    HW218636   0.450   0.121   3.723
 5913SOL     OW18637   7.022   2.595   0.942
 5913SOL    HW118638   6.949   2.626   0.881
 5913SOL    HW218639   0.074   2.660   0.940
 5914SOL     OW18640   0.483   6.724   0.970
 5914SOL    HW118641   0.486   6.798   1.037
 5914SOL    HW218642   0.560   6.662   0.984
 5915SOL     OW18643   3.949   0.937   5.515
 5915SOL    HW118644   3.983   0.863   5.457
 5915SOL    HW218645   3.862   0.910   5.555
 5916SOL     OW18646   1.012   0.239   2.619
 5916SOL    HW118647   0.928   0.193   2.590
 5916SOL    HW218648   1.022   0.325   2.570
 5917SOL     OW18649   3.265   2.462   0.445
 5917SOL    HW118650   3.293   2.373   0.409
 5917SOL    HW218651   3.202   2.506   0.380
 5918SOL     OW18652   3.267   6.849   4.105
 5918SOL    HW118653   3.357   6.818   4.139
 5918SOL    HW218654   3.228   6.778   4.047
 5919SOL     OW18655   3.050   3.340   4.571
 5919SOL    HW118656   3.078   3.286   4.650
 5919SOL    HW218657   3.010   3.280   4.501
 5920SOL     OW18658   0.763   0.529   5.811
 5920SOL    HW118659   0.721   0.580   5.736
 5920SOL    HW218660   0.844   0.481   5.777
 5921SOL     OW18661   2.716   4.721   6.990
 5921SOL    HW118662   2.704   4.638   6.936
 5921SOL    HW218663   2.758   4.698   0.055
 5922SOL     OW18664   5.476   2.223   2.416
 5922SOL    HW118665   5.384   2.242   2.382
 5922SOL    HW218666   5.521   2.308   2.441
 5923SOL     OW18667   5.827   0.594   3.106
 5923SOL    HW118668   5.827   0.538   3.189
 5923SOL    HW218669   5.755   0.663   3.111
 5924SOL     OW18670   6.832   6.585   3.482
 5924SOL    HW118671   6.875   6.640   3.411
 5924SOL    HW218672   6.804   6.497   3.444
 5925SOL     OW18673   4.910   0.980   0.870
 5925SOL    HW118674   4.988   1.034   0.838
 5925SOL    HW218675   4.847   1.039   0.921
 5926SOL     OW18676   5.692   3.188   3.285
 5926SOL    HW118677   5.760   3.261   3.271
 5926SOL    HW218678   5.659   3.192   3.380
 5927SOL     OW18679   0.553   5.887   1.616
 5927SOL    HW118680   0.530   5.971   1.666
 5927SOL    HW218681   0.556   5.811   1.681
 5928SOL     OW18682   2.870   0.080   0.273
 5928SOL    HW118683   2.875   0.001   0.212
 5928SOL    HW218684   2.836   0.051   0.362
 5929SOL     OW18685   1.264   0.736   0.810
 5929SOL    HW118686   1.335   0.776   0.870
 5929SOL    HW218687   1.229   0.807   0.749
 5930SOL     OW18688   1.330   4.039   1.979
 5930SOL    HW118689   1.248   4.084   2.015
 5930SOL    HW218690   1.394   4.023   2.053
 5931SOL     OW18691   4.526   6.120   3.539
 5931SOL    HW118692   4.604   6.090   3.484
 5931SOL    HW218693   4.520   6.220   3.537
 5932SOL     OW18694   3.086   6.317   0.481
 5932SOL    HW118695   3.137   6.240   0.444
 5932SOL    HW218696   3.003   6.284   0.526
 5933SOL     OW18697   6.511   5.869   4.383
 5933SOL    HW118698   6.491   5.772   4.394
 5933SOL    HW218699   6.439   5.912   4.329
 5934SOL     OW18700   2.943   3.514   0.459
 5934SOL    HW118701   2.853   3.475   0.438
 5934SOL    HW218702   2.948   3.535   0.557
 5935SOL     OW18703   1.145   0.246   5.248
 5935SOL    HW118704   1.231   0.245   5.300
 5935SOL    HW218705   1.074   0.202   5.302
 5936SOL     OW18706   3.638   2.841   2.275
 5936SOL    HW118707   3.653   2.754   2.322
 5936SOL    HW218708   3.584   2.823   2.192
 5937SOL     OW18709   0.608   3.164   0.236
 5937SOL    HW118710   0.542   3.102   0.278
 5937SOL    HW218711   0.560   3.232   0.180
 5938SOL     OW18712   0.902   3.462   3.994
 5938SOL    HW118713   0.837   3.515   3.939
 5938SOL    HW218714   0.995   3.479   3.961
 5939SOL     OW18715   4.431   1.525   5.592
 5939SOL    HW118716   4.396   1.609   5.633
 5939SOL    HW218717   4.412   1.525   5.494
 5940SOL     OW18718   5.003   4.966   1.941
 5940SOL    HW118719   5.099   4.943   1.955
 5940SOL    HW218720   4.949   4.936   2.019
 5941SOL     OW18721   0.290   1.925   3.023
 5941SOL    HW118722   0.346   2.005   3.046
 5941SOL    HW218723   0.309   1.851   3.089
 5942SOL     OW18724   5.152   2.541   6.525
 5942SOL    HW118725   5.106   2.461   6.562
 5942SOL    HW218726   5.211   2.582   6.595
 5943SOL     OW18727   1.530   4.280   1.109
 5943SOL    HW118728   1.492   4.210   1.169
 5943SOL    HW218729   1.524   4.369   1.153
 5944SOL     OW18730   6.342   4.015   5.922
 5944SOL    HW118731   6.363   4.069   5.841
 5944SOL    HW218732   6.270   3.949   5.901
 5945SOL     OW18733   6.557   6.164   4.379
 5945SOL    HW118734   6.631   6.169   4.312
 5945SOL    HW218735   6.587   6.206   4.464
 5946SOL     OW18736   2.235   3.500   6.790
 5946SOL    HW118737   2.237   3.402   6.809
 5946SOL    HW218738   2.154   3.541   6.833
 5947SOL     OW18739   3.916   3.588   4.430
 5947SOL    HW118740   3.962   3.656   4.373
 5947SOL    HW218741   3.822   3.574   4.397
 5948SOL     OW18742   4.871   4.104   1.611
 5948SOL    HW118743   4.823   4.039   1.553
 5948SOL    HW218744   4.853   4.197   1.579
 5949SOL     OW18745   0.676   3.943   3.191
 5949SOL    HW118746   0.614   3.976   3.262
 5949SOL    HW218747   0.755   3.897   3.234
 5950SOL     OW18748   2.630   6.767   4.511
 5950SOL    HW118749   2.582   6.806   4.589
 5950SOL    HW218750   2.728   6.766   4.530
 5951SOL     OW18751   6.716   3.642   6.365
 5951SOL    HW118752   6.804   3.648   6.412
 5951SOL    HW218753   6.727   3.596   6.277
 5952SOL     OW18754   3.744   4.008   2.053
 5952SOL    HW118755   3.684   4.043   2.125
 5952SOL    HW218756   3.696   3.937   2.001
 5953SOL     OW18757   6.762   3.206   5.713
 5953SOL    HW118758   6.685   3.186   5.652
 5953SOL    HW218759   6.802   3.294   5.689
 5954SOL     OW18760   2.506   5.502   3.878
 5954SOL    HW118761   2.562   5.441   3.934
 5954SOL    HW218762   2.414   5.462   3.867
 5955SOL     OW18763   4.294   3.330   0.470
 5955SOL    HW118764   4.373   3.314   0.411
 5955SOL    HW218765   4.299   3.270   0.550
 5956SOL     OW18766   4.452   2.963   6.011
 5956SOL    HW118767   4.393   2.908   6.071
 5956SOL    HW218768   4.548   2.945   6.034
 5957SOL     OW18769   6.462   1.850   3.451
 5957SOL    HW118770   6.554   1.821   3.477
 5957SOL    HW218771   6.427   1.788   3.380
 5958SOL     OW18772   2.506   6.218   3.367
 5958SOL    HW118773   2.580   6.186   3.426
 5958SOL    HW218774   2.497   6.157   3.288
 5959SOL     OW18775   5.565   3.521   3.110
 5959SOL    HW118776   5.522   3.611   3.112
 5959SOL    HW218777   5.526   3.464   3.183
 5960SOL     OW18778   5.448   0.404   6.241
 5960SOL    HW118779   5.382   0.458   6.188
 5960SOL    HW218780   5.540   0.439   6.225
 5961SOL     OW18781   3.047   2.187   3.727
 5961SOL    HW118782   3.017   2.093   3.709
 5961SOL    HW218783   2.975   2.250   3.697
 5962SOL     OW18784   4.575   4.841   0.347
 5962SOL    HW118785   4.587   4.765   0.283
 5962SOL    HW218786   4.484   4.837   0.387
 5963SOL     OW18787   1.822   3.860   0.503
 5963SOL    HW118788   1.820   3.865   0.603
 5963SOL    HW218789   1.909   3.821   0.473
 5964SOL     OW18790   2.004   0.218   2.967
 5964SOL    HW118791   1.918   0.265   2.988
 5964SOL    HW218792   2.010   0.200   2.869
 5965SOL     OW18793   2.378   0.803   0.940
 5965SOL    HW118794   2.398   0.713   0.978
 5965SOL    HW218795   2.390   0.872   1.011
 5966SOL     OW18796   2.839   1.644   5.297
 5966SOL    HW118797   2.860   1.736   5.329
 5966SOL    HW218798   2.884   1.628   5.209
 5967SOL     OW18799   4.634   2.129   5.163
 5967SOL    HW118800   4.596   2.094   5.077
 5967SOL    HW218801   4.667   2.223   5.149
 5968SOL     OW18802   6.037   2.011   2.758
 5968SOL    HW118803   5.992   1.934   2.713
 5968SOL    HW218804   6.014   2.096   2.711
 5969SOL     OW18805   5.061   6.901   1.043
 5969SOL    HW118806   5.060   6.986   0.991
 5969SOL    HW218807   5.151   6.856   1.033
 5970SOL     OW18808   6.425   2.826   0.385
 5970SOL    HW118809   6.353   2.820   0.316
 5970SOL    HW218810   6.442   2.736   0.424
 5971SOL     OW18811   6.856   5.135   3.657
 5971SOL    HW118812   6.852   5.085   3.570
 5971SOL    HW218813   6.768   5.177   3.676
 5972SOL     OW18814   6.005   5.172   1.222
 5972SOL    HW118815   5.915   5.210   1.202
 5972SOL    HW218816   6.049   5.227   1.293
 5973SOL     OW18817   2.876   0.958   2.333
 5973SOL    HW118818   2.864   0.911   2.421
 5973SOL    HW218819   2.971   0.984   2.322
 5974SOL     OW18820   5.674   1.276   4.903
 5974SOL    HW118821   5.589   1.243   4.862
 5974SOL    HW218822   5.716   1.202   4.955
 5975SOL     OW18823   4.437   5.169   1.386
 5975SOL    HW118824   4.368   5.167   1.314
 5975SOL    HW218825   4.451   5.263   1.416
 5976SOL     OW18826   1.624   4.190   5.422
 5976SOL    HW118827   1.623   4.091   5.407
 5976SOL    HW218828   1.565   4.235   5.355
 5977SOL     OW18829   6.541   5.455   1.111
 5977SOL    HW118830   6.544   5.480   1.208
 5977SOL    HW218831   6.527   5.537   1.056
 5978SOL     OW18832   2.879   3.720   6.464
 5978SOL    HW118833   2.970   3.740   6.501
 5978SOL    HW218834   2.835   3.649   6.519
 5979SOL     OW18835   6.617   6.728   1.097
 5979SOL    HW118836   6.601   6.740   1.195
 5979SOL    HW218837   6.689   6.791   1.067
 5980SOL     OW18838   3.220   2.434   0.819
 5980SOL    HW118839   3.291   2.481   0.766
 5980SOL    HW218840   3.172   2.369   0.760
 5981SOL     OW18841   2.876   2.676   1.219
 5981SOL    HW118842   2.878   2.734   1.301
 5981SOL    HW218843   2.886   2.580   1.245
 5982SOL     OW18844   5.199   2.614   1.470
 5982SOL    HW118845   5.145   2.561   1.536
 5982SOL    HW218846   5.245   2.551   1.407
 5983SOL     OW18847   6.909   1.273   3.494
 5983SOL    HW118848   6.870   1.341   3.557
 5983SOL    HW218849   6.956   1.203   3.547
 5984SOL     OW18850   6.061   6.172   3.421
 5984SOL    HW118851   5.995   6.106   3.457
 5984SOL    HW218852   6.143   6.124   3.390
 5985SOL     OW18853   0.283   3.987   2.813
 5985SOL    HW118854   0.362   3.937   2.848
 5985SOL    HW218855   0.204   3.926   2.809
 5986SOL     OW18856   3.612   3.506   3.640
 5986SOL    HW118857   3.632   3.410   3.655
 5986SOL    HW218858   3.518   3.516   3.607
 5987SOL     OW18859   0.128   5.631   4.691
 5987SOL    HW118860   0.180   5.621   4.606
 5987SOL    HW218861   0.187   5.612   4.769
 5988SOL     OW18862   0.929   3.199   6.881
 5988SOL    HW118863   0.964   3.138   6.952
 5988SOL    HW218864   0.886   3.146   6.808
 5989SOL     OW18865   2.121   6.993   5.445
 5989SOL    HW118866   2.118   6.903   5.488
 5989SOL    HW218867   2.102   0.041   5.513
 5990SOL     OW18868   1.999   4.625   1.577
 5990SOL    HW118869   2.033   4.534   1.601
 5990SOL    HW218870   2.076   4.682   1.548
 5991SOL     OW18871   5.537   1.176   0.843
 5991SOL    HW118872   5.549   1.163   0.744
 5991SOL    HW218873   5.590   1.107   0.892
 5992SOL     OW18874   3.150   5.182   3.090
 5992SOL    HW118875   3.053   5.197   3.109
 5992SOL    HW218876   3.161   5.094   3.045
 5993SOL     OW18877   5.644   2.130   0.640
 5993SOL    HW118878   5.604   2.221   0.624
 5993SOL    HW218879   5.743   2.135   0.631
 5994SOL     OW18880   0.007   3.802   0.045
 5994SOL    HW118881   0.022   3.813   0.143
 5994SOL    HW218882   0.080   3.847   7.017
 5995SOL     OW18883   5.288   3.476   1.238
 5995SOL    HW118884   5.353   3.424   1.294
 5995SOL    HW218885   5.211   3.417   1.213
 5996SOL     OW18886   2.626   0.259   1.897
 5996SOL    HW118887   2.709   0.296   1.940
 5996SOL    HW218888   2.644   0.166   1.864
 5997SOL     OW18889   6.038   0.419   4.295
 5997SOL    HW118890   5.989   0.419   4.208
 5997SOL    HW218891   5.986   0.470   4.363
 5998SOL     OW18892   6.186   6.185   6.811
 5998SOL    HW118893   6.149   6.271   6.844
 5998SOL    HW218894   6.136   6.109   6.853
 5999SOL     OW18895   5.570   3.738   1.456
 5999SOL    HW118896   5.610   3.801   1.522
 5999SOL    HW218897   5.478   3.769   1.431
 6000SOL     OW18898   1.230   4.597   0.871
 6000SOL    HW118899   1.282   4.552   0.798
 6000SOL    HW218900   1.229   4.695   0.856
 6001SOL     OW18901   6.453   5.671   5.430
 6001SOL    HW118902   6.519   5.598   5.415
 6001SOL    HW218903   6.420   5.705   5.341
 6002SOL     OW18904   5.327   4.554   4.975
 6002SOL    HW118905   5.333   4.635   4.918
 6002SOL    HW218906   5.285   4.579   5.063
 6003SOL     OW18907   2.666   2.245   5.322
 6003SOL    HW118908   2.656   2.341   5.297
 6003SOL    HW218909   2.763   2.221   5.328
 6004SOL     OW18910   5.272   3.459   5.149
 6004SOL    HW118911   5.240   3.393   5.216
 6004SOL    HW218912   5.336   3.522   5.192
 6005SOL     OW18913   3.982   4.174   0.449
 6005SOL    HW118914   4.065   4.133   0.412
 6005SOL    HW218915   3.943   4.115   0.520
 6006SOL     OW18916   3.050   6.386   6.781
 6006SOL    HW118917   3.110   6.377   6.861
 6006SOL    HW218918   2.974   6.447   6.804
 6007SOL     OW18919   2.299   6.700   5.359
 6007SOL    HW118920   2.318   6.799   5.365
 6007SOL    HW218921   2.300   6.672   5.264
 6008SOL     OW18922   2.188   4.158   6.534
 6008SOL    HW118923   2.206   4.067   6.499
 6008SOL    HW218924   2.182   4.223   6.458
 6009SOL     OW18925   3.798   5.321   2.836
 6009SOL    HW118926   3.801   5.241   2.775
 6009SOL    HW218927   3.879   5.377   2.820
 6010SOL     OW18928   0.267   4.809   5.060
 6010SOL    HW118929   0.316   4.852   5.136
 6010SOL    HW218930   0.174   4.844   5.056
 6011SOL     OW18931   5.149   1.591   3.081
 6011SOL    HW118932   5.054   1.575   3.051
 6011SOL    HW218933   5.201   1.507   3.071
 6012SOL     OW18934   6.804   0.934   5.787
 6012SOL    HW118935   6.729   0.957   5.850
 6012SOL    HW218936   6.873   0.880   5.835
 6013SOL     OW18937   5.606   1.287   2.456
 6013SOL    HW118938   5.702   1.312   2.468
 6013SOL    HW218939   5.549   1.369   2.455
 6014SOL     OW18940   3.550   3.551   4.251
 6014SOL    HW118941   3.470   3.574   4.196
 6014SOL    HW218942   3.558   3.451   4.256
 6015SOL     OW18943   6.042   6.731   4.516
 6015SOL    HW118944   6.102   6.809   4.533
 6015SOL    HW218945   6.021   6.725   4.418
 6016SOL     OW18946   4.105   2.061   4.683
 6016SOL    HW118947   4.112   2.094   4.777
 6016SOL    HW218948   4.009   2.059   4.656
 6017SOL     OW18949   1.494   1.748   5.355
 6017SOL    HW118950   1.537   1.790   5.435
 6017SOL    HW218951   1.429   1.678   5.385
 6018SOL     OW18952   2.646   1.204   3.997
 6018SOL    HW118953   2.743   1.181   3.998
 6018SOL    HW218954   2.609   1.197   4.090
 6019SOL     OW18955   6.690   4.497   6.647
 6019SOL    HW118956   6.737   4.562   6.588
 6019SOL    HW218957   6.730   4.406   6.636
 6020SOL     OW18958   0.747   5.136   5.482
 6020SOL    HW118959   0.845   5.121   5.490
 6020SOL    HW218960   0.728   5.192   5.401
 6021SOL     OW18961   5.589   0.318   3.285
 6021SOL    HW118962   5.639   0.403   3.302
 6021SOL    HW218963   5.632   0.269   3.208
 6022SOL     OW18964   6.095   2.812   1.607
 6022SOL    HW118965   6.043   2.897   1.604
 6022SOL    HW218966   6.040   2.738   1.568
 6023SOL     OW18967   4.794   6.747   2.423
 6023SOL    HW118968   4.805   6.647   2.431
 6023SOL    HW218969   4.801   6.788   2.514
 6024SOL     OW18970   0.222   6.245   6.166
 6024SOL    HW118971   0.315   6.227   6.200
 6024SOL    HW218972   0.176   6.159   6.148
 6025SOL     OW18973   2.751   0.864   5.797
 6025SOL    HW118974   2.810   0.943   5.783
 6025SOL    HW218975   2.745   0.810   5.713
 6026SOL     OW18976   6.123   5.677   3.540
 6026SOL    HW118977   6.076   5.589   3.530
 6026SOL    HW218978   6.055   5.751   3.538
 6027SOL     OW18979   5.823   5.236   6.347
 6027SOL    HW118980   5.768   5.192   6.418
 6027SOL    HW218981   5.821   5.180   6.264
 6028SOL     OW18982   5.991   6.361   6.107
 6028SOL    HW118983   6.052   6.346   6.029
 6028SOL    HW218984   6.023   6.307   6.184
 6029SOL     OW18985   3.337   1.445   2.673
 6029SOL    HW118986   3.327   1.350   2.643
 6029SOL    HW218987   3.256   1.498   2.647
 6030SOL     OW18988   6.339   3.277   4.396
 6030SOL    HW118989   6.361   3.369   4.430
 6030SOL    HW218990   6.379   3.209   4.456
 6031SOL     OW18991   0.222   6.367   4.468
 6031SOL    HW118992   0.249   6.452   4.423
 6031SOL    HW218993   0.176   6.308   4.402
 6032SOL     OW18994   3.557   6.638   3.041
 6032SOL    HW118995   3.505   6.681   2.968
 6032SOL    HW218996   3.517   6.549   3.063
 6033SOL     OW18997   0.607   1.445   2.277
 6033SOL    HW118998   0.622   1.529   2.329
 6033SOL    HW218999   0.547   1.384   2.329
 6034SOL     OW19000   0.615   0.319   0.663
 6034SOL    HW119001   0.529   0.368   0.648
 6034SOL    HW219002   0.678   0.340   0.588
 6035SOL     OW19003   2.387   0.223   2.569
 6035SOL    HW119004   2.449   0.296   2.541
 6035SOL    HW219005   2.413   0.189   2.659
 6036SOL     OW19006   6.255   3.525   0.664
 6036SOL    HW119007   6.270   3.562   0.755
 6036SOL    HW219008   6.243   3.600   0.599
 6037SOL     OW19009   4.803   1.166   5.958
 6037SOL    HW119010   4.862   1.128   5.887
 6037SOL    HW219011   4.711   1.179   5.922
 6038SOL     OW19012   1.782   1.228   6.100
 6038SOL    HW119013   1.791   1.176   6.014
 6038SOL    HW219014   1.703   1.194   6.151
 6039SOL     OW19015   4.053   3.195   3.886
 6039SOL    HW119016   4.093   3.245   3.962
 6039SOL    HW219017   3.978   3.137   3.919
 6040SOL     OW19018   0.767   2.148   0.026
 6040SOL    HW119019   0.716   2.232   0.004
 6040SOL    HW219020   0.725   2.104   0.106
 6041SOL     OW19021   0.428   3.516   5.241
 6041SOL    HW119022   0.509   3.571   5.262
 6041SOL    HW219023   0.441   3.423   5.276
 6042SOL     OW19024   3.016   5.948   3.877
 6042SOL    HW119025   3.028   5.854   3.911
 6042SOL    HW219026   3.059   5.956   3.787
 6043SOL     OW19027   2.524   6.931   2.472
 6043SOL    HW119028   2.465   6.996   2.519
 6043SOL    HW219029   2.558   6.971   2.387
 6044SOL     OW19030   0.220   3.361   0.301
 6044SOL    HW119031   0.171   3.427   0.358
 6044SOL    HW219032   0.234   3.277   0.353
 6045SOL     OW19033   5.263   1.043   4.137
 6045SOL    HW119034   5.199   0.967   4.123
 6045SOL    HW219035   5.345   1.028   4.081
 6046SOL     OW19036   3.756   3.230   2.837
 6046SOL    HW119037   3.773   3.274   2.749
 6046SOL    HW219038   3.793   3.137   2.835
 6047SOL     OW19039   0.223   1.875   0.218
 6047SOL    HW119040   0.138   1.824   0.226
 6047SOL    HW219041   0.206   1.961   0.169
 6048SOL     OW19042   5.706   5.738   3.334
 6048SOL    HW119043   5.678   5.669   3.268
 6048SOL    HW219044   5.659   5.824   3.315
 6049SOL     OW19045   4.801   4.799   6.350
 6049SOL    HW119046   4.896   4.799   6.383
 6049SOL    HW219047   4.779   4.709   6.313
 6050SOL     OW19048   2.756   5.190   2.496
 6050SOL    HW119049   2.829   5.257   2.486
 6050SOL    HW219050   2.692   5.198   2.419
 6051SOL     OW19051   0.755   0.897   2.529
 6051SOL    HW119052   0.683   0.949   2.575
 6051SOL    HW219053   0.844   0.930   2.560
 6052SOL     OW19054   5.297   5.223   0.531
 6052SOL    HW119055   5.299   5.230   0.631
 6052SOL    HW219056   5.217   5.170   0.503
 6053SOL     OW19057   4.289   2.459   6.618
 6053SOL    HW119058   4.315   2.522   6.544
 6053SOL    HW219059   4.240   2.381   6.579
 6054SOL     OW19060   4.142   3.939   0.855
 6054SOL    HW119061   4.189   4.027   0.847
 6054SOL    HW219062   4.144   3.909   0.950
 6055SOL     OW19063   3.247   3.642   1.312
 6055SOL    HW119064   3.290   3.641   1.402
 6055SOL    HW219065   3.279   3.721   1.261
 6056SOL     OW19066   5.398   5.626   3.545
 6056SOL    HW119067   5.438   5.699   3.600
 6056SOL    HW219068   5.362   5.664   3.460
 6057SOL     OW19069   5.519   0.941   3.637
 6057SOL    HW119070   5.501   0.957   3.540
 6057SOL    HW219071   5.573   1.017   3.674
 6058SOL     OW19072   0.095   2.555   5.658
 6058SOL    HW119073   0.175   2.607   5.627
 6058SOL    HW219074   0.019   2.617   5.676
 6059SOL     OW19075   4.134   2.728   0.043
 6059SOL    HW119076   4.141   2.662   6.991
 6059SOL    HW219077   4.153   2.820   0.008
 6060SOL     OW19078   2.166   2.603   0.574
 6060SOL    HW119079   2.191   2.593   0.670
 6060SOL    HW219080   2.071   2.574   0.561
 6061SOL     OW19081   3.345   4.103   0.084
 6061SOL    HW119082   3.326   4.131   7.012
 6061SOL    HW219083   3.303   4.014   0.101
 6062SOL     OW19084   2.119   2.230   6.341
 6062SOL    HW119085   2.171   2.213   6.258
 6062SOL    HW219086   2.034   2.277   6.319
 6063SOL     OW19087   4.490   4.053   6.562
 6063SOL    HW119088   4.486   4.135   6.505
 6063SOL    HW219089   4.493   4.079   6.658
 6064SOL     OW19090   5.812   5.968   0.803
 6064SOL    HW119091   5.782   6.020   0.883
 6064SOL    HW219092   5.738   5.962   0.737
 6065SOL     OW19093   2.182   6.061   1.586
 6065SOL    HW119094   2.178   6.003   1.667
 6065SOL    HW219095   2.215   6.007   1.508
 6066SOL     OW19096   5.895   5.347   2.769
 6066SOL    HW119097   5.854   5.438   2.761
 6066SOL    HW219098   5.981   5.345   2.718
 6067SOL     OW19099   0.016   6.039   5.849
 6067SOL    HW119100   0.024   6.104   5.925
 6067SOL    HW219101   0.089   5.971   5.855
 6068SOL     OW19102   4.376   2.078   4.320
 6068SOL    HW119103   4.337   2.151   4.264
 6068SOL    HW219104   4.453   2.113   4.373
 6069SOL     OW19105   0.239   4.840   6.045
 6069SOL    HW119106   0.208   4.769   5.983
 6069SOL    HW219107   0.225   4.930   6.003
 6070SOL     OW19108   2.466   1.613   0.883
 6070SOL    HW119109   2.463   1.528   0.934
 6070SOL    HW219110   2.527   1.677   0.928
 6071SOL     OW19111   5.747   0.834   6.190
 6071SOL    HW119112   5.651   0.859   6.203
 6071SOL    HW219113   5.803   0.917   6.188
 6072SOL     OW19114   6.840   3.315   0.144
 6072SOL    HW119115   6.834   3.339   0.240
 6072SOL    HW219116   6.758   3.347   0.096
 6073SOL     OW19117   4.615   3.707   0.668
 6073SOL    HW119118   4.662   3.702   0.580
 6073SOL    HW219119   4.567   3.620   0.685
 6074SOL     OW19120   0.696   6.592   2.513
 6074SOL    HW119121   0.713   6.678   2.465
 6074SOL    HW219122   0.776   6.568   2.568
 6075SOL     OW19123   5.857   0.531   0.123
 6075SOL    HW119124   5.920   0.454   0.119
 6075SOL    HW219125   5.894   0.608   0.071
 6076SOL     OW19126   0.768   6.323   3.637
 6076SOL    HW119127   0.835   6.250   3.620
 6076SOL    HW219128   0.708   6.332   3.557
 6077SOL     OW19129   5.221   5.749   2.903
 6077SOL    HW119130   5.285   5.710   2.837
 6077SOL    HW219131   5.148   5.797   2.854
 6078SOL     OW19132   4.808   4.469   0.775
 6078SOL    HW119133   4.761   4.383   0.756
 6078SOL    HW219134   4.840   4.509   0.689
 6079SOL     OW19135   3.398   2.245   0.302
 6079SOL    HW119136   3.325   2.182   0.275
 6079SOL    HW219137   3.447   2.276   0.221
 6080SOL     OW19138   0.018   3.796   5.751
 6080SOL    HW119139   0.097   3.845   5.713
 6080SOL    HW219140   6.990   3.753   5.676
 6081SOL     OW19141   1.975   3.606   3.550
 6081SOL    HW119142   1.892   3.583   3.602
 6081SOL    HW219143   2.047   3.631   3.614
 6082SOL     OW19144   5.163   1.356   1.480
 6082SOL    HW119145   5.115   1.341   1.393
 6082SOL    HW219146   5.109   1.419   1.537
 6083SOL     OW19147   4.967   6.979   6.426
 6083SOL    HW119148   5.016   6.908   6.476
 6083SOL    HW219149   4.948   0.033   6.487
 6084SOL     OW19150   6.060   4.978   2.948
 6084SOL    HW119151   6.000   5.050   2.984
 6084SOL    HW219152   6.063   4.901   3.013
 6085SOL     OW19153   0.632   6.647   0.688
 6085SOL    HW119154   0.609   6.654   0.785
 6085SOL    HW219155   0.619   6.553   0.656
 6086SOL     OW19156   3.264   3.614   7.015
 6086SOL    HW119157   3.165   3.602   7.023
 6086SOL    HW219158   3.301   3.550   6.948
 6087SOL     OW19159   4.254   6.882   0.663
 6087SOL    HW119160   4.269   6.930   0.749
 6087SOL    HW219161   4.331   6.821   0.644
 6088SOL     OW19162   4.659   5.855   2.656
 6088SOL    HW119163   4.717   5.846   2.737
 6088SOL    HW219164   4.632   5.950   2.645
 6089SOL     OW19165   6.278   3.878   2.993
 6089SOL    HW119166   6.280   3.974   2.965
 6089SOL    HW219167   6.190   3.858   3.035
 6090SOL     OW19168   3.802   5.750   4.969
 6090SOL    HW119169   3.827   5.750   4.873
 6090SOL    HW219170   3.864   5.811   5.020
 6091SOL     OW19171   0.168   1.918   1.764
 6091SOL    HW119172   0.112   1.997   1.739
 6091SOL    HW219173   0.136   1.882   1.852
 6092SOL     OW19174   2.506   6.749   1.347
 6092SOL    HW119175   2.478   6.659   1.380
 6092SOL    HW219176   2.475   6.819   1.411
 6093SOL     OW19177   2.499   2.481   1.899
 6093SOL    HW119178   2.399   2.482   1.890
 6093SOL    HW219179   2.537   2.560   1.853
 6094SOL     OW19180   0.674   6.511   5.435
 6094SOL    HW119181   0.615   6.579   5.392
 6094SOL    HW219182   0.713   6.451   5.364
 6095SOL     OW19183   5.426   4.982   2.280
 6095SOL    HW119184   5.459   4.897   2.239
 6095SOL    HW219185   5.469   4.995   2.369
 6096SOL     OW19186   5.218   5.926   3.109
 6096SOL    HW119187   5.200   6.017   3.070
 6096SOL    HW219188   5.216   5.858   3.036
 6097SOL     OW19189   2.948   5.368   2.373
 6097SOL    HW119190   3.014   5.443   2.364
 6097SOL    HW219191   2.917   5.341   2.282
 6098SOL     OW19192   6.262   1.036   5.117
 6098SOL    HW119193   6.279   1.120   5.168
 6098SOL    HW219194   6.169   1.003   5.136
 6099SOL     OW19195   4.487   0.277   5.578
 6099SOL    HW119196   4.424   0.215   5.625
 6099SOL    HW219197   4.527   0.231   5.499
 6100SOL     OW19198   0.949   5.723   5.406
 6100SOL    HW119199   0.879   5.670   5.452
 6100SOL    HW219200   0.984   5.794   5.467
 6101SOL     OW19201   0.068   2.954   1.567
 6101SOL    HW119202   0.023   2.911   1.645
 6101SOL    HW219203   7.022   2.994   1.507
 6102SOL     OW19204   3.626   0.001   3.016
 6102SOL    HW119205   3.529   7.005   3.035
 6102SOL    HW219206   3.644   0.098   3.028
 6103SOL     OW19207   5.977   1.046   3.063
 6103SOL    HW119208   6.023   0.985   2.998
 6103SOL    HW219209   5.971   1.138   3.023
 6104SOL     OW19210   6.661   1.552   4.590
 6104SOL    HW119211   6.686   1.631   4.646
 6104SOL    HW219212   6.738   1.490   4.583
 6105SOL     OW19213   4.031   4.399   5.888
 6105SOL    HW119214   4.080   4.441   5.965
 6105SOL    HW219215   4.023   4.300   5.904
 6106SOL     OW19216   6.411   4.370   4.836
 6106SOL    HW119217   6.333   4.310   4.856
 6106SOL    HW219218   6.489   4.344   4.893
 6107SOL     OW19219   5.373   5.080   5.539
 6107SOL    HW119220   5.469   5.084   5.512
 6107SOL    HW219221   5.331   4.997   5.502
 6108SOL     OW19222   2.353   1.079   6.327
 6108SOL    HW119223   2.449   1.065   6.304
 6108SOL    HW219224   2.295   1.021   6.270
 6109SOL     OW19225   0.611   6.305   4.254
 6109SOL    HW119226   0.682   6.280   4.319
 6109SOL    HW219227   0.652   6.357   4.179
 6110SOL     OW19228   1.483   1.293   4.406
 6110SOL    HW119229   1.468   1.205   4.361
 6110SOL    HW219230   1.572   1.330   4.377
 6111SOL     OW19231   2.309   3.459   0.533
 6111SOL    HW119232   2.389   3.410   0.567
 6111SOL    HW219233   2.322   3.482   0.437
 6112SOL     OW19234   4.492   6.406   3.517
 6112SOL    HW119235   4.411   6.461   3.494
 6112SOL    HW219236   4.571   6.465   3.530
 6113SOL     OW19237   3.097   5.431   0.677
 6113SOL    HW119238   3.025   5.493   0.707
 6113SOL    HW219239   3.166   5.483   0.626
 6114SOL     OW19240   4.640   2.746   0.846
 6114SOL    HW119241   4.678   2.676   0.786
 6114SOL    HW219242   4.576   2.803   0.794
 6115SOL     OW19243   0.834   1.055   5.109
 6115SOL    HW119244   0.875   1.108   5.035
 6115SOL    HW219245   0.904   1.031   5.176
 6116SOL     OW19246   5.658   3.841   0.174
 6116SOL    HW119247   5.596   3.911   0.138
 6116SOL    HW219248   5.709   3.879   0.251
 6117SOL     OW19249   1.982   2.203   1.517
 6117SOL    HW119250   1.913   2.270   1.492
 6117SOL    HW219251   1.940   2.113   1.530
 6118SOL     OW19252   5.540   0.937   2.069
 6118SOL    HW119253   5.548   1.023   2.119
 6118SOL    HW219254   5.617   0.929   2.005
 6119SOL     OW19255   0.071   1.572   6.736
 6119SOL    HW119256   7.016   1.635   6.733
 6119SOL    HW219257   0.096   1.545   6.643
 6120SOL     OW19258   3.270   0.484   4.288
 6120SOL    HW119259   3.328   0.416   4.243
 6120SOL    HW219260   3.265   0.463   4.386
 6121SOL     OW19261   2.362   2.144   5.143
 6121SOL    HW119262   2.355   2.215   5.073
 6121SOL    HW219263   2.280   2.087   5.141
 6122SOL     OW19264   4.682   4.873   4.823
 6122SOL    HW119265   4.612   4.878   4.752
 6122SOL    HW219266   4.711   4.966   4.848
 6123SOL     OW19267   6.050   1.172   5.372
 6123SOL    HW119268   6.126   1.185   5.436
 6123SOL    HW219269   6.055   1.242   5.301
 6124SOL     OW19270   2.866   5.432   3.865
 6124SOL    HW119271   2.836   5.375   3.788
 6124SOL    HW219272   2.798   5.428   3.938
 6125SOL     OW19273   3.355   1.560   5.801
 6125SOL    HW119274   3.389   1.467   5.787
 6125SOL    HW219275   3.260   1.566   5.770
 6126SOL     OW19276   6.366   3.162   6.092
 6126SOL    HW119277   6.337   3.090   6.028
 6126SOL    HW219278   6.450   3.204   6.058
 6127SOL     OW19279   4.962   1.747   2.722
 6127SOL    HW119280   4.977   1.843   2.747
 6127SOL    HW219281   4.928   1.697   2.803
 6128SOL     OW19282   5.680   5.852   6.803
 6128SOL    HW119283   5.619   5.930   6.810
 6128SOL    HW219284   5.768   5.881   6.766
 6129SOL     OW19285   3.072   5.810   2.950
 6129SOL    HW119286   2.995   5.795   3.013
 6129SOL    HW219287   3.131   5.883   2.986
 6130SOL     OW19288   5.789   3.155   0.131
 6130SOL    HW119289   5.728   3.165   0.210
 6130SOL    HW219290   5.765   3.221   0.061
 6131SOL     OW19291   6.564   2.242   3.030
 6131SOL    HW119292   6.559   2.159   3.087
 6131SOL    HW219293   6.472   2.270   3.005
 6132SOL     OW19294   4.513   7.017   6.210
 6132SOL    HW119295   4.516   6.983   6.116
 6132SOL    HW219296   4.581   6.970   6.266
 6133SOL     OW19297   0.490   2.208   2.731
 6133SOL    HW119298   0.468   2.139   2.663
 6133SOL    HW219299   0.493   2.165   2.822
 6134SOL     OW19300   0.568   6.838   5.619
 6134SOL    HW119301   0.533   6.746   5.641
 6134SOL    HW219302   0.617   6.874   5.699
 6135SOL     OW19303   6.906   0.211   0.595
 6135SOL    HW119304   6.840   0.195   0.521
 6135SOL    HW219305   6.892   0.302   0.633
 6136SOL     OW19306   1.065   2.218   3.674
 6136SOL    HW119307   1.038   2.179   3.585
 6136SOL    HW219308   1.157   2.258   3.666
 6137SOL     OW19309   0.019   4.628   1.125
 6137SOL    HW119310   6.959   4.586   1.089
 6137SOL    HW219311   0.049   4.701   1.063
 6138SOL     OW19312   5.070   0.605   2.380
 6138SOL    HW119313   5.127   0.687   2.372
 6138SOL    HW219314   5.035   0.597   2.473
 6139SOL     OW19315   1.697   1.347   4.956
 6139SOL    HW119316   1.769   1.281   4.980
 6139SOL    HW219317   1.719   1.390   4.869
 6140SOL     OW19318   1.815   6.946   2.767
 6140SOL    HW119319   1.849   6.947   2.861
 6140SOL    HW219320   1.859   7.019   2.715
 6141SOL     OW19321   1.071   1.122   6.513
 6141SOL    HW119322   1.069   1.156   6.419
 6141SOL    HW219323   0.986   1.073   6.533
 6142SOL     OW19324   5.979   0.446   1.380
 6142SOL    HW119325   6.046   0.492   1.323
 6142SOL    HW219326   6.014   0.439   1.474
 6143SOL     OW19327   0.235   3.391   5.533
 6143SOL    HW119328   0.227   3.316   5.468
 6143SOL    HW219329   0.238   3.478   5.482
 6144SOL     OW19330   4.025   5.346   2.341
 6144SOL    HW119331   3.997   5.290   2.419
 6144SOL    HW219332   4.061   5.433   2.373
 6145SOL     OW19333   4.883   3.395   3.916
 6145SOL    HW119334   4.854   3.488   3.939
 6145SOL    HW219335   4.885   3.384   3.817
 6146SOL     OW19336   6.149   0.407   5.349
 6146SOL    HW119337   6.128   0.369   5.259
 6146SOL    HW219338   6.104   0.353   5.419
 6147SOL     OW19339   1.141   2.493   5.294
 6147SOL    HW119340   1.062   2.435   5.313
 6147SOL    HW219341   1.124   2.585   5.330
 6148SOL     OW19342   3.423   5.223   0.189
 6148SOL    HW119343   3.477   5.206   0.106
 6148SOL    HW219344   3.469   5.181   0.267
 6149SOL     OW19345   3.832   1.550   1.750
 6149SOL    HW119346   3.852   1.452   1.754
 6149SOL    HW219347   3.766   1.573   1.821
 6150SOL     OW19348   0.351   4.463   4.597
 6150SOL    HW119349   0.280   4.394   4.590
 6150SOL    HW219350   0.416   4.438   4.668
 6151SOL     OW19351   4.302   4.974   3.025
 6151SOL    HW119352   4.315   4.894   3.084
 6151SOL    HW219353   4.224   4.958   2.965
 6152SOL     OW19354   1.653   4.376   3.467
 6152SOL    HW119355   1.618   4.456   3.418
 6152SOL    HW219356   1.577   4.314   3.487
 6153SOL     OW19357   5.013   6.087   1.092
 6153SOL    HW119358   5.094   6.142   1.075
 6153SOL    HW219359   5.013   6.007   1.033
 6154SOL     OW19360   5.024   3.830   2.324
 6154SOL    HW119361   4.971   3.745   2.327
 6154SOL    HW219362   4.997   3.883   2.243
 6155SOL     OW19363   2.081   1.350   3.715
 6155SOL    HW119364   1.994   1.305   3.735
 6155SOL    HW219365   2.151   1.316   3.777
 6156SOL     OW19366   5.533   4.329   2.129
 6156SOL    HW119367   5.445   4.317   2.174
 6156SOL    HW219368   5.550   4.252   2.068
 6157SOL     OW19369   0.439   3.016   0.964
 6157SOL    HW119370   0.523   3.016   0.911
 6157SOL    HW219371   0.457   3.051   1.056
 6158SOL     OW19372   2.830   2.200   4.918
 6158SOL    HW119373   2.770   2.168   4.991
 6158SOL    HW219374   2.916   2.234   4.958
 6159SOL     OW19375   6.132   2.820   0.167
 6159SOL    HW119376   6.100   2.914   0.154
 6159SOL    HW219377   6.065   2.768   0.220
 6160SOL     OW19378   1.039   0.717   1.194
 6160SOL    HW119379   1.080   0.772   1.266
 6160SOL    HW219380   0.973   0.654   1.234
 6161SOL     OW19381   4.691   4.030   7.014
 6161SOL    HW119382   4.761   3.994   0.052
 6161SOL    HW219383   4.687   4.130   0.000
 6162SOL     OW19384   6.685   5.635   2.311
 6162SOL    HW119385   6.735   5.636   2.224
 6162SOL    HW219386   6.663   5.729   2.337
 6163SOL     OW19387   5.975   5.934   2.782
 6163SOL    HW119388   6.059   5.988   2.790
 6163SOL    HW219389   5.921   5.944   2.866
 6164SOL     OW19390   2.919   3.558   4.473
 6164SOL    HW119391   2.967   3.473   4.498
 6164SOL    HW219392   2.854   3.581   4.546
 6165SOL     OW19393   3.252   1.782   0.085
 6165SOL    HW119394   3.319   1.708   0.097
 6165SOL    HW219395   3.216   1.809   0.174
 6166SOL     OW19396   2.956   2.245   6.570
 6166SOL    HW119397   3.033   2.287   6.522
 6166SOL    HW219398   2.894   2.317   6.603
 6167SOL     OW19399   1.642   3.584   3.012
 6167SOL    HW119400   1.662   3.681   3.022
 6167SOL    HW219401   1.724   3.537   2.979
 6168SOL     OW19402   0.718   3.450   3.368
 6168SOL    HW119403   0.755   3.427   3.458
 6168SOL    HW219404   0.688   3.366   3.322
 6169SOL     OW19405   2.121   0.826   6.656
 6169SOL    HW119406   2.183   0.767   6.604
 6169SOL    HW219407   2.098   0.907   6.602
 6170SOL     OW19408   2.919   3.892   1.008
 6170SOL    HW119409   3.011   3.913   0.974
 6170SOL    HW219410   2.854   3.897   0.932
 6171SOL     OW19411   2.083   3.563   1.790
 6171SOL    HW119412   2.136   3.536   1.871
 6171SOL    HW219413   1.986   3.545   1.807
 6172SOL     OW19414   2.525   5.815   2.478
 6172SOL    HW119415   2.579   5.836   2.396
 6172SOL    HW219416   2.582   5.764   2.543
 6173SOL     OW19417   1.476   5.794   2.260
 6173SOL    HW119418   1.544   5.868   2.258
 6173SOL    HW219419   1.511   5.719   2.315
 6174SOL     OW19420   5.939   4.706   2.043
 6174SOL    HW119421   5.977   4.647   1.972
 6174SOL    HW219422   5.967   4.800   2.028
 6175SOL     OW19423   5.046   0.337   3.281
 6175SOL    HW119424   5.141   0.367   3.287
 6175SOL    HW219425   5.043   0.240   3.258
 6176SOL     OW19426   5.046   2.958   6.524
 6176SOL    HW119427   5.044   3.022   6.600
 6176SOL    HW219428   4.975   2.982   6.458
 6177SOL     OW19429   6.797   3.391   1.726
 6177SOL    HW119430   6.858   3.429   1.657
 6177SOL    HW219431   6.822   3.428   1.816
 6178SOL     OW19432   5.550   3.427   2.067
 6178SOL    HW119433   5.530   3.416   1.969
 6178SOL    HW219434   5.648   3.418   2.082
 6179SOL     OW19435   0.339   2.185   5.096
 6179SOL    HW119436   0.400   2.251   5.139
 6179SOL    HW219437   0.247   2.193   5.136
 6180SOL     OW19438   3.238   0.130   6.075
 6180SOL    HW119439   3.311   0.095   6.135
 6180SOL    HW219440   3.279   0.168   5.992
 6181SOL     OW19441   4.432   6.001   6.713
 6181SOL    HW119442   4.338   5.970   6.731
 6181SOL    HW219443   4.493   5.967   6.784
 6182SOL     OW19444   5.289   6.181   6.232
 6182SOL    HW119445   5.284   6.108   6.300
 6182SOL    HW219446   5.384   6.214   6.226
 6183SOL     OW19447   2.999   0.694   2.937
 6183SOL    HW119448   3.042   0.723   3.023
 6183SOL    HW219449   3.021   0.598   2.920
 6184SOL     OW19450   6.150   0.649   6.640
 6184SOL    HW119451   6.102   0.736   6.635
 6184SOL    HW219452   6.091   0.581   6.683
 6185SOL     OW19453   1.114   3.239   5.715
 6185SOL    HW119454   1.078   3.146   5.702
 6185SOL    HW219455   1.060   3.303   5.660
 6186SOL     OW19456   5.301   6.823   4.863
 6186SOL    HW119457   5.379   6.878   4.832
 6186SOL    HW219458   5.330   6.762   4.936
 6187SOL     OW19459   2.821   4.774   4.281
 6187SOL    HW119460   2.800   4.794   4.377
 6187SOL    HW219461   2.800   4.855   4.225
 6188SOL     OW19462   2.996   0.134   1.587
 6188SOL    HW119463   3.085   0.176   1.568
 6188SOL    HW219464   3.009   0.037   1.610
 6189SOL     OW19465   5.296   4.536   3.085
 6189SOL    HW119466   5.254   4.466   3.027
 6189SOL    HW219467   5.377   4.499   3.129
 6190SOL     OW19468   5.102   2.719   5.629
 6190SOL    HW119469   5.021   2.753   5.582
 6190SOL    HW219470   5.157   2.796   5.660
 6191SOL     OW19471   6.639   2.596   6.521
 6191SOL    HW119472   6.609   2.502   6.538
 6191SOL    HW219473   6.567   2.645   6.471
 6192SOL     OW19474   2.970   2.195   0.393
 6192SOL    HW119475   2.910   2.118   0.415
 6192SOL    HW219476   3.015   2.228   0.476
 6193SOL     OW19477   5.949   6.806   1.144
 6193SOL    HW119478   5.943   6.905   1.150
 6193SOL    HW219479   6.037   6.775   1.182
 6194SOL     OW19480   1.894   0.674   0.536
 6194SOL    HW119481   1.869   0.586   0.496
 6194SOL    HW219482   1.939   0.659   0.624
 6195SOL     OW19483   2.540   6.555   6.138
 6195SOL    HW119484   2.513   6.515   6.225
 6195SOL    HW219485   2.591   6.488   6.084
 6196SOL     OW19486   0.193   1.128   5.955
 6196SOL    HW119487   0.180   1.225   5.975
 6196SOL    HW219488   0.213   1.079   6.040
 6197SOL     OW19489   2.459   3.097   0.560
 6197SOL    HW119490   2.384   3.059   0.613
 6197SOL    HW219491   2.427   3.117   0.467
 6198SOL     OW19492   4.226   5.081   2.228
 6198SOL    HW119493   4.263   5.023   2.300
 6198SOL    HW219494   4.129   5.098   2.245
 6199SOL     OW19495   0.972   0.560   6.210
 6199SOL    HW119496   0.887   0.525   6.248
 6199SOL    HW219497   1.045   0.551   6.278
 6200SOL     OW19498   3.803   0.574   5.932
 6200SOL    HW119499   3.717   0.586   5.982
 6200SOL    HW219500   3.822   0.476   5.922
 6201SOL     OW19501   2.481   4.507   3.735
 6201SOL    HW119502   2.419   4.455   3.794
 6201SOL    HW219503   2.537   4.568   3.791
 6202SOL     OW19504   3.176   2.691   1.456
 6202SOL    HW119505   3.169   2.591   1.463
 6202SOL    HW219506   3.193   2.729   1.547
 6203SOL     OW19507   5.159   2.182   5.219
 6203SOL    HW119508   5.239   2.129   5.246
 6203SOL    HW219509   5.084   2.161   5.282
 6204SOL     OW19510   1.776   6.537   5.828
 6204SOL    HW119511   1.745   6.544   5.733
 6204SOL    HW219512   1.796   6.629   5.863
 6205SOL     OW19513   5.355   6.380   0.230
 6205SOL    HW119514   5.452   6.402   0.218
 6205SOL    HW219515   5.313   6.366   0.141
 6206SOL     OW19516   5.609   0.071   3.457
 6206SOL    HW119517   5.606   7.009   3.406
 6206SOL    HW219518   5.594   0.148   3.395
 6207SOL     OW19519   1.637   4.250   4.421
 6207SOL    HW119520   1.681   4.307   4.352
 6207SOL    HW219521   1.641   4.295   4.510
 6208SOL     OW19522   5.350   5.985   6.021
 6208SOL    HW119523   5.402   6.031   5.950
 6208SOL    HW219524   5.340   6.045   6.100
 6209SOL     OW19525   3.211   5.234   0.831
 6209SOL    HW119526   3.310   5.224   0.838
 6209SOL    HW219527   3.190   5.314   0.775
 6210SOL     OW19528   6.764   4.923   3.180
 6210SOL    HW119529   6.781   4.860   3.256
 6210SOL    HW219530   6.740   4.872   3.098
 6211SOL     OW19531   2.400   0.384   5.109
 6211SOL    HW119532   2.417   0.415   5.016
 6211SOL    HW219533   2.394   0.284   5.110
 6212SOL     OW19534   6.816   6.852   3.918
 6212SOL    HW119535   6.856   6.806   3.838
 6212SOL    HW219536   6.866   6.936   3.936
 6213SOL     OW19537   6.482   0.236   0.130
 6213SOL    HW119538   6.445   0.233   0.037
 6213SOL    HW219539   6.580   0.255   0.127
 6214SOL     OW19540   5.768   4.996   2.431
 6214SOL    HW119541   5.773   4.920   2.367
 6214SOL    HW219542   5.840   5.063   2.410
 6215SOL     OW19543   2.662   5.049   1.005
 6215SOL    HW119544   2.678   4.954   1.030
 6215SOL    HW219545   2.736   5.106   1.042
 6216SOL     OW19546   6.373   1.947   2.583
 6216SOL    HW119547   6.473   1.954   2.583
 6216SOL    HW219548   6.334   2.025   2.631
 6217SOL     OW19549   5.249   3.169   1.995
 6217SOL    HW119550   5.266   3.239   1.926
 6217SOL    HW219551   5.277   3.202   2.085
 6218SOL     OW19552   3.683   4.948   4.555
 6218SOL    HW119553   3.729   4.897   4.628
 6218SOL    HW219554   3.708   5.045   4.561
 6219SOL     OW19555   1.006   1.572   4.066
 6219SOL    HW119556   1.055   1.627   3.998
 6219SOL    HW219557   0.941   1.630   4.115
 6220SOL     OW19558   1.556   4.068   5.147
 6220SOL    HW119559   1.617   3.991   5.165
 6220SOL    HW219560   1.600   4.131   5.083
 6221SOL     OW19561   4.533   5.045   4.374
 6221SOL    HW119562   4.567   5.117   4.435
 6221SOL    HW219563   4.439   5.065   4.349
 6222SOL     OW19564   0.188   1.672   1.071
 6222SOL    HW119565   0.213   1.640   1.163
 6222SOL    HW219566   0.128   1.752   1.079
 6223SOL     OW19567   5.334   3.844   4.705
 6223SOL    HW119568   5.292   3.869   4.618
 6223SOL    HW219569   5.287   3.765   4.743
 6224SOL     OW19570   2.794   0.629   4.691
 6224SOL    HW119571   2.818   0.657   4.783
 6224SOL    HW219572   2.772   0.531   4.690
 6225SOL     OW19573   4.532   2.509   6.763
 6225SOL    HW119574   4.433   2.518   6.754
 6225SOL    HW219575   4.554   2.463   6.849
 6226SOL     OW19576   6.552   6.587   4.618
 6226SOL    HW119577   6.521   6.680   4.638
 6226SOL    HW219578   6.528   6.564   4.524
 6227SOL     OW19579   2.702   4.517   6.819
 6227SOL    HW119580   2.709   4.433   6.764
 6227SOL    HW219581   2.696   4.596   6.759
 6228SOL     OW19582   0.157   1.280   2.431
 6228SOL    HW119583   0.087   1.244   2.493
 6228SOL    HW219584   0.157   1.227   2.347
 6229SOL     OW19585   1.465   2.401   1.998
 6229SOL    HW119586   1.539   2.358   2.050
 6229SOL    HW219587   1.492   2.410   1.902
 6230SOL     OW19588   1.694   2.167   3.220
 6230SOL    HW119589   1.601   2.157   3.183
 6230SOL    HW219590   1.758   2.115   3.164
 6231SOL     OW19591   6.804   5.387   1.450
 6231SOL    HW119592   6.705   5.383   1.437
 6231SOL    HW219593   6.824   5.420   1.543
 6232SOL     OW19594   0.677   1.712   6.880
 6232SOL    HW119595   0.719   1.784   6.825
 6232SOL    HW219596   0.717   1.624   6.856
 6233SOL     OW19597   4.425   1.575   6.277
 6233SOL    HW119598   4.451   1.517   6.354
 6233SOL    HW219599   4.326   1.573   6.266
 6234SOL     OW19600   1.886   2.754   2.977
 6234SOL    HW119601   1.924   2.755   3.069
 6234SOL    HW219602   1.786   2.753   2.983
 6235SOL     OW19603   1.877   6.196   3.100
 6235SOL    HW119604   1.782   6.199   3.070
 6235SOL    HW219605   1.884   6.237   3.191
 6236SOL     OW19606   6.732   3.936   0.182
 6236SOL    HW119607   6.652   3.996   0.184
 6236SOL    HW219608   6.811   3.988   0.148
 6237SOL     OW19609   4.135   6.270   0.087
 6237SOL    HW119610   4.112   6.316   0.002
 6237SOL    HW219611   4.199   6.195   0.070
 6238SOL     OW19612   4.459   4.043   1.071
 6238SOL    HW119613   4.450   4.126   1.016
 6238SOL    HW219614   4.525   3.982   1.028
 6239SOL     OW19615   2.527   0.627   3.773
 6239SOL    HW119616   2.429   0.610   3.756
 6239SOL    HW219617   2.577   0.541   3.764
 6240SOL     OW19618   2.419   3.781   0.254
 6240SOL    HW119619   2.362   3.807   0.176
 6240SOL    HW219620   2.419   3.682   0.264
 6241SOL     OW19621   4.491   0.258   1.649
 6241SOL    HW119622   4.561   0.217   1.708
 6241SOL    HW219623   4.406   0.267   1.700
 6242SOL     OW19624   3.667   2.120   3.685
 6242SOL    HW119625   3.591   2.056   3.697
 6242SOL    HW219626   3.656   2.198   3.747
 6243SOL     OW19627   5.352   5.350   3.307
 6243SOL    HW119628   5.375   5.320   3.400
 6243SOL    HW219629   5.329   5.270   3.252
 6244SOL     OW19630   1.987   2.378   2.188
 6244SOL    HW119631   2.071   2.399   2.138
 6244SOL    HW219632   2.009   2.314   2.263
 6245SOL     OW19633   2.212   3.911   0.549
 6245SOL    HW119634   2.302   3.869   0.541
 6245SOL    HW219635   2.154   3.881   0.473
 6246SOL     OW19636   4.176   0.827   6.857
 6246SOL    HW119637   4.118   0.751   6.887
 6246SOL    HW219638   4.234   0.857   6.932
 6247SOL     OW19639   6.613   5.974   2.803
 6247SOL    HW119640   6.690   6.024   2.843
 6247SOL    HW219641   6.547   5.952   2.874
 6248SOL     OW19642   0.962   4.919   1.166
 6248SOL    HW119643   0.868   4.925   1.133
 6248SOL    HW219644   1.003   5.010   1.167
 6249SOL     OW19645   5.224   4.366   6.358
 6249SOL    HW119646   5.233   4.274   6.397
 6249SOL    HW219647   5.291   4.378   6.285
 6250SOL     OW19648   5.853   5.454   5.847
 6250SOL    HW119649   5.811   5.364   5.847
 6250SOL    HW219650   5.914   5.463   5.926
 6251SOL     OW19651   4.494   1.875   0.912
 6251SOL    HW119652   4.458   1.943   0.848
 6251SOL    HW219653   4.593   1.885   0.921
 6252SOL     OW19654   1.895   6.166   5.171
 6252SOL    HW119655   1.856   6.101   5.236
 6252SOL    HW219656   1.872   6.259   5.199
 6253SOL     OW19657   2.079   4.198   1.636
 6253SOL    HW119658   2.116   4.120   1.585
 6253SOL    HW219659   2.107   4.190   1.732
 6254SOL     OW19660   5.394   0.624   0.452
 6254SOL    HW119661   5.355   0.606   0.541
 6254SOL    HW219662   5.467   0.693   0.460
 6255SOL     OW19663   6.585   2.011   2.794
 6255SOL    HW119664   6.631   1.998   2.706
 6255SOL    HW219665   6.636   1.965   2.866
 6256SOL     OW19666   3.585   5.180   3.479
 6256SOL    HW119667   3.516   5.165   3.408
 6256SOL    HW219668   3.541   5.177   3.569
 6257SOL     OW19669   4.487   2.935   0.371
 6257SOL    HW119670   4.494   3.024   0.325
 6257SOL    HW219671   4.409   2.885   0.334
 6258SOL     OW19672   5.046   2.565   2.658
 6258SOL    HW119673   5.081   2.499   2.591
 6258SOL    HW219674   4.966   2.612   2.620
 6259SOL     OW19675   2.958   2.126   1.854
 6259SOL    HW119676   2.940   2.205   1.913
 6259SOL    HW219677   2.958   2.156   1.758
 6260SOL     OW19678   3.567   3.440   0.861
 6260SOL    HW119679   3.476   3.405   0.843
 6260SOL    HW219680   3.563   3.511   0.931
 6261SOL     OW19681   4.617   0.581   6.588
 6261SOL    HW119682   4.643   0.626   6.503
 6261SOL    HW219683   4.520   0.594   6.605
 6262SOL     OW19684   0.233   5.790   5.460
 6262SOL    HW119685   0.258   5.723   5.530
 6262SOL    HW219686   0.268   5.880   5.485
 6263SOL     OW19687   6.538   1.094   0.671
 6263SOL    HW119688   6.456   1.054   0.629
 6263SOL    HW219689   6.525   1.192   0.684
 6264SOL     OW19690   2.186   1.313   6.691
 6264SOL    HW119691   2.207   1.343   6.598
 6264SOL    HW219692   2.122   1.377   6.734
 6265SOL     OW19693   4.738   3.800   1.242
 6265SOL    HW119694   4.763   3.897   1.248
 6265SOL    HW219695   4.799   3.754   1.177
 6266SOL     OW19696   2.496   6.845   2.027
 6266SOL    HW119697   2.590   6.824   2.000
 6266SOL    HW219698   2.438   6.846   1.945
 6267SOL     OW19699   2.669   6.941   6.737
 6267SOL    HW119700   2.682   6.851   6.780
 6267SOL    HW219701   2.638   7.007   6.805
 6268SOL     OW19702   3.118   5.204   2.605
 6268SOL    HW119703   3.085   5.235   2.516
 6268SOL    HW219704   3.084   5.265   2.677
 6269SOL     OW19705   6.003   4.985   0.261
 6269SOL    HW119706   6.027   4.903   0.312
 6269SOL    HW219707   5.994   4.963   0.164
 6270SOL     OW19708   0.526   1.285   4.283
 6270SOL    HW119709   0.533   1.335   4.369
 6270SOL    HW219710   0.607   1.228   4.271
 6271SOL     OW19711   6.059   1.848   0.895
 6271SOL    HW119712   6.125   1.892   0.955
 6271SOL    HW219713   6.091   1.756   0.871
 6272SOL     OW19714   1.570   2.132   3.494
 6272SOL    HW119715   1.620   2.214   3.469
 6272SOL    HW219716   1.635   2.061   3.522
 6273SOL     OW19717   4.126   0.471   2.228
 6273SOL    HW119718   4.208   0.503   2.276
 6273SOL    HW219719   4.141   0.478   2.129
 6274SOL     OW19720   2.845   6.344   6.494
 6274SOL    HW119721   2.837   6.438   6.462
 6274SOL    HW219722   2.813   6.338   6.589
 6275SOL     OW19723   2.774   0.539   4.332
 6275SOL    HW119724   2.815   0.508   4.246
 6275SOL    HW219725   2.795   0.636   4.346
 6276SOL     OW19726   1.701   5.069   4.001
 6276SOL    HW119727   1.776   5.019   3.958
 6276SOL    HW219728   1.696   5.161   3.962
 6277SOL     OW19729   5.758   3.098   4.007
 6277SOL    HW119730   5.691   3.037   4.049
 6277SOL    HW219731   5.768   3.180   4.063
 6278SOL     OW19732   4.819   0.855   4.385
 6278SOL    HW119733   4.903   0.810   4.416
 6278SOL    HW219734   4.762   0.790   4.335
 6279SOL     OW19735   4.729   1.613   6.676
 6279SOL    HW119736   4.682   1.548   6.736
 6279SOL    HW219737   4.713   1.706   6.708
 6280SOL     OW19738   0.777   5.370   5.884
 6280SOL    HW119739   0.743   5.280   5.856
 6280SOL    HW219740   0.841   5.404   5.815
 6281SOL     OW19741   2.649   6.763   4.911
 6281SOL    HW119742   2.597   6.678   4.902
 6281SOL    HW219743   2.620   6.811   4.994
 6282SOL     OW19744   1.529   0.010   3.255
 6282SOL    HW119745   1.533   6.952   3.196
 6282SOL    HW219746   1.438   0.051   3.249
 6283SOL     OW19747   0.633   3.088   5.149
 6283SOL    HW119748   0.628   3.145   5.067
 6283SOL    HW219749   0.580   3.004   5.135
 6284SOL     OW19750   2.056   4.961   6.399
 6284SOL    HW119751   2.154   4.963   6.420
 6284SOL    HW219752   2.020   4.869   6.415
 6285SOL     OW19753   1.938   4.568   2.578
 6285SOL    HW119754   1.897   4.614   2.500
 6285SOL    HW219755   2.029   4.533   2.553
 6286SOL     OW19756   6.050   0.175   5.072
 6286SOL    HW119757   6.117   0.234   5.027
 6286SOL    HW219758   6.091   0.133   5.153
 6287SOL     OW19759   4.081   4.787   2.219
 6287SOL    HW119760   3.988   4.758   2.198
 6287SOL    HW219761   4.083   4.828   2.310
 6288SOL     OW19762   5.285   3.709   1.361
 6288SOL    HW119763   5.232   3.768   1.300
 6288SOL    HW219764   5.280   3.614   1.329
 6289SOL     OW19765   1.226   7.014   2.591
 6289SOL    HW119766   1.309   6.959   2.579
 6289SOL    HW219767   1.209   0.044   2.507
 6290SOL     OW19768   6.104   3.013   3.432
 6290SOL    HW119769   6.194   3.051   3.451
 6290SOL    HW219770   6.113   2.930   3.377
 6291SOL     OW19771   3.975   3.949   3.157
 6291SOL    HW119772   3.961   3.969   3.254
 6291SOL    HW219773   3.892   3.972   3.106
 6292SOL     OW19774   6.730   1.778   2.102
 6292SOL    HW119775   6.783   1.858   2.076
 6292SOL    HW219776   6.722   1.716   2.024
 6293SOL     OW19777   5.250   5.203   0.894
 6293SOL    HW119778   5.338   5.155   0.886
 6293SOL    HW219779   5.175   5.137   0.883
 6294SOL     OW19780   3.675   5.569   2.434
 6294SOL    HW119781   3.683   5.470   2.440
 6294SOL    HW219782   3.696   5.599   2.341
 6295SOL     OW19783   6.699   6.182   5.872
 6295SOL    HW119784   6.752   6.152   5.792
 6295SOL    HW219785   6.602   6.183   5.849
 6296SOL     OW19786   6.992   0.849   2.457
 6296SOL    HW119787   6.962   0.762   2.417
 6296SOL    HW219788   6.992   0.919   2.387
 6297SOL     OW19789   5.918   0.797   5.865
 6297SOL    HW119790   5.857   0.737   5.918
 6297SOL    HW219791   5.998   0.745   5.835
 6298SOL     OW19792   0.152   1.770   4.093
 6298SOL    HW119793   0.204   1.753   4.009
 6298SOL    HW219794   0.119   1.683   4.130
 6299SOL     OW19795   6.028   2.995   0.518
 6299SOL    HW119796   6.066   3.011   0.609
 6299SOL    HW219797   6.053   3.071   0.457
 6300SOL     OW19798   5.033   1.593   3.703
 6300SOL    HW119799   4.988   1.630   3.622
 6300SOL    HW219800   5.021   1.657   3.779
 6301SOL     OW19801   3.139   0.691   0.736
 6301SOL    HW119802   3.139   0.596   0.704
 6301SOL    HW219803   3.082   0.698   0.818
 6302SOL     OW19804   6.965   1.130   2.589
 6302SOL    HW119805   6.981   1.038   2.623
 6302SOL    HW219806   6.871   1.158   2.609
 6303SOL     OW19807   1.903   5.808   5.153
 6303SOL    HW119808   1.997   5.835   5.176
 6303SOL    HW219809   1.865   5.753   5.226
 6304SOL     OW19810   4.266   1.278   5.384
 6304SOL    HW119811   4.258   1.378   5.384
 6304SOL    HW219812   4.199   1.240   5.448
 6305SOL     OW19813   5.554   1.194   2.187
 6305SOL    HW119814   5.595   1.264   2.128
 6305SOL    HW219815   5.566   1.220   2.282
 6306SOL     OW19816   5.859   2.659   4.373
 6306SOL    HW119817   5.924   2.644   4.448
 6306SOL    HW219818   5.861   2.581   4.311
 6307SOL     OW19819   2.258   4.482   0.259
 6307SOL    HW119820   2.344   4.473   0.310
 6307SOL    HW219821   2.226   4.577   0.265
 6308SOL     OW19822   3.690   2.309   5.675
 6308SOL    HW119823   3.767   2.356   5.717
 6308SOL    HW219824   3.647   2.249   5.743
 6309SOL     OW19825   5.789   2.066   4.958
 6309SOL    HW119826   5.801   2.035   5.052
 6309SOL    HW219827   5.730   2.147   4.957
 6310SOL     OW19828   0.870   5.104   4.267
 6310SOL    HW119829   0.910   5.012   4.264
 6310SOL    HW219830   0.773   5.097   4.290
 6311SOL     OW19831   6.090   6.288   4.064
 6311SOL    HW119832   6.175   6.235   4.061
 6311SOL    HW219833   6.012   6.225   4.069
 6312SOL     OW19834   5.119   4.885   5.623
 6312SOL    HW119835   5.111   4.879   5.524
 6312SOL    HW219836   5.054   4.953   5.658
 6313SOL     OW19837   2.810   5.245   3.674
 6313SOL    HW119838   2.814   5.297   3.589
 6313SOL    HW219839   2.751   5.165   3.661
 6314SOL     OW19840   2.016   6.829   3.732
 6314SOL    HW119841   1.970   6.908   3.691
 6314SOL    HW219842   2.061   6.857   3.817
 6315SOL     OW19843   2.470   4.058   0.691
 6315SOL    HW119844   2.448   4.089   0.598
 6315SOL    HW219845   2.474   3.958   0.692
 6316SOL     OW19846   4.996   1.451   5.681
 6316SOL    HW119847   5.081   1.398   5.683
 6316SOL    HW219848   4.931   1.408   5.618
 6317SOL     OW19849   6.059   5.412   4.287
 6317SOL    HW119850   6.136   5.471   4.265
 6317SOL    HW219851   6.021   5.374   4.202
 6318SOL     OW19852   2.048   2.380   4.504
 6318SOL    HW119853   2.096   2.429   4.577
 6318SOL    HW219854   1.963   2.428   4.481
 6319SOL     OW19855   0.812   1.753   2.897
 6319SOL    HW119856   0.893   1.772   2.843
 6319SOL    HW219857   0.818   1.661   2.936
 6320SOL     OW19858   0.051   1.697   3.175
 6320SOL    HW119859   0.145   1.726   3.155
 6320SOL    HW219860   0.042   1.678   3.273
 6321SOL     OW19861   2.436   3.542   5.939
 6321SOL    HW119862   2.364   3.585   5.992
 6321SOL    HW219863   2.502   3.611   5.909
 6322SOL     OW19864   1.516   0.424   6.668
 6322SOL    HW119865   1.550   0.468   6.751
 6322SOL    HW219866   1.417   0.433   6.663
 6323SOL     OW19867   4.489   1.612   1.043
 6323SOL    HW119868   4.412   1.565   0.999
 6323SOL    HW219869   4.485   1.710   1.021
 6324SOL     OW19870   4.174   2.525   6.218
 6324SOL    HW119871   4.076   2.507   6.207
 6324SOL    HW219872   4.225   2.442   6.195
 6325SOL     OW19873   1.399   2.616   2.588
 6325SOL    HW119874   1.409   2.714   2.575
 6325SOL    HW219875   1.394   2.570   2.500
 6326SOL     OW19876   4.367   6.210   1.232
 6326SOL    HW119877   4.449   6.262   1.258
 6326SOL    HW219878   4.286   6.263   1.256
 6327SOL     OW19879   3.693   5.399   6.097
 6327SOL    HW119880   3.753   5.468   6.056
 6327SOL    HW219881   3.683   5.322   6.035
 6328SOL     OW19882   3.030   4.381   6.860
 6328SOL    HW119883   3.002   4.477   6.870
 6328SOL    HW219884   2.973   4.323   6.918
 6329SOL     OW19885   1.419   1.275   2.624
 6329SOL    HW119886   1.319   1.271   2.622
 6329SOL    HW219887   1.451   1.334   2.550
 6330SOL     OW19888   3.573   1.052   0.120
 6330SOL    HW119889   3.659   1.087   0.081
 6330SOL    HW219890   3.557   1.095   0.208
 6331SOL     OW19891   5.537   2.823   2.381
 6331SOL    HW119892   5.522   2.921   2.368
 6331SOL    HW219893   5.636   2.805   2.382
 6332SOL     OW19894   5.124   6.631   2.587
 6332SOL    HW119895   5.149   6.624   2.684
 6332SOL    HW219896   5.061   6.558   2.563
 6333SOL     OW19897   2.360   5.123   2.992
 6333SOL    HW119898   2.389   5.127   2.896
 6333SOL    HW219899   2.418   5.183   3.046
 6334SOL     OW19900   2.850   1.661   2.636
 6334SOL    HW119901   2.787   1.650   2.559
 6334SOL    HW219902   2.875   1.757   2.645
 6335SOL     OW19903   0.526   1.536   0.212
 6335SOL    HW119904   0.564   1.467   0.150
 6335SOL    HW219905   0.426   1.531   0.210
 6336SOL     OW19906   0.908   3.177   4.848
 6336SOL    HW119907   0.946   3.179   4.756
 6336SOL    HW219908   0.982   3.185   4.915
 6337SOL     OW19909   6.865   4.840   4.817
 6337SOL    HW119910   6.779   4.815   4.773
 6337SOL    HW219911   6.869   4.939   4.831
 6338SOL     OW19912   3.846   0.980   4.334
 6338SOL    HW119913   3.891   1.010   4.250
 6338SOL    HW219914   3.883   1.031   4.412
 6339SOL     OW19915   0.326   2.999   4.887
 6339SOL    HW119916   0.399   2.942   4.923
 6339SOL    HW219917   0.285   2.955   4.807
 6340SOL     OW19918   2.576   5.215   3.944
 6340SOL    HW119919   2.506   5.149   3.971
 6340SOL    HW219920   2.641   5.171   3.882
 6341SOL     OW19921   6.511   5.154   2.426
 6341SOL    HW119922   6.499   5.252   2.436
 6341SOL    HW219923   6.605   5.129   2.449
 6342SOL     OW19924   1.291   3.592   0.904
 6342SOL    HW119925   1.349   3.534   0.848
 6342SOL    HW219926   1.309   3.688   0.883
 6343SOL     OW19927   4.485   1.018   0.275
 6343SOL    HW119928   4.545   1.000   0.197
 6343SOL    HW219929   4.402   1.064   0.243
 6344SOL     OW19930   6.853   4.736   4.463
 6344SOL    HW119931   6.787   4.719   4.536
 6344SOL    HW219932   6.938   4.686   4.483
 6345SOL     OW19933   2.645   2.417   2.141
 6345SOL    HW119934   2.618   2.436   2.046
 6345SOL    HW219935   2.729   2.363   2.142
 6346SOL     OW19936   0.754   5.646   4.394
 6346SOL    HW119937   0.708   5.588   4.327
 6346SOL    HW219938   0.745   5.742   4.366
 6347SOL     OW19939   2.531   0.095   1.139
 6347SOL    HW119940   2.435   0.120   1.129
 6347SOL    HW219941   2.570   0.143   1.218
 6348SOL     OW19942   1.001   2.703   4.872
 6348SOL    HW119943   1.049   2.721   4.957
 6348SOL    HW219944   1.024   2.611   4.839
 6349SOL     OW19945   1.854   0.856   0.336
 6349SOL    HW119946   1.862   0.783   0.404
 6349SOL    HW219947   1.758   0.867   0.311
 6350SOL     OW19948   0.404   5.305   3.288
 6350SOL    HW119949   0.445   5.316   3.378
 6350SOL    HW219950   0.311   5.271   3.298
 6351SOL     OW19951   6.859   1.283   3.194
 6351SOL    HW119952   6.886   1.293   3.290
 6351SOL    HW219953   6.847   1.374   3.154
 6352SOL     OW19954   0.208   5.555   2.487
 6352SOL    HW119955   0.126   5.587   2.534
 6352SOL    HW219956   0.281   5.622   2.498
 6353SOL     OW19957   0.319   6.560   2.054
 6353SOL    HW119958   0.370   6.622   1.994
 6353SOL    HW219959   0.377   6.482   2.077
 6354SOL     OW19960   0.004   6.714   4.709
 6354SOL    HW119961   6.983   6.700   4.798
 6354SOL    HW219962   6.983   6.657   4.640
 6355SOL     OW19963   0.762   2.734   2.226
 6355SOL    HW119964   0.783   2.807   2.161
 6355SOL    HW219965   0.669   2.745   2.259
 6356SOL     OW19966   3.269   2.753   0.809
 6356SOL    HW119967   3.316   2.754   0.897
 6356SOL    HW219968   3.305   2.677   0.754
 6357SOL     OW19969   4.836   1.647   0.867
 6357SOL    HW119970   4.848   1.675   0.772
 6357SOL    HW219971   4.805   1.552   0.870
 6358SOL     OW19972   0.922   3.170   3.595
 6358SOL    HW119973   0.928   3.141   3.691
 6358SOL    HW219974   0.896   3.267   3.591
 6359SOL     OW19975   0.214   1.739   6.535
 6359SOL    HW119976   0.215   1.815   6.470
 6359SOL    HW219977   0.149   1.758   6.608
 6360SOL     OW19978   3.318   5.376   4.220
 6360SOL    HW119979   3.404   5.348   4.177
 6360SOL    HW219980   3.241   5.346   4.164
 6361SOL     OW19981   3.148   6.749   6.075
 6361SOL    HW119982   3.136   6.757   6.174
 6361SOL    HW219983   3.119   6.834   6.031
 6362SOL     OW19984   6.262   5.341   6.306
 6362SOL    HW119985   6.236   5.435   6.282
 6362SOL    HW219986   6.242   5.325   6.403
 6363SOL     OW19987   1.061   5.741   4.282
 6363SOL    HW119988   1.115   5.752   4.366
 6363SOL    HW219989   0.986   5.808   4.283
 6364SOL     OW19990   1.930   2.513   6.494
 6364SOL    HW119991   1.979   2.456   6.560
 6364SOL    HW219992   1.995   2.562   6.437
 6365SOL     OW19993   4.701   5.344   2.853
 6365SOL    HW119994   4.602   5.340   2.856
 6365SOL    HW219995   4.732   5.348   2.758
 6366SOL     OW19996   0.272   4.861   5.373
 6366SOL    HW119997   0.175   4.847   5.356
 6366SOL    HW219998   0.319   4.773   5.374
 6367SOL     OW19999   5.826   6.197   2.584
 6367SOL    HW120000   5.747   6.237   2.537
 6367SOL    HW220001   5.804   6.103   2.611
 6368SOL     OW20002   3.507   0.490   3.507
 6368SOL    HW120003   3.473   0.498   3.600
 6368SOL    HW220004   3.569   0.565   3.487
 6369SOL     OW20005   2.148   5.163   5.588
 6369SOL    HW120006   2.217   5.129   5.652
 6369SOL    HW220007   2.158   5.262   5.577
 6370SOL     OW20008   5.539   2.784   2.041
 6370SOL    HW120009   5.591   2.866   2.063
 6370SOL    HW220010   5.443   2.807   2.027
 6371SOL     OW20011   4.327   1.825   4.024
 6371SOL    HW120012   4.378   1.824   4.110
 6371SOL    HW220013   4.271   1.907   4.019
 6372SOL     OW20014   3.190   6.392   2.178
 6372SOL    HW120015   3.122   6.336   2.225
 6372SOL    HW220016   3.212   6.471   2.235
 6373SOL     OW20017   3.247   5.116   0.425
 6373SOL    HW120018   3.313   5.187   0.401
 6373SOL    HW220019   3.242   5.049   0.350
 6374SOL     OW20020   2.991   3.115   2.738
 6374SOL    HW120021   3.016   3.069   2.823
 6374SOL    HW220022   2.947   3.202   2.759
 6375SOL     OW20023   1.683   5.957   2.182
 6375SOL    HW120024   1.670   6.033   2.119
 6375SOL    HW220025   1.774   5.918   2.168
 6376SOL     OW20026   0.653   2.650   5.200
 6376SOL    HW120027   0.558   2.632   5.226
 6376SOL    HW220028   0.670   2.610   5.109
 6377SOL     OW20029   0.726   1.857   3.441
 6377SOL    HW120030   0.661   1.782   3.442
 6377SOL    HW220031   0.766   1.868   3.532
 6378SOL     OW20032   4.405   5.051   3.288
 6378SOL    HW120033   4.356   5.063   3.374
 6378SOL    HW220034   4.340   5.046   3.212
 6379SOL     OW20035   2.416   4.590   2.027
 6379SOL    HW120036   2.484   4.552   1.965
 6379SOL    HW220037   2.371   4.669   1.984
 6380SOL     OW20038   1.071   0.475   5.978
 6380SOL    HW120039   1.014   0.485   6.059
 6380SOL    HW220040   1.033   0.528   5.903
 6381SOL     OW20041   2.899   3.395   2.094
 6381SOL    HW120042   2.853   3.307   2.100
 6381SOL    HW220043   2.997   3.381   2.086
 6382SOL     OW20044   0.755   4.422   5.164
 6382SOL    HW120045   0.774   4.519   5.179
 6382SOL    HW220046   0.812   4.387   5.090
 6383SOL     OW20047   4.131   1.503   4.152
 6383SOL    HW120048   4.052   1.564   4.145
 6383SOL    HW220049   4.183   1.524   4.235
 6384SOL     OW20050   6.886   4.727   2.752
 6384SOL    HW120051   6.909   4.640   2.796
 6384SOL    HW220052   6.799   4.718   2.703
 6385SOL     OW20053   0.619   5.793   4.604
 6385SOL    HW120054   0.691   5.742   4.557
 6385SOL    HW220055   0.611   5.760   4.698
 6386SOL     OW20056   2.484   5.397   1.953
 6386SOL    HW120057   2.408   5.461   1.965
 6386SOL    HW220058   2.477   5.352   1.864
 6387SOL     OW20059   6.835   1.534   5.410
 6387SOL    HW120060   6.824   1.515   5.312
 6387SOL    HW220061   6.922   1.496   5.442
 6388SOL     OW20062   2.382   4.736   2.652
 6388SOL    HW120063   2.412   4.642   2.634
 6388SOL    HW220064   2.352   4.743   2.747
 6389SOL     OW20065   0.914   4.790   1.593
 6389SOL    HW120066   0.868   4.849   1.659
 6389SOL    HW220067   1.006   4.825   1.575
 6390SOL     OW20068   0.474   2.685   4.264
 6390SOL    HW120069   0.514   2.764   4.311
 6390SOL    HW220070   0.525   2.667   4.180
 6391SOL     OW20071   3.816   1.126   7.006
 6391SOL    HW120072   3.797   1.097   6.912
 6391SOL    HW220073   3.815   1.226   7.012
 6392SOL     OW20074   1.546   5.867   4.147
 6392SOL    HW120075   1.531   5.937   4.217
 6392SOL    HW220076   1.540   5.776   4.189
 6393SOL     OW20077   5.331   1.330   0.944
 6393SOL    HW120078   5.387   1.255   0.908
 6393SOL    HW220079   5.363   1.417   0.908
 6394SOL     OW20080   3.260   4.698   1.789
 6394SOL    HW120081   3.359   4.695   1.802
 6394SOL    HW220082   3.219   4.759   1.856
 6395SOL     OW20083   6.133   1.795   0.561
 6395SOL    HW120084   6.035   1.812   0.549
 6395SOL    HW220085   6.170   1.755   0.477
 6396SOL     OW20086   6.580   3.620   5.599
 6396SOL    HW120087   6.609   3.697   5.656
 6396SOL    HW220088   6.642   3.543   5.611
 6397SOL     OW20089   6.692   1.092   0.272
 6397SOL    HW120090   6.637   1.030   0.327
 6397SOL    HW220091   6.757   1.141   0.331
 6398SOL     OW20092   3.873   0.825   1.250
 6398SOL    HW120093   3.946   0.797   1.313
 6398SOL    HW220094   3.908   0.826   1.157
 6399SOL     OW20095   2.371   6.199   6.612
 6399SOL    HW120096   2.444   6.131   6.611
 6399SOL    HW220097   2.323   6.198   6.525
 6400SOL     OW20098   2.684   5.093   4.335
 6400SOL    HW120099   2.736   5.085   4.250
 6400SOL    HW220100   2.589   5.113   4.315
 6401SOL     OW20101   0.918   4.279   4.880
 6401SOL    HW120102   0.960   4.353   4.933
 6401SOL    HW220103   0.956   4.279   4.788
 6402SOL     OW20104   1.793   2.441   3.181
 6402SOL    HW120105   1.861   2.416   3.113
 6402SOL    HW220106   1.743   2.360   3.211
 6403SOL     OW20107   1.035   6.757   1.419
 6403SOL    HW120108   1.089   6.677   1.393
 6403SOL    HW220109   1.098   6.832   1.442
 6404SOL     OW20110   4.939   0.957   3.299
 6404SOL    HW120111   4.900   0.873   3.264
 6404SOL    HW220112   4.879   1.034   3.278
 6405SOL     OW20113   3.166   1.017   1.485
 6405SOL    HW120114   3.253   1.017   1.436
 6405SOL    HW220115   3.150   1.108   1.524
 6406SOL     OW20116   2.671   2.107   3.676
 6406SOL    HW120117   2.743   2.167   3.641
 6406SOL    HW220118   2.712   2.028   3.722
 6407SOL     OW20119   4.909   5.613   5.668
 6407SOL    HW120120   4.838   5.565   5.720
 6407SOL    HW220121   4.884   5.709   5.658
 6408SOL     OW20122   5.899   2.125   0.583
 6408SOL    HW120123   5.928   2.040   0.540
 6408SOL    HW220124   5.954   2.141   0.665
 6409SOL     OW20125   0.913   4.853   1.888
 6409SOL    HW120126   0.816   4.872   1.879
 6409SOL    HW220127   0.958   4.929   1.934
 6410SOL     OW20128   1.317   1.102   2.053
 6410SOL    HW120129   1.394   1.073   2.110
 6410SOL    HW220130   1.246   1.031   2.055
 6411SOL     OW20131   1.165   1.177   3.614
 6411SOL    HW120132   1.264   1.186   3.600
 6411SOL    HW220133   1.147   1.106   3.682
 6412SOL     OW20134   6.278   2.694   4.240
 6412SOL    HW120135   6.308   2.598   4.235
 6412SOL    HW220136   6.211   2.705   4.312
 6413SOL     OW20137   0.498   4.656   0.623
 6413SOL    HW120138   0.441   4.738   0.615
 6413SOL    HW220139   0.578   4.665   0.564
 6414SOL     OW20140   6.271   6.608   2.838
 6414SOL    HW120141   6.190   6.623   2.894
 6414SOL    HW220142   6.343   6.672   2.865
 6415SOL     OW20143   1.581   1.389   2.167
 6415SOL    HW120144   1.489   1.388   2.129
 6415SOL    HW220145   1.603   1.480   2.202
 6416SOL     OW20146   2.363   6.446   6.342
 6416SOL    HW120147   2.348   6.350   6.367
 6416SOL    HW220148   2.308   6.504   6.402
 6417SOL     OW20149   0.682   6.684   3.613
 6417SOL    HW120150   0.645   6.712   3.525
 6417SOL    HW220151   0.781   6.669   3.605
 6418SOL     OW20152   6.812   5.853   2.689
 6418SOL    HW120153   6.789   5.757   2.675
 6418SOL    HW220154   6.734   5.900   2.730
 6419SOL     OW20155   2.590   3.283   1.188
 6419SOL    HW120156   2.613   3.323   1.100
 6419SOL    HW220157   2.636   3.334   1.261
 6420SOL     OW20158   0.981   3.062   6.476
 6420SOL    HW120159   0.901   3.003   6.488
 6420SOL    HW220160   0.992   3.084   6.379
 6421SOL     OW20161   5.910   2.359   0.419
 6421SOL    HW120162   5.923   2.428   0.490
 6421SOL    HW220163   5.908   2.268   0.460
 6422SOL     OW20164   5.710   2.530   3.223
 6422SOL    HW120165   5.658   2.537   3.308
 6422SOL    HW220166   5.787   2.468   3.237
 6423SOL     OW20167   4.833   4.219   1.066
 6423SOL    HW120168   4.806   4.142   1.010
 6423SOL    HW220169   4.793   4.303   1.030
 6424SOL     OW20170   6.637   4.289   4.978
 6424SOL    HW120171   6.664   4.199   4.942
 6424SOL    HW220172   6.695   4.359   4.937
 6425SOL     OW20173   0.478   5.051   1.374
 6425SOL    HW120174   0.460   5.032   1.277
 6425SOL    HW220175   0.472   4.967   1.427
 6426SOL     OW20176   6.849   3.037   3.426
 6426SOL    HW120177   6.858   3.091   3.509
 6426SOL    HW220178   6.866   2.940   3.447
 6427SOL     OW20179   1.033   2.809   6.028
 6427SOL    HW120180   1.034   2.712   6.052
 6427SOL    HW220181   0.943   2.847   6.044
 6428SOL     OW20182   6.629   2.973   4.063
 6428SOL    HW120183   6.557   2.916   4.022
 6428SOL    HW220184   6.629   3.063   4.020
 6429SOL     OW20185   0.994   1.125   4.893
 6429SOL    HW120186   0.957   1.181   4.819
 6429SOL    HW220187   1.041   1.184   4.959
 6430SOL     OW20188   6.284   3.309   6.881
 6430SOL    HW120189   6.367   3.295   6.827
 6430SOL    HW220190   6.291   3.260   6.967
 6431SOL     OW20191   5.727   0.955   3.015
 6431SOL    HW120192   5.676   0.895   3.076
 6431SOL    HW220193   5.820   0.967   3.051
 6432SOL     OW20194   5.886   3.724   0.399
 6432SOL    HW120195   5.844   3.674   0.474
 6432SOL    HW220196   5.866   3.678   0.312
 6433SOL     OW20197   2.481   3.630   1.649
 6433SOL    HW120198   2.467   3.723   1.614
 6433SOL    HW220199   2.579   3.610   1.652
 6434SOL     OW20200   1.922   4.854   0.193
 6434SOL    HW120201   1.878   4.903   0.118
 6434SOL    HW220202   1.877   4.876   0.279
 6435SOL     OW20203   4.765   3.781   0.396
 6435SOL    HW120204   4.783   3.763   0.300
 6435SOL    HW220205   4.744   3.878   0.409
 6436SOL     OW20206   1.722   2.316   2.132
 6436SOL    HW120207   1.821   2.325   2.141
 6436SOL    HW220208   1.678   2.343   2.218
 6437SOL     OW20209   0.206   0.722   6.817
 6437SOL    HW120210   0.146   0.656   6.772
 6437SOL    HW220211   0.264   0.674   6.884
 6438SOL     OW20212   1.089   3.718   4.271
 6438SOL    HW120213   1.126   3.634   4.311
 6438SOL    HW220214   1.014   3.752   4.327
 6439SOL     OW20215   0.455   6.283   2.447
 6439SOL    HW120216   0.529   6.291   2.514
 6439SOL    HW220217   0.423   6.375   2.423
 6440SOL     OW20218   0.515   0.991   1.733
 6440SOL    HW120219   0.506   0.892   1.726
 6440SOL    HW220220   0.430   1.029   1.771
 6441SOL     OW20221   3.777   1.729   2.928
 6441SOL    HW120222   3.844   1.667   2.885
 6441SOL    HW220223   3.778   1.817   2.881
 6442SOL     OW20224   3.286   0.441   3.352
 6442SOL    HW120225   3.359   0.470   3.414
 6442SOL    HW220226   3.203   0.420   3.405
 6443SOL     OW20227   2.520   0.922   0.442
 6443SOL    HW120228   2.590   0.989   0.415
 6443SOL    HW220229   2.552   0.830   0.419
 6444SOL     OW20230   0.481   0.936   2.991
 6444SOL    HW120231   0.445   0.951   3.084
 6444SOL    HW220232   0.540   1.012   2.965
 6445SOL     OW20233   3.808   3.999   5.682
 6445SOL    HW120234   3.767   3.915   5.718
 6445SOL    HW220235   3.790   4.074   5.745
 6446SOL     OW20236   6.909   2.171   0.870
 6446SOL    HW120237   6.879   2.093   0.814
 6446SOL    HW220238   6.928   2.249   0.811
 6447SOL     OW20239   1.743   0.322   2.928
 6447SOL    HW120240   1.688   0.270   2.994
 6447SOL    HW220241   1.713   0.299   2.835
 6448SOL     OW20242   6.776   2.205   2.441
 6448SOL    HW120243   6.863   2.233   2.400
 6448SOL    HW220244   6.701   2.248   2.391
 6449SOL     OW20245   3.885   2.787   1.160
 6449SOL    HW120246   3.968   2.779   1.104
 6449SOL    HW220247   3.809   2.743   1.112
 6450SOL     OW20248   0.031   3.557   6.943
 6450SOL    HW120249   0.036   3.625   7.017
 6450SOL    HW220250   0.080   3.475   6.971
 6451SOL     OW20251   2.415   6.313   4.042
 6451SOL    HW120252   2.431   6.411   4.027
 6451SOL    HW220253   2.443   6.290   4.135
 6452SOL     OW20254   4.204   5.895   4.259
 6452SOL    HW120255   4.289   5.918   4.306
 6452SOL    HW220256   4.187   5.963   4.187
 6453SOL     OW20257   2.057   5.193   6.626
 6453SOL    HW120258   2.061   5.289   6.597
 6453SOL    HW220259   2.030   5.137   6.548
 6454SOL     OW20260   3.473   1.156   4.800
 6454SOL    HW120261   3.495   1.065   4.835
 6454SOL    HW220262   3.381   1.182   4.832
 6455SOL     OW20263   6.248   2.954   5.950
 6455SOL    HW120264   6.174   2.968   6.016
 6455SOL    HW220265   6.210   2.945   5.858
 6456SOL     OW20266   6.985   1.312   4.644
 6456SOL    HW120267   7.009   1.258   4.563
 6456SOL    HW220268   6.896   1.280   4.679
 6457SOL     OW20269   5.966   2.219   2.615
 6457SOL    HW120270   6.032   2.290   2.590
 6457SOL    HW220271   5.910   2.196   2.535
 6458SOL     OW20272   1.451   6.426   3.487
 6458SOL    HW120273   1.539   6.380   3.477
 6458SOL    HW220274   1.377   6.358   3.484
 6459SOL     OW20275   5.193   4.552   0.579
 6459SOL    HW120276   5.213   4.529   0.484
 6459SOL    HW220277   5.234   4.485   0.640
 6460SOL     OW20278   2.853   4.883   1.208
 6460SOL    HW120279   2.911   4.804   1.230
 6460SOL    HW220280   2.903   4.967   1.228
 6461SOL     OW20281   3.242   6.136   5.531
 6461SOL    HW120282   3.237   6.232   5.559
 6461SOL    HW220283   3.156   6.110   5.486
 6462SOL     OW20284   2.123   3.041   3.353
 6462SOL    HW120285   2.051   3.092   3.401
 6462SOL    HW220286   2.158   3.097   3.278
 6463SOL     OW20287   0.719   4.044   5.579
 6463SOL    HW120288   0.674   3.999   5.656
 6463SOL    HW220289   0.805   3.998   5.558
 6464SOL     OW20290   1.137   5.371   2.724
 6464SOL    HW120291   1.200   5.296   2.706
 6464SOL    HW220292   1.129   5.429   2.643
 6465SOL     OW20293   6.070   0.859   2.894
 6465SOL    HW120294   6.137   0.834   2.964
 6465SOL    HW220295   6.020   0.778   2.865
 6466SOL     OW20296   6.874   2.568   5.187
 6466SOL    HW120297   6.879   2.521   5.276
 6466SOL    HW220298   6.825   2.511   5.122
 6467SOL     OW20299   3.407   0.771   5.884
 6467SOL    HW120300   3.458   0.855   5.904
 6467SOL    HW220301   3.309   0.789   5.897
 6468SOL     OW20302   5.169   4.262   1.713
 6468SOL    HW120303   5.180   4.361   1.714
 6468SOL    HW220304   5.251   4.220   1.675
 6469SOL     OW20305   6.591   1.334   5.695
 6469SOL    HW120306   6.545   1.349   5.607
 6469SOL    HW220307   6.658   1.406   5.711
 6470SOL     OW20308   6.502   5.935   4.745
 6470SOL    HW120309   6.403   5.919   4.747
 6470SOL    HW220310   6.542   5.906   4.832
 6471SOL     OW20311   5.705   5.683   5.633
 6471SOL    HW120312   5.779   5.744   5.607
 6471SOL    HW220313   5.740   5.613   5.696
 6472SOL     OW20314   1.619   6.061   1.291
 6472SOL    HW120315   1.619   5.961   1.281
 6472SOL    HW220316   1.651   6.085   1.383
 6473SOL     OW20317   2.502   0.800   5.182
 6473SOL    HW120318   2.442   0.724   5.208
 6473SOL    HW220319   2.452   0.862   5.121
 6474SOL     OW20320   2.710   3.201   5.901
 6474SOL    HW120321   2.723   3.275   5.835
 6474SOL    HW220322   2.621   3.212   5.946
 6475SOL     OW20323   4.714   5.345   3.705
 6475SOL    HW120324   4.639   5.280   3.689
 6475SOL    HW220325   4.676   5.435   3.728
 6476SOL     OW20326   5.305   4.648   2.259
 6476SOL    HW120327   5.272   4.562   2.221
 6476SOL    HW220328   5.246   4.678   2.333
 6477SOL     OW20329   6.720   6.313   0.373
 6477SOL    HW120330   6.691   6.374   0.299
 6477SOL    HW220331   6.764   6.367   0.445
 6478SOL     OW20332   5.350   6.341   1.874
 6478SOL    HW120333   5.361   6.441   1.879
 6478SOL    HW220334   5.343   6.313   1.779
 6479SOL     OW20335   3.762   6.163   2.521
 6479SOL    HW120336   3.747   6.091   2.589
 6479SOL    HW220337   3.690   6.232   2.530
 6480SOL     OW20338   2.577   1.033   1.372
 6480SOL    HW120339   2.668   1.038   1.329
 6480SOL    HW220340   2.510   1.004   1.303
 6481SOL     OW20341   4.539   0.822   1.194
 6481SOL    HW120342   4.538   0.909   1.145
 6481SOL    HW220343   4.506   0.836   1.288
 6482SOL     OW20344   6.546   0.294   6.631
 6482SOL    HW120345   6.512   0.316   6.723
 6482SOL    HW220346   6.472   0.299   6.565
 6483SOL     OW20347   1.840   5.674   1.971
 6483SOL    HW120348   1.902   5.751   1.963
 6483SOL    HW220349   1.871   5.613   2.043
 6484SOL     OW20350   5.425   6.769   3.700
 6484SOL    HW120351   5.445   6.679   3.738
 6484SOL    HW220352   5.386   6.827   3.771
 6485SOL     OW20353   1.039   2.828   3.215
 6485SOL    HW120354   0.996   2.820   3.305
 6485SOL    HW220355   1.007   2.753   3.156
 6486SOL     OW20356   1.902   3.159   3.462
 6486SOL    HW120357   1.815   3.113   3.444
 6486SOL    HW220358   1.903   3.247   3.415
 6487SOL     OW20359   5.792   5.339   3.460
 6487SOL    HW120360   5.761   5.331   3.366
 6487SOL    HW220361   5.713   5.346   3.521
 6488SOL     OW20362   3.157   4.661   5.652
 6488SOL    HW120363   3.110   4.679   5.738
 6488SOL    HW220364   3.228   4.730   5.638
 6489SOL     OW20365   2.592   2.136   6.052
 6489SOL    HW120366   2.599   2.134   6.151
 6489SOL    HW220367   2.575   2.044   6.017
 6490SOL     OW20368   4.700   1.407   0.811
 6490SOL    HW120369   4.682   1.388   0.908
 6490SOL    HW220370   4.765   1.340   0.776
 6491SOL     OW20371   4.437   1.059   6.073
 6491SOL    HW120372   4.431   1.113   6.158
 6491SOL    HW220373   4.486   1.112   6.004
 6492SOL     OW20374   5.793   6.498   6.297
 6492SOL    HW120375   5.838   6.476   6.211
 6492SOL    HW220376   5.860   6.530   6.364
 6493SOL     OW20377   1.128   6.385   5.221
 6493SOL    HW120378   1.146   6.294   5.257
 6493SOL    HW220379   1.126   6.451   5.297
 6494SOL     OW20380   1.404   0.189   3.639
 6494SOL    HW120381   1.356   0.209   3.554
 6494SOL    HW220382   1.491   0.144   3.619
 6495SOL     OW20383   5.652   4.506   2.317
 6495SOL    HW120384   5.601   4.445   2.256
 6495SOL    HW220385   5.700   4.452   2.386
 6496SOL     OW20386   0.778   6.064   3.332
 6496SOL    HW120387   0.874   6.077   3.307
 6496SOL    HW220388   0.721   6.127   3.279
 6497SOL     OW20389   0.282   5.752   0.008
 6497SOL    HW120390   0.279   5.652   0.004
 6497SOL    HW220391   0.245   5.790   6.946
 6498SOL     OW20392   1.432   4.341   3.814
 6498SOL    HW120393   1.354   4.352   3.753
 6498SOL    HW220394   1.400   4.323   3.906
 6499SOL     OW20395   5.956   1.042   3.580
 6499SOL    HW120396   6.052   1.016   3.592
 6499SOL    HW220397   5.933   1.115   3.645
 6500SOL     OW20398   5.578   4.939   3.538
 6500SOL    HW120399   5.492   4.960   3.491
 6500SOL    HW220400   5.651   4.925   3.470
 6501SOL     OW20401   0.136   3.313   0.737
 6501SOL    HW120402   0.119   3.215   0.736
 6501SOL    HW220403   0.235   3.330   0.745
 6502SOL     OW20404   1.325   5.307   2.396
 6502SOL    HW120405   1.400   5.327   2.460
 6502SOL    HW220406   1.305   5.209   2.398
 6503SOL     OW20407   4.798   0.162   4.394
 6503SOL    HW120408   4.844   0.153   4.305
 6503SOL    HW220409   4.852   0.114   4.463
 6504SOL     OW20410   1.625   0.869   0.600
 6504SOL    HW120411   1.705   0.809   0.607
 6504SOL    HW220412   1.549   0.818   0.560
 6505SOL     OW20413   5.598   5.478   0.763
 6505SOL    HW120414   5.670   5.509   0.702
 6505SOL    HW220415   5.512   5.469   0.712
 6506SOL     OW20416   2.227   1.559   0.516
 6506SOL    HW120417   2.200   1.653   0.495
 6506SOL    HW220418   2.152   1.497   0.493
 6507SOL     OW20419   2.996   0.691   2.014
 6507SOL    HW120420   2.918   0.712   1.955
 6507SOL    HW220421   3.079   0.685   1.958
 6508SOL     OW20422   2.144   1.691   2.136
 6508SOL    HW120423   2.162   1.787   2.156
 6508SOL    HW220424   2.230   1.639   2.139
 6509SOL     OW20425   0.849   2.829   3.750
 6509SOL    HW120426   0.937   2.781   3.751
 6509SOL    HW220427   0.776   2.767   3.776
 6510SOL     OW20428   5.916   4.971   6.637
 6510SOL    HW120429   5.971   5.025   6.574
 6510SOL    HW220430   5.919   4.874   6.610
 6511SOL     OW20431   6.835   6.914   5.717
 6511SOL    HW120432   6.780   6.991   5.751
 6511SOL    HW220433   6.835   6.915   5.617
 6512SOL     OW20434   5.251   5.920   3.810
 6512SOL    HW120435   5.171   5.970   3.778
 6512SOL    HW220436   5.224   5.857   3.882
 6513SOL     OW20437   1.884   0.088   3.530
 6513SOL    HW120438   1.797   0.079   3.578
 6513SOL    HW220439   1.887   0.023   3.454
 6514SOL     OW20440   3.377   0.218   4.194
 6514SOL    HW120441   3.420   0.234   4.105
 6514SOL    HW220442   3.434   0.155   4.247
 6515SOL     OW20443   0.900   1.155   3.591
 6515SOL    HW120444   0.999   1.162   3.598
 6515SOL    HW220445   0.867   1.087   3.658
 6516SOL     OW20446   1.721   1.669   6.026
 6516SOL    HW120447   1.788   1.609   6.070
 6516SOL    HW220448   1.651   1.613   5.982
 6517SOL     OW20449   1.800   1.670   0.458
 6517SOL    HW120450   1.701   1.677   0.469
 6517SOL    HW220451   1.829   1.578   0.485
 6518SOL     OW20452   6.065   6.246   1.063
 6518SOL    HW120453   6.116   6.171   1.021
 6518SOL    HW220454   5.970   6.218   1.077
 6519SOL     OW20455   1.265   2.365   3.247
 6519SOL    HW120456   1.181   2.390   3.294
 6519SOL    HW220457   1.335   2.435   3.265
 6520SOL     OW20458   5.881   5.675   1.960
 6520SOL    HW120459   5.796   5.669   2.014
 6520SOL    HW220460   5.869   5.625   1.875
 6521SOL     OW20461   1.586   2.321   5.559
 6521SOL    HW120462   1.634   2.313   5.646
 6521SOL    HW220463   1.488   2.335   5.577
 6522SOL     OW20464   2.649   5.141   4.776
 6522SOL    HW120465   2.723   5.145   4.843
 6522SOL    HW220466   2.569   5.191   4.811
 6523SOL     OW20467   1.971   2.603   6.886
 6523SOL    HW120468   1.947   2.519   6.935
 6523SOL    HW220469   1.893   2.665   6.887
 6524SOL     OW20470   4.165   3.685   4.923
 6524SOL    HW120471   4.201   3.770   4.886
 6524SOL    HW220472   4.143   3.622   4.848
 6525SOL     OW20473   0.203   2.590   4.300
 6525SOL    HW120474   0.299   2.616   4.289
 6525SOL    HW220475   0.146   2.652   4.246
 6526SOL     OW20476   1.605   5.326   3.767
 6526SOL    HW120477   1.612   5.282   3.678
 6526SOL    HW220478   1.697   5.339   3.805
 6527SOL     OW20479   2.314   1.030   4.278
 6527SOL    HW120480   2.314   0.961   4.351
 6527SOL    HW220481   2.389   1.094   4.292
 6528SOL     OW20482   0.326   6.908   3.598
 6528SOL    HW120483   0.279   6.834   3.646
 6528SOL    HW220484   0.412   6.873   3.560
 6529SOL     OW20485   6.524   2.781   2.165
 6529SOL    HW120486   6.480   2.863   2.130
 6529SOL    HW220487   6.601   2.806   2.224
 6530SOL     OW20488   0.577   2.010   0.294
 6530SOL    HW120489   0.496   2.064   0.317
 6530SOL    HW220490   0.561   1.962   0.207
 6531SOL     OW20491   4.795   2.799   4.718
 6531SOL    HW120492   4.846   2.760   4.641
 6531SOL    HW220493   4.697   2.792   4.700
 6532SOL     OW20494   1.475   2.475   6.980
 6532SOL    HW120495   1.482   2.423   6.895
 6532SOL    HW220496   1.550   2.450   0.018
 6533SOL     OW20497   4.415   0.630   0.791
 6533SOL    HW120498   4.509   0.659   0.813
 6533SOL    HW220499   4.401   0.537   0.824
 6534SOL     OW20500   2.184   3.450   0.099
 6534SOL    HW120501   2.132   3.511   0.039
 6534SOL    HW220502   2.246   3.394   0.044
 6535SOL     OW20503   2.173   3.557   5.504
 6535SOL    HW120504   2.197   3.563   5.407
 6535SOL    HW220505   2.074   3.543   5.513
 6536SOL     OW20506   6.511   2.348   6.552
 6536SOL    HW120507   6.476   2.406   6.479
 6536SOL    HW220508   6.462   2.260   6.551
 6537SOL     OW20509   0.914   0.257   0.033
 6537SOL    HW120510   0.851   0.180   0.040
 6537SOL    HW220511   0.863   0.342   0.026
 6538SOL     OW20512   1.827   3.059   6.182
 6538SOL    HW120513   1.731   3.032   6.187
 6538SOL    HW220514   1.854   3.068   6.086
 6539SOL     OW20515   3.034   1.819   6.456
 6539SOL    HW120516   2.991   1.730   6.471
 6539SOL    HW220517   3.111   1.830   6.518
 6540SOL     OW20518   3.391   2.117   4.081
 6540SOL    HW120519   3.483   2.144   4.051
 6540SOL    HW220520   3.397   2.080   4.174
 6541SOL     OW20521   2.868   2.939   5.330
 6541SOL    HW120522   2.770   2.959   5.337
 6541SOL    HW220523   2.888   2.857   5.384
 6542SOL     OW20524   6.286   4.098   3.595
 6542SOL    HW120525   6.299   4.150   3.679
 6542SOL    HW220526   6.232   4.016   3.614
 6543SOL     OW20527   0.610   5.823   6.249
 6543SOL    HW120528   0.590   5.740   6.300
 6543SOL    HW220529   0.697   5.813   6.201
 6544SOL     OW20530   6.970   6.225   2.805
 6544SOL    HW120531   6.875   6.233   2.836
 6544SOL    HW220532   6.972   6.224   2.705
 6545SOL     OW20533   5.523   3.219   5.838
 6545SOL    HW120534   5.546   3.122   5.838
 6545SOL    HW220535   5.433   3.233   5.796
 6546SOL     OW20536   3.650   4.664   5.940
 6546SOL    HW120537   3.695   4.730   6.001
 6546SOL    HW220538   3.551   4.681   5.940
 6547SOL     OW20539   4.979   0.639   0.031
 6547SOL    HW120540   4.905   0.657   6.990
 6547SOL    HW220541   5.036   0.721   0.040
 6548SOL     OW20542   6.015   4.042   5.350
 6548SOL    HW120543   6.112   4.068   5.352
 6548SOL    HW220544   5.973   4.077   5.267
 6549SOL     OW20545   2.943   1.950   2.458
 6549SOL    HW120546   3.016   2.014   2.484
 6549SOL    HW220547   2.866   1.959   2.521
 6550SOL     OW20548   1.231   5.043   3.061
 6550SOL    HW120549   1.232   4.995   3.149
 6550SOL    HW220550   1.141   5.034   3.019
 6551SOL     OW20551   2.783   5.070   1.878
 6551SOL    HW120552   2.708   5.010   1.851
 6551SOL    HW220553   2.862   5.015   1.904
 6552SOL     OW20554   4.720   5.585   6.440
 6552SOL    HW120555   4.689   5.647   6.368
 6552SOL    HW220556   4.818   5.601   6.457
 6553SOL     OW20557   6.943   2.856   2.836
 6553SOL    HW120558   6.855   2.864   2.788
 6553SOL    HW220559   6.986   2.946   2.841
 6554SOL     OW20560   0.385   3.498   4.626
 6554SOL    HW120561   0.381   3.483   4.527
 6554SOL    HW220562   0.481   3.505   4.655
 6555SOL     OW20563   0.494   1.084   2.085
 6555SOL    HW120564   0.448   1.163   2.045
 6555SOL    HW220565   0.469   1.076   2.181
 6556SOL     OW20566   4.007   0.161   4.215
 6556SOL    HW120567   3.973   0.095   4.148
 6556SOL    HW220568   4.101   0.185   4.194
 6557SOL     OW20569   5.212   5.913   0.639
 6557SOL    HW120570   5.233   5.936   0.734
 6557SOL    HW220571   5.115   5.930   0.621
 6558SOL     OW20572   6.745   6.403   6.057
 6558SOL    HW120573   6.681   6.359   5.994
 6558SOL    HW220574   6.696   6.476   6.106
 6559SOL     OW20575   3.327   3.187   1.543
 6559SOL    HW120576   3.356   3.241   1.464
 6559SOL    HW220577   3.239   3.143   1.522
 6560SOL     OW20578   3.872   1.525   0.853
 6560SOL    HW120579   3.827   1.605   0.815
 6560SOL    HW220580   3.967   1.547   0.874
 6561SOL     OW20581   3.369   3.833   4.325
 6561SOL    HW120582   3.329   3.747   4.291
 6561SOL    HW220583   3.348   3.843   4.422
 6562SOL     OW20584   6.661   3.896   5.457
 6562SOL    HW120585   6.675   3.801   5.430
 6562SOL    HW220586   6.713   3.956   5.396
 6563SOL     OW20587   0.621   5.421   2.518
 6563SOL    HW120588   0.582   5.487   2.582
 6563SOL    HW220589   0.700   5.376   2.560
 6564SOL     OW20590   1.569   5.857   2.556
 6564SOL    HW120591   1.515   5.941   2.558
 6564SOL    HW220592   1.515   5.782   2.594
 6565SOL     OW20593   6.415   3.745   4.907
 6565SOL    HW120594   6.513   3.730   4.923
 6565SOL    HW220595   6.363   3.718   4.988
 6566SOL     OW20596   3.524   0.106   0.892
 6566SOL    HW120597   3.462   0.028   0.894
 6566SOL    HW220598   3.471   0.191   0.900
 6567SOL     OW20599   6.194   2.645   0.979
 6567SOL    HW120600   6.122   2.707   1.009
 6567SOL    HW220601   6.155   2.573   0.921
 6568SOL     OW20602   4.293   3.941   1.567
 6568SOL    HW120603   4.226   3.993   1.621
 6568SOL    HW220604   4.324   3.997   1.490
 6569SOL     OW20605   0.803   5.021   6.250
 6569SOL    HW120606   0.770   5.113   6.228
 6569SOL    HW220607   0.733   4.972   6.302
 6570SOL     OW20608   6.301   3.471   1.708
 6570SOL    HW120609   6.286   3.534   1.631
 6570SOL    HW220610   6.397   3.471   1.732
 6571SOL     OW20611   2.866   6.282   3.743
 6571SOL    HW120612   2.953   6.289   3.792
 6571SOL    HW220613   2.884   6.283   3.644
 6572SOL     OW20614   1.122   4.494   6.031
 6572SOL    HW120615   1.128   4.589   6.000
 6572SOL    HW220616   1.085   4.492   6.124
 6573SOL     OW20617   1.773   2.049   2.020
 6573SOL    HW120618   1.765   2.130   1.962
 6573SOL    HW220619   1.781   2.076   2.116
 6574SOL     OW20620   1.532   4.560   4.088
 6574SOL    HW120621   1.584   4.528   4.168
 6574SOL    HW220622   1.435   4.565   4.112
 6575SOL     OW20623   2.181   1.532   2.725
 6575SOL    HW120624   2.096   1.566   2.685
 6575SOL    HW220625   2.207   1.589   2.802
 6576SOL     OW20626   1.215   6.224   4.012
 6576SOL    HW120627   1.132   6.185   4.053
 6576SOL    HW220628   1.269   6.151   3.971
 6577SOL     OW20629   6.752   3.203   4.869
 6577SOL    HW120630   6.721   3.282   4.816
 6577SOL    HW220631   6.789   3.135   4.807
 6578SOL     OW20632   6.478   5.468   3.559
 6578SOL    HW120633   6.525   5.524   3.627
 6578SOL    HW220634   6.435   5.527   3.491
 6579SOL     OW20635   1.122   3.993   3.097
 6579SOL    HW120636   1.174   3.941   3.029
 6579SOL    HW220637   1.172   4.076   3.121
 6580SOL     OW20638   5.756   2.473   1.645
 6580SOL    HW120639   5.772   2.433   1.554
 6580SOL    HW220640   5.675   2.533   1.641
 6581SOL     OW20641   2.632   2.721   5.486
 6581SOL    HW120642   2.584   2.761   5.564
 6581SOL    HW220643   2.728   2.748   5.489
 6582SOL     OW20644   6.477   0.458   2.130
 6582SOL    HW120645   6.549   0.399   2.166
 6582SOL    HW220646   6.401   0.460   2.195
 6583SOL     OW20647   5.737   2.153   5.959
 6583SOL    HW120648   5.766   2.070   5.911
 6583SOL    HW220649   5.762   2.146   6.055
 6584SOL     OW20650   5.440   2.459   0.073
 6584SOL    HW120651   5.376   2.410   0.132
 6584SOL    HW220652   5.398   2.544   0.042
 6585SOL     OW20653   3.074   1.248   1.603
 6585SOL    HW120654   3.047   1.280   1.693
 6585SOL    HW220655   3.002   1.268   1.537
 6586SOL     OW20656   6.861   1.764   6.816
 6586SOL    HW120657   6.925   1.839   6.801
 6586SOL    HW220658   6.820   1.737   6.729
 6587SOL     OW20659   1.784   6.213   2.676
 6587SOL    HW120660   1.796   6.294   2.734
 6587SOL    HW220661   1.717   6.234   2.604
 6588SOL     OW20662   2.919   2.707   0.021
 6588SOL    HW120663   3.001   2.670   7.000
 6588SOL    HW220664   2.858   2.632   0.047
 6589SOL     OW20665   5.376   1.693   5.991
 6589SOL    HW120666   5.434   1.619   5.958
 6589SOL    HW220667   5.430   1.776   6.003
 6590SOL     OW20668   0.024   0.850   5.862
 6590SOL    HW120669   0.026   0.938   5.910
 6590SOL    HW220670   0.062   0.779   5.921
 6591SOL     OW20671   5.382   0.406   2.729
 6591SOL    HW120672   5.430   0.474   2.784
 6591SOL    HW220673   5.381   0.435   2.634
 6592SOL     OW20674   5.893   5.986   4.552
 6592SOL    HW120675   5.802   5.948   4.567
 6592SOL    HW220676   5.932   6.015   4.639
 6593SOL     OW20677   4.785   0.847   2.737
 6593SOL    HW120678   4.879   0.852   2.772
 6593SOL    HW220679   4.757   0.936   2.703
 6594SOL     OW20680   5.732   1.246   6.857
 6594SOL    HW120681   5.708   1.155   6.822
 6594SOL    HW220682   5.650   1.290   6.893
 6595SOL     OW20683   1.731   3.536   0.236
 6595SOL    HW120684   1.688   3.620   0.269
 6595SOL    HW220685   1.704   3.459   0.294
 6596SOL     OW20686   2.935   6.692   5.572
 6596SOL    HW120687   2.925   6.660   5.478
 6596SOL    HW220688   2.852   6.670   5.624
 6597SOL     OW20689   6.660   3.802   6.846
 6597SOL    HW120690   6.621   3.839   6.762
 6597SOL    HW220691   6.703   3.875   6.899
 6598SOL     OW20692   2.449   5.274   4.911
 6598SOL    HW120693   2.349   5.269   4.905
 6598SOL    HW220694   2.477   5.369   4.924
 6599SOL     OW20695   4.545   2.985   5.746
 6599SOL    HW120696   4.508   2.960   5.835
 6599SOL    HW220697   4.634   3.030   5.759
 6600SOL     OW20698   3.897   5.179   4.434
 6600SOL    HW120699   3.988   5.175   4.475
 6600SOL    HW220700   3.846   5.255   4.474
 6601SOL     OW20701   1.070   0.276   1.164
 6601SOL    HW120702   1.070   0.359   1.108
 6601SOL    HW220703   1.152   0.274   1.221
 6602SOL     OW20704   6.401   1.477   1.725
 6602SOL    HW120705   6.322   1.425   1.691
 6602SOL    HW220706   6.438   1.432   1.805
 6603SOL     OW20707   2.433   2.237   2.222
 6603SOL    HW120708   2.463   2.144   2.203
 6603SOL    HW220709   2.504   2.301   2.191
 6604SOL     OW20710   4.061   5.686   3.740
 6604SOL    HW120711   4.027   5.751   3.672
 6604SOL    HW220712   4.104   5.609   3.694
 6605SOL     OW20713   5.268   6.248   0.430
 6605SOL    HW120714   5.319   6.296   0.359
 6605SOL    HW220715   5.177   6.289   0.439
 6606SOL     OW20716   6.442   1.166   3.300
 6606SOL    HW120717   6.487   1.082   3.272
 6606SOL    HW220718   6.343   1.156   3.291
 6607SOL     OW20719   1.285   1.640   2.874
 6607SOL    HW120720   1.199   1.689   2.865
 6607SOL    HW220721   1.272   1.545   2.846
 6608SOL     OW20722   5.396   4.776   4.797
 6608SOL    HW120723   5.469   4.795   4.863
 6608SOL    HW220724   5.403   4.841   4.721
 6609SOL     OW20725   5.913   1.619   0.113
 6609SOL    HW120726   5.948   1.564   0.037
 6609SOL    HW220727   5.906   1.714   0.084
 6610SOL     OW20728   3.163   1.465   0.249
 6610SOL    HW120729   3.228   1.526   0.203
 6610SOL    HW220730   3.198   1.371   0.246
 6611SOL     OW20731   5.855   2.773   3.318
 6611SOL    HW120732   5.798   2.705   3.272
 6611SOL    HW220733   5.951   2.755   3.298
 6612SOL     OW20734   0.902   6.084   0.104
 6612SOL    HW120735   0.813   6.113   0.138
 6612SOL    HW220736   0.952   6.163   0.068
 6613SOL     OW20737   4.803   5.070   1.344
 6613SOL    HW120738   4.744   5.001   1.303
 6613SOL    HW220739   4.873   5.098   1.279
 6614SOL     OW20740   5.294   5.153   5.804
 6614SOL    HW120741   5.331   5.115   5.720
 6614SOL    HW220742   5.232   5.228   5.782
 6615SOL     OW20743   0.592   3.953   5.137
 6615SOL    HW120744   0.649   4.025   5.177
 6615SOL    HW220745   0.499   3.988   5.123
 6616SOL     OW20746   5.019   1.222   4.072
 6616SOL    HW120747   5.090   1.210   4.003
 6616SOL    HW220748   5.062   1.239   4.161
 6617SOL     OW20749   4.244   0.421   5.233
 6617SOL    HW120750   4.173   0.368   5.279
 6617SOL    HW220751   4.292   0.477   5.300
 6618SOL     OW20752   0.384   4.995   1.103
 6618SOL    HW120753   0.356   4.905   1.136
 6618SOL    HW220754   0.425   4.986   1.012
 6619SOL     OW20755   0.038   6.230   1.602
 6619SOL    HW120756   0.077   6.233   1.510
 6619SOL    HW220757   6.963   6.249   1.597
 6620SOL     OW20758   4.255   3.319   5.730
 6620SOL    HW120759   4.239   3.263   5.648
 6620SOL    HW220760   4.178   3.381   5.743
 6621SOL     OW20761   2.643   3.961   0.205
 6621SOL    HW120762   2.637   4.048   0.157
 6621SOL    HW220763   2.552   3.919   0.208
 6622SOL     OW20764   6.320   5.646   1.080
 6622SOL    HW120765   6.238   5.654   1.023
 6622SOL    HW220766   6.372   5.732   1.075
 6623SOL     OW20767   3.709   3.812   2.744
 6623SOL    HW120768   3.634   3.761   2.785
 6623SOL    HW220769   3.796   3.772   2.774
 6624SOL     OW20770   4.499   5.422   4.033
 6624SOL    HW120771   4.404   5.397   4.049
 6624SOL    HW220772   4.503   5.497   3.966
 6625SOL     OW20773   5.833   0.111   0.111
 6625SOL    HW120774   5.764   0.119   0.039
 6625SOL    HW220775   5.792   0.130   0.200
 6626SOL     OW20776   2.805   5.166   3.291
 6626SOL    HW120777   2.828   5.255   3.331
 6626SOL    HW220778   2.867   5.096   3.327
 6627SOL     OW20779   1.869   6.335   1.982
 6627SOL    HW120780   1.848   6.347   2.079
 6627SOL    HW220781   1.813   6.262   1.944
 6628SOL     OW20782   4.164   6.342   3.632
 6628SOL    HW120783   4.117   6.374   3.714
 6628SOL    HW220784   4.117   6.377   3.551
 6629SOL     OW20785   3.204   3.863   0.129
 6629SOL    HW120786   3.144   3.818   0.195
 6629SOL    HW220787   3.257   3.794   0.080
 6630SOL     OW20788   3.268   1.826   6.563
 6630SOL    HW120789   3.311   1.804   6.651
 6630SOL    HW220790   3.324   1.788   6.489
 6631SOL     OW20791   4.210   0.722   1.463
 6631SOL    HW120792   4.193   0.818   1.440
 6631SOL    HW220793   4.254   0.676   1.386
 6632SOL     OW20794   6.372   2.606   2.655
 6632SOL    HW120795   6.442   2.561   2.600
 6632SOL    HW220796   6.387   2.584   2.752
 6633SOL     OW20797   0.596   0.063   1.946
 6633SOL    HW120798   0.611   0.091   2.041
 6633SOL    HW220799   0.624   6.990   1.935
 6634SOL     OW20800   6.748   2.443   5.464
 6634SOL    HW120801   6.716   2.534   5.440
 6634SOL    HW220802   6.732   2.426   5.561
 6635SOL     OW20803   4.447   4.624   2.791
 6635SOL    HW120804   4.507   4.564   2.738
 6635SOL    HW220805   4.376   4.661   2.731
 6636SOL     OW20806   1.675   2.906   3.911
 6636SOL    HW120807   1.772   2.889   3.925
 6636SOL    HW220808   1.663   2.975   3.840
 6637SOL     OW20809   6.369   2.087   1.749
 6637SOL    HW120810   6.365   2.077   1.849
 6637SOL    HW220811   6.344   2.001   1.706
 6638SOL     OW20812   2.488   6.714   6.940
 6638SOL    HW120813   2.488   6.620   6.907
 6638SOL    HW220814   2.408   6.762   6.904
 6639SOL     OW20815   4.634   5.783   6.262
 6639SOL    HW120816   4.592   5.840   6.332
 6639SOL    HW220817   4.566   5.758   6.194
 6640SOL     OW20818   6.115   2.571   3.192
 6640SOL    HW120819   6.047   2.528   3.132
 6640SOL    HW220820   6.148   2.504   3.258
 6641SOL     OW20821   2.249   4.888   6.925
 6641SOL    HW120822   2.308   4.809   6.932
 6641SOL    HW220823   2.154   4.861   6.943
 6642SOL     OW20824   6.228   6.578   0.031
 6642SOL    HW120825   6.237   6.530   0.118
 6642SOL    HW220826   6.186   6.667   0.047
 6643SOL     OW20827   3.584   5.736   0.459
 6643SOL    HW120828   3.544   5.648   0.430
 6643SOL    HW220829   3.575   5.802   0.385
 6644SOL     OW20830   2.184   3.878   2.280
 6644SOL    HW120831   2.180   3.962   2.225
 6644SOL    HW220832   2.205   3.902   2.375
 6645SOL     OW20833   6.158   4.767   5.182
 6645SOL    HW120834   6.196   4.678   5.209
 6645SOL    HW220835   6.197   4.794   5.094
 6646SOL     OW20836   1.692   6.312   3.553
 6646SOL    HW120837   1.741   6.339   3.635
 6646SOL    HW220838   1.652   6.221   3.565
 6647SOL     OW20839   4.199   1.751   2.059
 6647SOL    HW120840   4.149   1.817   2.004
 6647SOL    HW220841   4.166   1.755   2.154
 6648SOL     OW20842   4.247   5.887   1.771
 6648SOL    HW120843   4.181   5.815   1.750
 6648SOL    HW220844   4.340   5.851   1.756
 6649SOL     OW20845   4.248   2.227   6.223
 6649SOL    HW120846   4.348   2.225   6.232
 6649SOL    HW220847   4.214   2.134   6.210
 6650SOL     OW20848   3.140   1.140   3.807
 6650SOL    HW120849   3.102   1.183   3.725
 6650SOL    HW220850   3.131   1.041   3.799
 6651SOL     OW20851   1.375   1.901   0.196
 6651SOL    HW120852   1.402   1.923   0.289
 6651SOL    HW220853   1.384   1.981   0.138
 6652SOL     OW20854   1.020   5.511   3.281
 6652SOL    HW120855   1.075   5.537   3.360
 6652SOL    HW220856   0.923   5.519   3.303
 6653SOL     OW20857   3.286   3.548   3.594
 6653SOL    HW120858   3.187   3.543   3.599
 6653SOL    HW220859   3.314   3.635   3.554
 6654SOL     OW20860   1.793   3.526   1.866
 6654SOL    HW120861   1.697   3.496   1.866
 6654SOL    HW220862   1.806   3.594   1.939
 6655SOL     OW20863   2.004   0.333   0.683
 6655SOL    HW120864   1.955   0.373   0.761
 6655SOL    HW220865   1.964   0.244   0.661
 6656SOL     OW20866   0.042   2.607   1.789
 6656SOL    HW120867   0.109   2.547   1.745
 6656SOL    HW220868   6.974   2.587   1.753
 6657SOL     OW20869   2.838   4.685   6.165
 6657SOL    HW120870   2.881   4.774   6.149
 6657SOL    HW220871   2.813   4.677   6.261
 6658SOL     OW20872   6.008   0.088   5.462
 6658SOL    HW120873   6.019   0.150   5.540
 6658SOL    HW220874   5.918   0.103   5.420
 6659SOL     OW20875   1.870   2.907   6.403
 6659SOL    HW120876   1.878   2.975   6.330
 6659SOL    HW220877   1.959   2.893   6.446
 6660SOL     OW20878   0.573   6.709   2.192
 6660SOL    HW120879   0.513   6.785   2.169
 6660SOL    HW220880   0.521   6.638   2.240
 6661SOL     OW20881   0.274   6.157   3.652
 6661SOL    HW120882   0.264   6.168   3.751
 6661SOL    HW220883   0.371   6.147   3.629
 6662SOL     OW20884   1.304   3.458   5.266
 6662SOL    HW120885   1.208   3.471   5.241
 6662SOL    HW220886   1.348   3.395   5.202
 6663SOL     OW20887   0.447   5.275   2.370
 6663SOL    HW120888   0.521   5.341   2.383
 6663SOL    HW220889   0.470   5.190   2.418
 6664SOL     OW20890   0.273   1.678   2.760
 6664SOL    HW120891   0.190   1.653   2.810
 6664SOL    HW220892   0.322   1.749   2.810
 6665SOL     OW20893   2.815   6.632   2.835
 6665SOL    HW120894   2.881   6.633   2.760
 6665SOL    HW220895   2.862   6.650   2.921
 6666SOL     OW20896   6.081   0.696   0.247
 6666SOL    HW120897   5.982   0.692   0.241
 6666SOL    HW220898   6.112   0.634   0.319
 6667SOL     OW20899   6.410   5.200   4.606
 6667SOL    HW120900   6.312   5.205   4.589
 6667SOL    HW220901   6.436   5.269   4.673
 6668SOL     OW20902   0.196   6.793   1.389
 6668SOL    HW120903   0.290   6.794   1.354
 6668SOL    HW220904   0.186   6.721   1.457
 6669SOL     OW20905   1.126   5.248   3.288
 6669SOL    HW120906   1.107   5.345   3.273
 6669SOL    HW220907   1.062   5.211   3.356
 6670SOL     OW20908   3.938   4.647   0.897
 6670SOL    HW120909   3.949   4.570   0.834
 6670SOL    HW220910   3.907   4.727   0.845
 6671SOL     OW20911   0.271   3.189   5.350
 6671SOL    HW120912   0.248   3.130   5.273
 6671SOL    HW220913   0.370   3.208   5.350
 6672SOL     OW20914   0.676   0.705   5.584
 6672SOL    HW120915   0.600   0.649   5.551
 6672SOL    HW220916   0.679   0.791   5.532
 6673SOL     OW20917   5.173   5.397   1.694
 6673SOL    HW120918   5.270   5.387   1.671
 6673SOL    HW220919   5.117   5.363   1.618
 6674SOL     OW20920   0.499   6.871   5.024
 6674SOL    HW120921   0.589   6.846   4.990
 6674SOL    HW220922   0.434   6.871   4.948
 6675SOL     OW20923   0.037   6.074   0.322
 6675SOL    HW120924   0.031   6.016   0.241
 6675SOL    HW220925   6.970   6.079   0.366
 6676SOL     OW20926   1.117   1.909   0.543
 6676SOL    HW120927   1.036   1.905   0.601
 6676SOL    HW220928   1.115   1.994   0.489
 6677SOL     OW20929   6.342   3.901   0.147
 6677SOL    HW120930   6.267   3.903   0.212
 6677SOL    HW220931   6.412   3.967   0.174
 6678SOL     OW20932   0.628   3.040   3.783
 6678SOL    HW120933   0.708   2.990   3.815
 6678SOL    HW220934   0.548   3.015   3.838
 6679SOL     OW20935   1.852   1.070   4.711
 6679SOL    HW120936   1.881   1.142   4.648
 6679SOL    HW220937   1.754   1.078   4.727
 6680SOL     OW20938   2.459   0.500   6.194
 6680SOL    HW120939   2.409   0.557   6.260
 6680SOL    HW220940   2.432   0.405   6.206
 6681SOL     OW20941   5.238   5.663   0.202
 6681SOL    HW120942   5.315   5.722   0.176
 6681SOL    HW220943   5.163   5.675   0.137
 6682SOL     OW20944   6.760   5.067   2.503
 6682SOL    HW120945   6.744   5.018   2.588
 6682SOL    HW220946   6.858   5.083   2.491
 6683SOL     OW20947   5.038   1.659   4.268
 6683SOL    HW120948   5.121   1.673   4.323
 6683SOL    HW220949   5.063   1.613   4.183
 6684SOL     OW20950   2.315   1.119   2.584
 6684SOL    HW120951   2.263   1.039   2.554
 6684SOL    HW220952   2.357   1.099   2.673
 6685SOL     OW20953   5.361   3.036   6.481
 6685SOL    HW120954   5.413   2.964   6.434
 6685SOL    HW220955   5.273   3.048   6.436
 6686SOL     OW20956   5.224   3.502   4.215
 6686SOL    HW120957   5.318   3.486   4.246
 6686SOL    HW220958   5.167   3.425   4.241
 6687SOL     OW20959   0.967   0.921   0.011
 6687SOL    HW120960   0.921   1.009   0.015
 6687SOL    HW220961   1.062   0.931   0.043
 6688SOL     OW20962   0.535   5.236   2.769
 6688SOL    HW120963   0.535   5.334   2.788
 6688SOL    HW220964   0.587   5.188   2.840
 6689SOL     OW20965   4.251   4.950   0.226
 6689SOL    HW120966   4.347   4.977   0.216
 6689SOL    HW220967   4.239   4.907   0.316
 6690SOL     OW20968   1.532   1.654   0.515
 6690SOL    HW120969   1.504   1.567   0.474
 6690SOL    HW220970   1.552   1.640   0.612
 6691SOL     OW20971   1.097   5.457   1.036
 6691SOL    HW120972   1.022   5.491   0.979
 6691SOL    HW220973   1.156   5.398   0.981
 6692SOL     OW20974   3.650   4.427   6.053
 6692SOL    HW120975   3.565   4.428   6.105
 6692SOL    HW220976   3.646   4.495   5.980
 6693SOL     OW20977   4.230   3.635   5.193
 6693SOL    HW120978   4.223   3.650   5.095
 6693SOL    HW220979   4.169   3.561   5.220
 6694SOL     OW20980   2.942   6.519   0.340
 6694SOL    HW120981   2.930   6.599   0.398
 6694SOL    HW220982   3.017   6.463   0.376
 6695SOL     OW20983   1.480   1.547   6.382
 6695SOL    HW120984   1.400   1.505   6.339
 6695SOL    HW220985   1.451   1.600   6.462
 6696SOL     OW20986   1.874   3.097   1.405
 6696SOL    HW120987   1.947   3.149   1.360
 6696SOL    HW220988   1.840   3.149   1.483
 6697SOL     OW20989   5.175   2.505   3.891
 6697SOL    HW120990   5.213   2.444   3.822
 6697SOL    HW220991   5.075   2.507   3.883
 6698SOL     OW20992   3.247   4.392   0.382
 6698SOL    HW120993   3.250   4.411   0.480
 6698SOL    HW220994   3.240   4.479   0.332
 6699SOL     OW20995   1.751   3.607   6.686
 6699SOL    HW120996   1.657   3.640   6.687
 6699SOL    HW220997   1.753   3.514   6.648
 6700SOL     OW20998   6.787   6.899   6.158
 6700SOL    HW120999   6.735   6.980   6.186
 6700SOL    HW221000   6.781   6.888   6.058
 6701SOL     OW21001   0.699   2.691   1.049
 6701SOL    HW121002   0.642   2.634   1.109
 6701SOL    HW221003   0.783   2.715   1.097
 6702SOL     OW21004   1.419   3.426   0.734
 6702SOL    HW121005   1.375   3.463   0.652
 6702SOL    HW221006   1.457   3.336   0.713
 6703SOL     OW21007   0.273   2.312   6.632
 6703SOL    HW121008   0.273   2.411   6.650
 6703SOL    HW221009   0.332   2.266   6.699
 6704SOL     OW21010   5.055   2.438   3.221
 6704SOL    HW121011   5.147   2.461   3.187
 6704SOL    HW221012   5.041   2.479   3.310
 6705SOL     OW21013   5.977   1.159   0.766
 6705SOL    HW121014   6.074   1.182   0.754
 6705SOL    HW221015   5.961   1.131   0.861
 6706SOL     OW21016   0.547   5.846   7.022
 6706SOL    HW121017   0.583   5.788   0.073
 6706SOL    HW221018   0.451   5.825   7.006
 6707SOL     OW21019   1.562   5.553   2.429
 6707SOL    HW121020   1.516   5.506   2.504
 6707SOL    HW221021   1.604   5.485   2.368
 6708SOL     OW21022   2.157   5.864   1.773
 6708SOL    HW121023   2.113   5.855   1.862
 6708SOL    HW221024   2.132   5.786   1.716
 6709SOL     OW21025   4.866   1.561   2.986
 6709SOL    HW121026   4.776   1.602   3.001
 6709SOL    HW221027   4.855   1.469   2.948
 6710SOL     OW21028   1.887   2.079   0.687
 6710SOL    HW121029   1.826   2.095   0.764
 6710SOL    HW221030   1.837   2.030   0.615
 6711SOL     OW21031   5.171   3.675   0.230
 6711SOL    HW121032   5.093   3.669   0.167
 6711SOL    HW221033   5.159   3.611   0.305
 6712SOL     OW21034   3.527   6.295   1.342
 6712SOL    HW121035   3.517   6.336   1.251
 6712SOL    HW221036   3.490   6.357   1.411
 6713SOL     OW21037   1.673   1.433   2.945
 6713SOL    HW121038   1.772   1.429   2.940
 6713SOL    HW221039   1.640   1.512   2.893
 6714SOL     OW21040   6.668   0.301   4.629
 6714SOL    HW121041   6.584   0.338   4.670
 6714SOL    HW221042   6.685   0.347   4.542
 6715SOL     OW21043   6.848   1.970   0.693
 6715SOL    HW121044   6.832   1.925   0.781
 6715SOL    HW221045   6.840   1.903   0.620
 6716SOL     OW21046   2.835   5.892   0.598
 6716SOL    HW121047   2.763   5.903   0.530
 6716SOL    HW221048   2.911   5.840   0.560
 6717SOL     OW21049   4.204   1.255   6.459
 6717SOL    HW121050   4.195   1.175   6.518
 6717SOL    HW221051   4.179   1.337   6.510
 6718SOL     OW21052   3.159   6.784   0.342
 6718SOL    HW121053   3.219   6.862   0.329
 6718SOL    HW221054   3.214   6.701   0.353
 6719SOL     OW21055   0.977   0.772   5.586
 6719SOL    HW121056   0.956   0.832   5.663
 6719SOL    HW221057   0.893   0.732   5.550
 6720SOL     OW21058   2.127   4.819   1.412
 6720SOL    HW121059   2.076   4.891   1.461
 6720SOL    HW221060   2.084   4.803   1.324
 6721SOL     OW21061   6.695   6.186   3.052
 6721SOL    HW121062   6.733   6.271   3.091
 6721SOL    HW221063   6.664   6.127   3.127
 6722SOL     OW21064   5.069   4.748   0.201
 6722SOL    HW121065   5.120   4.681   0.254
 6722SOL    HW221066   5.132   4.801   0.145
 6723SOL     OW21067   4.470   0.830   3.048
 6723SOL    HW121068   4.437   0.911   2.999
 6723SOL    HW221069   4.568   0.839   3.064
 6724SOL     OW21070   3.704   4.436   5.431
 6724SOL    HW121071   3.612   4.460   5.461
 6724SOL    HW221072   3.762   4.420   5.510
 6725SOL     OW21073   0.011   5.285   1.359
 6725SOL    HW121074   6.944   5.306   1.396
 6725SOL    HW221075   0.059   5.223   1.421
 6726SOL     OW21076   1.993   2.302   1.813
 6726SOL    HW121077   2.019   2.314   1.717
 6726SOL    HW221078   2.024   2.212   1.844
 6727SOL     OW21079   3.243   3.661   0.460
 6727SOL    HW121080   3.307   3.731   0.427
 6727SOL    HW221081   3.283   3.570   0.447
 6728SOL     OW21082   4.780   1.317   4.674
 6728SOL    HW121083   4.757   1.239   4.617
 6728SOL    HW221084   4.731   1.398   4.642
 6729SOL     OW21085   5.287   6.319   3.404
 6729SOL    HW121086   5.375   6.298   3.362
 6729SOL    HW221087   5.265   6.416   3.388
 6730SOL     OW21088   1.145   0.120   2.349
 6730SOL    HW121089   1.204   0.063   2.292
 6730SOL    HW221090   1.176   0.215   2.343
 6731SOL     OW21091   2.025   4.257   2.045
 6731SOL    HW121092   1.973   4.187   2.093
 6731SOL    HW221093   2.090   4.213   1.983
 6732SOL     OW21094   2.521   5.364   0.465
 6732SOL    HW121095   2.461   5.338   0.390
 6732SOL    HW221096   2.488   5.324   0.550
 6733SOL     OW21097   6.195   5.993   4.715
 6733SOL    HW121098   6.103   6.030   4.725
 6733SOL    HW221099   6.243   6.042   4.642
 6734SOL     OW21100   2.823   3.787   5.957
 6734SOL    HW121101   2.875   3.857   5.908
 6734SOL    HW221102   2.733   3.778   5.915
 6735SOL     OW21103   0.622   6.089   6.900
 6735SOL    HW121104   0.711   6.124   6.929
 6735SOL    HW221105   0.601   6.005   6.949
 6736SOL     OW21106   2.136   4.370   2.384
 6736SOL    HW121107   2.043   4.332   2.386
 6736SOL    HW221108   2.179   4.356   2.473
 6737SOL     OW21109   2.270   0.247   1.090
 6737SOL    HW121110   2.297   0.317   1.024
 6737SOL    HW221111   2.247   0.289   1.177
 6738SOL     OW21112   4.504   1.358   1.667
 6738SOL    HW121113   4.509   1.305   1.582
 6738SOL    HW221114   4.596   1.388   1.693
 6739SOL     OW21115   4.577   0.200   5.334
 6739SOL    HW121116   4.667   0.158   5.333
 6739SOL    HW221117   4.569   0.264   5.257
 6740SOL     OW21118   5.734   3.140   5.538
 6740SOL    HW121119   5.809   3.162   5.475
 6740SOL    HW221120   5.744   3.192   5.622
 6741SOL     OW21121   0.151   6.873   5.998
 6741SOL    HW121122   0.209   6.827   6.065
 6741SOL    HW221123   0.096   6.805   5.949
 6742SOL     OW21124   6.237   6.196   5.174
 6742SOL    HW121125   6.227   6.293   5.153
 6742SOL    HW221126   6.240   6.144   5.088
 6743SOL     OW21127   6.015   2.413   1.205
 6743SOL    HW121128   6.058   2.423   1.295
 6743SOL    HW221129   5.959   2.493   1.186
 6744SOL     OW21130   5.384   6.034   4.701
 6744SOL    HW121131   5.372   5.954   4.760
 6744SOL    HW221132   5.473   6.076   4.719
 6745SOL     OW21133   0.800   3.436   2.846
 6745SOL    HW121134   0.751   3.364   2.798
 6745SOL    HW221135   0.856   3.395   2.919
 6746SOL     OW21136   0.216   0.898   1.107
 6746SOL    HW121137   0.277   0.935   1.037
 6746SOL    HW221138   0.175   0.973   1.160
 6747SOL     OW21139   4.776   6.073   6.555
 6747SOL    HW121140   4.680   6.050   6.539
 6747SOL    HW221141   4.795   6.166   6.525
 6748SOL     OW21142   0.032   6.478   1.926
 6748SOL    HW121143   0.046   6.444   1.833
 6748SOL    HW221144   0.121   6.503   1.965
 6749SOL     OW21145   3.400   5.749   0.994
 6749SOL    HW121146   3.461   5.714   0.922
 6749SOL    HW221147   3.379   5.675   1.059
 6750SOL     OW21148   2.129   3.073   5.084
 6750SOL    HW121149   2.119   3.084   5.183
 6750SOL    HW221150   2.223   3.048   5.062
 6751SOL     OW21151   3.737   1.868   6.076
 6751SOL    HW121152   3.818   1.866   6.135
 6751SOL    HW221153   3.765   1.877   5.981
 6752SOL     OW21154   6.906   1.998   0.046
 6752SOL    HW121155   6.858   2.037   0.125
 6752SOL    HW221156   6.872   1.905   0.031
 6753SOL     OW21157   5.968   1.509   6.876
 6753SOL    HW121158   5.897   1.442   6.853
 6753SOL    HW221159   6.022   1.530   6.795
 6754SOL     OW21160   4.959   1.547   6.578
 6754SOL    HW121161   5.042   1.592   6.610
 6754SOL    HW221162   4.882   1.571   6.637
 6755SOL     OW21163   4.719   1.959   3.699
 6755SOL    HW121164   4.714   1.871   3.653
 6755SOL    HW221165   4.628   1.987   3.729
 6756SOL     OW21166   4.846   3.841   3.433
 6756SOL    HW121167   4.849   3.904   3.356
 6756SOL    HW221168   4.824   3.891   3.517
 6757SOL     OW21169   6.034   4.954   1.742
 6757SOL    HW121170   5.945   4.915   1.719
 6757SOL    HW221171   6.054   4.937   1.839
 6758SOL     OW21172   5.847   1.366   3.199
 6758SOL    HW121173   5.813   1.272   3.204
 6758SOL    HW221174   5.933   1.367   3.148
 6759SOL     OW21175   1.287   4.760   2.740
 6759SOL    HW121176   1.343   4.837   2.770
 6759SOL    HW221177   1.191   4.786   2.742
 6760SOL     OW21178   0.277   3.911   4.770
 6760SOL    HW121179   0.232   3.825   4.746
 6760SOL    HW221180   0.271   3.925   4.869
 6761SOL     OW21181   6.150   2.874   6.430
 6761SOL    HW121182   6.180   2.966   6.404
 6761SOL    HW221183   6.148   2.867   6.530
 6762SOL     OW21184   6.996   3.829   3.074
 6762SOL    HW121185   6.912   3.776   3.067
 6762SOL    HW221186   6.979   3.922   3.041
 6763SOL     OW21187   6.059   6.793   4.944
 6763SOL    HW121188   5.965   6.786   4.976
 6763SOL    HW221189   6.104   6.704   4.951
 6764SOL     OW21190   2.189   3.160   6.297
 6764SOL    HW121191   2.189   3.163   6.197
 6764SOL    HW221192   2.105   3.203   6.331
 6765SOL     OW21193   5.299   5.158   2.645
 6765SOL    HW121194   5.353   5.077   2.668
 6765SOL    HW221195   5.330   5.236   2.701
 6766SOL     OW21196   1.925   2.367   5.794
 6766SOL    HW121197   1.879   2.444   5.837
 6766SOL    HW221198   1.976   2.398   5.714
 6767SOL     OW21199   0.437   2.584   6.136
 6767SOL    HW121200   0.414   2.489   6.114
 6767SOL    HW221201   0.379   2.616   6.211
 6768SOL     OW21202   6.557   1.211   6.107
 6768SOL    HW121203   6.656   1.224   6.101
 6768SOL    HW221204   6.536   1.139   6.173
 6769SOL     OW21205   1.126   3.039   6.688
 6769SOL    HW121206   1.073   2.980   6.749
 6769SOL    HW221207   1.068   3.068   6.612
 6770SOL     OW21208   6.912   1.746   4.463
 6770SOL    HW121209   6.820   1.787   4.467
 6770SOL    HW221210   6.934   1.705   4.552
 6771SOL     OW21211   6.169   1.501   2.625
 6771SOL    HW121212   6.180   1.561   2.703
 6771SOL    HW221213   6.150   1.555   2.543
 6772SOL     OW21214   1.206   0.404   2.336
 6772SOL    HW121215   1.196   0.489   2.388
 6772SOL    HW221216   1.190   0.422   2.239
 6773SOL     OW21217   1.877   0.581   2.477
 6773SOL    HW121218   1.806   0.511   2.470
 6773SOL    HW221219   1.871   0.643   2.399
 6774SOL     OW21220   3.875   1.507   5.420
 6774SOL    HW121221   3.805   1.522   5.490
 6774SOL    HW221222   3.849   1.431   5.362
 6775SOL     OW21223   0.925   2.836   4.358
 6775SOL    HW121224   0.871   2.810   4.278
 6775SOL    HW221225   1.022   2.818   4.339
 6776SOL     OW21226   3.352   3.789   3.912
 6776SOL    HW121227   3.318   3.733   3.987
 6776SOL    HW221228   3.440   3.830   3.939
 6777SOL     OW21229   0.397   6.518   5.975
 6777SOL    HW121230   0.460   6.441   5.969
 6777SOL    HW221231   0.306   6.485   6.002
 6778SOL     OW21232   6.573   5.919   2.383
 6778SOL    HW121233   6.648   5.974   2.419
 6778SOL    HW221234   6.493   5.930   2.442
 6779SOL     OW21235   4.606   4.880   6.827
 6779SOL    HW121236   4.641   4.897   6.735
 6779SOL    HW221237   4.655   4.936   6.893
 6780SOL     OW21238   4.342   0.448   3.058
 6780SOL    HW121239   4.363   0.530   3.004
 6780SOL    HW221240   4.424   0.417   3.105
 6781SOL     OW21241   6.307   3.338   3.004
 6781SOL    HW121242   6.331   3.393   2.924
 6781SOL    HW221243   6.339   3.385   3.087
 6782SOL     OW21244   0.784   0.966   3.740
 6782SOL    HW121245   0.840   0.886   3.763
 6782SOL    HW221246   0.688   0.937   3.731
 6783SOL     OW21247   0.025   6.309   6.687
 6783SOL    HW121248   0.071   6.290   6.600
 6783SOL    HW221249   0.008   6.223   6.735
 6784SOL     OW21250   1.185   4.912   0.681
 6784SOL    HW121251   1.132   4.836   0.642
 6784SOL    HW221252   1.179   4.909   0.780
 6785SOL     OW21253   5.365   4.509   1.712
 6785SOL    HW121254   5.419   4.477   1.790
 6785SOL    HW221255   5.324   4.598   1.733
 6786SOL     OW21256   6.563   1.880   5.348
 6786SOL    HW121257   6.604   1.935   5.276
 6786SOL    HW221258   6.551   1.935   5.431
 6787SOL     OW21259   4.035   1.935   1.274
 6787SOL    HW121260   4.070   2.026   1.295
 6787SOL    HW221261   3.937   1.932   1.294
 6788SOL     OW21262   1.126   4.035   1.096
 6788SOL    HW121263   1.113   3.994   1.187
 6788SOL    HW221264   1.055   4.103   1.080
 6789SOL     OW21265   5.445   3.420   2.686
 6789SOL    HW121266   5.433   3.514   2.653
 6789SOL    HW221267   5.355   3.380   2.706
 6790SOL     OW21268   0.600   5.303   1.097
 6790SOL    HW121269   0.548   5.361   1.160
 6790SOL    HW221270   0.581   5.207   1.117
 6791SOL     OW21271   2.748   6.545   3.639
 6791SOL    HW121272   2.778   6.473   3.702
 6791SOL    HW221273   2.813   6.621   3.641
 6792SOL     OW21274   3.234   5.735   6.577
 6792SOL    HW121275   3.150   5.683   6.590
 6792SOL    HW221276   3.313   5.673   6.582
 6793SOL     OW21277   2.394   4.517   6.409
 6793SOL    HW121278   2.329   4.571   6.357
 6793SOL    HW221279   2.487   4.543   6.386
 6794SOL     OW21280   4.750   2.437   4.279
 6794SOL    HW121281   4.798   2.418   4.365
 6794SOL    HW221282   4.815   2.433   4.203
 6795SOL     OW21283   0.759   0.697   2.137
 6795SOL    HW121284   0.806   0.749   2.066
 6795SOL    HW221285   0.664   0.728   2.143
 6796SOL     OW21286   7.012   2.860   2.365
 6796SOL    HW121287   0.068   2.854   2.426
 6796SOL    HW221288   0.009   2.925   2.291
 6797SOL     OW21289   1.865   3.878   1.222
 6797SOL    HW121290   1.943   3.939   1.210
 6797SOL    HW221291   1.801   3.889   1.146
 6798SOL     OW21292   4.407   1.036   2.056
 6798SOL    HW121293   4.387   1.125   2.014
 6798SOL    HW221294   4.446   0.975   1.987
 6799SOL     OW21295   6.045   6.634   2.997
 6799SOL    HW121296   6.029   6.557   3.058
 6799SOL    HW221297   6.032   6.719   3.048
 6800SOL     OW21298   6.659   2.781   2.574
 6800SOL    HW121299   6.655   2.691   2.618
 6800SOL    HW221300   6.658   2.853   2.644
 6801SOL     OW21301   1.902   5.155   4.997
 6801SOL    HW121302   1.852   5.147   4.911
 6801SOL    HW221303   1.877   5.240   5.043
 6802SOL     OW21304   2.757   4.272   1.703
 6802SOL    HW121305   2.667   4.304   1.674
 6802SOL    HW221306   2.807   4.348   1.744
 6803SOL     OW21307   5.867   5.197   6.784
 6803SOL    HW121308   5.880   5.099   6.771
 6803SOL    HW221309   5.952   5.238   6.817
 6804SOL     OW21310   3.130   5.305   1.967
 6804SOL    HW121311   3.105   5.258   1.882
 6804SOL    HW221312   3.227   5.291   1.985
 6805SOL     OW21313   0.837   4.699   3.879
 6805SOL    HW121314   0.903   4.772   3.860
 6805SOL    HW221315   0.886   4.617   3.910
 6806SOL     OW21316   5.715   3.511   2.495
 6806SOL    HW121317   5.636   3.460   2.528
 6806SOL    HW221318   5.718   3.601   2.538
 6807SOL     OW21319   3.171   3.401   2.674
 6807SOL    HW121320   3.124   3.352   2.600
 6807SOL    HW221321   3.255   3.353   2.697
 6808SOL     OW21322   3.834   6.772   3.315
 6808SOL    HW121323   3.907   6.713   3.281
 6808SOL    HW221324   3.752   6.759   3.260
 6809SOL     OW21325   5.557   2.411   0.569
 6809SOL    HW121326   5.506   2.471   0.507
 6809SOL    HW221327   5.640   2.458   0.600
 6810SOL     OW21328   2.735   0.113   4.665
 6810SOL    HW121329   2.764   0.168   4.587
 6810SOL    HW221330   2.791   0.030   4.669
 6811SOL     OW21331   6.613   1.351   0.964
 6811SOL    HW121332   6.562   1.361   0.878
 6811SOL    HW221333   6.560   1.390   1.039
 6812SOL     OW21334   3.449   4.494   5.547
 6812SOL    HW121335   3.410   4.581   5.519
 6812SOL    HW221336   3.426   4.476   5.643
 6813SOL     OW21337   0.397   3.571   1.990
 6813SOL    HW121338   0.382   3.661   2.029
 6813SOL    HW221339   0.312   3.518   1.992
 6814SOL     OW21340   4.716   2.192   1.958
 6814SOL    HW121341   4.666   2.278   1.970
 6814SOL    HW221342   4.800   2.195   2.012
 6815SOL     OW21343   0.729   5.978   0.330
 6815SOL    HW121344   0.717   5.884   0.299
 6815SOL    HW221345   0.695   5.987   0.423
 6816SOL     OW21346   6.593   6.930   4.485
 6816SOL    HW121347   6.637   7.009   4.442
 6816SOL    HW221348   6.494   6.934   4.470
 6817SOL     OW21349   5.117   0.921   2.097
 6817SOL    HW121350   5.192   0.858   2.113
 6817SOL    HW221351   5.133   1.006   2.146
 6818SOL     OW21352   0.220   0.229   5.453
 6818SOL    HW121353   0.164   0.240   5.535
 6818SOL    HW221354   0.297   0.293   5.456
 6819SOL     OW21355   5.593   4.122   0.821
 6819SOL    HW121356   5.621   4.027   0.805
 6819SOL    HW221357   5.494   4.125   0.835
 6820SOL     OW21358   2.379   3.805   1.394
 6820SOL    HW121359   2.289   3.849   1.400
 6820SOL    HW221360   2.445   3.871   1.356
 6821SOL     OW21361   3.365   3.018   5.857
 6821SOL    HW121362   3.338   2.929   5.895
 6821SOL    HW221363   3.434   3.005   5.786
 6822SOL     OW21364   6.406   3.957   5.180
 6822SOL    HW121365   6.450   3.924   5.096
 6822SOL    HW221366   6.457   3.924   5.260
 6823SOL     OW21367   6.522   3.211   5.548
 6823SOL    HW121368   6.455   3.147   5.585
 6823SOL    HW221369   6.579   3.165   5.480
 6824SOL     OW21370   1.008   0.585   3.984
 6824SOL    HW121371   0.977   0.652   4.051
 6824SOL    HW221372   1.058   0.511   4.030
 6825SOL     OW21373   4.610   4.364   1.291
 6825SOL    HW121374   4.641   4.365   1.196
 6825SOL    HW221375   4.517   4.401   1.295
 6826SOL     OW21376   5.786   1.143   3.373
 6826SOL    HW121377   5.851   1.088   3.425
 6826SOL    HW221378   5.718   1.181   3.435
 6827SOL     OW21379   4.666   5.575   5.448
 6827SOL    HW121380   4.704   5.482   5.452
 6827SOL    HW221381   4.687   5.615   5.358
 6828SOL     OW21382   2.638   2.439   2.510
 6828SOL    HW121383   2.718   2.402   2.463
 6828SOL    HW221384   2.573   2.474   2.443
 6829SOL     OW21385   5.287   6.345   4.482
 6829SOL    HW121386   5.309   6.247   4.475
 6829SOL    HW221387   5.318   6.391   4.399
 6830SOL     OW21388   4.381   6.312   2.325
 6830SOL    HW121389   4.450   6.382   2.343
 6830SOL    HW221390   4.330   6.293   2.409
 6831SOL     OW21391   1.791   0.999   6.769
 6831SOL    HW121392   1.708   1.055   6.772
 6831SOL    HW221393   1.870   1.058   6.783
 6832SOL     OW21394   2.941   3.345   0.179
 6832SOL    HW121395   2.890   3.261   0.161
 6832SOL    HW221396   3.023   3.324   0.234
 6833SOL     OW21397   4.586   5.120   6.580
 6833SOL    HW121398   4.668   5.062   6.581
 6833SOL    HW221399   4.599   5.194   6.514
 6834SOL     OW21400   5.846   5.736   5.122
 6834SOL    HW121401   5.877   5.660   5.179
 6834SOL    HW221402   5.879   5.722   5.028
 6835SOL     OW21403   3.628   0.250   3.453
 6835SOL    HW121404   3.680   0.247   3.539
 6835SOL    HW221405   3.574   0.334   3.450
 6836SOL     OW21406   0.449   4.335   6.923
 6836SOL    HW121407   0.485   4.305   6.834
 6836SOL    HW221408   0.457   4.260   6.989
 6837SOL     OW21409   6.325   1.842   1.634
 6837SOL    HW121410   6.246   1.781   1.625
 6837SOL    HW221411   6.408   1.793   1.608
 6838SOL     OW21412   2.550   4.027   5.929
 6838SOL    HW121413   2.561   4.124   5.949
 6838SOL    HW221414   2.590   3.973   6.003
 6839SOL     OW21415   5.736   2.613   5.361
 6839SOL    HW121416   5.670   2.560   5.413
 6839SOL    HW221417   5.697   2.637   5.272
 6840SOL     OW21418   3.466   6.690   4.692
 6840SOL    HW121419   3.549   6.741   4.670
 6840SOL    HW221420   3.392   6.719   4.631
 6841SOL     OW21421   4.478   6.744   0.572
 6841SOL    HW121422   4.494   6.692   0.656
 6841SOL    HW221423   4.566   6.769   0.532
 6842SOL     OW21424   1.325   3.202   3.228
 6842SOL    HW121425   1.386   3.276   3.259
 6842SOL    HW221426   1.286   3.156   3.308
 6843SOL     OW21427   4.910   3.226   2.004
 6843SOL    HW121428   4.843   3.184   1.944
 6843SOL    HW221429   4.922   3.170   2.086
 6844SOL     OW21430   3.589   6.926   5.058
 6844SOL    HW121431   3.562   6.978   5.140
 6844SOL    HW221432   3.593   6.828   5.080
 6845SOL     OW21433   3.838   3.954   0.105
 6845SOL    HW121434   3.907   3.897   0.060
 6845SOL    HW221435   3.774   3.895   0.155
 6846SOL     OW21436   4.038   3.356   3.668
 6846SOL    HW121437   4.064   3.436   3.722
 6846SOL    HW221438   4.053   3.273   3.722
 6847SOL     OW21439   5.497   2.639   2.643
 6847SOL    HW121440   5.402   2.663   2.661
 6847SOL    HW221441   5.554   2.720   2.651
 6848SOL     OW21442   0.899   5.889   5.127
 6848SOL    HW121443   0.925   5.811   5.069
 6848SOL    HW221444   0.930   5.873   5.220
 6849SOL     OW21445   3.309   0.446   5.423
 6849SOL    HW121446   3.381   0.443   5.354
 6849SOL    HW221447   3.321   0.529   5.479
 6850SOL     OW21448   6.573   3.535   1.708
 6850SOL    HW121449   6.666   3.499   1.705
 6850SOL    HW221450   6.575   3.633   1.689
 6851SOL     OW21451   1.331   5.887   6.353
 6851SOL    HW121452   1.252   5.934   6.313
 6851SOL    HW221453   1.317   5.874   6.451
 6852SOL     OW21454   6.291   5.218   2.225
 6852SOL    HW121455   6.369   5.236   2.285
 6852SOL    HW221456   6.294   5.124   2.193
 6853SOL     OW21457   6.066   4.449   4.715
 6853SOL    HW121458   6.013   4.510   4.775
 6853SOL    HW221459   6.160   4.444   4.748
 6854SOL     OW21460   6.492   1.340   6.508
 6854SOL    HW121461   6.464   1.394   6.587
 6854SOL    HW221462   6.443   1.370   6.427
 6855SOL     OW21463   3.252   6.554   2.397
 6855SOL    HW121464   3.280   6.650   2.387
 6855SOL    HW221465   3.293   6.516   2.479
 6856SOL     OW21466   0.786   5.753   5.762
 6856SOL    HW121467   0.687   5.741   5.771
 6856SOL    HW221468   0.827   5.761   5.853
 6857SOL     OW21469   4.789   1.199   6.934
 6857SOL    HW121470   4.713   1.210   6.870
 6857SOL    HW221471   4.869   1.165   6.885
 6858SOL     OW21472   3.631   3.006   6.910
 6858SOL    HW121473   3.568   2.964   6.844
 6858SOL    HW221474   3.627   2.955   6.996
 6859SOL     OW21475   4.013   0.986   0.103
 6859SOL    HW121476   3.935   1.013   0.048
 6859SOL    HW221477   4.035   0.891   0.085
 6860SOL     OW21478   4.976   3.669   0.015
 6860SOL    HW121479   4.978   3.647   6.940
 6860SOL    HW221480   4.881   3.679   0.045
 6861SOL     OW21481   5.626   3.632   0.920
 6861SOL    HW121482   5.624   3.562   0.850
 6861SOL    HW221483   5.601   3.721   0.880
 6862SOL     OW21484   2.423   5.302   4.231
 6862SOL    HW121485   2.469   5.391   4.237
 6862SOL    HW221486   2.407   5.267   4.323
 6863SOL     OW21487   1.155   3.084   3.446
 6863SOL    HW121488   1.076   3.139   3.472
 6863SOL    HW221489   1.177   3.020   3.519
 6864SOL     OW21490   3.957   5.570   6.388
 6864SOL    HW121491   4.041   5.559   6.442
 6864SOL    HW221492   3.980   5.576   6.291
 6865SOL     OW21493   0.129   2.949   4.413
 6865SOL    HW121494   0.188   2.955   4.332
 6865SOL    HW221495   0.049   3.008   4.400
 6866SOL     OW21496   0.944   3.283   2.291
 6866SOL    HW121497   1.008   3.209   2.272
 6866SOL    HW221498   0.972   3.366   2.243
 6867SOL     OW21499   2.115   5.161   2.828
 6867SOL    HW121500   2.171   5.129   2.904
 6867SOL    HW221501   2.125   5.097   2.751
 6868SOL     OW21502   2.183   5.231   5.035
 6868SOL    HW121503   2.234   5.157   5.080
 6868SOL    HW221504   2.104   5.193   4.988
 6869SOL     OW21505   0.230   3.605   5.062
 6869SOL    HW121506   0.157   3.567   5.005
 6869SOL    HW221507   0.286   3.531   5.098
 6870SOL     OW21508   6.033   3.447   2.316
 6870SOL    HW121509   6.094   3.371   2.293
 6870SOL    HW221510   5.991   3.431   2.405
 6871SOL     OW21511   5.034   5.925   1.709
 6871SOL    HW121512   5.125   5.896   1.679
 6871SOL    HW221513   5.028   5.915   1.809
 6872SOL     OW21514   3.363   4.030   0.716
 6872SOL    HW121515   3.445   4.086   0.729
 6872SOL    HW221516   3.384   3.953   0.656
 6873SOL     OW21517   5.851   4.692   4.525
 6873SOL    HW121518   5.816   4.608   4.566
 6873SOL    HW221519   5.907   4.740   4.592
 6874SOL     OW21520   0.730   1.701   5.835
 6874SOL    HW121521   0.700   1.654   5.917
 6874SOL    HW221522   0.717   1.642   5.756
 6875SOL     OW21523   4.178   0.768   4.719
 6875SOL    HW121524   4.130   0.695   4.670
 6875SOL    HW221525   4.121   0.850   4.720
 6876SOL     OW21526   3.424   5.729   4.990
 6876SOL    HW121527   3.406   5.756   4.895
 6876SOL    HW221528   3.354   5.769   5.049
 6877SOL     OW21529   1.533   3.660   5.810
 6877SOL    HW121530   1.593   3.661   5.890
 6877SOL    HW221531   1.574   3.605   5.737
 6878SOL     OW21532   1.335   1.479   4.243
 6878SOL    HW121533   1.338   1.575   4.271
 6878SOL    HW221534   1.384   1.423   4.310
 6879SOL     OW21535   6.953   0.833   5.434
 6879SOL    HW121536   6.860   0.805   5.410
 6879SOL    HW221537   6.951   0.924   5.475
 6880SOL     OW21538   1.577   4.050   4.640
 6880SOL    HW121539   1.599   4.090   4.551
 6880SOL    HW221540   1.489   4.085   4.672
 6881SOL     OW21541   5.597   5.749   1.759
 6881SOL    HW121542   5.498   5.756   1.758
 6881SOL    HW221543   5.630   5.726   1.667
 6882SOL     OW21544   2.471   6.057   5.554
 6882SOL    HW121545   2.424   6.142   5.579
 6882SOL    HW221546   2.466   6.045   5.455
 6883SOL     OW21547   3.199   6.064   2.076
 6883SOL    HW121548   3.292   6.100   2.083
 6883SOL    HW221549   3.142   6.105   2.147
 6884SOL     OW21550   1.920   4.999   2.612
 6884SOL    HW121551   1.870   5.086   2.611
 6884SOL    HW221552   2.018   5.017   2.608
 6885SOL     OW21553   3.872   4.932   4.793
 6885SOL    HW121554   3.954   4.883   4.822
 6885SOL    HW221555   3.895   5.027   4.774
 6886SOL     OW21556   5.458   1.057   1.579
 6886SOL    HW121557   5.544   1.008   1.566
 6886SOL    HW221558   5.405   1.012   1.650
 6887SOL     OW21559   5.755   0.933   5.353
 6887SOL    HW121560   5.664   0.972   5.338
 6887SOL    HW221561   5.762   0.905   5.449
 6888SOL     OW21562   5.865   0.164   4.379
 6888SOL    HW121563   5.776   0.190   4.417
 6888SOL    HW221564   5.918   0.246   4.358
 6889SOL     OW21565   1.737   4.948   5.944
 6889SOL    HW121566   1.684   4.874   5.902
 6889SOL    HW221567   1.825   4.912   5.975
 6890SOL     OW21568   2.173   0.543   1.058
 6890SOL    HW121569   2.122   0.556   0.973
 6890SOL    HW221570   2.268   0.520   1.037
 6891SOL     OW21571   4.087   5.345   5.420
 6891SOL    HW121572   4.008   5.335   5.359
 6891SOL    HW221573   4.171   5.338   5.366
 6892SOL     OW21574   2.997   1.570   5.098
 6892SOL    HW121575   3.003   1.575   4.998
 6892SOL    HW221576   3.061   1.500   5.131
 6893SOL     OW21577   5.634   0.829   1.300
 6893SOL    HW121578   5.701   0.760   1.273
 6893SOL    HW221579   5.555   0.784   1.343
 6894SOL     OW21580   6.106   4.530   6.555
 6894SOL    HW121581   6.132   4.535   6.652
 6894SOL    HW221582   6.111   4.436   6.524
 6895SOL     OW21583   4.036   5.535   6.134
 6895SOL    HW121584   3.981   5.526   6.051
 6895SOL    HW221585   4.093   5.617   6.128
 6896SOL     OW21586   4.741   1.336   2.852
 6896SOL    HW121587   4.733   1.389   2.768
 6896SOL    HW221588   4.652   1.331   2.897
 6897SOL     OW21589   3.750   0.487   1.028
 6897SOL    HW121590   3.773   0.389   1.027
 6897SOL    HW221591   3.796   0.533   0.952
 6898SOL     OW21592   3.898   1.061   2.650
 6898SOL    HW121593   3.954   1.144   2.647
 6898SOL    HW221594   3.921   1.008   2.732
 6899SOL     OW21595   5.589   6.328   6.356
 6899SOL    HW121596   5.664   6.394   6.361
 6899SOL    HW221597   5.605   6.267   6.278
 6900SOL     OW21598   4.703   1.386   6.287
 6900SOL    HW121599   4.761   1.359   6.210
 6900SOL    HW221600   4.709   1.485   6.300
 6901SOL     OW21601   1.712   0.748   6.962
 6901SOL    HW121602   1.714   0.835   6.913
 6901SOL    HW221603   1.795   0.738   7.017
 6902SOL     OW21604   6.263   5.749   2.480
 6902SOL    HW121605   6.322   5.817   2.524
 6902SOL    HW221606   6.227   5.787   2.395
 6903SOL     OW21607   4.526   4.397   0.476
 6903SOL    HW121608   4.467   4.316   0.465
 6903SOL    HW221609   4.620   4.374   0.451
 6904SOL     OW21610   0.542   0.647   2.939
 6904SOL    HW121611   0.513   0.724   2.997
 6904SOL    HW221612   0.623   0.674   2.886
 6905SOL     OW21613   3.851   5.882   0.998
 6905SOL    HW121614   3.884   5.897   1.091
 6905SOL    HW221615   3.756   5.912   0.991
 6906SOL     OW21616   6.387   6.345   3.278
 6906SOL    HW121617   6.353   6.370   3.187
 6906SOL    HW221618   6.354   6.254   3.302
 6907SOL     OW21619   3.339   0.416   1.392
 6907SOL    HW121620   3.319   0.425   1.295
 6907SOL    HW221621   3.380   0.500   1.426
 6908SOL     OW21622   5.932   6.887   6.965
 6908SOL    HW121623   5.992   6.817   7.005
 6908SOL    HW221624   5.882   6.933   0.014
 6909SOL     OW21625   2.178   2.133   6.815
 6909SOL    HW121626   2.274   2.148   6.836
 6909SOL    HW221627   2.130   2.103   6.897
 6910SOL     OW21628   5.303   1.144   1.374
 6910SOL    HW121629   5.348   1.100   1.452
 6910SOL    HW221630   5.229   1.203   1.407
 6911SOL     OW21631   4.349   0.881   4.915
 6911SOL    HW121632   4.310   0.836   4.835
 6911SOL    HW221633   4.307   0.843   4.998
 6912SOL     OW21634   4.388   4.551   1.970
 6912SOL    HW121635   4.307   4.550   1.911
 6912SOL    HW221636   4.414   4.457   1.992
 6913SOL     OW21637   4.431   5.443   5.510
 6913SOL    HW121638   4.515   5.499   5.515
 6913SOL    HW221639   4.428   5.395   5.423
 6914SOL     OW21640   6.258   5.281   6.568
 6914SOL    HW121641   6.263   5.357   6.632
 6914SOL    HW221642   6.338   5.223   6.578
 6915SOL     OW21643   0.565   5.787   1.074
 6915SOL    HW121644   0.628   5.848   1.122
 6915SOL    HW221645   0.471   5.809   1.098
 6916SOL     OW21646   6.256   0.504   6.017
 6916SOL    HW121647   6.295   0.527   5.928
 6916SOL    HW221648   6.325   0.515   6.088
 6917SOL     OW21649   4.850   0.157   6.564
 6917SOL    HW121650   4.804   0.156   6.653
 6917SOL    HW221651   4.798   0.215   6.501
 6918SOL     OW21652   2.193   2.909   3.834
 6918SOL    HW121653   2.153   2.823   3.804
 6918SOL    HW221654   2.222   2.963   3.755
 6919SOL     OW21655   1.117   6.278   3.548
 6919SOL    HW121656   1.118   6.346   3.621
 6919SOL    HW221657   1.149   6.190   3.583
 6920SOL     OW21658   5.644   5.850   4.600
 6920SOL    HW121659   5.585   5.869   4.522
 6920SOL    HW221660   5.600   5.785   4.661
 6921SOL     OW21661   1.286   5.953   3.846
 6921SOL    HW121662   1.249   5.900   3.922
 6921SOL    HW221663   1.211   5.983   3.787
 6922SOL     OW21664   1.660   6.684   0.730
 6922SOL    HW121665   1.617   6.758   0.677
 6922SOL    HW221666   1.682   6.717   0.821
 6923SOL     OW21667   4.960   6.089   4.056
 6923SOL    HW121668   4.994   5.996   4.070
 6923SOL    HW221669   4.933   6.101   3.960
 6924SOL     OW21670   6.576   6.114   1.767
 6924SOL    HW121671   6.584   6.024   1.809
 6924SOL    HW221672   6.651   6.128   1.703
 6925SOL     OW21673   5.626   5.294   2.639
 6925SOL    HW121674   5.587   5.335   2.722
 6925SOL    HW221675   5.717   5.257   2.660
 6926SOL     OW21676   2.719   4.196   5.481
 6926SOL    HW121677   2.629   4.186   5.438
 6926SOL    HW221678   2.727   4.287   5.521
 6927SOL     OW21679   4.324   3.476   0.919
 6927SOL    HW121680   4.255   3.418   0.962
 6927SOL    HW221681   4.366   3.534   0.987
 6928SOL     OW21682   6.833   0.330   6.440
 6928SOL    HW121683   6.788   0.407   6.486
 6928SOL    HW221684   6.802   0.244   6.482
 6929SOL     OW21685   3.046   5.038   1.314
 6929SOL    HW121686   3.020   5.047   1.411
 6929SOL    HW221687   3.132   5.088   1.299
 6930SOL     OW21688   0.855   0.249   3.363
 6930SOL    HW121689   0.885   0.243   3.458
 6930SOL    HW221690   0.803   0.168   3.338
 6931SOL     OW21691   2.181   0.031   0.215
 6931SOL    HW121692   2.174   6.983   0.284
 6931SOL    HW221693   2.100   0.030   0.157
 6932SOL     OW21694   2.285   2.406   0.405
 6932SOL    HW121695   2.334   2.353   0.474
 6932SOL    HW221696   2.249   2.490   0.446
 6933SOL     OW21697   2.649   5.632   5.360
 6933SOL    HW121698   2.662   5.644   5.458
 6933SOL    HW221699   2.553   5.642   5.337
 6934SOL     OW21700   5.455   5.143   6.460
 6934SOL    HW121701   5.537   5.087   6.474
 6934SOL    HW221702   5.481   5.239   6.456
 6935SOL     OW21703   4.483   5.851   3.044
 6935SOL    HW121704   4.514   5.868   2.950
 6935SOL    HW221705   4.552   5.798   3.093
 6936SOL     OW21706   0.918   4.403   0.805
 6936SOL    HW121707   0.822   4.432   0.796
 6936SOL    HW221708   0.942   4.342   0.729
 6937SOL     OW21709   4.476   6.668   5.509
 6937SOL    HW121710   4.539   6.597   5.477
 6937SOL    HW221711   4.522   6.756   5.506
 6938SOL     OW21712   5.487   2.432   4.925
 6938SOL    HW121713   5.543   2.464   4.849
 6938SOL    HW221714   5.391   2.434   4.899
 6939SOL     OW21715   6.817   4.776   2.105
 6939SOL    HW121716   6.754   4.843   2.143
 6939SOL    HW221717   6.860   4.814   2.023
 6940SOL     OW21718   4.312   0.143   4.675
 6940SOL    HW121719   4.373   0.150   4.596
 6940SOL    HW221720   4.365   0.123   4.757
 6941SOL     OW21721   4.104   3.521   4.706
 6941SOL    HW121722   4.126   3.424   4.707
 6941SOL    HW221723   4.123   3.559   4.616
 6942SOL     OW21724   6.274   1.643   6.853
 6942SOL    HW121725   6.364   1.617   6.818
 6942SOL    HW221726   6.246   1.578   6.925
 6943SOL     OW21727   6.067   5.642   6.939
 6943SOL    HW121728   6.051   5.707   7.013
 6943SOL    HW221729   5.986   5.584   6.927
 6944SOL     OW21730   1.266   6.404   0.261
 6944SOL    HW121731   1.298   6.365   0.175
 6944SOL    HW221732   1.242   6.331   0.325
 6945SOL     OW21733   4.879   2.083   5.834
 6945SOL    HW121734   4.798   2.082   5.775
 6945SOL    HW221735   4.914   1.990   5.845
 6946SOL     OW21736   6.189   3.532   3.539
 6946SOL    HW121737   6.201   3.462   3.468
 6946SOL    HW221738   6.212   3.494   3.628
 6947SOL     OW21739   3.864   0.165   1.639
 6947SOL    HW121740   3.823   0.205   1.556
 6947SOL    HW221741   3.921   0.087   1.614
 6948SOL     OW21742   3.913   2.457   5.356
 6948SOL    HW121743   3.909   2.533   5.421
 6948SOL    HW221744   4.004   2.454   5.315
 6949SOL     OW21745   4.761   1.096   2.682
 6949SOL    HW121746   4.725   1.168   2.741
 6949SOL    HW221747   4.773   1.132   2.589
 6950SOL     OW21748   3.054   1.574   3.745
 6950SOL    HW121749   3.135   1.514   3.749
 6950SOL    HW221750   3.062   1.644   3.816
 6951SOL     OW21751   4.927   5.054   5.283
 6951SOL    HW121752   4.832   5.050   5.254
 6951SOL    HW221753   4.955   4.965   5.317
 6952SOL     OW21754   0.028   4.520   5.138
 6952SOL    HW121755   0.099   4.536   5.069
 6952SOL    HW221756   0.012   4.422   5.148
 6953SOL     OW21757   5.230   2.495   4.913
 6953SOL    HW121758   5.182   2.407   4.918
 6953SOL    HW221759   5.246   2.519   4.818
 6954SOL     OW21760   0.259   4.442   1.818
 6954SOL    HW121761   0.310   4.393   1.889
 6954SOL    HW221762   0.279   4.540   1.824
 6955SOL     OW21763   6.905   6.798   2.900
 6955SOL    HW121764   6.906   6.779   2.802
 6955SOL    HW221765   6.876   6.893   2.915
 6956SOL     OW21766   2.431   4.324   1.245
 6956SOL    HW121767   2.362   4.346   1.175
 6956SOL    HW221768   2.505   4.392   1.241
 6957SOL     OW21769   1.093   4.221   6.489
 6957SOL    HW121770   1.000   4.203   6.521
 6957SOL    HW221771   1.095   4.305   6.435
 6958SOL     OW21772   2.480   3.268   6.032
 6958SOL    HW121773   2.404   3.204   6.044
 6958SOL    HW221774   2.444   3.360   6.015
 6959SOL     OW21775   3.882   1.099   4.080
 6959SOL    HW121776   3.870   1.026   4.013
 6959SOL    HW221777   3.823   1.176   4.056
 6960SOL     OW21778   0.506   4.904   0.018
 6960SOL    HW121779   0.594   4.871   0.052
 6960SOL    HW221780   0.514   4.931   6.945
 6961SOL     OW21781   6.587   1.379   3.243
 6961SOL    HW121782   6.671   1.343   3.203
 6961SOL    HW221783   6.526   1.303   3.267
 6962SOL     OW21784   3.905   3.390   1.008
 6962SOL    HW121785   3.851   3.460   1.053
 6962SOL    HW221786   3.992   3.378   1.056
 6963SOL     OW21787   6.039   6.244   2.388
 6963SOL    HW121788   5.996   6.334   2.382
 6963SOL    HW221789   6.012   6.199   2.473
 6964SOL     OW21790   3.826   5.773   5.419
 6964SOL    HW121791   3.795   5.820   5.336
 6964SOL    HW221792   3.854   5.840   5.487
 6965SOL     OW21793   6.343   1.860   5.614
 6965SOL    HW121794   6.337   1.781   5.554
 6965SOL    HW221795   6.431   1.860   5.661
 6966SOL     OW21796   5.296   2.504   4.145
 6966SOL    HW121797   5.326   2.410   4.161
 6966SOL    HW221798   5.245   2.508   4.058
 6967SOL     OW21799   2.670   2.519   5.996
 6967SOL    HW121800   2.637   2.471   5.915
 6967SOL    HW221801   2.714   2.605   5.969
 6968SOL     OW21802   4.357   6.957   4.314
 6968SOL    HW121803   4.257   6.953   4.323
 6968SOL    HW221804   4.388   6.883   4.254
 6969SOL     OW21805   3.070   2.763   1.017
 6969SOL    HW121806   2.991   2.703   1.027
 6969SOL    HW221807   3.107   2.754   0.924
 6970SOL     OW21808   4.266   4.173   0.840
 6970SOL    HW121809   4.354   4.219   0.849
 6970SOL    HW221810   4.193   4.237   0.866
 6971SOL     OW21811   5.845   0.827   2.224
 6971SOL    HW121812   5.757   0.780   2.225
 6971SOL    HW221813   5.893   0.806   2.138
 6972SOL     OW21814   5.552   5.019   4.694
 6972SOL    HW121815   5.475   5.081   4.676
 6972SOL    HW221816   5.621   5.031   4.623
 6973SOL     OW21817   1.587   4.261   2.828
 6973SOL    HW121818   1.498   4.305   2.816
 6973SOL    HW221819   1.658   4.316   2.783
 6974SOL     OW21820   3.509   4.070   5.307
 6974SOL    HW121821   3.422   4.111   5.282
 6974SOL    HW221822   3.514   4.059   5.407
 6975SOL     OW21823   3.223   0.087   6.563
 6975SOL    HW121824   3.210   7.013   6.584
 6975SOL    HW221825   3.220   0.101   6.464
 6976SOL     OW21826   1.043   6.613   0.620
 6976SOL    HW121827   0.966   6.553   0.599
 6976SOL    HW221828   1.025   6.704   0.584
 6977SOL     OW21829   4.816   2.729   2.316
 6977SOL    HW121830   4.756   2.683   2.382
 6977SOL    HW221831   4.767   2.740   2.229
 6978SOL     OW21832   4.189   1.799   3.011
 6978SOL    HW121833   4.122   1.849   3.065
 6978SOL    HW221834   4.250   1.863   2.964
 6979SOL     OW21835   0.633   4.575   3.760
 6979SOL    HW121836   0.587   4.515   3.825
 6979SOL    HW221837   0.708   4.622   3.807
 6980SOL     OW21838   4.344   1.073   4.586
 6980SOL    HW121839   4.312   1.076   4.681
 6980SOL    HW221840   4.436   1.034   4.583
 6981SOL     OW21841   2.943   3.972   0.195
 6981SOL    HW121842   2.990   3.913   0.261
 6981SOL    HW221843   2.844   3.962   0.206
 6982SOL     OW21844   0.545   0.072   5.189
 6982SOL    HW121845   0.498   0.006   5.130
 6982SOL    HW221846   0.589   0.024   5.265
 6983SOL     OW21847   6.826   0.745   2.693
 6983SOL    HW121848   6.843   0.822   2.631
 6983SOL    HW221849   6.756   0.770   2.759
 6984SOL     OW21850   1.859   1.556   5.748
 6984SOL    HW121851   1.827   1.463   5.730
 6984SOL    HW221852   1.950   1.553   5.788
 6985SOL     OW21853   5.397   7.007   4.093
 6985SOL    HW121854   5.458   6.991   4.170
 6985SOL    HW221855   5.432   0.059   4.038
 6986SOL     OW21856   1.710   6.808   4.849
 6986SOL    HW121857   1.762   6.751   4.784
 6986SOL    HW221858   1.635   6.853   4.801
 6987SOL     OW21859   6.524   3.529   6.527
 6987SOL    HW121860   6.597   3.581   6.484
 6987SOL    HW221861   6.503   3.568   6.616
 6988SOL     OW21862   5.526   1.495   5.933
 6988SOL    HW121863   5.543   1.460   5.841
 6988SOL    HW221864   5.459   1.437   5.979
 6989SOL     OW21865   2.246   3.049   3.599
 6989SOL    HW121866   2.205   3.003   3.520
 6989SOL    HW221867   2.234   3.148   3.590
 6990SOL     OW21868   4.300   3.154   0.918
 6990SOL    HW121869   4.232   3.218   0.882
 6990SOL    HW221870   4.259   3.099   0.990
 6991SOL     OW21871   4.187   4.432   5.637
 6991SOL    HW121872   4.119   4.408   5.706
 6991SOL    HW221873   4.142   4.446   5.549
 6992SOL     OW21874   6.404   6.810   4.690
 6992SOL    HW121875   6.311   6.784   4.662
 6992SOL    HW221876   6.399   6.885   4.757
 6993SOL     OW21877   0.296   6.686   3.877
 6993SOL    HW121878   0.381   6.635   3.888
 6993SOL    HW221879   0.303   6.774   3.925
 6994SOL     OW21880   1.359   2.727   0.346
 6994SOL    HW121881   1.316   2.805   0.300
 6994SOL    HW221882   1.356   2.647   0.285
 6995SOL     OW21883   1.198   5.242   4.008
 6995SOL    HW121884   1.105   5.246   3.971
 6995SOL    HW221885   1.197   5.187   4.092
 6996SOL     OW21886   1.984   7.016   6.444
 6996SOL    HW121887   1.900   6.963   6.433
 6996SOL    HW221888   1.984   0.069   6.380
 6997SOL     OW21889   4.790   5.564   4.054
 6997SOL    HW121890   4.888   5.567   4.075
 6997SOL    HW221891   4.752   5.477   4.086
 6998SOL     OW21892   2.486   1.830   3.381
 6998SOL    HW121893   2.578   1.849   3.347
 6998SOL    HW221894   2.485   1.742   3.428
 6999SOL     OW21895   5.363   2.134   6.920
 6999SOL    HW121896   5.336   2.118   7.015
 6999SOL    HW221897   5.282   2.152   6.865
 7000SOL     OW21898   6.659   0.400   1.529
 7000SOL    HW121899   6.591   0.453   1.478
 7000SOL    HW221900   6.747   0.447   1.524
 7001SOL     OW21901   2.817   1.764   6.125
 7001SOL    HW121902   2.776   1.744   6.214
 7001SOL    HW221903   2.908   1.802   6.139
 7002SOL     OW21904   2.027   4.535   2.100
 7002SOL    HW121905   2.037   4.436   2.106
 7002SOL    HW221906   2.053   4.577   2.187
 7003SOL     OW21907   1.378   6.087   5.986
 7003SOL    HW121908   1.418   6.161   5.932
 7003SOL    HW221909   1.279   6.092   5.981
 7004SOL     OW21910   1.637   3.819   6.501
 7004SOL    HW121911   1.590   3.733   6.483
 7004SOL    HW221912   1.585   3.872   6.568
 7005SOL     OW21913   6.462   6.898   6.134
 7005SOL    HW121914   6.410   6.844   6.200
 7005SOL    HW221915   6.536   6.945   6.182
 7006SOL     OW21916   4.418   4.790   3.795
 7006SOL    HW121917   4.383   4.717   3.854
 7006SOL    HW221918   4.404   4.765   3.699
 7007SOL     OW21919   4.780   5.064   2.619
 7007SOL    HW121920   4.845   5.107   2.556
 7007SOL    HW221921   4.825   5.042   2.705
 7008SOL     OW21922   0.960   4.930   4.554
 7008SOL    HW121923   0.961   4.906   4.457
 7008SOL    HW221924   0.969   4.848   4.610
 7009SOL     OW21925   0.394   4.121   2.607
 7009SOL    HW121926   0.493   4.110   2.594
 7009SOL    HW221927   0.365   4.066   2.685
 7010SOL     OW21928   5.041   4.810   6.468
 7010SOL    HW121929   5.018   4.767   6.556
 7010SOL    HW221930   5.133   4.782   6.440
 7011SOL     OW21931   1.025   0.965   5.299
 7011SOL    HW121932   1.117   0.991   5.270
 7011SOL    HW221933   1.031   0.905   5.379
 7012SOL     OW21934   1.358   1.538   1.582
 7012SOL    HW121935   1.276   1.549   1.639
 7012SOL    HW221936   1.369   1.619   1.524
 7013SOL     OW21937   6.774   1.779   1.346
 7013SOL    HW121938   6.732   1.693   1.373
 7013SOL    HW221939   6.874   1.770   1.351
 7014SOL     OW21940   2.131   5.157   0.545
 7014SOL    HW121941   2.180   5.074   0.573
 7014SOL    HW221942   2.195   5.221   0.503
 7015SOL     OW21943   4.950   1.852   2.433
 7015SOL    HW121944   4.954   1.878   2.530
 7015SOL    HW221945   5.042   1.853   2.394
 7016SOL     OW21946   4.138   4.510   1.460
 7016SOL    HW121947   4.132   4.510   1.560
 7016SOL    HW221948   4.046   4.512   1.420
 7017SOL     OW21949   4.772   2.003   4.757
 7017SOL    HW121950   4.713   1.986   4.678
 7017SOL    HW221951   4.833   1.925   4.770
 7018SOL     OW21952   0.894   3.323   3.083
 7018SOL    HW121953   0.796   3.326   3.104
 7018SOL    HW221954   0.932   3.235   3.112
 7019SOL     OW21955   0.954   5.639   1.310
 7019SOL    HW121956   0.947   5.662   1.213
 7019SOL    HW221957   0.984   5.720   1.361
 7020SOL     OW21958   6.747   6.439   6.752
 7020SOL    HW121959   6.846   6.446   6.734
 7020SOL    HW221960   6.722   6.343   6.761
 7021SOL     OW21961   3.947   0.073   6.086
 7021SOL    HW121962   3.870   0.029   6.132
 7021SOL    HW221963   4.011   0.003   6.055
 7022SOL     OW21964   4.294   5.482   6.211
 7022SOL    HW121965   4.210   5.478   6.156
 7022SOL    HW221966   4.269   5.491   6.307
 7023SOL     OW21967   5.502   4.044   2.279
 7023SOL    HW121968   5.602   4.045   2.288
 7023SOL    HW221969   5.461   4.010   2.364
 7024SOL     OW21970   6.499   6.310   1.337
 7024SOL    HW121971   6.576   6.336   1.279
 7024SOL    HW221972   6.413   6.332   1.291
 7025SOL     OW21973   2.316   0.550   6.953
 7025SOL    HW121974   2.253   0.621   6.922
 7025SOL    HW221975   2.274   0.460   6.938
 7026SOL     OW21976   3.630   1.498   1.368
 7026SOL    HW121977   3.545   1.461   1.405
 7026SOL    HW221978   3.667   1.567   1.431
 7027SOL     OW21979   5.202   5.558   3.726
 7027SOL    HW121980   5.292   5.579   3.687
 7027SOL    HW221981   5.213   5.501   3.807
 7028SOL     OW21982   3.065   0.402   4.600
 7028SOL    HW121983   3.159   0.375   4.618
 7028SOL    HW221984   3.063   0.495   4.564
 7029SOL     OW21985   4.720   1.588   4.889
 7029SOL    HW121986   4.682   1.677   4.913
 7029SOL    HW221987   4.676   1.555   4.805
 7030SOL     OW21988   1.949   2.916   3.952
 7030SOL    HW121989   1.923   3.013   3.955
 7030SOL    HW221990   2.048   2.908   3.955
 7031SOL     OW21991   1.492   1.291   4.671
 7031SOL    HW121992   1.533   1.220   4.728
 7031SOL    HW221993   1.514   1.274   4.575
 7032SOL     OW21994   5.898   2.258   3.781
 7032SOL    HW121995   5.899   2.308   3.694
 7032SOL    HW221996   5.991   2.247   3.814
 7033SOL     OW21997   0.405   0.150   4.694
 7033SOL    HW121998   0.381   0.066   4.743
 7033SOL    HW221999   0.453   0.212   4.757
 7034SOL     OW22000   0.344   5.193   3.017
 7034SOL    HW122001   0.351   5.285   3.053
 7034SOL    HW222002   0.319   5.130   3.090
 7035SOL     OW22003   6.286   4.812   2.380
 7035SOL    HW122004   6.216   4.743   2.358
 7035SOL    HW222005   6.376   4.772   2.367
 7036SOL     OW22006   6.340   4.438   0.935
 7036SOL    HW122007   6.317   4.519   0.988
 7036SOL    HW222008   6.431   4.406   0.962
 7037SOL     OW22009   1.194   0.778   6.497
 7037SOL    HW122010   1.103   0.760   6.460
 7037SOL    HW222011   1.219   0.873   6.481
 7038SOL     OW22012   2.193   3.269   4.170
 7038SOL    HW122013   2.094   3.285   4.170
 7038SOL    HW222014   2.230   3.289   4.260
 7039SOL     OW22015   3.634   2.722   6.889
 7039SOL    HW122016   3.574   2.777   6.831
 7039SOL    HW222017   3.729   2.751   6.875
 7040SOL     OW22018   5.285   2.985   6.922
 7040SOL    HW122019   5.324   2.942   7.003
 7040SOL    HW222020   5.282   2.920   6.847
 7041SOL     OW22021   2.112   1.122   3.296
 7041SOL    HW122022   2.085   1.162   3.208
 7041SOL    HW222023   2.110   1.022   3.290
 7042SOL     OW22024   1.337   0.555   6.072
 7042SOL    HW122025   1.247   0.516   6.053
 7042SOL    HW222026   1.352   0.635   6.015
 7043SOL     OW22027   1.547   1.810   2.423
 7043SOL    HW122028   1.626   1.852   2.468
 7043SOL    HW222029   1.476   1.878   2.408
 7044SOL     OW22030   6.182   6.378   1.890
 7044SOL    HW122031   6.111   6.314   1.918
 7044SOL    HW222032   6.141   6.468   1.873
 7045SOL     OW22033   6.677   4.794   0.020
 7045SOL    HW122034   6.584   4.814   0.049
 7045SOL    HW222035   6.712   4.871   6.989
 7046SOL     OW22036   2.952   1.257   3.971
 7046SOL    HW122037   3.021   1.200   3.927
 7046SOL    HW222038   2.979   1.276   4.065
 7047SOL     OW22039   1.288   0.275   2.675
 7047SOL    HW122040   1.344   0.321   2.606
 7047SOL    HW222041   1.210   0.231   2.630
 7048SOL     OW22042   6.881   5.363   0.518
 7048SOL    HW122043   6.810   5.433   0.509
 7048SOL    HW222044   6.839   5.272   0.512
 7049SOL     OW22045   2.109   1.042   6.497
 7049SOL    HW122046   2.037   1.032   6.429
 7049SOL    HW222047   2.196   1.062   6.451
 7050SOL     OW22048   3.806   3.759   4.679
 7050SOL    HW122049   3.825   3.672   4.724
 7050SOL    HW222050   3.748   3.743   4.599
 7051SOL     OW22051   6.637   6.357   3.387
 7051SOL    HW122052   6.540   6.361   3.363
 7051SOL    HW222053   6.658   6.268   3.427
 7052SOL     OW22054   0.017   0.947   4.659
 7052SOL    HW122055   7.002   0.911   4.744
 7052SOL    HW222056   6.993   0.905   4.581
 7053SOL     OW22057   6.555   4.668   6.105
 7053SOL    HW122058   6.525   4.731   6.033
 7053SOL    HW222059   6.579   4.720   6.187
 7054SOL     OW22060   6.268   1.675   1.288
 7054SOL    HW122061   6.367   1.689   1.291
 7054SOL    HW222062   6.222   1.762   1.300
 7055SOL     OW22063   4.582   1.438   4.211
 7055SOL    HW122064   4.518   1.419   4.286
 7055SOL    HW222065   4.540   1.502   4.147
 7056SOL     OW22066   4.095   5.208   3.662
 7056SOL    HW122067   4.032   5.272   3.706
 7056SOL    HW222068   4.170   5.186   3.724
 7057SOL     OW22069   6.019   5.764   2.573
 7057SOL    HW122070   6.117   5.746   2.566
 7057SOL    HW222071   6.001   5.829   2.646
 7058SOL     OW22072   0.090   4.613   4.504
 7058SOL    HW122073   0.164   4.677   4.485
 7058SOL    HW222074   0.086   4.594   4.602
 7059SOL     OW22075   2.188   0.687   2.484
 7059SOL    HW122076   2.184   0.590   2.507
 7059SOL    HW222077   2.107   0.713   2.432
 7060SOL     OW22078   2.979   6.782   0.877
 7060SOL    HW122079   3.060   6.819   0.831
 7060SOL    HW222080   3.002   6.758   0.971
 7061SOL     OW22081   0.234   0.955   2.874
 7061SOL    HW122082   0.228   1.043   2.921
 7061SOL    HW222083   0.319   0.910   2.899
 7062SOL     OW22084   0.210   1.108   5.333
 7062SOL    HW122085   0.125   1.072   5.294
 7062SOL    HW222086   0.202   1.207   5.346
 7063SOL     OW22087   2.261   6.913   2.185
 7063SOL    HW122088   2.351   6.907   2.142
 7063SOL    HW222089   2.246   6.833   2.242
 7064SOL     OW22090   4.181   2.763   0.607
 7064SOL    HW122091   4.121   2.836   0.573
 7064SOL    HW222092   4.127   2.681   0.623
 7065SOL     OW22093   3.757   3.242   2.267
 7065SOL    HW122094   3.787   3.308   2.198
 7065SOL    HW222095   3.809   3.158   2.257
 7066SOL     OW22096   2.536   5.475   0.972
 7066SOL    HW122097   2.525   5.491   0.874
 7066SOL    HW222098   2.510   5.381   0.993
 7067SOL     OW22099   0.193   3.657   4.127
 7067SOL    HW122100   0.134   3.660   4.046
 7067SOL    HW222101   0.250   3.575   4.123
 7068SOL     OW22102   1.151   6.909   3.126
 7068SOL    HW122103   1.151   6.910   3.026
 7068SOL    HW222104   1.057   6.920   3.159
 7069SOL     OW22105   1.037   4.586   5.282
 7069SOL    HW122106   1.008   4.679   5.262
 7069SOL    HW222107   1.083   4.585   5.371
 7070SOL     OW22108   5.451   5.224   3.530
 7070SOL    HW122109   5.512   5.252   3.604
 7070SOL    HW222110   5.361   5.202   3.568
 7071SOL     OW22111   1.420   0.168   5.102
 7071SOL    HW122112   1.504   0.150   5.153
 7071SOL    HW222113   1.358   0.090   5.112
 7072SOL     OW22114   0.668   6.752   6.784
 7072SOL    HW122115   0.593   6.719   6.727
 7072SOL    HW222116   0.655   6.722   6.878
 7073SOL     OW22117   1.648   1.742   6.275
 7073SOL    HW122118   1.669   1.727   6.178
 7073SOL    HW222119   1.589   1.668   6.307
 7074SOL     OW22120   2.947   1.634   0.289
 7074SOL    HW122121   2.869   1.583   0.326
 7074SOL    HW222122   3.017   1.569   0.258
 7075SOL     OW22123   0.739   5.450   2.121
 7075SOL    HW122124   0.783   5.430   2.033
 7075SOL    HW222125   0.790   5.404   2.194
 7076SOL     OW22126   3.715   1.776   6.378
 7076SOL    HW122127   3.642   1.844   6.381
 7076SOL    HW222128   3.675   1.684   6.381
 7077SOL     OW22129   1.795   4.740   6.279
 7077SOL    HW122130   1.826   4.645   6.285
 7077SOL    HW222131   1.848   4.788   6.210
 7078SOL     OW22132   6.506   0.625   2.556
 7078SOL    HW122133   6.508   0.679   2.472
 7078SOL    HW222134   6.466   0.679   2.630
 7079SOL     OW22135   5.473   5.992   5.482
 7079SOL    HW122136   5.525   6.070   5.517
 7079SOL    HW222137   5.536   5.927   5.439
 7080SOL     OW22138   6.013   0.071   4.137
 7080SOL    HW122139   5.958   0.093   4.217
 7080SOL    HW222140   6.079   0.144   4.121
 7081SOL     OW22141   4.878   0.805   5.312
 7081SOL    HW122142   4.794   0.858   5.326
 7081SOL    HW222143   4.941   0.856   5.254
 7082SOL     OW22144   5.757   1.338   6.559
 7082SOL    HW122145   5.791   1.274   6.628
 7082SOL    HW222146   5.765   1.431   6.594
 7083SOL     OW22147   3.067   0.493   5.960
 7083SOL    HW122148   3.134   0.505   5.887
 7083SOL    HW222149   3.018   0.407   5.947
 7084SOL     OW22150   6.411   5.953   0.288
 7084SOL    HW122151   6.391   6.000   0.374
 7084SOL    HW222152   6.391   5.855   0.298
 7085SOL     OW22153   3.440   1.369   0.802
 7085SOL    HW122154   3.492   1.402   0.880
 7085SOL    HW222155   3.406   1.446   0.749
 7086SOL     OW22156   1.026   1.543   5.921
 7086SOL    HW122157   0.973   1.464   5.951
 7086SOL    HW222158   0.976   1.591   5.848
 7087SOL     OW22159   2.220   2.769   4.915
 7087SOL    HW122160   2.250   2.843   4.975
 7087SOL    HW222161   2.137   2.797   4.866
 7088SOL     OW22162   0.618   2.072   5.470
 7088SOL    HW122163   0.536   2.126   5.486
 7088SOL    HW222164   0.657   2.042   5.557
 7089SOL     OW22165   2.904   1.880   1.572
 7089SOL    HW122166   2.858   1.969   1.577
 7089SOL    HW222167   3.002   1.893   1.588
 7090SOL     OW22168   2.415   2.394   4.626
 7090SOL    HW122169   2.336   2.454   4.625
 7090SOL    HW222170   2.474   2.417   4.704
 7091SOL     OW22171   6.956   6.652   0.924
 7091SOL    HW122172   6.929   6.584   0.993
 7091SOL    HW222173   6.874   6.683   0.876
 7092SOL     OW22174   2.736   2.588   0.420
 7092SOL    HW122175   2.805   2.659   0.435
 7092SOL    HW222176   2.646   2.630   0.408
 7093SOL     OW22177   4.564   3.410   5.725
 7093SOL    HW122178   4.472   3.403   5.765
 7093SOL    HW222179   4.631   3.415   5.799
 7094SOL     OW22180   6.650   0.749   6.364
 7094SOL    HW122181   6.682   0.662   6.402
 7094SOL    HW222182   6.718   0.820   6.379
 7095SOL     OW22183   0.497   4.230   6.674
 7095SOL    HW122184   0.510   4.152   6.613
 7095SOL    HW222185   0.482   4.313   6.620
 7096SOL     OW22186   5.097   0.417   2.817
 7096SOL    HW122187   5.050   0.335   2.787
 7096SOL    HW222188   5.173   0.437   2.755
 7097SOL     OW22189   1.708   0.933   1.741
 7097SOL    HW122190   1.644   0.886   1.681
 7097SOL    HW222191   1.765   0.995   1.687
 7098SOL     OW22192   1.171   0.226   5.998
 7098SOL    HW122193   1.132   0.306   5.953
 7098SOL    HW222194   1.129   0.216   6.088
 7099SOL     OW22195   0.341   0.898   5.445
 7099SOL    HW122196   0.296   0.960   5.381
 7099SOL    HW222197   0.380   0.950   5.521
 7100SOL     OW22198   5.808   2.151   1.145
 7100SOL    HW122199   5.735   2.097   1.187
 7100SOL    HW222200   5.808   2.135   1.046
 7101SOL     OW22201   1.372   0.740   4.295
 7101SOL    HW122202   1.432   0.698   4.363
 7101SOL    HW222203   1.280   0.703   4.303
 7102SOL     OW22204   5.082   3.072   0.887
 7102SOL    HW122205   5.143   3.015   0.942
 7102SOL    HW222206   5.000   3.020   0.863
 7103SOL     OW22207   2.906   0.265   5.907
 7103SOL    HW122208   2.848   0.243   5.985
 7103SOL    HW222209   2.851   0.264   5.823
 7104SOL     OW22210   0.283   2.175   1.567
 7104SOL    HW122211   0.267   2.182   1.468
 7104SOL    HW222212   0.203   2.132   1.610
 7105SOL     OW22213   1.987   3.821   5.419
 7105SOL    HW122214   2.076   3.822   5.464
 7105SOL    HW222215   1.982   3.742   5.357
 7106SOL     OW22216   3.331   2.448   5.368
 7106SOL    HW122217   3.374   2.359   5.386
 7106SOL    HW222218   3.276   2.443   5.285
 7107SOL     OW22219   2.070   1.021   0.196
 7107SOL    HW122220   2.020   0.957   0.253
 7107SOL    HW222221   2.137   0.971   0.140
 7108SOL     OW22222   4.258   6.652   2.210
 7108SOL    HW122223   4.293   6.722   2.148
 7108SOL    HW222224   4.159   6.641   2.195
 7109SOL     OW22225   3.592   6.269   6.134
 7109SOL    HW122226   3.512   6.235   6.085
 7109SOL    HW222227   3.592   6.234   6.227
 7110SOL     OW22228   3.203   4.918   3.285
 7110SOL    HW122229   3.299   4.915   3.315
 7110SOL    HW222230   3.200   4.905   3.185
 7111SOL     OW22231   1.679   2.424   3.572
 7111SOL    HW122232   1.776   2.419   3.551
 7111SOL    HW222233   1.649   2.519   3.566
 7112SOL     OW22234   1.783   6.384   2.227
 7112SOL    HW122235   1.820   6.302   2.270
 7112SOL    HW222236   1.684   6.387   2.239
 7113SOL     OW22237   3.951   3.742   5.173
 7113SOL    HW122238   4.049   3.729   5.190
 7113SOL    HW222239   3.930   3.839   5.174
 7114SOL     OW22240   4.008   6.691   0.699
 7114SOL    HW122241   3.911   6.671   0.683
 7114SOL    HW222242   4.064   6.619   0.660
 7115SOL     OW22243   4.145   1.260   1.453
 7115SOL    HW122244   4.117   1.337   1.397
 7115SOL    HW222245   4.163   1.292   1.547
 7116SOL     OW22246   6.091   3.449   2.753
 7116SOL    HW122247   6.072   3.393   2.834
 7116SOL    HW222248   6.038   3.414   2.676
 7117SOL     OW22249   6.119   6.734   2.477
 7117SOL    HW122250   6.098   6.656   2.536
 7117SOL    HW222251   6.212   6.767   2.498
 7118SOL     OW22252   6.801   3.097   2.502
 7118SOL    HW122253   6.804   3.007   2.458
 7118SOL    HW222254   6.781   3.086   2.599
 7119SOL     OW22255   1.164   2.034   2.870
 7119SOL    HW122256   1.261   2.015   2.879
 7119SOL    HW222257   1.151   2.125   2.830
 7120SOL     OW22258   4.942   6.279   3.393
 7120SOL    HW122259   5.002   6.206   3.424
 7120SOL    HW222260   4.982   6.368   3.418
 7121SOL     OW22261   3.070   6.899   1.632
 7121SOL    HW122262   3.034   6.819   1.582
 7121SOL    HW222263   3.071   6.879   1.730
 7122SOL     OW22264   6.511   6.906   0.220
 7122SOL    HW122265   6.599   6.869   0.193
 7122SOL    HW222266   6.514   6.934   0.316
 7123SOL     OW22267   2.244   5.321   0.377
 7123SOL    HW122268   2.273   5.278   0.291
 7123SOL    HW222269   2.150   5.353   0.368
 7124SOL     OW22270   0.438   5.836   0.655
 7124SOL    HW122271   0.373   5.841   0.579
 7124SOL    HW222272   0.405   5.892   0.731
 7125SOL     OW22273   0.099   6.742   3.056
 7125SOL    HW122274   0.134   6.649   3.045
 7125SOL    HW222275   0.028   6.760   2.988
 7126SOL     OW22276   1.559   4.569   0.731
 7126SOL    HW122277   1.650   4.581   0.692
 7126SOL    HW222278   1.490   4.586   0.661
 7127SOL     OW22279   2.841   0.269   4.476
 7127SOL    HW122280   2.778   0.332   4.431
 7127SOL    HW222281   2.924   0.318   4.505
 7128SOL     OW22282   3.337   4.121   1.793
 7128SOL    HW122283   3.247   4.164   1.786
 7128SOL    HW222284   3.326   4.022   1.802
 7129SOL     OW22285   2.613   2.085   1.448
 7129SOL    HW122286   2.664   2.165   1.414
 7129SOL    HW222287   2.609   2.089   1.548
 7130SOL     OW22288   2.872   0.074   2.415
 7130SOL    HW122289   2.894   7.004   2.444
 7130SOL    HW222290   2.800   0.071   2.345
 7131SOL     OW22291   2.927   1.500   3.500
 7131SOL    HW122292   2.997   1.519   3.568
 7131SOL    HW222293   2.968   1.498   3.409
 7132SOL     OW22294   3.367   3.842   2.818
 7132SOL    HW122295   3.300   3.774   2.849
 7132SOL    HW222296   3.331   3.889   2.737
 7133SOL     OW22297   5.812   4.168   1.877
 7133SOL    HW122298   5.869   4.103   1.928
 7133SOL    HW222299   5.716   4.142   1.886
 7134SOL     OW22300   5.458   4.705   2.889
 7134SOL    HW122301   5.395   4.736   2.817
 7134SOL    HW222302   5.437   4.610   2.912
 7135SOL     OW22303   0.929   2.329   5.754
 7135SOL    HW122304   0.945   2.396   5.682
 7135SOL    HW222305   1.012   2.275   5.768
 7136SOL     OW22306   2.417   1.926   7.021
 7136SOL    HW122307   2.372   1.891   6.938
 7136SOL    HW222308   2.510   1.889   0.003
 7137SOL     OW22309   4.177   1.611   5.138
 7137SOL    HW122310   4.228   1.690   5.103
 7137SOL    HW222311   4.143   1.556   5.061
 7138SOL     OW22312   2.135   3.409   6.483
 7138SOL    HW122313   2.133   3.431   6.385
 7138SOL    HW222314   2.202   3.467   6.529
 7139SOL     OW22315   2.907   1.770   6.997
 7139SOL    HW122316   2.979   1.819   0.022
 7139SOL    HW222317   2.866   1.702   0.036
 7140SOL     OW22318   6.975   4.242   5.175
 7140SOL    HW122319   6.984   4.222   5.077
 7140SOL    HW222320   6.882   4.218   5.205
 7141SOL     OW22321   1.303   6.943   2.263
 7141SOL    HW122322   1.312   6.934   2.164
 7141SOL    HW222323   1.393   6.964   2.302
 7142SOL     OW22324   3.706   6.506   4.087
 7142SOL    HW122325   3.742   6.440   4.021
 7142SOL    HW222326   3.617   6.476   4.119
 7143SOL     OW22327   2.468   2.009   3.901
 7143SOL    HW122328   2.368   2.004   3.899
 7143SOL    HW222329   2.499   2.089   3.850
 7144SOL     OW22330   1.405   3.224   3.675
 7144SOL    HW122331   1.313   3.189   3.696
 7144SOL    HW222332   1.397   3.310   3.625
 7145SOL     OW22333   4.360   6.474   6.163
 7145SOL    HW122334   4.267   6.457   6.196
 7145SOL    HW222335   4.381   6.571   6.171
 7146SOL     OW22336   2.796   5.302   1.740
 7146SOL    HW122337   2.771   5.228   1.801
 7146SOL    HW222338   2.731   5.305   1.663
 7147SOL     OW22339   0.579   1.051   3.353
 7147SOL    HW122340   0.618   1.131   3.308
 7147SOL    HW222341   0.547   1.077   3.445
 7148SOL     OW22342   0.244   1.296   0.410
 7148SOL    HW122343   0.233   1.364   0.483
 7148SOL    HW222344   0.165   1.235   0.410
 7149SOL     OW22345   6.955   0.693   4.353
 7149SOL    HW122346   0.004   0.700   4.423
 7149SOL    HW222347   6.984   0.629   4.282
 7150SOL     OW22348   6.424   4.101   6.836
 7150SOL    HW122349   6.367   4.033   6.881
 7150SOL    HW222350   6.378   4.190   6.837
 7151SOL     OW22351   2.175   6.476   1.195
 7151SOL    HW122352   2.250   6.507   1.137
 7151SOL    HW222353   2.202   6.392   1.242
 7152SOL     OW22354   1.057   2.661   3.733
 7152SOL    HW122355   1.103   2.633   3.649
 7152SOL    HW222356   1.003   2.584   3.768
 7153SOL     OW22357   3.322   1.949   3.435
 7153SOL    HW122358   3.247   1.883   3.437
 7153SOL    HW222359   3.369   1.943   3.347
 7154SOL     OW22360   4.201   6.122   4.768
 7154SOL    HW122361   4.258   6.199   4.738
 7154SOL    HW222362   4.228   6.039   4.720
 7155SOL     OW22363   2.352   0.906   3.019
 7155SOL    HW122364   2.324   0.821   3.063
 7155SOL    HW222365   2.272   0.954   2.985
 7156SOL     OW22366   1.269   5.365   4.814
 7156SOL    HW122367   1.247   5.432   4.884
 7156SOL    HW222368   1.202   5.290   4.817
 7157SOL     OW22369   5.163   4.193   0.960
 7157SOL    HW122370   5.153   4.265   0.890
 7157SOL    HW222371   5.116   4.221   1.043
 7158SOL     OW22372   4.989   6.923   4.352
 7158SOL    HW122373   5.040   6.975   4.284
 7158SOL    HW222374   4.892   6.921   4.327
 7159SOL     OW22375   1.010   5.289   0.255
 7159SOL    HW122376   0.926   5.343   0.248
 7159SOL    HW222377   0.988   5.196   0.282
 7160SOL     OW22378   6.457   1.298   1.929
 7160SOL    HW122379   6.451   1.232   1.854
 7160SOL    HW222380   6.487   1.252   2.012
 7161SOL     OW22381   3.192   4.057   4.078
 7161SOL    HW122382   3.115   3.995   4.065
 7161SOL    HW222383   3.196   4.087   4.173
 7162SOL     OW22384   3.355   4.928   3.946
 7162SOL    HW122385   3.363   4.941   3.848
 7162SOL    HW222386   3.260   4.940   3.974
 7163SOL     OW22387   1.597   6.258   2.972
 7163SOL    HW122388   1.519   6.308   3.009
 7163SOL    HW222389   1.667   6.322   2.941
 7164SOL     OW22390   2.509   1.927   4.159
 7164SOL    HW122391   2.504   1.963   4.066
 7164SOL    HW222392   2.482   1.831   4.159
 7165SOL     OW22393   5.292   6.420   2.629
 7165SOL    HW122394   5.339   6.507   2.641
 7165SOL    HW222395   5.253   6.416   2.537
 7166SOL     OW22396   4.810   5.582   2.350
 7166SOL    HW122397   4.743   5.523   2.305
 7166SOL    HW222398   4.777   5.677   2.349
 7167SOL     OW22399   5.339   3.256   5.647
 7167SOL    HW122400   5.297   3.342   5.675
 7167SOL    HW222401   5.268   3.186   5.638
 7168SOL     OW22402   0.755   1.623   4.279
 7168SOL    HW122403   0.748   1.723   4.281
 7168SOL    HW222404   0.711   1.585   4.361
 7169SOL     OW22405   2.085   2.358   6.713
 7169SOL    HW122406   2.058   2.426   6.782
 7169SOL    HW222407   2.122   2.277   6.758
 7170SOL     OW22408   5.925   5.057   3.783
 7170SOL    HW122409   5.826   5.051   3.785
 7170SOL    HW222410   5.955   5.081   3.690
 7171SOL     OW22411   4.234   3.127   5.958
 7171SOL    HW122412   4.304   3.055   5.954
 7171SOL    HW222413   4.251   3.194   5.886
 7172SOL     OW22414   0.451   0.704   1.670
 7172SOL    HW122415   0.358   0.691   1.704
 7172SOL    HW222416   0.512   0.634   1.709
 7173SOL     OW22417   5.932   6.394   5.384
 7173SOL    HW122418   5.998   6.320   5.373
 7173SOL    HW222419   5.874   6.400   5.302
 7174SOL     OW22420   0.805   6.096   6.153
 7174SOL    HW122421   0.773   6.090   6.248
 7174SOL    HW222422   0.803   6.005   6.111
 7175SOL     OW22423   6.096   3.338   5.523
 7175SOL    HW122424   6.179   3.361   5.474
 7175SOL    HW222425   6.117   3.321   5.619
 7176SOL     OW22426   0.027   3.322   1.289
 7176SOL    HW122427   0.053   3.379   1.367
 7176SOL    HW222428   0.105   3.311   1.228
 7177SOL     OW22429   1.050   5.265   2.155
 7177SOL    HW122430   1.126   5.319   2.189
 7177SOL    HW222431   1.007   5.312   2.077
 7178SOL     OW22432   7.003   1.824   6.025
 7178SOL    HW122433   0.065   1.822   5.972
 7178SOL    HW222434   6.985   1.733   6.063
 7179SOL     OW22435   1.913   4.456   6.285
 7179SOL    HW122436   2.003   4.414   6.280
 7179SOL    HW222437   1.884   4.485   6.194
 7180SOL     OW22438   0.251   0.028   2.970
 7180SOL    HW122439   0.290   6.959   2.963
 7180SOL    HW222440   0.194   0.046   2.891
 7181SOL     OW22441   5.718   6.210   2.897
 7181SOL    HW122442   5.707   6.188   2.800
 7181SOL    HW222443   5.676   6.298   2.916
 7182SOL     OW22444   3.835   3.619   5.997
 7182SOL    HW122445   3.931   3.646   5.991
 7182SOL    HW222446   3.824   3.526   5.963
 7183SOL     OW22447   1.798   3.925   3.783
 7183SOL    HW122448   1.894   3.900   3.798
 7183SOL    HW222449   1.792   3.982   3.701
 7184SOL     OW22450   2.638   5.661   2.911
 7184SOL    HW122451   2.650   5.564   2.931
 7184SOL    HW222452   2.615   5.710   2.996
 7185SOL     OW22453   4.338   3.158   6.989
 7185SOL    HW122454   4.424   3.107   6.986
 7185SOL    HW222455   4.262   3.094   7.002
 7186SOL     OW22456   0.271   0.160   4.249
 7186SOL    HW122457   0.307   0.217   4.323
 7186SOL    HW222458   0.339   0.092   4.222
 7187SOL     OW22459   1.543   4.803   1.231
 7187SOL    HW122460   1.518   4.774   1.323
 7187SOL    HW222461   1.570   4.723   1.177
 7188SOL     OW22462   5.153   0.199   1.676
 7188SOL    HW122463   5.156   0.270   1.606
 7188SOL    HW222464   5.098   0.232   1.754
 7189SOL     OW22465   6.889   0.607   5.083
 7189SOL    HW122466   6.854   0.544   5.014
 7189SOL    HW222467   6.833   0.599   5.166
 7190SOL     OW22468   4.489   4.916   2.837
 7190SOL    HW122469   4.482   4.816   2.832
 7190SOL    HW222470   4.441   4.949   2.919
 7191SOL     OW22471   0.998   2.924   1.280
 7191SOL    HW122472   0.959   3.000   1.332
 7191SOL    HW222473   1.083   2.954   1.236
 7192SOL     OW22474   3.646   4.981   6.793
 7192SOL    HW122475   3.726   5.008   6.846
 7192SOL    HW222476   3.665   4.895   6.745
 7193SOL     OW22477   5.342   1.704   3.889
 7193SOL    HW122478   5.435   1.706   3.927
 7193SOL    HW222479   5.330   1.782   3.827
 7194SOL     OW22480   3.182   1.772   1.255
 7194SOL    HW122481   3.253   1.703   1.238
 7194SOL    HW222482   3.224   1.852   1.299
 7195SOL     OW22483   0.402   6.124   1.650
 7195SOL    HW122484   0.426   6.218   1.626
 7195SOL    HW222485   0.323   6.123   1.711
 7196SOL     OW22486   3.637   2.966   1.535
 7196SOL    HW122487   3.584   2.971   1.450
 7196SOL    HW222488   3.634   3.055   1.581
 7197SOL     OW22489   1.026   1.514   3.725
 7197SOL    HW122490   1.054   1.445   3.792
 7197SOL    HW222491   1.059   1.488   3.634
 7198SOL     OW22492   0.100   6.469   6.069
 7198SOL    HW122493   0.095   6.370   6.072
 7198SOL    HW222494   0.030   6.505   6.008
 7199SOL     OW22495   5.592   6.884   3.288
 7199SOL    HW122496   5.582   6.786   3.277
 7199SOL    HW222497   5.609   6.927   3.199
 7200SOL     OW22498   2.224   1.937   2.131
 7200SOL    HW122499   2.169   1.973   2.056
 7200SOL    HW222500   2.321   1.940   2.105
 7201SOL     OW22501   2.585   4.845   2.809
 7201SOL    HW122502   2.501   4.822   2.859
 7201SOL    HW222503   2.563   4.910   2.736
 7202SOL     OW22504   3.471   0.045   5.544
 7202SOL    HW122505   3.384   0.026   5.590
 7202SOL    HW222506   3.524   6.983   5.538
 7203SOL     OW22507   6.156   0.178   6.779
 7203SOL    HW122508   6.060   0.204   6.778
 7203SOL    HW222509   6.170   0.106   6.847
 7204SOL     OW22510   6.006   1.308   2.964
 7204SOL    HW122511   6.064   1.289   2.885
 7204SOL    HW222512   5.954   1.392   2.948
 7205SOL     OW22513   1.322   4.372   1.849
 7205SOL    HW122514   1.251   4.332   1.791
 7205SOL    HW222515   1.327   4.470   1.834
 7206SOL     OW22516   5.629   1.903   1.589
 7206SOL    HW122517   5.642   1.979   1.653
 7206SOL    HW222518   5.540   1.912   1.544
 7207SOL     OW22519   3.978   6.604   2.068
 7207SOL    HW122520   4.010   6.607   1.974
 7207SOL    HW222521   3.880   6.625   2.071
 7208SOL     OW22522   2.901   0.477   5.053
 7208SOL    HW122523   2.928   0.572   5.065
 7208SOL    HW222524   2.833   0.451   5.122
 7209SOL     OW22525   2.987   3.197   4.333
 7209SOL    HW122526   2.953   3.105   4.350
 7209SOL    HW222527   3.086   3.193   4.316
 7210SOL     OW22528   4.857   0.137   4.109
 7210SOL    HW122529   4.957   0.138   4.098
 7210SOL    HW222530   4.821   0.050   4.075
 7211SOL     OW22531   0.854   5.184   2.607
 7211SOL    HW122532   0.850   5.227   2.697
 7211SOL    HW222533   0.866   5.085   2.618
 7212SOL     OW22534   4.870   0.016   3.362
 7212SOL    HW122535   4.922   0.049   3.283
 7212SOL    HW222536   4.849   0.093   3.422
 7213SOL     OW22537   5.433   6.684   5.069
 7213SOL    HW122538   5.496   6.658   4.996
 7213SOL    HW222539   5.414   6.604   5.126
 7214SOL     OW22540   0.427   5.109   5.496
 7214SOL    HW122541   0.524   5.115   5.473
 7214SOL    HW222542   0.395   5.015   5.480
 7215SOL     OW22543   1.116   3.044   2.188
 7215SOL    HW122544   1.113   3.055   2.089
 7215SOL    HW222545   1.060   2.966   2.215
 7216SOL     OW22546   2.872   1.414   2.149
 7216SOL    HW122547   2.816   1.484   2.194
 7216SOL    HW222548   2.829   1.325   2.162
 7217SOL     OW22549   0.657   3.061   1.970
 7217SOL    HW122550   0.636   3.144   2.021
 7217SOL    HW222551   0.574   3.006   1.959
 7218SOL     OW22552   6.241   2.561   5.599
 7218SOL    HW122553   6.306   2.566   5.522
 7218SOL    HW222554   6.150   2.540   5.564
 7219SOL     OW22555   3.356   0.934   1.123
 7219SOL    HW122556   3.364   0.991   1.204
 7219SOL    HW222557   3.354   0.992   1.041
 7220SOL     OW22558   6.753   0.820   3.225
 7220SOL    HW122559   6.845   0.854   3.203
 7220SOL    HW222560   6.725   0.753   3.157
 7221SOL     OW22561   5.965   4.510   5.415
 7221SOL    HW122562   5.895   4.439   5.416
 7221SOL    HW222563   6.055   4.468   5.427
 7222SOL     OW22564   6.681   6.781   3.577
 7222SOL    HW122565   6.585   6.768   3.552
 7222SOL    HW222566   6.737   6.714   3.529
 7223SOL     OW22567   4.857   0.970   5.050
 7223SOL    HW122568   4.937   1.015   5.089
 7223SOL    HW222569   4.845   1.000   4.955
 7224SOL     OW22570   5.654   0.813   3.835
 7224SOL    HW122571   5.622   0.824   3.741
 7224SOL    HW222572   5.700   0.725   3.845
 7225SOL     OW22573   2.598   0.654   1.456
 7225SOL    HW122574   2.626   0.719   1.527
 7225SOL    HW222575   2.645   0.674   1.371
 7226SOL     OW22576   5.685   6.395   5.766
 7226SOL    HW122577   5.772   6.442   5.771
 7226SOL    HW222578   5.618   6.442   5.824
 7227SOL     OW22579   6.668   2.434   5.719
 7227SOL    HW122580   6.696   2.339   5.733
 7227SOL    HW222581   6.712   2.492   5.788
 7228SOL     OW22582   2.752   0.374   3.062
 7228SOL    HW122583   2.663   0.331   3.068
 7228SOL    HW222584   2.769   0.404   2.968
 7229SOL     OW22585   6.768   0.027   3.597
 7229SOL    HW122586   6.864   7.023   3.600
 7229SOL    HW222587   6.712   6.971   3.572
 7230SOL     OW22588   6.196   5.581   1.498
 7230SOL    HW122589   6.261   5.579   1.574
 7230SOL    HW222590   6.231   5.639   1.425
 7231SOL     OW22591   5.988   0.705   6.962
 7231SOL    HW122592   6.006   0.625   6.904
 7231SOL    HW222593   6.072   0.758   6.972
 7232SOL     OW22594   3.590   3.909   1.102
 7232SOL    HW122595   3.665   3.905   1.168
 7232SOL    HW222596   3.613   3.973   1.029
 7233SOL     OW22597   0.535   2.251   5.261
 7233SOL    HW122598   0.588   2.305   5.196
 7233SOL    HW222599   0.594   2.182   5.303
 7234SOL     OW22600   5.010   1.991   2.916
 7234SOL    HW122601   4.995   2.090   2.924
 7234SOL    HW222602   4.941   1.943   2.971
 7235SOL     OW22603   6.054   2.731   4.566
 7235SOL    HW122604   6.060   2.830   4.572
 7235SOL    HW222605   6.025   2.694   4.655
 7236SOL     OW22606   1.951   1.204   3.091
 7236SOL    HW122607   1.915   1.252   3.011
 7236SOL    HW222608   1.881   1.141   3.125
 7237SOL     OW22609   5.609   5.181   4.938
 7237SOL    HW122610   5.596   5.098   4.883
 7237SOL    HW222611   5.599   5.261   4.879
 7238SOL     OW22612   1.548   0.749   1.587
 7238SOL    HW122613   1.549   0.659   1.544
 7238SOL    HW222614   1.555   0.820   1.517
 7239SOL     OW22615   3.983   1.039   1.640
 7239SOL    HW122616   4.047   1.022   1.715
 7239SOL    HW222617   4.033   1.032   1.553
 7240SOL     OW22618   3.018   3.068   2.264
 7240SOL    HW122619   3.022   3.021   2.176
 7240SOL    HW222620   2.977   3.009   2.333
 7241SOL     OW22621   4.917   0.028   4.589
 7241SOL    HW122622   4.955   7.007   4.507
 7241SOL    HW222623   4.972   0.004   4.669
 7242SOL     OW22624   6.208   5.082   1.025
 7242SOL    HW122625   6.120   5.079   1.073
 7242SOL    HW222626   6.241   5.176   1.021
 7243SOL     OW22627   0.368   5.571   0.473
 7243SOL    HW122628   0.300   5.550   0.543
 7243SOL    HW222629   0.428   5.643   0.506
 7244SOL     OW22630   4.947   1.610   1.111
 7244SOL    HW122631   5.010   1.533   1.106
 7244SOL    HW222632   4.901   1.621   1.023
 7245SOL     OW22633   5.984   2.127   4.131
 7245SOL    HW122634   5.999   2.165   4.223
 7245SOL    HW222635   5.934   2.194   4.075
 7246SOL     OW22636   1.238   5.704   5.371
 7246SOL    HW122637   1.140   5.706   5.352
 7246SOL    HW222638   1.257   5.754   5.456
 7247SOL     OW22639   3.764   5.604   4.269
 7247SOL    HW122640   3.732   5.688   4.311
 7247SOL    HW222641   3.817   5.626   4.187
 7248SOL     OW22642   3.530   0.832   4.167
 7248SOL    HW122643   3.549   0.915   4.113
 7248SOL    HW222644   3.521   0.857   4.263
 7249SOL     OW22645   5.213   3.517   5.630
 7249SOL    HW122646   5.255   3.550   5.714
 7249SOL    HW222647   5.120   3.485   5.650
 7250SOL     OW22648   2.769   3.534   6.645
 7250SOL    HW122649   2.807   3.516   6.736
 7250SOL    HW222650   2.673   3.503   6.642
 7251SOL     OW22651   5.494   1.012   5.366
 7251SOL    HW122652   5.471   0.971   5.278
 7251SOL    HW222653   5.420   0.996   5.431
 7252SOL     OW22654   4.456   3.559   5.343
 7252SOL    HW122655   4.368   3.601   5.322
 7252SOL    HW222656   4.515   3.563   5.263
 7253SOL     OW22657   5.283   4.793   1.207
 7253SOL    HW122658   5.246   4.761   1.294
 7253SOL    HW222659   5.294   4.892   1.210
 7254SOL     OW22660   5.758   6.339   4.832
 7254SOL    HW122661   5.701   6.351   4.751
 7254SOL    HW222662   5.707   6.370   4.913
 7255SOL     OW22663   4.116   3.215   2.733
 7255SOL    HW122664   4.132   3.251   2.641
 7255SOL    HW222665   4.173   3.134   2.748
 7256SOL     OW22666   3.432   5.521   3.930
 7256SOL    HW122667   3.360   5.462   3.891
 7256SOL    HW222668   3.448   5.494   4.025
 7257SOL     OW22669   6.384   4.371   2.474
 7257SOL    HW122670   6.343   4.459   2.450
 7257SOL    HW222671   6.483   4.382   2.481
 7258SOL     OW22672   2.784   0.251   5.668
 7258SOL    HW122673   2.750   0.324   5.608
 7258SOL    HW222674   2.790   0.166   5.617
 7259SOL     OW22675   3.231   4.982   6.368
 7259SOL    HW122676   3.227   4.882   6.380
 7259SOL    HW222677   3.201   5.026   6.452
 7260SOL     OW22678   4.175   1.977   2.723
 7260SOL    HW122679   4.127   2.055   2.762
 7260SOL    HW222680   4.123   1.893   2.741
 7261SOL     OW22681   1.578   4.893   0.768
 7261SOL    HW122682   1.608   4.841   0.688
 7261SOL    HW222683   1.540   4.831   0.837
 7262SOL     OW22684   6.285   0.954   4.847
 7262SOL    HW122685   6.306   1.043   4.806
 7262SOL    HW222686   6.345   0.938   4.925
 7263SOL     OW22687   4.827   6.275   1.674
 7263SOL    HW122688   4.863   6.200   1.618
 7263SOL    HW222689   4.744   6.245   1.720
 7264SOL     OW22690   0.856   6.576   4.515
 7264SOL    HW122691   0.821   6.516   4.587
 7264SOL    HW222692   0.938   6.536   4.475
 7265SOL     OW22693   4.582   3.577   6.437
 7265SOL    HW122694   4.511   3.592   6.369
 7265SOL    HW222695   4.631   3.662   6.454
 7266SOL     OW22696   3.973   1.512   2.157
 7266SOL    HW122697   3.994   1.430   2.210
 7266SOL    HW222698   4.015   1.505   2.066
 7267SOL     OW22699   5.430   2.764   4.331
 7267SOL    HW122700   5.408   2.716   4.415
 7267SOL    HW222701   5.496   2.710   4.278
 7268SOL     OW22702   3.949   0.571   0.495
 7268SOL    HW122703   3.879   0.504   0.519
 7268SOL    HW222704   4.024   0.565   0.560
 7269SOL     OW22705   1.495   0.462   1.855
 7269SOL    HW122706   1.412   0.519   1.852
 7269SOL    HW222707   1.575   0.519   1.833
 7270SOL     OW22708   3.382   2.068   2.354
 7270SOL    HW122709   3.365   1.970   2.342
 7270SOL    HW222710   3.479   2.082   2.377
 7271SOL     OW22711   6.010   5.423   3.757
 7271SOL    HW122712   5.926   5.477   3.753
 7271SOL    HW222713   6.042   5.403   3.665
 7272SOL     OW22714   6.513   2.350   0.747
 7272SOL    HW122715   6.563   2.436   0.744
 7272SOL    HW222716   6.541   2.292   0.670
 7273SOL     OW22717   5.416   5.398   5.511
 7273SOL    HW122718   5.427   5.479   5.570
 7273SOL    HW222719   5.450   5.317   5.560
 7274SOL     OW22720   5.640   4.486   4.511
 7274SOL    HW122721   5.553   4.508   4.554
 7274SOL    HW222722   5.636   4.509   4.414
 7275SOL     OW22723   5.642   6.306   1.512
 7275SOL    HW122724   5.566   6.267   1.566
 7275SOL    HW222725   5.726   6.301   1.566
 7276SOL     OW22726   3.300   2.142   3.826
 7276SOL    HW122727   3.324   2.138   3.923
 7276SOL    HW222728   3.213   2.191   3.816
 7277SOL     OW22729   6.289   1.800   4.019
 7277SOL    HW122730   6.243   1.868   3.961
 7277SOL    HW222731   6.387   1.802   4.001
 7278SOL     OW22732   3.650   2.141   3.998
 7278SOL    HW122733   3.736   2.192   4.003
 7278SOL    HW222734   3.661   2.053   4.045
 7279SOL     OW22735   4.137   3.379   1.146
 7279SOL    HW122736   4.080   3.327   1.210
 7279SOL    HW222737   4.223   3.404   1.192
 7280SOL     OW22738   6.897   1.908   5.128
 7280SOL    HW122739   6.920   1.895   5.031
 7280SOL    HW222740   6.806   1.948   5.135
 7281SOL     OW22741   3.248   6.008   2.993
 7281SOL    HW122742   3.204   6.095   3.015
 7281SOL    HW222743   3.290   6.014   2.902
 7282SOL     OW22744   0.121   2.958   1.224
 7282SOL    HW122745   0.195   3.025   1.211
 7282SOL    HW222746   0.050   2.997   1.282
 7283SOL     OW22747   3.379   5.719   2.698
 7283SOL    HW122748   3.302   5.657   2.714
 7283SOL    HW222749   3.448   5.705   2.769
 7284SOL     OW22750   0.428   0.493   2.725
 7284SOL    HW122751   0.332   0.495   2.754
 7284SOL    HW222752   0.483   0.547   2.789
 7285SOL     OW22753   5.092   2.769   1.843
 7285SOL    HW122754   4.994   2.786   1.850
 7285SOL    HW222755   5.119   2.703   1.913
 7286SOL     OW22756   6.084   1.580   3.997
 7286SOL    HW122757   6.164   1.639   4.011
 7286SOL    HW222758   6.005   1.637   3.972
 7287SOL     OW22759   3.515   1.434   4.404
 7287SOL    HW122760   3.441   1.491   4.438
 7287SOL    HW222761   3.508   1.425   4.305
 7288SOL     OW22762   3.123   1.704   1.898
 7288SOL    HW122763   3.109   1.793   1.942
 7288SOL    HW222764   3.194   1.712   1.828
 7289SOL     OW22765   6.280   2.484   1.925
 7289SOL    HW122766   6.211   2.417   1.953
 7289SOL    HW222767   6.305   2.468   1.829
 7290SOL     OW22768   3.736   1.971   4.657
 7290SOL    HW122769   3.744   1.873   4.670
 7290SOL    HW222770   3.650   2.004   4.695
 7291SOL     OW22771   1.106   1.114   0.518
 7291SOL    HW122772   1.143   1.056   0.590
 7291SOL    HW222773   1.097   1.208   0.551
 7292SOL     OW22774   3.619   0.955   2.677
 7292SOL    HW122775   3.590   0.962   2.773
 7292SOL    HW222776   3.707   1.002   2.666
 7293SOL     OW22777   6.315   1.039   4.458
 7293SOL    HW122778   6.412   1.016   4.474
 7293SOL    HW222779   6.295   1.128   4.498
 7294SOL     OW22780   3.827   0.349   2.966
 7294SOL    HW122781   3.745   0.314   3.011
 7294SOL    HW222782   3.908   0.313   3.013
 7295SOL     OW22783   5.261   3.968   1.492
 7295SOL    HW122784   5.310   3.884   1.470
 7295SOL    HW222785   5.186   3.948   1.555
 7296SOL     OW22786   3.493   6.116   2.083
 7296SOL    HW122787   3.537   6.071   2.006
 7296SOL    HW222788   3.550   6.107   2.164
 7297SOL     OW22789   3.977   6.965   0.597
 7297SOL    HW122790   4.043   6.911   0.649
 7297SOL    HW222791   3.889   6.965   0.643
 7298SOL     OW22792   4.007   5.094   1.262
 7298SOL    HW122793   3.943   5.054   1.196
 7298SOL    HW222794   3.961   5.165   1.314
 7299SOL     OW22795   0.736   3.268   6.536
 7299SOL    HW122796   0.769   3.353   6.493
 7299SOL    HW222797   0.650   3.241   6.493
 7300SOL     OW22798   0.772   3.571   1.464
 7300SOL    HW122799   0.747   3.648   1.523
 7300SOL    HW222800   0.823   3.503   1.517
 7301SOL     OW22801   4.130   2.001   0.237
 7301SOL    HW122802   4.199   2.004   0.164
 7301SOL    HW222803   4.163   1.944   0.312
 7302SOL     OW22804   5.539   2.057   6.205
 7302SOL    HW122805   5.517   2.016   6.293
 7302SOL    HW222806   5.501   2.149   6.201
 7303SOL     OW22807   2.862   2.196   1.585
 7303SOL    HW122808   2.902   2.247   1.509
 7303SOL    HW222809   2.788   2.249   1.626
 7304SOL     OW22810   2.302   0.056   0.571
 7304SOL    HW122811   2.276   7.013   0.500
 7304SOL    HW222812   2.356   0.010   0.641
 7305SOL     OW22813   6.027   0.274   6.312
 7305SOL    HW122814   6.022   0.224   6.399
 7305SOL    HW222815   6.029   0.373   6.331
 7306SOL     OW22816   1.498   3.246   1.378
 7306SOL    HW122817   1.453   3.334   1.367
 7306SOL    HW222818   1.436   3.173   1.350
 7307SOL     OW22819   3.517   6.748   1.709
 7307SOL    HW122820   3.450   6.675   1.717
 7307SOL    HW222821   3.576   6.730   1.630
 7308SOL     OW22822   3.900   1.311   3.025
 7308SOL    HW122823   3.892   1.308   2.925
 7308SOL    HW222824   3.896   1.406   3.055
 7309SOL     OW22825   2.275   5.028   3.840
 7309SOL    HW122826   2.258   4.929   3.839
 7309SOL    HW222827   2.324   5.053   3.924
 7310SOL     OW22828   2.795   3.134   0.078
 7310SOL    HW122829   2.802   3.058   0.014
 7310SOL    HW222830   2.725   3.198   0.047
 7311SOL     OW22831   0.543   6.751   6.024
 7311SOL    HW122832   0.507   6.657   6.026
 7311SOL    HW222833   0.467   6.816   6.020
 7312SOL     OW22834   6.201   2.070   4.677
 7312SOL    HW122835   6.115   2.019   4.684
 7312SOL    HW222836   6.274   2.009   4.647
 7313SOL     OW22837   3.097   0.864   2.557
 7313SOL    HW122838   3.068   0.770   2.537
 7313SOL    HW222839   3.032   0.906   2.620
 7314SOL     OW22840   2.175   5.487   5.244
 7314SOL    HW122841   2.080   5.502   5.271
 7314SOL    HW222842   2.183   5.398   5.199
 7315SOL     OW22843   3.093   5.539   2.966
 7315SOL    HW122844   3.111   5.637   2.970
 7315SOL    HW222845   3.179   5.489   2.980
 7316SOL     OW22846   3.710   1.009   1.694
 7316SOL    HW122847   3.809   1.001   1.681
 7316SOL    HW222848   3.691   1.030   1.790
 7317SOL     OW22849   5.744   2.073   0.901
 7317SOL    HW122850   5.700   2.088   0.813
 7317SOL    HW222851   5.760   1.975   0.914
 7318SOL     OW22852   5.292   6.402   1.271
 7318SOL    HW122853   5.328   6.472   1.209
 7318SOL    HW222854   5.211   6.438   1.318
 7319SOL     OW22855   4.987   5.798   6.663
 7319SOL    HW122856   5.070   5.823   6.713
 7319SOL    HW222857   4.908   5.839   6.708
 7320SOL     OW22858   0.916   3.389   0.123
 7320SOL    HW122859   0.909   3.338   0.209
 7320SOL    HW222860   0.995   3.357   0.071
 7321SOL     OW22861   2.210   2.416   5.598
 7321SOL    HW122862   2.261   2.404   5.513
 7321SOL    HW222863   2.241   2.349   5.665
 7322SOL     OW22864   1.680   1.825   4.205
 7322SOL    HW122865   1.713   1.900   4.261
 7322SOL    HW222866   1.624   1.763   4.261
 7323SOL     OW22867   1.691   2.053   0.914
 7323SOL    HW122868   1.620   2.067   0.845
 7323SOL    HW222869   1.652   2.068   1.005
 7324SOL     OW22870   4.931   3.778   4.595
 7324SOL    HW122871   4.917   3.680   4.582
 7324SOL    HW222872   4.917   3.800   4.692
 7325SOL     OW22873   4.070   1.520   6.270
 7325SOL    HW122874   4.051   1.440   6.213
 7325SOL    HW222875   4.003   1.525   6.344
 7326SOL     OW22876   3.776   6.603   0.593
 7326SOL    HW122877   3.706   6.532   0.594
 7326SOL    HW222878   3.811   6.616   0.500
 7327SOL     OW22879   1.472   4.563   3.278
 7327SOL    HW122880   1.470   4.514   3.191
 7327SOL    HW222881   1.548   4.629   3.277
 7328SOL     OW22882   4.882   5.232   6.208
 7328SOL    HW122883   4.946   5.267   6.276
 7328SOL    HW222884   4.888   5.287   6.125
 7329SOL     OW22885   2.696   3.547   0.978
 7329SOL    HW122886   2.765   3.579   0.912
 7329SOL    HW222887   2.624   3.616   0.986
 7330SOL     OW22888   3.031   3.317   0.842
 7330SOL    HW122889   2.969   3.270   0.780
 7330SOL    HW222890   3.005   3.297   0.937
 7331SOL     OW22891   5.313   1.471   2.131
 7331SOL    HW122892   5.259   1.553   2.150
 7331SOL    HW222893   5.373   1.488   2.053
 7332SOL     OW22894   2.706   6.722   5.348
 7332SOL    HW122895   2.658   6.794   5.299
 7332SOL    HW222896   2.642   6.647   5.368
 7333SOL     OW22897   5.843   0.894   0.731
 7333SOL    HW122898   5.767   0.892   0.796
 7333SOL    HW222899   5.879   0.987   0.724
 7334SOL     OW22900   1.312   4.407   4.870
 7334SOL    HW122901   1.315   4.359   4.958
 7334SOL    HW222902   1.257   4.355   4.805
 7335SOL     OW22903   0.690   3.210   2.740
 7335SOL    HW122904   0.723   3.237   2.650
 7335SOL    HW222905   0.657   3.115   2.737
 7336SOL     OW22906   2.752   0.338   0.736
 7336SOL    HW122907   2.757   0.422   0.789
 7336SOL    HW222908   2.753   0.259   0.798
 7337SOL     OW22909   3.420   0.952   3.553
 7337SOL    HW122910   3.482   1.027   3.530
 7337SOL    HW222911   3.325   0.981   3.538
 7338SOL     OW22912   5.118   3.889   1.217
 7338SOL    HW122913   5.170   3.967   1.254
 7338SOL    HW222914   5.039   3.923   1.166
 7339SOL     OW22915   0.147   6.671   4.377
 7339SOL    HW122916   0.191   6.626   4.299
 7339SOL    HW222917   0.079   6.609   4.417
 7340SOL     OW22918   2.365   6.049   0.022
 7340SOL    HW122919   2.348   6.141   7.010
 7340SOL    HW222920   2.352   6.049   0.122
 7341SOL     OW22921   6.294   5.248   3.585
 7341SOL    HW122922   6.229   5.323   3.594
 7341SOL    HW222923   6.377   5.281   3.541
 7342SOL     OW22924   0.501   5.339   0.393
 7342SOL    HW122925   0.453   5.423   0.416
 7342SOL    HW222926   0.507   5.280   0.474
 7343SOL     OW22927   6.914   2.573   3.197
 7343SOL    HW122928   6.975   2.565   3.119
 7343SOL    HW222929   6.889   2.482   3.230
 7344SOL     OW22930   2.495   1.013   6.641
 7344SOL    HW122931   2.533   0.926   6.610
 7344SOL    HW222932   2.516   1.085   6.575
 7345SOL     OW22933   1.973   6.844   6.655
 7345SOL    HW122934   1.898   6.779   6.636
 7345SOL    HW222935   1.992   6.897   6.572
 7346SOL     OW22936   3.586   4.982   3.174
 7346SOL    HW122937   3.497   5.015   3.204
 7346SOL    HW222938   3.644   5.061   3.151
 7347SOL     OW22939   6.434   3.047   2.752
 7347SOL    HW122940   6.445   3.130   2.697
 7347SOL    HW222941   6.372   2.984   2.705
 7348SOL     OW22942   6.446   1.150   5.851
 7348SOL    HW122943   6.472   1.224   5.789
 7348SOL    HW222944   6.478   1.171   5.943
 7349SOL     OW22945   3.533   1.657   1.187
 7349SOL    HW122946   3.505   1.747   1.221
 7349SOL    HW222947   3.568   1.602   1.263
 7350SOL     OW22948   2.545   1.002   3.216
 7350SOL    HW122949   2.627   0.954   3.185
 7350SOL    HW222950   2.467   0.978   3.158
 7351SOL     OW22951   4.511   4.569   0.722
 7351SOL    HW122952   4.512   4.508   0.642
 7351SOL    HW222953   4.601   4.612   0.732
 7352SOL     OW22954   6.799   0.691   3.521
 7352SOL    HW122955   6.746   0.769   3.487
 7352SOL    HW222956   6.818   0.705   3.619
 7353SOL     OW22957   5.596   1.451   5.640
 7353SOL    HW122958   5.616   1.523   5.573
 7353SOL    HW222959   5.600   1.362   5.596
 7354SOL     OW22960   5.951   4.497   5.114
 7354SOL    HW122961   5.944   4.573   5.178
 7354SOL    HW222962   5.902   4.418   5.150
 7355SOL     OW22963   6.924   6.007   1.217
 7355SOL    HW122964   6.927   5.930   1.153
 7355SOL    HW222965   6.871   6.082   1.178
 7356SOL     OW22966   0.164   2.158   5.866
 7356SOL    HW122967   0.086   2.208   5.830
 7356SOL    HW222968   0.249   2.198   5.830
 7357SOL     OW22969   1.066   1.396   0.575
 7357SOL    HW122970   0.968   1.404   0.593
 7357SOL    HW222971   1.091   1.457   0.500
 7358SOL     OW22972   3.717   0.729   3.688
 7358SOL    HW122973   3.638   0.785   3.715
 7358SOL    HW222974   3.718   0.720   3.588
 7359SOL     OW22975   3.031   3.116   3.825
 7359SOL    HW122976   3.009   3.189   3.891
 7359SOL    HW222977   2.964   3.042   3.834
 7360SOL     OW22978   0.847   4.067   6.514
 7360SOL    HW122979   0.881   3.982   6.555
 7360SOL    HW222980   0.749   4.060   6.499
 7361SOL     OW22981   4.505   6.475   1.510
 7361SOL    HW122982   4.543   6.437   1.426
 7361SOL    HW222983   4.565   6.547   1.545
 7362SOL     OW22984   1.623   6.148   6.486
 7362SOL    HW122985   1.591   6.207   6.560
 7362SOL    HW222986   1.543   6.109   6.439
 7363SOL     OW22987   4.370   2.605   6.403
 7363SOL    HW122988   4.445   2.614   6.336
 7363SOL    HW222989   4.283   2.596   6.354
 7364SOL     OW22990   4.740   0.234   1.032
 7364SOL    HW122991   4.750   0.200   0.938
 7364SOL    HW222992   4.710   0.159   1.091
 7365SOL     OW22993   4.676   0.040   1.212
 7365SOL    HW122994   4.748   7.009   1.255
 7365SOL    HW222995   4.638   0.104   1.279
 7366SOL     OW22996   1.487   0.102   0.456
 7366SOL    HW122997   1.454   0.038   0.386
 7366SOL    HW222998   1.413   0.165   0.481
 7367SOL     OW22999   4.638   2.938   7.012
 7367SOL    HW123000   4.662   2.955   0.085
 7367SOL    HW223001   4.667   2.846   6.986
 7368SOL     OW23002   3.198   2.937   4.669
 7368SOL    HW123003   3.123   2.884   4.710
 7368SOL    HW223004   3.209   3.023   4.718
 7369SOL     OW23005   6.151   0.785   6.110
 7369SOL    HW123006   6.071   0.843   6.095
 7369SOL    HW223007   6.209   0.787   6.028
 7370SOL     OW23008   0.842   5.885   0.819
 7370SOL    HW123009   0.823   5.968   0.872
 7370SOL    HW223010   0.798   5.890   0.730
 7371SOL     OW23011   1.316   4.892   4.752
 7371SOL    HW123012   1.380   4.954   4.799
 7371SOL    HW223013   1.288   4.819   4.815
 7372SOL     OW23014   2.908   0.782   5.206
 7372SOL    HW123015   2.842   0.818   5.271
 7372SOL    HW223016   3.000   0.794   5.243
 7373SOL     OW23017   3.816   0.553   1.278
 7373SOL    HW123018   3.774   0.525   1.192
 7373SOL    HW223019   3.791   0.648   1.297
 7374SOL     OW23020   2.499   3.494   6.456
 7374SOL    HW123021   2.493   3.419   6.390
 7374SOL    HW223022   2.512   3.456   6.548
 7375SOL     OW23023   3.081   6.445   3.254
 7375SOL    HW123024   3.121   6.377   3.316
 7375SOL    HW223025   2.990   6.469   3.286
 7376SOL     OW23026   3.177   3.796   6.546
 7376SOL    HW123027   3.213   3.807   6.453
 7376SOL    HW223028   3.175   3.699   6.569
 7377SOL     OW23029   6.208   5.938   1.775
 7377SOL    HW123030   6.232   5.937   1.678
 7377SOL    HW223031   6.112   5.965   1.785
 7378SOL     OW23032   0.432   2.516   5.353
 7378SOL    HW123033   0.507   2.451   5.363
 7378SOL    HW223034   0.347   2.474   5.387
 7379SOL     OW23035   4.336   0.646   0.529
 7379SOL    HW123036   4.422   0.682   0.495
 7379SOL    HW223037   4.340   0.640   0.629
 7380SOL     OW23038   6.709   2.961   6.339
 7380SOL    HW123039   6.628   2.985   6.393
 7380SOL    HW223040   6.772   2.907   6.395
 7381SOL     OW23041   4.982   2.079   0.436
 7381SOL    HW123042   4.964   2.149   0.505
 7381SOL    HW223043   4.998   2.123   0.348
 7382SOL     OW23044   1.320   5.154   3.784
 7382SOL    HW123045   1.287   5.200   3.867
 7382SOL    HW223046   1.373   5.218   3.729
 7383SOL     OW23047   1.609   4.669   3.019
 7383SOL    HW123048   1.637   4.672   3.115
 7383SOL    HW223049   1.509   4.665   3.013
 7384SOL     OW23050   6.578   2.036   0.574
 7384SOL    HW123051   6.485   2.016   0.544
 7384SOL    HW223052   6.610   2.119   0.529
 7385SOL     OW23053   4.919   0.735   2.153
 7385SOL    HW123054   4.987   0.805   2.128
 7385SOL    HW223055   4.959   0.672   2.220
 7386SOL     OW23056   6.871   1.762   5.773
 7386SOL    HW123057   6.938   1.760   5.699
 7386SOL    HW223058   6.915   1.733   5.858
 7387SOL     OW23059   5.104   6.376   3.761
 7387SOL    HW123060   5.191   6.424   3.746
 7387SOL    HW223061   5.117   6.278   3.745
 7388SOL     OW23062   5.293   3.913   5.090
 7388SOL    HW123063   5.294   3.821   5.053
 7388SOL    HW223064   5.345   3.974   5.030
 7389SOL     OW23065   0.637   3.230   4.909
 7389SOL    HW123066   0.735   3.220   4.890
 7389SOL    HW223067   0.615   3.327   4.920
 7390SOL     OW23068   3.864   0.578   6.354
 7390SOL    HW123069   3.830   0.509   6.290
 7390SOL    HW223070   3.833   0.668   6.324
 7391SOL     OW23071   0.250   4.836   0.036
 7391SOL    HW123072   0.242   4.738   0.018
 7391SOL    HW223073   0.345   4.864   0.026
 7392SOL     OW23074   2.059   4.800   2.206
 7392SOL    HW123075   2.088   4.896   2.215
 7392SOL    HW223076   2.134   4.740   2.232
 7393SOL     OW23077   0.896   3.915   6.896
 7393SOL    HW123078   0.972   3.976   6.918
 7393SOL    HW223079   0.926   3.820   6.902
 7394SOL     OW23080   2.726   2.814   5.921
 7394SOL    HW123081   2.720   2.890   5.985
 7394SOL    HW223082   2.652   2.821   5.853
 7395SOL     OW23083   2.464   0.554   0.152
 7395SOL    HW123084   2.498   0.460   0.159
 7395SOL    HW223085   2.415   0.566   0.065
 7396SOL     OW23086   6.747   6.745   1.721
 7396SOL    HW123087   6.654   6.733   1.756
 7396SOL    HW223088   6.759   6.839   1.690
 7397SOL     OW23089   6.411   4.002   4.236
 7397SOL    HW123090   6.499   4.010   4.283
 7397SOL    HW223091   6.375   3.910   4.248
 7398SOL     OW23092   4.618   6.544   3.050
 7398SOL    HW123093   4.709   6.506   3.068
 7398SOL    HW223094   4.623   6.644   3.055
 7399SOL     OW23095   5.391   4.506   4.631
 7399SOL    HW123096   5.370   4.409   4.646
 7399SOL    HW223097   5.397   4.552   4.720
 7400SOL     OW23098   2.777   4.258   0.464
 7400SOL    HW123099   2.844   4.198   0.422
 7400SOL    HW223100   2.801   4.274   0.560
 7401SOL     OW23101   5.849   2.360   4.939
 7401SOL    HW123102   5.812   2.317   5.021
 7401SOL    HW223103   5.847   2.460   4.951
 7402SOL     OW23104   2.413   6.015   4.270
 7402SOL    HW123105   2.390   5.934   4.324
 7402SOL    HW223106   2.341   6.084   4.282
 7403SOL     OW23107   2.529   2.840   1.613
 7403SOL    HW123108   2.582   2.895   1.548
 7403SOL    HW223109   2.453   2.895   1.648
 7404SOL     OW23110   1.059   1.784   2.750
 7404SOL    HW123111   1.096   1.875   2.769
 7404SOL    HW223112   1.065   1.764   2.653
 7405SOL     OW23113   4.146   4.697   6.230
 7405SOL    HW123114   4.200   4.766   6.279
 7405SOL    HW223115   4.207   4.639   6.176
 7406SOL     OW23116   0.447   6.713   2.588
 7406SOL    HW123117   0.388   6.667   2.654
 7406SOL    HW223118   0.532   6.660   2.577
 7407SOL     OW23119   2.584   0.743   6.122
 7407SOL    HW123120   2.518   0.670   6.138
 7407SOL    HW223121   2.651   0.714   6.054
 7408SOL     OW23122   0.947   3.734   5.292
 7408SOL    HW123123   0.936   3.796   5.214
 7408SOL    HW223124   0.989   3.784   5.368
 7409SOL     OW23125   2.562   6.887   5.145
 7409SOL    HW123126   2.620   6.969   5.139
 7409SOL    HW223127   2.483   6.907   5.202
 7410SOL     OW23128   4.421   5.711   6.106
 7410SOL    HW123129   4.433   5.692   6.008
 7410SOL    HW223130   4.387   5.629   6.152
 7411SOL     OW23131   5.247   4.523   5.861
 7411SOL    HW123132   5.223   4.444   5.805
 7411SOL    HW223133   5.300   4.588   5.807
 7412SOL     OW23134   1.643   1.345   6.535
 7412SOL    HW123135   1.733   1.351   6.492
 7412SOL    HW223136   1.580   1.408   6.490
 7413SOL     OW23137   0.073   3.697   3.835
 7413SOL    HW123138   0.146   3.765   3.843
 7413SOL    HW223139   0.028   3.706   3.747
 7414SOL     OW23140   0.403   4.816   1.485
 7414SOL    HW123141   0.384   4.782   1.393
 7414SOL    HW223142   0.464   4.752   1.532
 7415SOL     OW23143   3.108   1.777   3.521
 7415SOL    HW123144   3.143   1.742   3.609
 7415SOL    HW223145   3.126   1.709   3.450
 7416SOL     OW23146   6.634   0.103   3.129
 7416SOL    HW123147   6.702   0.086   3.057
 7416SOL    HW223148   6.606   0.016   3.170
 7417SOL     OW23149   0.470   4.837   0.879
 7417SOL    HW123150   0.374   4.837   0.852
 7417SOL    HW223151   0.501   4.742   0.892
 7418SOL     OW23152   0.967   3.659   0.010
 7418SOL    HW123153   1.035   3.695   0.074
 7418SOL    HW223154   0.933   3.571   0.043
 7419SOL     OW23155   6.147   2.280   5.320
 7419SOL    HW123156   6.133   2.226   5.236
 7419SOL    HW223157   6.064   2.331   5.341
 7420SOL     OW23158   6.772   5.594   2.573
 7420SOL    HW123159   6.690   5.558   2.618
 7420SOL    HW223160   6.757   5.599   2.474
 7421SOL     OW23161   4.333   1.742   1.611
 7421SOL    HW123162   4.260   1.735   1.544
 7421SOL    HW223163   4.296   1.776   1.698
 7422SOL     OW23164   0.719   1.358   0.393
 7422SOL    HW123165   0.740   1.430   0.327
 7422SOL    HW223166   0.714   1.397   0.485
 7423SOL     OW23167   1.997   4.359   0.250
 7423SOL    HW123168   1.946   4.441   0.275
 7423SOL    HW223169   2.092   4.368   0.282
 7424SOL     OW23170   5.161   0.291   4.657
 7424SOL    HW123171   5.238   0.344   4.693
 7424SOL    HW223172   5.076   0.344   4.669
 7425SOL     OW23173   3.440   0.105   4.912
 7425SOL    HW123174   3.487   0.020   4.936
 7425SOL    HW223175   3.508   0.172   4.881
 7426SOL     OW23176   0.097   1.318   6.371
 7426SOL    HW123177   0.072   1.302   6.276
 7426SOL    HW223178   0.185   1.366   6.375
 7427SOL     OW23179   5.351   5.383   4.921
 7427SOL    HW123180   5.361   5.400   5.019
 7427SOL    HW223181   5.441   5.374   4.879
 7428SOL     OW23182   4.669   1.144   5.589
 7428SOL    HW123183   4.625   1.141   5.500
 7428SOL    HW223184   4.664   1.236   5.626
 7429SOL     OW23185   6.377   6.232   4.195
 7429SOL    HW123186   6.367   6.331   4.209
 7429SOL    HW223187   6.441   6.195   4.262
 7430SOL     OW23188   0.380   4.158   4.321
 7430SOL    HW123189   0.364   4.059   4.317
 7430SOL    HW223190   0.340   4.201   4.240
 7431SOL     OW23191   0.646   3.798   2.468
 7431SOL    HW123192   0.549   3.777   2.454
 7431SOL    HW223193   0.654   3.863   2.544
 7432SOL     OW23194   1.930   6.541   5.184
 7432SOL    HW123195   1.896   6.498   5.267
 7432SOL    HW223196   1.853   6.560   5.123
 7433SOL     OW23197   0.360   6.408   1.033
 7433SOL    HW123198   0.419   6.483   1.003
 7433SOL    HW223199   0.302   6.379   0.956
 7434SOL     OW23200   3.986   6.849   0.352
 7434SOL    HW123201   4.000   6.900   0.436
 7434SOL    HW223202   3.939   6.906   0.285
 7435SOL     OW23203   1.604   6.270   0.177
 7435SOL    HW123204   1.554   6.251   0.262
 7435SOL    HW223205   1.613   6.186   0.124
 7436SOL     OW23206   4.115   3.715   0.272
 7436SOL    HW123207   4.211   3.710   0.299
 7436SOL    HW223208   4.097   3.649   0.199
 7437SOL     OW23209   0.038   6.664   5.420
 7437SOL    HW123210   0.101   6.658   5.498
 7437SOL    HW223211   0.091   6.664   5.335
 7438SOL     OW23212   5.693   4.050   1.300
 7438SOL    HW123213   5.716   4.130   1.244
 7438SOL    HW223214   5.756   4.044   1.378
 7439SOL     OW23215   1.377   6.090   2.635
 7439SOL    HW123216   1.414   6.073   2.726
 7439SOL    HW223217   1.278   6.077   2.635
 7440SOL     OW23218   0.647   1.330   3.869
 7440SOL    HW123219   0.732   1.361   3.912
 7440SOL    HW223220   0.669   1.265   3.796
 7441SOL     OW23221   6.393   0.371   3.656
 7441SOL    HW123222   6.315   0.343   3.711
 7441SOL    HW223223   6.422   0.295   3.597
 7442SOL     OW23224   1.768   0.696   6.020
 7442SOL    HW123225   1.756   0.696   5.921
 7442SOL    HW223226   1.678   0.707   6.064
 7443SOL     OW23227   6.590   2.282   1.990
 7443SOL    HW123228   6.583   2.283   1.891
 7443SOL    HW223229   6.673   2.329   2.019
 7444SOL     OW23230   0.541   2.872   4.973
 7444SOL    HW123231   0.527   2.780   4.935
 7444SOL    HW223232   0.636   2.899   4.960
 7445SOL     OW23233   5.934   3.028   1.636
 7445SOL    HW123234   5.878   3.039   1.718
 7445SOL    HW223235   5.891   3.074   1.559
 7446SOL     OW23236   5.871   3.377   3.260
 7446SOL    HW123237   5.863   3.385   3.160
 7446SOL    HW223238   5.966   3.391   3.288
 7447SOL     OW23239   0.359   3.793   6.424
 7447SOL    HW123240   0.422   3.722   6.457
 7447SOL    HW223241   0.330   3.850   6.501
 7448SOL     OW23242   0.158   6.904   6.526
 7448SOL    HW123243   0.215   6.824   6.510
 7448SOL    HW223244   0.063   6.876   6.537
 7449SOL     OW23245   4.213   0.120   1.774
 7449SOL    HW123246   4.259   0.061   1.708
 7449SOL    HW223247   4.167   0.195   1.725
 7450SOL     OW23248   3.884   1.261   1.748
 7450SOL    HW123249   3.794   1.217   1.747
 7450SOL    HW223250   3.951   1.201   1.702
 7451SOL     OW23251   1.263   0.311   2.963
 7451SOL    HW123252   1.267   0.320   2.863
 7451SOL    HW223253   1.347   0.348   3.003
 7452SOL     OW23254   1.990   6.126   3.627
 7452SOL    HW123255   1.950   6.177   3.703
 7452SOL    HW223256   2.088   6.143   3.623
 7453SOL     OW23257   6.469   4.781   5.354
 7453SOL    HW123258   6.411   4.722   5.297
 7453SOL    HW223259   6.436   4.875   5.348
 7454SOL     OW23260   1.110   3.379   6.780
 7454SOL    HW123261   1.082   3.389   6.685
 7454SOL    HW223262   1.064   3.300   6.821
 7455SOL     OW23263   5.026   0.748   0.729
 7455SOL    HW123264   4.993   0.835   0.766
 7455SOL    HW223265   5.027   0.753   0.629
 7456SOL     OW23266   1.212   3.563   6.263
 7456SOL    HW123267   1.173   3.632   6.324
 7456SOL    HW223268   1.225   3.603   6.172
 7457SOL     OW23269   6.556   6.959   5.879
 7457SOL    HW123270   6.607   0.022   5.876
 7457SOL    HW223271   6.540   6.933   5.974
 7458SOL     OW23272   2.422   0.495   0.927
 7458SOL    HW123273   2.450   0.498   0.831
 7458SOL    HW223274   2.503   0.494   0.985
 7459SOL     OW23275   4.309   6.326   4.596
 7459SOL    HW123276   4.278   6.414   4.633
 7459SOL    HW223277   4.239   6.290   4.534
 7460SOL     OW23278   1.222   5.459   6.914
 7460SOL    HW123279   1.299   5.461   6.977
 7460SOL    HW223280   1.149   5.518   6.948
 7461SOL     OW23281   4.158   0.936   4.439
 7461SOL    HW123282   4.230   0.967   4.502
 7461SOL    HW223283   4.195   0.931   4.346
 7462SOL     OW23284   2.164   1.071   2.939
 7462SOL    HW123285   2.127   1.103   2.852
 7462SOL    HW223286   2.130   1.128   3.013
 7463SOL     OW23287   3.723   3.739   2.215
 7463SOL    HW123288   3.792   3.686   2.264
 7463SOL    HW223289   3.760   3.830   2.194
 7464SOL     OW23290   4.541   6.685   6.922
 7464SOL    HW123291   4.562   6.733   7.007
 7464SOL    HW223292   4.627   6.655   6.879
 7465SOL     OW23293   3.838   0.625   2.938
 7465SOL    HW123294   3.838   0.529   2.968
 7465SOL    HW223295   3.925   0.668   2.964
 7466SOL     OW23296   6.240   0.056   0.471
 7466SOL    HW123297   6.252   0.066   0.570
 7466SOL    HW223298   6.146   0.082   0.446
 7467SOL     OW23299   4.765   1.904   0.972
 7467SOL    HW123300   4.837   1.918   1.040
 7467SOL    HW223301   4.740   1.807   0.969
 7468SOL     OW23302   5.911   3.674   4.119
 7468SOL    HW123303   5.824   3.689   4.072
 7468SOL    HW223304   5.951   3.762   4.145
 7469SOL     OW23305   5.340   0.941   1.787
 7469SOL    HW123306   5.429   0.899   1.802
 7469SOL    HW223307   5.268   0.881   1.823
 7470SOL     OW23308   6.672   3.239   3.052
 7470SOL    HW123309   6.677   3.139   3.064
 7470SOL    HW223310   6.609   3.260   2.978
 7471SOL     OW23311   6.320   4.727   5.598
 7471SOL    HW123312   6.221   4.732   5.598
 7471SOL    HW223313   6.356   4.791   5.529
 7472SOL     OW23314   4.021   5.065   3.211
 7472SOL    HW123315   4.059   5.018   3.132
 7472SOL    HW223316   3.934   5.024   3.237
 7473SOL     OW23317   1.104   3.261   5.015
 7473SOL    HW123318   1.111   3.220   5.106
 7473SOL    HW223319   1.085   3.359   5.025
 7474SOL     OW23320   3.046   1.557   3.261
 7474SOL    HW123321   3.136   1.544   3.219
 7474SOL    HW223322   2.978   1.571   3.189
 7475SOL     OW23323   4.820   0.945   6.517
 7475SOL    HW123324   4.867   0.924   6.603
 7475SOL    HW223325   4.888   0.967   6.446
 7476SOL     OW23326   2.075   6.657   4.898
 7476SOL    HW123327   2.056   6.559   4.899
 7476SOL    HW223328   2.158   6.676   4.950
 7477SOL     OW23329   4.847   3.818   4.104
 7477SOL    HW123330   4.841   3.784   4.010
 7477SOL    HW223331   4.836   3.917   4.104
 7478SOL     OW23332   0.705   4.478   1.677
 7478SOL    HW123333   0.775   4.477   1.605
 7478SOL    HW223334   0.667   4.570   1.685
 7479SOL     OW23335   3.966   0.602   5.169
 7479SOL    HW123336   3.883   0.646   5.203
 7479SOL    HW223337   3.949   0.505   5.153
 7480SOL     OW23338   6.511   5.347   0.548
 7480SOL    HW123339   6.545   5.382   0.461
 7480SOL    HW223340   6.581   5.291   0.592
 7481SOL     OW23341   6.019   6.318   0.148
 7481SOL    HW123342   5.959   6.278   0.217
 7481SOL    HW223343   6.069   6.395   0.189
 7482SOL     OW23344   5.072   6.932   4.816
 7482SOL    HW123345   5.162   6.894   4.836
 7482SOL    HW223346   5.069   0.005   4.846
 7483SOL     OW23347   3.556   0.632   6.092
 7483SOL    HW123348   3.515   0.693   6.024
 7483SOL    HW223349   3.489   0.610   6.163
 7484SOL     OW23350   3.733   0.467   1.845
 7484SOL    HW123351   3.797   0.415   1.902
 7484SOL    HW223352   3.714   0.555   1.888
 7485SOL     OW23353   1.108   6.915   5.248
 7485SOL    HW123354   1.049   6.980   5.295
 7485SOL    HW223355   1.140   6.955   5.162
 7486SOL     OW23356   0.903   1.629   5.226
 7486SOL    HW123357   0.854   1.713   5.203
 7486SOL    HW223358   0.850   1.550   5.196
 7487SOL     OW23359   3.757   5.484   3.167
 7487SOL    HW123360   3.681   5.540   3.202
 7487SOL    HW223361   3.830   5.480   3.234
 7488SOL     OW23362   4.637   0.677   5.180
 7488SOL    HW123363   4.619   0.775   5.178
 7488SOL    HW223364   4.723   0.659   5.229
 7489SOL     OW23365   6.843   3.605   3.629
 7489SOL    HW123366   6.854   3.509   3.656
 7489SOL    HW223367   6.915   3.629   3.564
 7490SOL     OW23368   5.582   0.625   2.917
 7490SOL    HW123369   5.555   0.673   3.001
 7490SOL    HW223370   5.597   0.692   2.844
 7491SOL     OW23371   0.495   6.625   0.222
 7491SOL    HW123372   0.439   6.545   0.204
 7491SOL    HW223373   0.466   6.669   0.307
 7492SOL     OW23374   2.014   2.197   3.495
 7492SOL    HW123375   2.106   2.226   3.523
 7492SOL    HW223376   2.004   2.099   3.510
 7493SOL     OW23377   5.382   5.181   6.735
 7493SOL    HW123378   5.418   5.157   6.645
 7493SOL    HW223379   5.309   5.117   6.759
 7494SOL     OW23380   4.899   2.205   1.346
 7494SOL    HW123381   4.851   2.278   1.297
 7494SOL    HW223382   4.854   2.117   1.329
 7495SOL     OW23383   0.804   1.926   2.510
 7495SOL    HW123384   0.737   1.899   2.578
 7495SOL    HW223385   0.878   1.859   2.507
 7496SOL     OW23386   0.174   5.285   5.843
 7496SOL    HW123387   0.223   5.217   5.788
 7496SOL    HW223388   0.239   5.336   5.899
 7497SOL     OW23389   1.562   4.867   2.337
 7497SOL    HW123390   1.489   4.935   2.341
 7497SOL    HW223391   1.648   4.911   2.312
 7498SOL     OW23392   5.444   2.025   4.473
 7498SOL    HW123393   5.455   1.940   4.423
 7498SOL    HW223394   5.534   2.063   4.495
 7499SOL     OW23395   3.846   4.993   3.815
 7499SOL    HW123396   3.803   4.950   3.894
 7499SOL    HW223397   3.944   4.976   3.816
 7500SOL     OW23398   4.906   4.505   1.794
 7500SOL    HW123399   4.970   4.574   1.828
 7500SOL    HW223400   4.871   4.532   1.704
 7501SOL     OW23401   0.532   4.780   3.591
 7501SOL    HW123402   0.492   4.765   3.681
 7501SOL    HW223403   0.565   4.692   3.554
 7502SOL     OW23404   1.990   2.375   3.855
 7502SOL    HW123405   1.992   2.291   3.801
 7502SOL    HW223406   2.068   2.377   3.918
 7503SOL     OW23407   2.263   2.951   6.909
 7503SOL    HW123408   2.323   2.938   6.829
 7503SOL    HW223409   2.173   2.914   6.888
 7504SOL     OW23410   3.940   5.306   3.877
 7504SOL    HW123411   3.891   5.319   3.963
 7504SOL    HW223412   3.909   5.374   3.811
 7505SOL     OW23413   1.825   1.018   4.321
 7505SOL    HW123414   1.731   0.998   4.347
 7505SOL    HW223415   1.860   1.092   4.378
 7506SOL     OW23416   3.551   1.137   3.377
 7506SOL    HW123417   3.492   1.100   3.305
 7506SOL    HW223418   3.632   1.179   3.336
 7507SOL     OW23419   2.092   6.680   5.663
 7507SOL    HW123420   2.016   6.710   5.606
 7507SOL    HW223421   2.075   6.586   5.695
 7508SOL     OW23422   5.218   5.107   3.710
 7508SOL    HW123423   5.138   5.166   3.721
 7508SOL    HW223424   5.188   5.012   3.694
 7509SOL     OW23425   4.214   3.816   6.124
 7509SOL    HW123426   4.149   3.766   6.067
 7509SOL    HW223427   4.218   3.911   6.093
 7510SOL     OW23428   3.557   3.647   4.853
 7510SOL    HW123429   3.555   3.596   4.768
 7510SOL    HW223430   3.482   3.713   4.855
 7511SOL     OW23431   1.112   0.895   2.052
 7511SOL    HW123432   1.016   0.879   2.028
 7511SOL    HW223433   1.125   0.880   2.150
 7512SOL     OW23434   1.912   2.812   1.487
 7512SOL    HW123435   1.918   2.899   1.439
 7512SOL    HW223436   1.885   2.827   1.582
 7513SOL     OW23437   1.550   3.511   6.430
 7513SOL    HW123438   1.593   3.435   6.478
 7513SOL    HW223439   1.452   3.511   6.448
 7514SOL     OW23440   3.365   5.387   3.477
 7514SOL    HW123441   3.361   5.397   3.377
 7514SOL    HW223442   3.425   5.310   3.500
 7515SOL     OW23443   0.399   4.962   2.874
 7515SOL    HW123444   0.351   4.945   2.960
 7515SOL    HW223445   0.487   5.005   2.893
 7516SOL     OW23446   1.420   2.072   1.760
 7516SOL    HW123447   1.516   2.087   1.738
 7516SOL    HW223448   1.362   2.115   1.690
 7517SOL     OW23449   0.707   4.961   1.077
 7517SOL    HW123450   0.708   4.977   1.175
 7517SOL    HW223451   0.692   4.864   1.058
 7518SOL     OW23452   5.038   4.357   3.327
 7518SOL    HW123453   5.055   4.269   3.372
 7518SOL    HW223454   5.066   4.431   3.387
 7519SOL     OW23455   1.743   0.189   4.172
 7519SOL    HW123456   1.742   0.223   4.078
 7519SOL    HW223457   1.711   0.261   4.233
 7520SOL     OW23458   2.487   0.054   3.794
 7520SOL    HW123459   2.458   7.001   3.734
 7520SOL    HW223460   2.409   0.084   3.849
 7521SOL     OW23461   4.108   3.183   5.514
 7521SOL    HW123462   4.159   3.188   5.428
 7521SOL    HW223463   4.013   3.206   5.498
 7522SOL     OW23464   1.520   0.366   2.513
 7522SOL    HW123465   1.476   0.401   2.430
 7522SOL    HW223466   1.620   0.369   2.501
 7523SOL     OW23467   6.364   6.710   6.331
 7523SOL    HW123468   6.270   6.681   6.351
 7523SOL    HW223469   6.428   6.653   6.381
 7524SOL     OW23470   5.917   0.996   4.647
 7524SOL    HW123471   5.920   0.992   4.747
 7524SOL    HW223472   5.880   1.084   4.618
 7525SOL     OW23473   0.701   0.063   0.650
 7525SOL    HW123474   0.685   0.161   0.650
 7525SOL    HW223475   0.619   0.015   0.618
 7526SOL     OW23476   3.411   3.383   4.804
 7526SOL    HW123477   3.470   3.428   4.736
 7526SOL    HW223478   3.428   3.285   4.803
 7527SOL     OW23479   4.236   6.050   2.030
 7527SOL    HW123480   4.254   6.040   1.932
 7527SOL    HW223481   4.228   6.147   2.052
 7528SOL     OW23482   5.669   3.331   6.955
 7528SOL    HW123483   5.574   3.335   6.986
 7528SOL    HW223484   5.714   3.418   6.974
 7529SOL     OW23485   2.506   6.994   4.657
 7529SOL    HW123486   2.587   0.028   4.659
 7529SOL    HW223487   2.444   0.003   4.585
 7530SOL     OW23488   6.626   2.943   3.070
 7530SOL    HW123489   6.650   2.848   3.050
 7530SOL    HW223490   6.528   2.955   3.059
 7531SOL     OW23491   2.557   1.659   4.551
 7531SOL    HW123492   2.577   1.754   4.527
 7531SOL    HW223493   2.515   1.656   4.642
 7532SOL     OW23494   4.896   4.840   2.416
 7532SOL    HW123495   4.883   4.939   2.412
 7532SOL    HW223496   4.846   4.802   2.493
 7533SOL     OW23497   3.620   0.696   4.873
 7533SOL    HW123498   3.600   0.752   4.952
 7533SOL    HW223499   3.719   0.684   4.864
 7534SOL     OW23500   5.265   6.681   4.319
 7534SOL    HW123501   5.178   6.636   4.297
 7534SOL    HW223502   5.327   6.676   4.241
 7535SOL     OW23503   3.001   4.773   0.576
 7535SOL    HW123504   2.903   4.761   0.561
 7535SOL    HW223505   3.018   4.866   0.611
 7536SOL     OW23506   3.700   5.367   5.547
 7536SOL    HW123507   3.627   5.414   5.597
 7536SOL    HW223508   3.786   5.376   5.597
 7537SOL     OW23509   2.035   4.625   5.550
 7537SOL    HW123510   2.057   4.536   5.589
 7537SOL    HW223511   1.987   4.613   5.463
 7538SOL     OW23512   2.991   3.687   3.957
 7538SOL    HW123513   2.935   3.611   3.925
 7538SOL    HW223514   3.015   3.674   4.053
 7539SOL     OW23515   1.224   2.279   4.531
 7539SOL    HW123516   1.148   2.221   4.500
 7539SOL    HW223517   1.229   2.276   4.631
 7540SOL     OW23518   2.141   1.052   6.800
 7540SOL    HW123519   2.139   0.977   6.734
 7540SOL    HW223520   2.142   1.139   6.751
 7541SOL     OW23521   6.709   2.821   5.157
 7541SOL    HW123522   6.745   2.867   5.076
 7541SOL    HW223523   6.766   2.742   5.179
 7542SOL     OW23524   1.604   0.121   6.250
 7542SOL    HW123525   1.525   0.089   6.198
 7542SOL    HW223526   1.676   0.149   6.188
 7543SOL     OW23527   3.509   2.163   0.545
 7543SOL    HW123528   3.439   2.182   0.614
 7543SOL    HW223529   3.467   2.162   0.455
 7544SOL     OW23530   1.067   1.835   2.407
 7544SOL    HW123531   1.051   1.906   2.338
 7544SOL    HW223532   1.133   1.869   2.474
 7545SOL     OW23533   4.249   0.303   4.161
 7545SOL    HW123534   4.289   0.366   4.095
 7545SOL    HW223535   4.244   0.347   4.251
 7546SOL     OW23536   5.293   0.011   5.905
 7546SOL    HW123537   5.281   0.003   5.806
 7546SOL    HW223538   5.340   6.953   5.939
 7547SOL     OW23539   3.182   0.264   6.955
 7547SOL    HW123540   3.094   0.265   6.908
 7547SOL    HW223541   3.167   0.271   0.031
 7548SOL     OW23542   1.359   3.014   1.318
 7548SOL    HW123543   1.429   2.946   1.341
 7548SOL    HW223544   1.317   2.990   1.231
 7549SOL     OW23545   5.860   1.137   2.674
 7549SOL    HW123546   5.953   1.125   2.708
 7549SOL    HW223547   5.854   1.222   2.622
 7550SOL     OW23548   1.325   5.505   1.187
 7550SOL    HW123549   1.322   5.419   1.136
 7550SOL    HW223550   1.236   5.521   1.230
 7551SOL     OW23551   5.259   4.086   6.453
 7551SOL    HW123552   5.304   4.052   6.535
 7551SOL    HW223553   5.267   4.017   6.380
 7552SOL     OW23554   3.852   5.492   3.697
 7552SOL    HW123555   3.853   5.506   3.598
 7552SOL    HW223556   3.908   5.562   3.741
 7553SOL     OW23557   4.204   4.077   6.037
 7553SOL    HW123558   4.215   4.101   5.940
 7553SOL    HW223559   4.200   4.160   6.092
 7554SOL     OW23560   0.107   1.559   0.846
 7554SOL    HW123561   0.022   1.593   0.807
 7554SOL    HW223562   0.118   1.595   0.939
 7555SOL     OW23563   1.106   6.045   5.888
 7555SOL    HW123564   1.110   5.952   5.852
 7555SOL    HW223565   1.045   6.101   5.832
 7556SOL     OW23566   6.498   4.056   3.363
 7556SOL    HW123567   6.423   4.025   3.420
 7556SOL    HW223568   6.524   3.984   3.298
 7557SOL     OW23569   3.720   3.719   0.864
 7557SOL    HW123570   3.816   3.703   0.844
 7557SOL    HW223571   3.702   3.705   0.962
 7558SOL     OW23572   1.601   2.743   2.986
 7558SOL    HW123573   1.576   2.668   2.925
 7558SOL    HW223574   1.620   2.707   3.077
 7559SOL     OW23575   1.241   4.970   6.920
 7559SOL    HW123576   1.310   4.953   6.850
 7559SOL    HW223577   1.197   5.058   6.904
 7560SOL     OW23578   4.778   0.542   5.476
 7560SOL    HW123579   4.830   0.583   5.401
 7560SOL    HW223580   4.809   0.581   5.563
 7561SOL     OW23581   0.169   4.040   0.368
 7561SOL    HW123582   0.257   4.017   0.326
 7561SOL    HW223583   0.125   4.112   0.315
 7562SOL     OW23584   4.831   6.092   4.993
 7562SOL    HW123585   4.885   6.067   4.913
 7562SOL    HW223586   4.813   6.191   4.991
 7563SOL     OW23587   2.359   1.353   3.586
 7563SOL    HW123588   2.378   1.283   3.518
 7563SOL    HW223589   2.265   1.386   3.575
 7564SOL     OW23590   5.676   5.500   4.073
 7564SOL    HW123591   5.674   5.577   4.008
 7564SOL    HW223592   5.617   5.427   4.039
 7565SOL     OW23593   4.788   5.278   6.829
 7565SOL    HW123594   4.733   5.341   6.776
 7565SOL    HW223595   4.731   5.203   6.863
 7566SOL     OW23596   1.612   5.866   4.534
 7566SOL    HW123597   1.614   5.870   4.633
 7566SOL    HW223598   1.668   5.940   4.496
 7567SOL     OW23599   2.953   3.114   0.562
 7567SOL    HW123600   3.043   3.081   0.590
 7567SOL    HW223601   2.882   3.057   0.603
 7568SOL     OW23602   4.280   4.773   2.592
 7568SOL    HW123603   4.320   4.826   2.518
 7568SOL    HW223604   4.182   4.763   2.576
 7569SOL     OW23605   3.842   0.145   1.897
 7569SOL    HW123606   3.848   0.155   1.798
 7569SOL    HW223607   3.893   0.219   1.941
 7570SOL     OW23608   5.908   4.898   4.930
 7570SOL    HW123609   5.972   4.974   4.917
 7570SOL    HW223610   5.880   4.894   5.026
 7571SOL     OW23611   5.756   4.247   1.141
 7571SOL    HW123612   5.814   4.327   1.156
 7571SOL    HW223613   5.719   4.249   1.048
 7572SOL     OW23614   0.182   1.132   3.220
 7572SOL    HW123615   0.237   1.049   3.212
 7572SOL    HW223616   0.232   1.201   3.272
 7573SOL     OW23617   2.906   5.346   5.459
 7573SOL    HW123618   2.980   5.329   5.524
 7573SOL    HW223619   2.910   5.279   5.385
 7574SOL     OW23620   4.956   6.529   2.133
 7574SOL    HW123621   4.869   6.524   2.183
 7574SOL    HW223622   4.945   6.489   2.042
 7575SOL     OW23623   4.569   2.699   4.578
 7575SOL    HW123624   4.483   2.746   4.556
 7575SOL    HW223625   4.570   2.610   4.533
 7576SOL     OW23626   6.977   3.748   1.246
 7576SOL    HW123627   6.910   3.703   1.186
 7576SOL    HW223628   0.046   3.716   1.222
 7577SOL     OW23629   4.619   0.948   4.842
 7577SOL    HW123630   4.598   0.960   4.745
 7577SOL    HW223631   4.536   0.924   4.892
 7578SOL     OW23632   2.596   4.933   4.616
 7578SOL    HW123633   2.683   4.894   4.585
 7578SOL    HW223634   2.614   5.005   4.684
 7579SOL     OW23635   4.481   2.296   3.552
 7579SOL    HW123636   4.570   2.256   3.575
 7579SOL    HW223637   4.463   2.374   3.611
 7580SOL     OW23638   2.046   3.293   2.153
 7580SOL    HW123639   2.099   3.360   2.102
 7580SOL    HW223640   2.029   3.213   2.096
 7581SOL     OW23641   5.216   1.062   1.061
 7581SOL    HW123642   5.168   1.055   1.149
 7581SOL    HW223643   5.311   1.036   1.073
 7582SOL     OW23644   3.123   2.332   1.084
 7582SOL    HW123645   3.097   2.247   1.039
 7582SOL    HW223646   3.173   2.390   1.020
 7583SOL     OW23647   0.077   4.170   2.747
 7583SOL    HW123648   0.114   4.260   2.725
 7583SOL    HW223649   0.152   4.108   2.771
 7584SOL     OW23650   2.077   1.762   1.444
 7584SOL    HW123651   2.121   1.751   1.355
 7584SOL    HW223652   2.082   1.676   1.495
 7585SOL     OW23653   1.319   4.964   6.166
 7585SOL    HW123654   1.394   5.031   6.165
 7585SOL    HW223655   1.349   4.880   6.122
 7586SOL     OW23656   2.208   1.648   2.969
 7586SOL    HW123657   2.284   1.649   3.034
 7586SOL    HW223658   2.150   1.728   2.985
 7587SOL     OW23659   2.327   1.102   6.019
 7587SOL    HW123660   2.306   1.087   5.922
 7587SOL    HW223661   2.426   1.101   6.032
 7588SOL     OW23662   0.882   4.170   1.898
 7588SOL    HW123663   0.904   4.098   1.832
 7588SOL    HW223664   0.960   4.183   1.959
 7589SOL     OW23665   5.038   6.086   6.702
 7589SOL    HW123666   5.113   6.075   6.637
 7589SOL    HW223667   4.952   6.058   6.660
 7590SOL     OW23668   1.823   0.457   6.209
 7590SOL    HW123669   1.828   0.473   6.307
 7590SOL    HW223670   1.831   0.545   6.161
 7591SOL     OW23671   6.275   5.494   6.716
 7591SOL    HW123672   6.329   5.554   6.657
 7591SOL    HW223673   6.268   5.533   6.807
 7592SOL     OW23674   4.508   5.052   6.062
 7592SOL    HW123675   4.491   5.118   6.135
 7592SOL    HW223676   4.607   5.037   6.053
 7593SOL     OW23677   5.976   4.625   0.642
 7593SOL    HW123678   6.026   4.556   0.589
 7593SOL    HW223679   5.881   4.597   0.651
 7594SOL     OW23680   1.122   6.758   3.861
 7594SOL    HW123681   1.117   6.693   3.937
 7594SOL    HW223682   1.215   6.759   3.824
 7595SOL     OW23683   6.081   2.707   6.912
 7595SOL    HW123684   6.083   2.759   6.997
 7595SOL    HW223685   6.115   2.765   6.837
 7596SOL     OW23686   4.569   4.887   1.859
 7596SOL    HW123687   4.469   4.889   1.853
 7596SOL    HW223688   4.597   4.808   1.914
 7597SOL     OW23689   2.428   5.621   1.732
 7597SOL    HW123690   2.333   5.630   1.699
 7597SOL    HW223691   2.488   5.604   1.655
 7598SOL     OW23692   6.604   0.789   2.324
 7598SOL    HW123693   6.592   0.876   2.373
 7598SOL    HW223694   6.696   0.754   2.339
 7599SOL     OW23695   6.204   2.648   2.299
 7599SOL    HW123696   6.198   2.739   2.340
 7599SOL    HW223697   6.297   2.631   2.267
 7600SOL     OW23698   2.202   1.960   2.887
 7600SOL    HW123699   2.260   1.908   2.824
 7600SOL    HW223700   2.259   2.005   2.956
 7601SOL     OW23701   1.914   0.539   5.201
 7601SOL    HW123702   1.892   0.488   5.118
 7601SOL    HW223703   1.865   0.500   5.278
 7602SOL     OW23704   2.030   3.332   5.236
 7602SOL    HW123705   2.121   3.290   5.245
 7602SOL    HW223706   2.039   3.431   5.244
 7603SOL     OW23707   6.857   1.317   1.835
 7603SOL    HW123708   6.867   1.415   1.851
 7603SOL    HW223709   6.882   1.267   1.918
 7604SOL     OW23710   5.059   5.352   6.861
 7604SOL    HW123711   5.086   5.340   6.765
 7604SOL    HW223712   4.963   5.327   6.871
 7605SOL     OW23713   5.879   3.566   6.138
 7605SOL    HW123714   5.973   3.570   6.106
 7605SOL    HW223715   5.832   3.489   6.095
 7606SOL     OW23716   5.809   1.718   3.472
 7606SOL    HW123717   5.813   1.689   3.376
 7606SOL    HW223718   5.881   1.784   3.490
 7607SOL     OW23719   4.679   6.687   6.087
 7607SOL    HW123720   4.684   6.702   5.988
 7607SOL    HW223721   4.758   6.634   6.117
 7608SOL     OW23722   3.755   3.280   4.722
 7608SOL    HW123723   3.699   3.346   4.671
 7608SOL    HW223724   3.775   3.201   4.664
 7609SOL     OW23725   1.947   2.706   3.448
 7609SOL    HW123726   1.933   2.608   3.461
 7609SOL    HW223727   1.932   2.754   3.535
 7610SOL     OW23728   5.353   0.761   2.094
 7610SOL    HW123729   5.433   0.820   2.081
 7610SOL    HW223730   5.363   0.679   2.036
 7611SOL     OW23731   2.172   1.947   1.658
 7611SOL    HW123732   2.202   1.857   1.626
 7611SOL    HW223733   2.211   2.018   1.599
 7612SOL     OW23734   4.410   1.798   2.768
 7612SOL    HW123735   4.360   1.880   2.798
 7612SOL    HW223736   4.501   1.825   2.736
 7613SOL     OW23737   5.584   0.773   3.177
 7613SOL    HW123738   5.598   0.777   3.276
 7613SOL    HW223739   5.489   0.794   3.156
 7614SOL     OW23740   3.982   1.216   0.280
 7614SOL    HW123741   4.007   1.139   0.222
 7614SOL    HW223742   4.062   1.275   0.293
 7615SOL     OW23743   3.864   4.644   6.280
 7615SOL    HW123744   3.841   4.566   6.221
 7615SOL    HW223745   3.959   4.637   6.310
 7616SOL     OW23746   6.744   4.587   3.139
 7616SOL    HW123747   6.666   4.639   3.104
 7616SOL    HW223748   6.762   4.614   3.234
 7617SOL     OW23749   3.387   6.071   3.264
 7617SOL    HW123750   3.335   6.037   3.343
 7617SOL    HW223751   3.337   6.048   3.180
 7618SOL     OW23752   2.133   2.121   0.790
 7618SOL    HW123753   2.140   2.032   0.835
 7618SOL    HW223754   2.047   2.126   0.739
 7619SOL     OW23755   6.098   3.267   5.766
 7619SOL    HW123756   6.160   3.319   5.825
 7619SOL    HW223757   6.013   3.248   5.814
 7620SOL     OW23758   2.984   6.631   1.530
 7620SOL    HW123759   2.885   6.632   1.535
 7620SOL    HW223760   3.020   6.568   1.599
 7621SOL     OW23761   2.231   2.643   1.090
 7621SOL    HW123762   2.170   2.707   1.136
 7621SOL    HW223763   2.182   2.558   1.072
 7622SOL     OW23764   4.696   1.655   1.281
 7622SOL    HW123765   4.637   1.650   1.201
 7622SOL    HW223766   4.791   1.646   1.253
 7623SOL     OW23767   5.734   0.085   5.334
 7623SOL    HW123768   5.693   0.044   5.416
 7623SOL    HW223769   5.670   0.149   5.292
 7624SOL     OW23770   7.008   1.207   4.221
 7624SOL    HW123771   7.019   1.187   4.318
 7624SOL    HW223772   0.020   1.131   4.167
 7625SOL     OW23773   3.526   5.976   0.741
 7625SOL    HW123774   3.592   6.025   0.684
 7625SOL    HW223775   3.435   6.014   0.726
 7626SOL     OW23776   2.257   4.362   4.798
 7626SOL    HW123777   2.251   4.268   4.833
 7626SOL    HW223778   2.292   4.360   4.704
 7627SOL     OW23779   6.436   1.462   6.736
 7627SOL    HW123780   6.530   1.461   6.772
 7627SOL    HW223781   6.378   1.404   6.793
 7628SOL     OW23782   4.707   1.403   1.104
 7628SOL    HW123783   4.633   1.470   1.113
 7628SOL    HW223784   4.770   1.412   1.182
 7629SOL     OW23785   6.194   5.742   3.086
 7629SOL    HW123786   6.213   5.672   3.017
 7629SOL    HW223787   6.234   5.715   3.174
 7630SOL     OW23788   6.340   1.507   2.067
 7630SOL    HW123789   6.365   1.596   2.029
 7630SOL    HW223790   6.382   1.435   2.011
 7631SOL     OW23791   1.433   1.025   3.201
 7631SOL    HW123792   1.458   0.943   3.150
 7631SOL    HW223793   1.516   1.069   3.235
 7632SOL     OW23794   4.513   0.709   5.754
 7632SOL    HW123795   4.426   0.758   5.756
 7632SOL    HW223796   4.517   0.654   5.671
 7633SOL     OW23797   5.426   4.383   6.582
 7633SOL    HW123798   5.350   4.405   6.522
 7633SOL    HW223799   5.502   4.346   6.529
 7634SOL     OW23800   0.742   2.693   1.930
 7634SOL    HW123801   0.642   2.691   1.929
 7634SOL    HW223802   0.775   2.625   1.996
 7635SOL     OW23803   2.631   4.967   5.937
 7635SOL    HW123804   2.699   4.982   6.008
 7635SOL    HW223805   2.628   5.047   5.876
 7636SOL     OW23806   2.185   0.183   3.401
 7636SOL    HW123807   2.163   0.191   3.499
 7636SOL    HW223808   2.117   0.233   3.348
 7637SOL     OW23809   2.783   6.292   4.197
 7637SOL    HW123810   2.753   6.197   4.189
 7637SOL    HW223811   2.707   6.349   4.228
 7638SOL     OW23812   4.225   4.494   1.733
 7638SOL    HW123813   4.239   4.395   1.735
 7638SOL    HW223814   4.310   4.539   1.706
 7639SOL     OW23815   6.782   2.196   4.288
 7639SOL    HW123816   6.779   2.254   4.207
 7639SOL    HW223817   6.690   2.162   4.308
 7640SOL     OW23818   2.462   3.264   5.551
 7640SOL    HW123819   2.550   3.262   5.504
 7640SOL    HW223820   2.460   3.342   5.614
 7641SOL     OW23821   6.122   2.820   3.264
 7641SOL    HW123822   6.121   2.880   3.184
 7641SOL    HW223823   6.117   2.725   3.234
 7642SOL     OW23824   1.709   1.330   2.674
 7642SOL    HW123825   1.761   1.412   2.697
 7642SOL    HW223826   1.613   1.344   2.700
 7643SOL     OW23827   5.467   2.878   3.522
 7643SOL    HW123828   5.506   2.879   3.431
 7643SOL    HW223829   5.506   2.951   3.577
 7644SOL     OW23830   6.381   3.842   3.762
 7644SOL    HW123831   6.371   3.824   3.664
 7644SOL    HW223832   6.478   3.846   3.785
 7645SOL     OW23833   3.804   3.143   0.216
 7645SOL    HW123834   3.800   3.207   0.139
 7645SOL    HW223835   3.899   3.129   0.243
 7646SOL     OW23836   0.744   1.213   1.875
 7646SOL    HW123837   0.695   1.131   1.845
 7646SOL    HW223838   0.743   1.281   1.801
 7647SOL     OW23839   2.442   4.790   0.443
 7647SOL    HW123840   2.444   4.848   0.361
 7647SOL    HW223841   2.419   4.696   0.416
 7648SOL     OW23842   3.584   0.527   4.153
 7648SOL    HW123843   3.633   0.527   4.240
 7648SOL    HW223844   3.564   0.621   4.126
 7649SOL     OW23845   2.973   1.567   1.217
 7649SOL    HW123846   2.889   1.577   1.270
 7649SOL    HW223847   3.026   1.652   1.222
 7650SOL     OW23848   6.029   4.231   0.585
 7650SOL    HW123849   6.009   4.136   0.561
 7650SOL    HW223850   6.042   4.238   0.683
 7651SOL     OW23851   5.006   2.466   6.182
 7651SOL    HW123852   5.086   2.415   6.216
 7651SOL    HW223853   4.975   2.529   6.253
 7652SOL     OW23854   1.257   3.625   3.083
 7652SOL    HW123855   1.225   3.549   3.027
 7652SOL    HW223856   1.281   3.702   3.023
 7653SOL     OW23857   4.145   2.255   2.124
 7653SOL    HW123858   4.137   2.332   2.187
 7653SOL    HW223859   4.232   2.208   2.140
 7654SOL     OW23860   5.132   3.627   3.978
 7654SOL    HW123861   5.146   3.570   4.059
 7654SOL    HW223862   5.218   3.634   3.927
 7655SOL     OW23863   5.080   5.555   5.189
 7655SOL    HW123864   5.112   5.468   5.226
 7655SOL    HW223865   5.023   5.601   5.258
 7656SOL     OW23866   1.271   6.841   4.390
 7656SOL    HW123867   1.201   6.903   4.355
 7656SOL    HW223868   1.323   6.804   4.313
 7657SOL     OW23869   4.420   1.555   4.033
 7657SOL    HW123870   4.415   1.655   4.033
 7657SOL    HW223871   4.330   1.518   4.059
 7658SOL     OW23872   4.405   0.241   6.155
 7658SOL    HW123873   4.390   0.319   6.215
 7658SOL    HW223874   4.461   0.173   6.202
 7659SOL     OW23875   5.099   6.105   0.008
 7659SOL    HW123876   5.081   6.158   0.090
 7659SOL    HW223877   5.127   6.165   6.956
 7660SOL     OW23878   5.619   4.835   4.386
 7660SOL    HW123879   5.627   4.753   4.329
 7660SOL    HW223880   5.669   4.820   4.472
 7661SOL     OW23881   6.030   3.071   4.161
 7661SOL    HW123882   6.056   2.984   4.120
 7661SOL    HW223883   6.108   3.133   4.162
 7662SOL     OW23884   6.239   5.501   2.935
 7662SOL    HW123885   6.332   5.502   2.970
 7662SOL    HW223886   6.217   5.409   2.901
 7663SOL     OW23887   6.688   5.671   0.390
 7663SOL    HW123888   6.718   5.752   0.339
 7663SOL    HW223889   6.707   5.684   0.487
 7664SOL     OW23890   2.755   5.450   5.160
 7664SOL    HW123891   2.733   5.353   5.177
 7664SOL    HW223892   2.721   5.505   5.237
 7665SOL     OW23893   2.685   5.417   4.068
 7665SOL    HW123894   2.640   5.329   4.049
 7665SOL    HW223895   2.641   5.461   4.146
 7666SOL     OW23896   2.676   0.901   1.625
 7666SOL    HW123897   2.614   0.956   1.568
 7666SOL    HW223898   2.752   0.958   1.655
 7667SOL     OW23899   4.960   6.073   5.895
 7667SOL    HW123900   5.051   6.113   5.897
 7667SOL    HW223901   4.951   6.005   5.967
 7668SOL     OW23902   3.068   3.868   1.550
 7668SOL    HW123903   3.045   3.913   1.637
 7668SOL    HW223904   2.985   3.862   1.494
 7669SOL     OW23905   4.479   6.227   5.010
 7669SOL    HW123906   4.406   6.286   5.044
 7669SOL    HW223907   4.512   6.169   5.084
 7670SOL     OW23908   1.218   5.748   0.982
 7670SOL    HW123909   1.136   5.738   0.925
 7670SOL    HW223910   1.212   5.684   1.059
 7671SOL     OW23911   5.603   2.496   4.682
 7671SOL    HW123912   5.568   2.505   4.589
 7671SOL    HW223913   5.657   2.577   4.705
 7672SOL     OW23914   6.029   0.374   1.899
 7672SOL    HW123915   5.983   0.421   1.975
 7672SOL    HW223916   6.100   0.314   1.936
 7673SOL     OW23917   0.189   3.912   6.934
 7673SOL    HW123918   0.225   4.002   6.960
 7673SOL    HW223919   0.257   3.864   6.879
 7674SOL     OW23920   6.012   0.921   5.260
 7674SOL    HW123921   5.939   0.860   5.292
 7674SOL    HW223922   6.008   1.007   5.310
 7675SOL     OW23923   5.313   0.053   3.166
 7675SOL    HW123924   5.329   0.090   3.075
 7675SOL    HW223925   5.401   0.031   3.209
 7676SOL     OW23926   1.538   0.520   1.440
 7676SOL    HW123927   1.505   0.544   1.348
 7676SOL    HW223928   1.580   0.429   1.437
 7677SOL     OW23929   1.628   2.098   2.706
 7677SOL    HW123930   1.682   2.177   2.733
 7677SOL    HW223931   1.682   2.040   2.645
 7678SOL     OW23932   5.239   6.766   6.019
 7678SOL    HW123933   5.193   6.809   6.096
 7678SOL    HW223934   5.180   6.772   5.938
 7679SOL     OW23935   1.123   5.164   4.658
 7679SOL    HW123936   1.210   5.116   4.648
 7679SOL    HW223937   1.048   5.104   4.631
 7680SOL     OW23938   5.270   1.028   6.635
 7680SOL    HW123939   5.362   1.031   6.596
 7680SOL    HW223940   5.212   0.969   6.578
 7681SOL     OW23941   2.965   2.206   6.230
 7681SOL    HW123942   2.938   2.116   6.196
 7681SOL    HW223943   2.992   2.198   6.326
 7682SOL     OW23944   2.685   6.952   1.269
 7682SOL    HW123945   2.622   7.008   1.215
 7682SOL    HW223946   2.641   6.865   1.291
 7683SOL     OW23947   6.759   1.889   2.964
 7683SOL    HW123948   6.715   1.800   2.971
 7683SOL    HW223949   6.855   1.878   2.939
 7684SOL     OW23950   4.252   2.796   6.174
 7684SOL    HW123951   4.309   2.780   6.254
 7684SOL    HW223952   4.187   2.720   6.164
 7685SOL     OW23953   4.198   3.914   1.162
 7685SOL    HW123954   4.165   3.893   1.254
 7685SOL    HW223955   4.295   3.938   1.166
 7686SOL     OW23956   3.491   0.868   3.788
 7686SOL    HW123957   3.435   0.794   3.826
 7686SOL    HW223958   3.455   0.895   3.699
 7687SOL     OW23959   4.361   4.857   6.257
 7687SOL    HW123960   4.434   4.890   6.197
 7687SOL    HW223961   4.299   4.932   6.279
 7688SOL     OW23962   6.577   0.347   3.251
 7688SOL    HW123963   6.644   0.383   3.317
 7688SOL    HW223964   6.609   0.258   3.217
 7689SOL     OW23965   3.357   6.035   4.933
 7689SOL    HW123966   3.397   6.072   5.017
 7689SOL    HW223967   3.405   6.072   4.854
 7690SOL     OW23968   0.642   5.146   2.160
 7690SOL    HW123969   0.577   5.201   2.211
 7690SOL    HW223970   0.730   5.144   2.209
 7691SOL     OW23971   6.077   3.922   5.828
 7691SOL    HW123972   6.039   4.014   5.827
 7691SOL    HW223973   6.094   3.892   5.734
 7692SOL     OW23974   1.488   6.541   1.359
 7692SOL    HW123975   1.490   6.459   1.416
 7692SOL    HW223976   1.496   6.514   1.263
 7693SOL     OW23977   5.868   1.263   0.534
 7693SOL    HW123978   5.864   1.359   0.507
 7693SOL    HW223979   5.865   1.256   0.634
 7694SOL     OW23980   5.915   5.330   4.058
 7694SOL    HW123981   5.947   5.337   3.964
 7694SOL    HW223982   5.841   5.396   4.073
 7695SOL     OW23983   4.397   0.364   6.436
 7695SOL    HW123984   4.447   0.308   6.502
 7695SOL    HW223985   4.432   0.458   6.439
 7696SOL     OW23986   1.444   4.221   5.644
 7696SOL    HW123987   1.440   4.144   5.708
 7696SOL    HW223988   1.498   4.195   5.564
 7697SOL     OW23989   4.335   1.689   2.513
 7697SOL    HW123990   4.251   1.707   2.461
 7697SOL    HW223991   4.329   1.732   2.603
 7698SOL     OW23992   6.964   2.945   5.479
 7698SOL    HW123993   0.028   2.966   5.523
 7698SOL    HW223994   6.980   2.892   5.396
 7699SOL     OW23995   2.731   4.527   0.372
 7699SOL    HW123996   2.806   4.531   0.439
 7699SOL    HW223997   2.745   4.447   0.312
 7700SOL     OW23998   5.764   6.804   4.568
 7700SOL    HW123999   5.849   6.761   4.538
 7700SOL    HW224000   5.716   6.842   4.489
 7701SOL     OW24001   6.645   2.042   5.133
 7701SOL    HW124002   6.576   2.025   5.063
 7701SOL    HW224003   6.642   2.139   5.159
 7702SOL     OW24004   1.983   6.159   6.025
 7702SOL    HW124005   1.927   6.076   6.022
 7702SOL    HW224006   1.931   6.233   6.067
 7703SOL     OW24007   0.703   2.467   5.436
 7703SOL    HW124008   0.701   2.536   5.364
 7703SOL    HW224009   0.787   2.414   5.428
 7704SOL     OW24010   2.896   4.542   1.121
 7704SOL    HW124011   2.953   4.491   1.057
 7704SOL    HW224012   2.952   4.578   1.196
 7705SOL     OW24013   3.754   4.210   5.273
 7705SOL    HW124014   3.675   4.150   5.284
 7705SOL    HW224015   3.746   4.287   5.338
 7706SOL     OW24016   6.682   0.873   5.281
 7706SOL    HW124017   6.661   0.958   5.233
 7706SOL    HW224018   6.662   0.883   5.378
 7707SOL     OW24019   0.264   5.511   6.523
 7707SOL    HW124020   0.317   5.435   6.561
 7707SOL    HW224021   0.215   5.480   6.441
 7708SOL     OW24022   5.279   1.571   4.469
 7708SOL    HW124023   5.322   1.556   4.558
 7708SOL    HW224024   5.214   1.497   4.451
 7709SOL     OW24025   3.769   2.034   1.729
 7709SOL    HW124026   3.753   2.124   1.770
 7709SOL    HW224027   3.867   2.015   1.729
 7710SOL     OW24028   3.139   2.365   6.370
 7710SOL    HW124029   3.232   2.337   6.393
 7710SOL    HW224030   3.136   2.394   6.274
 7711SOL     OW24031   4.589   6.098   4.822
 7711SOL    HW124032   4.573   6.138   4.731
 7711SOL    HW224033   4.557   6.162   4.892
 7712SOL     OW24034   4.833   4.695   0.322
 7712SOL    HW124035   4.915   4.732   0.278
 7712SOL    HW224036   4.775   4.650   0.253
 7713SOL     OW24037   0.605   5.640   6.458
 7713SOL    HW124038   0.552   5.686   6.529
 7713SOL    HW224039   0.587   5.541   6.462
 7714SOL     OW24040   5.189   3.778   4.227
 7714SOL    HW124041   5.204   3.680   4.210
 7714SOL    HW224042   5.105   3.807   4.183
 7715SOL     OW24043   3.967   2.197   1.925
 7715SOL    HW124044   3.870   2.222   1.933
 7715SOL    HW224045   4.015   2.222   2.009
 7716SOL     OW24046   4.405   2.465   3.772
 7716SOL    HW124047   4.334   2.395   3.778
 7716SOL    HW224048   4.450   2.474   3.861
 7717SOL     OW24049   3.056   0.362   6.600
 7717SOL    HW124050   3.110   0.302   6.541
 7717SOL    HW224051   3.038   0.315   6.686
 7718SOL     OW24052   2.875   6.600   4.262
 7718SOL    HW124053   2.784   6.573   4.229
 7718SOL    HW224054   2.942   6.530   4.239
 7719SOL     OW24055   5.854   2.817   5.172
 7719SOL    HW124056   5.780   2.861   5.221
 7719SOL    HW224057   5.914   2.769   5.237
 7720SOL     OW24058   5.770   6.350   1.924
 7720SOL    HW124059   5.734   6.320   2.013
 7720SOL    HW224060   5.841   6.286   1.894
 7721SOL     OW24061   0.743   4.924   2.645
 7721SOL    HW124062   0.718   4.914   2.549
 7721SOL    HW224063   0.774   4.836   2.681
 7722SOL     OW24064   0.781   6.217   4.475
 7722SOL    HW124065   0.820   6.256   4.559
 7722SOL    HW224066   0.697   6.167   4.498
 7723SOL     OW24067   6.958   2.274   0.414
 7723SOL    HW124068   6.922   2.357   0.455
 7723SOL    HW224069   7.014   2.297   0.334
 7724SOL     OW24070   1.742   6.015   0.449
 7724SOL    HW124071   1.674   6.075   0.492
 7724SOL    HW224072   1.700   5.927   0.427
 7725SOL     OW24073   4.898   3.624   4.293
 7725SOL    HW124074   4.837   3.649   4.368
 7725SOL    HW224075   4.885   3.687   4.216
 7726SOL     OW24076   5.697   4.146   3.484
 7726SOL    HW124077   5.677   4.177   3.577
 7726SOL    HW224078   5.631   4.077   3.456
 7727SOL     OW24079   5.690   3.001   2.110
 7727SOL    HW124080   5.620   3.035   2.173
 7727SOL    HW224081   5.780   3.031   2.142
 7728SOL     OW24082   2.476   2.559   2.322
 7728SOL    HW124083   2.385   2.536   2.287
 7728SOL    HW224084   2.544   2.540   2.251
 7729SOL     OW24085   4.853   2.392   0.228
 7729SOL    HW124086   4.898   2.466   0.178
 7729SOL    HW224087   4.834   2.421   0.321
 7730SOL     OW24088   4.575   0.408   1.940
 7730SOL    HW124089   4.576   0.485   1.876
 7730SOL    HW224090   4.487   0.406   1.988
 7731SOL     OW24091   0.128   2.117   4.696
 7731SOL    HW124092   0.209   2.107   4.754
 7731SOL    HW224093   0.121   2.039   4.635
 7732SOL     OW24094   4.146   5.286   0.479
 7732SOL    HW124095   4.084   5.232   0.423
 7732SOL    HW224096   4.123   5.274   0.576
 7733SOL     OW24097   2.665   6.522   0.935
 7733SOL    HW124098   2.671   6.618   0.964
 7733SOL    HW224099   2.750   6.495   0.891
 7734SOL     OW24100   1.702   2.825   2.400
 7734SOL    HW124101   1.784   2.878   2.418
 7734SOL    HW224102   1.699   2.798   2.304
 7735SOL     OW24103   5.092   4.454   0.856
 7735SOL    HW124104   4.995   4.459   0.831
 7735SOL    HW224105   5.111   4.522   0.927
 7736SOL     OW24106   5.572   4.600   6.193
 7736SOL    HW124107   5.529   4.512   6.212
 7736SOL    HW224108   5.671   4.590   6.191
 7737SOL     OW24109   4.847   2.604   0.724
 7737SOL    HW124110   4.916   2.567   0.786
 7737SOL    HW224111   4.889   2.671   0.663
 7738SOL     OW24112   2.049   5.156   6.985
 7738SOL    HW124113   1.965   5.151   6.931
 7738SOL    HW224114   2.106   5.076   6.966
 7739SOL     OW24115   5.595   3.322   2.914
 7739SOL    HW124116   5.554   3.341   2.825
 7739SOL    HW224117   5.572   3.395   2.978
 7740SOL     OW24118   0.677   5.862   3.682
 7740SOL    HW124119   0.727   5.840   3.766
 7740SOL    HW224120   0.655   5.778   3.633
 7741SOL     OW24121   3.017   5.534   4.941
 7741SOL    HW124122   3.117   5.540   4.942
 7741SOL    HW224123   2.986   5.490   5.025
 7742SOL     OW24124   6.780   0.949   4.031
 7742SOL    HW124125   6.752   0.861   4.069
 7742SOL    HW224126   6.778   0.945   3.931
 7743SOL     OW24127   5.078   2.818   2.368
 7743SOL    HW124128   4.987   2.775   2.363
 7743SOL    HW224129   5.077   2.903   2.316
 7744SOL     OW24130   0.511   6.691   5.248
 7744SOL    HW124131   0.501   6.609   5.193
 7744SOL    HW224132   0.522   6.770   5.188
 7745SOL     OW24133   4.854   3.351   5.202
 7745SOL    HW124134   4.792   3.408   5.147
 7745SOL    HW224135   4.845   3.256   5.175
 7746SOL     OW24136   1.546   0.168   6.761
 7746SOL    HW124137   1.548   0.257   6.714
 7746SOL    HW224138   1.639   0.131   6.765
 7747SOL     OW24139   4.994   5.167   1.160
 7747SOL    HW124140   5.014   5.264   1.146
 7747SOL    HW224141   5.075   5.122   1.198
 7748SOL     OW24142   2.552   3.870   6.137
 7748SOL    HW124143   2.453   3.852   6.133
 7748SOL    HW224144   2.586   3.846   6.228
 7749SOL     OW24145   5.535   4.124   6.117
 7749SOL    HW124146   5.620   4.114   6.168
 7749SOL    HW224147   5.493   4.212   6.138
 7750SOL     OW24148   5.497   5.337   2.896
 7750SOL    HW124149   5.407   5.379   2.895
 7750SOL    HW224150   5.491   5.247   2.939
 7751SOL     OW24151   0.452   2.742   0.932
 7751SOL    HW124152   0.546   2.712   0.952
 7751SOL    HW224153   0.444   2.840   0.952
 7752SOL     OW24154   3.868   1.456   3.400
 7752SOL    HW124155   3.935   1.392   3.363
 7752SOL    HW224156   3.857   1.439   3.498
 7753SOL     OW24157   3.607   1.999   5.441
 7753SOL    HW124158   3.674   2.072   5.428
 7753SOL    HW224159   3.570   1.971   5.352
 7754SOL     OW24160   5.466   5.458   1.665
 7754SOL    HW124161   5.487   5.456   1.763
 7754SOL    HW224162   5.518   5.387   1.619
 7755SOL     OW24163   0.627   5.164   5.113
 7755SOL    HW124164   0.577   5.236   5.065
 7755SOL    HW224165   0.696   5.124   5.053
 7756SOL     OW24166   2.239   4.618   2.288
 7756SOL    HW124167   2.199   4.543   2.340
 7756SOL    HW224168   2.293   4.581   2.212
 7757SOL     OW24169   0.119   4.231   0.852
 7757SOL    HW124170   0.068   4.315   0.865
 7757SOL    HW224171   0.144   4.193   0.942
 7758SOL     OW24172   0.396   1.850   5.274
 7758SOL    HW124173   0.493   1.848   5.295
 7758SOL    HW224174   0.382   1.880   5.179
 7759SOL     OW24175   3.514   1.088   2.311
 7759SOL    HW124176   3.545   1.180   2.338
 7759SOL    HW224177   3.465   1.045   2.387
 7760SOL     OW24178   5.188   3.188   0.080
 7760SOL    HW124179   5.244   3.146   0.009
 7760SOL    HW224180   5.137   3.265   0.042
 7761SOL     OW24181   4.911   5.117   3.549
 7761SOL    HW124182   4.848   5.158   3.482
 7761SOL    HW224183   4.941   5.186   3.614
 7762SOL     OW24184   5.409   1.922   1.837
 7762SOL    HW124185   5.378   1.995   1.776
 7762SOL    HW224186   5.474   1.863   1.789
 7763SOL     OW24187   2.169   0.050   3.125
 7763SOL    HW124188   2.235   0.105   3.176
 7763SOL    HW224189   2.111   0.110   3.070
 7764SOL     OW24190   2.995   4.482   5.490
 7764SOL    HW124191   3.070   4.538   5.524
 7764SOL    HW224192   2.967   4.515   5.400
 7765SOL     OW24193   5.328   4.253   4.575
 7765SOL    HW124194   5.408   4.193   4.578
 7765SOL    HW224195   5.269   4.225   4.499
 7766SOL     OW24196   6.401   2.554   6.347
 7766SOL    HW124197   6.314   2.513   6.320
 7766SOL    HW224198   6.408   2.645   6.306
 7767SOL     OW24199   4.580   0.244   4.105
 7767SOL    HW124200   4.549   0.255   4.200
 7767SOL    HW224201   4.654   0.177   4.102
 7768SOL     OW24202   3.852   5.755   4.661
 7768SOL    HW124203   3.931   5.716   4.615
 7768SOL    HW224204   3.865   5.853   4.675
 7769SOL     OW24205   3.805   2.875   0.109
 7769SOL    HW124206   3.792   2.967   0.146
 7769SOL    HW224207   3.771   2.808   0.175
 7770SOL     OW24208   1.277   3.670   3.791
 7770SOL    HW124209   1.360   3.721   3.816
 7770SOL    HW224210   1.200   3.703   3.845
 7771SOL     OW24211   1.058   4.146   5.293
 7771SOL    HW124212   1.072   4.143   5.392
 7771SOL    HW224213   0.974   4.097   5.269
 7772SOL     OW24214   5.334   6.218   2.253
 7772SOL    HW124215   5.424   6.261   2.244
 7772SOL    HW224216   5.264   6.289   2.261
 7773SOL     OW24217   2.853   0.276   6.438
 7773SOL    HW124218   2.846   0.180   6.464
 7773SOL    HW224219   2.936   0.315   6.478
 7774SOL     OW24220   4.760   1.182   2.421
 7774SOL    HW124221   4.711   1.109   2.373
 7774SOL    HW224222   4.826   1.224   2.359
 7775SOL     OW24223   3.188   1.708   0.920
 7775SOL    HW124224   3.208   1.668   1.010
 7775SOL    HW224225   3.105   1.665   0.883
 7776SOL     OW24226   3.025   1.047   4.299
 7776SOL    HW124227   3.092   1.016   4.232
 7776SOL    HW224228   3.014   1.147   4.291
 7777SOL     OW24229   5.759   5.364   3.159
 7777SOL    HW124230   5.817   5.438   3.127
 7777SOL    HW224231   5.671   5.400   3.188
 7778SOL     OW24232   0.624   4.318   2.615
 7778SOL    HW124233   0.694   4.388   2.603
 7778SOL    HW224234   0.576   4.333   2.702
 7779SOL     OW24235   3.429   6.394   2.046
 7779SOL    HW124236   3.349   6.400   2.107
 7779SOL    HW224237   3.466   6.301   2.050
 7780SOL     OW24238   6.782   5.672   4.264
 7780SOL    HW124239   6.742   5.713   4.182
 7780SOL    HW224240   6.797   5.575   4.249
 7781SOL     OW24241   2.721   2.972   0.612
 7781SOL    HW124242   2.643   3.002   0.557
 7781SOL    HW224243   2.710   2.876   0.638
 7782SOL     OW24244   5.926   4.056   4.995
 7782SOL    HW124245   5.912   4.112   4.913
 7782SOL    HW224246   5.839   4.037   5.039
 7783SOL     OW24247   1.620   6.342   4.201
 7783SOL    HW124248   1.693   6.296   4.150
 7783SOL    HW224249   1.656   6.424   4.246
 7784SOL     OW24250   1.787   1.916   2.534
 7784SOL    HW124251   1.799   1.966   2.449
 7784SOL    HW224252   1.835   1.828   2.528
 7785SOL     OW24253   6.224   6.080   2.836
 7785SOL    HW124254   6.267   5.992   2.859
 7785SOL    HW224255   6.296   6.147   2.817
 7786SOL     OW24256   5.254   1.088   6.179
 7786SOL    HW124257   5.192   1.080   6.258
 7786SOL    HW224258   5.204   1.067   6.095
 7787SOL     OW24259   1.843   2.537   1.221
 7787SOL    HW124260   1.872   2.452   1.177
 7787SOL    HW224261   1.825   2.519   1.318
 7788SOL     OW24262   0.916   3.445   1.667
 7788SOL    HW124263   0.930   3.474   1.762
 7788SOL    HW224264   0.952   3.353   1.654
 7789SOL     OW24265   3.687   1.167   6.149
 7789SOL    HW124266   3.675   1.131   6.056
 7789SOL    HW224267   3.779   1.147   6.180
 7790SOL     OW24268   4.113   5.066   4.085
 7790SOL    HW124269   4.102   5.007   4.004
 7790SOL    HW224270   4.034   5.127   4.092
 7791SOL     OW24271   2.791   5.609   1.591
 7791SOL    HW124272   2.861   5.598   1.662
 7791SOL    HW224273   2.811   5.548   1.515
 7792SOL     OW24274   1.203   1.531   2.454
 7792SOL    HW124275   1.162   1.565   2.369
 7792SOL    HW224276   1.291   1.577   2.469
 7793SOL     OW24277   5.046   1.360   0.970
 7793SOL    HW124278   4.985   1.308   0.910
 7793SOL    HW224279   5.141   1.343   0.945
 7794SOL     OW24280   1.720   1.039   3.111
 7794SOL    HW124281   1.716   1.036   3.011
 7794SOL    HW224282   1.693   0.950   3.148
 7795SOL     OW24283   3.957   4.079   1.489
 7795SOL    HW124284   3.989   4.123   1.405
 7795SOL    HW224285   4.027   4.088   1.560
 7796SOL     OW24286   3.416   1.762   0.416
 7796SOL    HW124287   3.438   1.687   0.353
 7796SOL    HW224288   3.464   1.845   0.387
 7797SOL     OW24289   1.105   5.735   2.871
 7797SOL    HW124290   1.118   5.725   2.773
 7797SOL    HW224291   1.106   5.832   2.895
 7798SOL     OW24292   2.069   3.555   0.915
 7798SOL    HW124293   2.040   3.576   0.821
 7798SOL    HW224294   2.035   3.464   0.940
 7799SOL     OW24295   2.636   6.247   4.539
 7799SOL    HW124296   2.592   6.335   4.522
 7799SOL    HW224297   2.645   6.197   4.453
 7800SOL     OW24298   1.613   1.133   2.246
 7800SOL    HW124299   1.628   1.083   2.161
 7800SOL    HW224300   1.613   1.231   2.227
 7801SOL     OW24301   1.615   2.214   0.674
 7801SOL    HW124302   1.534   2.168   0.710
 7801SOL    HW224303   1.653   2.160   0.599
 7802SOL     OW24304   6.308   4.540   3.760
 7802SOL    HW124305   6.311   4.577   3.853
 7802SOL    HW224306   6.233   4.583   3.710
 7803SOL     OW24307   3.098   2.507   5.527
 7803SOL    HW124308   3.182   2.458   5.504
 7803SOL    HW224309   3.092   2.516   5.627
 7804SOL     OW24310   2.562   1.695   5.255
 7804SOL    HW124311   2.656   1.671   5.279
 7804SOL    HW224312   2.544   1.789   5.282
 7805SOL     OW24313   5.668   3.069   6.829
 7805SOL    HW124314   5.732   3.038   6.899
 7805SOL    HW224315   5.674   3.168   6.819
 7806SOL     OW24316   6.320   1.842   5.234
 7806SOL    HW124317   6.302   1.918   5.172
 7806SOL    HW224318   6.412   1.851   5.272
 7807SOL     OW24319   1.698   5.480   5.604
 7807SOL    HW124320   1.780   5.424   5.616
 7807SOL    HW224321   1.618   5.420   5.600
 7808SOL     OW24322   0.049   3.733   3.546
 7808SOL    HW124323   7.013   3.812   3.530
 7808SOL    HW224324   0.123   3.733   3.479
 7809SOL     OW24325   4.742   6.472   2.271
 7809SOL    HW124326   4.665   6.532   2.289
 7809SOL    HW224327   4.710   6.378   2.261
 7810SOL     OW24328   1.747   6.945   5.712
 7810SOL    HW124329   1.765   6.884   5.789
 7810SOL    HW224330   1.772   0.016   5.737
 7811SOL     OW24331   1.470   6.009   3.179
 7811SOL    HW124332   1.561   6.034   3.210
 7811SOL    HW224333   1.471   5.996   3.080
 7812SOL     OW24334   2.815   1.404   5.860
 7812SOL    HW124335   2.716   1.396   5.853
 7812SOL    HW224336   2.849   1.340   5.929
 7813SOL     OW24337   5.625   1.145   0.525
 7813SOL    HW124338   5.707   1.200   0.509
 7813SOL    HW224339   5.636   1.056   0.481
 7814SOL     OW24340   5.843   2.464   1.979
 7814SOL    HW124341   5.871   2.557   1.960
 7814SOL    HW224342   5.923   2.408   2.002
 7815SOL     OW24343   4.816   5.062   3.844
 7815SOL    HW124344   4.736   5.094   3.896
 7815SOL    HW224345   4.799   5.075   3.746
 7816SOL     OW24346   1.124   1.247   5.109
 7816SOL    HW124347   1.159   1.169   5.161
 7816SOL    HW224348   1.178   1.329   5.130
 7817SOL     OW24349   4.443   1.960   6.530
 7817SOL    HW124350   4.449   2.051   6.571
 7817SOL    HW224351   4.385   1.963   6.449
 7818SOL     OW24352   6.173   1.150   3.329
 7818SOL    HW124353   6.135   1.233   3.370
 7818SOL    HW224354   6.124   1.130   3.244
 7819SOL     OW24355   1.327   2.576   4.783
 7819SOL    HW124356   1.307   2.566   4.880
 7819SOL    HW224357   1.423   2.603   4.771
 7820SOL     OW24358   1.182   1.231   5.574
 7820SOL    HW124359   1.166   1.165   5.647
 7820SOL    HW224360   1.280   1.232   5.551
 7821SOL     OW24361   3.828   5.499   6.788
 7821SOL    HW124362   3.807   5.591   6.757
 7821SOL    HW224363   3.860   5.502   6.883
 7822SOL     OW24364   0.567   1.513   4.452
 7822SOL    HW124365   0.590   1.456   4.530
 7822SOL    HW224366   0.540   1.604   4.483
 7823SOL     OW24367   3.011   2.988   6.105
 7823SOL    HW124368   3.013   2.897   6.065
 7823SOL    HW224369   3.041   2.984   6.200
 7824SOL     OW24370   6.038   3.841   3.087
 7824SOL    HW124371   6.039   3.843   3.187
 7824SOL    HW224372   5.949   3.809   3.055
 7825SOL     OW24373   4.082   3.336   2.983
 7825SOL    HW124374   4.051   3.274   3.055
 7825SOL    HW224375   4.098   3.284   2.899
 7826SOL     OW24376   6.545   0.134   0.906
 7826SOL    HW124377   6.581   0.204   0.845
 7826SOL    HW224378   6.518   0.176   0.993
 7827SOL     OW24379   3.972   3.670   0.493
 7827SOL    HW124380   4.045   3.616   0.535
 7827SOL    HW224381   4.005   3.711   0.408
 7828SOL     OW24382   1.212   6.573   1.326
 7828SOL    HW124383   1.310   6.589   1.343
 7828SOL    HW224384   1.200   6.485   1.282
 7829SOL     OW24385   3.533   3.573   2.712
 7829SOL    HW124386   3.552   3.535   2.621
 7829SOL    HW224387   3.475   3.654   2.703
 7830SOL     OW24388   6.630   3.640   0.526
 7830SOL    HW124389   6.690   3.621   0.604
 7830SOL    HW224390   6.569   3.562   0.513
 7831SOL     OW24391   2.043   2.578   0.260
 7831SOL    HW124392   2.012   2.504   0.319
 7831SOL    HW224393   1.993   2.662   0.283
 7832SOL     OW24394   3.505   2.745   5.937
 7832SOL    HW124395   3.545   2.653   5.943
 7832SOL    HW224396   3.571   2.812   5.969
 7833SOL     OW24397   6.683   6.385   1.781
 7833SOL    HW124398   6.650   6.304   1.829
 7833SOL    HW224399   6.606   6.434   1.741
 7834SOL     OW24400   5.708   0.949   0.990
 7834SOL    HW124401   5.789   0.964   1.046
 7834SOL    HW224402   5.628   0.941   1.049
 7835SOL     OW24403   2.205   2.237   4.024
 7835SOL    HW124404   2.269   2.178   4.072
 7835SOL    HW224405   2.128   2.183   3.990
 7836SOL     OW24406   2.066   0.482   0.238
 7836SOL    HW124407   2.011   0.436   0.308
 7836SOL    HW224408   2.158   0.445   0.238
 7837SOL     OW24409   5.500   5.689   2.456
 7837SOL    HW124410   5.547   5.777   2.466
 7837SOL    HW224411   5.406   5.705   2.428
 7838SOL     OW24412   4.109   6.064   4.069
 7838SOL    HW124413   4.136   6.005   3.994
 7838SOL    HW224414   4.010   6.077   4.067
 7839SOL     OW24415   0.011   4.495   3.552
 7839SOL    HW124416   6.942   4.532   3.543
 7839SOL    HW224417   0.046   4.513   3.644
 7840SOL     OW24418   5.161   3.215   6.323
 7840SOL    HW124419   5.177   3.162   6.239
 7840SOL    HW224420   5.082   3.274   6.311
 7841SOL     OW24421   1.127   2.170   6.391
 7841SOL    HW124422   1.205   2.113   6.417
 7841SOL    HW224423   1.106   2.156   6.294
 7842SOL     OW24424   2.674   0.045   2.648
 7842SOL    HW124425   2.640   7.014   2.571
 7842SOL    HW224426   2.669   7.013   2.732
 7843SOL     OW24427   0.241   2.660   2.194
 7843SOL    HW124428   0.199   2.670   2.104
 7843SOL    HW224429   0.304   2.736   2.210
 7844SOL     OW24430   3.936   2.029   3.611
 7844SOL    HW124431   3.863   2.060   3.672
 7844SOL    HW224432   3.936   1.929   3.608
 7845SOL     OW24433   1.016   1.373   4.277
 7845SOL    HW124434   1.005   1.444   4.207
 7845SOL    HW224435   1.090   1.399   4.339
 7846SOL     OW24436   4.527   6.723   2.546
 7846SOL    HW124437   4.492   6.721   2.639
 7846SOL    HW224438   4.599   6.791   2.538
 7847SOL     OW24439   0.388   0.078   0.153
 7847SOL    HW124440   0.426   0.005   0.211
 7847SOL    HW224441   0.373   0.042   0.061
 7848SOL     OW24442   3.694   3.976   1.709
 7848SOL    HW124443   3.657   3.904   1.769
 7848SOL    HW224444   3.674   4.066   1.748
 7849SOL     OW24445   5.269   4.296   5.080
 7849SOL    HW124446   5.299   4.219   5.025
 7849SOL    HW224447   5.268   4.379   5.024
 7850SOL     OW24448   0.905   2.826   4.639
 7850SOL    HW124449   0.909   2.789   4.546
 7850SOL    HW224450   0.962   2.770   4.699
 7851SOL     OW24451   3.995   6.593   1.221
 7851SOL    HW124452   4.017   6.629   1.130
 7851SOL    HW224453   3.899   6.565   1.223
 7852SOL     OW24454   2.456   0.093   0.127
 7852SOL    HW124455   2.359   0.097   0.150
 7852SOL    HW224456   2.505   0.166   0.175
 7853SOL     OW24457   2.255   2.681   0.120
 7853SOL    HW124458   2.167   2.646   0.153
 7853SOL    HW224459   2.272   2.648   0.027
 7854SOL     OW24460   3.237   4.141   3.600
 7854SOL    HW124461   3.176   4.220   3.606
 7854SOL    HW224462   3.269   4.117   3.692
 7855SOL     OW24463   3.257   0.209   5.121
 7855SOL    HW124464   3.223   0.124   5.161
 7855SOL    HW224465   3.330   0.188   5.056
 7856SOL     OW24466   2.997   3.631   6.942
 7856SOL    HW124467   2.909   3.622   6.988
 7856SOL    HW224468   3.003   3.719   6.896
 7857SOL     OW24469   0.344   3.033   5.624
 7857SOL    HW124470   0.336   3.058   5.528
 7857SOL    HW224471   0.362   3.114   5.679
 7858SOL     OW24472   5.727   3.069   2.920
 7858SOL    HW124473   5.702   3.163   2.942
 7858SOL    HW224474   5.738   3.017   3.005
 7859SOL     OW24475   0.542   6.408   0.592
 7859SOL    HW124476   0.591   6.406   0.505
 7859SOL    HW224477   0.444   6.403   0.576
 7860SOL     OW24478   4.175   6.695   1.644
 7860SOL    HW124479   4.227   6.612   1.626
 7860SOL    HW224480   4.094   6.672   1.697
 7861SOL     OW24481   5.268   3.751   0.578
 7861SOL    HW124482   5.301   3.804   0.657
 7861SOL    HW224483   5.239   3.661   0.609
 7862SOL     OW24484   3.337   4.344   1.577
 7862SOL    HW124485   3.246   4.323   1.614
 7862SOL    HW224486   3.405   4.285   1.620
 7863SOL     OW24487   5.010   5.827   2.745
 7863SOL    HW124488   5.000   5.736   2.707
 7863SOL    HW224489   4.927   5.851   2.797
 7864SOL     OW24490   1.218   5.721   4.868
 7864SOL    HW124491   1.298   5.781   4.878
 7864SOL    HW224492   1.142   5.773   4.831
 7865SOL     OW24493   4.499   0.863   3.404
 7865SOL    HW124494   4.588   0.821   3.420
 7865SOL    HW224495   4.446   0.806   3.341
 7866SOL     OW24496   2.649   2.471   5.609
 7866SOL    HW124497   2.612   2.542   5.548
 7866SOL    HW224498   2.579   2.402   5.625
 7867SOL     OW24499   5.864   3.401   1.647
 7867SOL    HW124500   5.932   3.344   1.602
 7867SOL    HW224501   5.774   3.383   1.608
 7868SOL     OW24502   4.810   0.535   0.377
 7868SOL    HW124503   4.766   0.450   0.346
 7868SOL    HW224504   4.892   0.551   0.323
 7869SOL     OW24505   6.224   1.889   4.325
 7869SOL    HW124506   6.282   1.860   4.249
 7869SOL    HW224507   6.200   1.985   4.314
 7870SOL     OW24508   6.815   0.020   2.943
 7870SOL    HW124509   6.892   0.057   2.995
 7870SOL    HW224510   6.825   0.046   2.847
 7871SOL     OW24511   5.788   3.313   4.379
 7871SOL    HW124512   5.887   3.322   4.382
 7871SOL    HW224513   5.763   3.216   4.379
 7872SOL     OW24514   0.199   4.251   4.517
 7872SOL    HW124515   0.134   4.183   4.551
 7872SOL    HW224516   0.275   4.204   4.471
 7873SOL     OW24517   6.954   5.790   4.980
 7873SOL    HW124518   0.020   5.824   4.949
 7873SOL    HW224519   6.883   5.854   4.954
 7874SOL     OW24520   6.136   0.453   0.722
 7874SOL    HW124521   6.080   0.393   0.779
 7874SOL    HW224522   6.117   0.549   0.745
 7875SOL     OW24523   4.624   3.459   0.082
 7875SOL    HW124524   4.654   3.425   0.171
 7875SOL    HW224525   4.524   3.455   0.077
 7876SOL     OW24526   0.232   1.406   5.039
 7876SOL    HW124527   0.210   1.361   4.953
 7876SOL    HW224528   0.219   1.343   5.115
 7877SOL     OW24529   5.667   2.843   2.730
 7877SOL    HW124530   5.745   2.793   2.693
 7877SOL    HW224531   5.669   2.839   2.830
 7878SOL     OW24532   3.873   3.737   1.513
 7878SOL    HW124533   3.828   3.670   1.571
 7878SOL    HW224534   3.971   3.718   1.511
 7879SOL     OW24535   6.728   1.245   4.693
 7879SOL    HW124536   6.683   1.322   4.739
 7879SOL    HW224537   6.712   1.252   4.595
 7880SOL     OW24538   1.557   6.592   6.309
 7880SOL    HW124539   1.559   6.581   6.408
 7880SOL    HW224540   1.587   6.507   6.266
 7881SOL     OW24541   0.990   5.464   4.210
 7881SOL    HW124542   1.077   5.434   4.248
 7881SOL    HW224543   0.974   5.560   4.233
 7882SOL     OW24544   1.498   5.046   1.734
 7882SOL    HW124545   1.544   5.104   1.802
 7882SOL    HW224546   1.494   5.094   1.646
 7883SOL     OW24547   3.409   1.188   2.654
 7883SOL    HW124548   3.430   1.124   2.580
 7883SOL    HW224549   3.334   1.152   2.710
 7884SOL     OW24550   0.631   3.087   4.159
 7884SOL    HW124551   0.546   3.051   4.121
 7884SOL    HW224552   0.610   3.164   4.220
 7885SOL     OW24553   6.297   5.478   2.482
 7885SOL    HW124554   6.342   5.447   2.398
 7885SOL    HW224555   6.286   5.578   2.478
 7886SOL     OW24556   4.772   4.555   2.734
 7886SOL    HW124557   4.785   4.627   2.665
 7886SOL    HW224558   4.684   4.511   2.719
 7887SOL     OW24559   1.056   3.059   0.811
 7887SOL    HW124560   0.973   3.112   0.831
 7887SOL    HW224561   1.136   3.119   0.815
 7888SOL     OW24562   6.590   1.424   4.861
 7888SOL    HW124563   6.593   1.431   4.961
 7888SOL    HW224564   6.586   1.516   4.821
 7889SOL     OW24565   5.473   5.037   0.899
 7889SOL    HW124566   5.561   5.082   0.893
 7889SOL    HW224567   5.486   4.938   0.904
 7890SOL     OW24568   2.295   2.730   3.242
 7890SOL    HW124569   2.209   2.720   3.292
 7890SOL    HW224570   2.277   2.769   3.152
 7891SOL     OW24571   6.455   1.488   4.442
 7891SOL    HW124572   6.528   1.500   4.509
 7891SOL    HW224573   6.452   1.568   4.381
 7892SOL     OW24574   1.134   1.680   5.000
 7892SOL    HW124575   1.206   1.750   5.001
 7892SOL    HW224576   1.152   1.612   5.070
 7893SOL     OW24577   6.274   6.665   0.873
 7893SOL    HW124578   6.288   6.658   0.971
 7893SOL    HW224579   6.263   6.573   0.834
 7894SOL     OW24580   3.288   1.008   6.933
 7894SOL    HW124581   3.226   1.070   6.981
 7894SOL    HW224582   3.293   0.921   6.983
 7895SOL     OW24583   6.376   6.727   2.590
 7895SOL    HW124584   6.345   6.677   2.671
 7895SOL    HW224585   6.403   6.662   2.519
 7896SOL     OW24586   2.401   1.258   0.233
 7896SOL    HW124587   2.335   1.239   0.161
 7896SOL    HW224588   2.374   1.341   0.282
 7897SOL     OW24589   4.226   1.643   0.737
 7897SOL    HW124590   4.160   1.718   0.734
 7897SOL    HW224591   4.314   1.675   0.702
 7898SOL     OW24592   5.135   6.832   3.567
 7898SOL    HW124593   5.105   6.921   3.601
 7898SOL    HW224594   5.227   6.812   3.603
 7899SOL     OW24595   5.943   4.341   3.756
 7899SOL    HW124596   5.966   4.337   3.854
 7899SOL    HW224597   6.008   4.285   3.705
 7900SOL     OW24598   0.468   3.542   0.343
 7900SOL    HW124599   0.491   3.564   0.438
 7900SOL    HW224600   0.387   3.484   0.341
 7901SOL     OW24601   0.522   2.317   0.097
 7901SOL    HW124602   0.443   2.370   0.066
 7901SOL    HW224603   0.493   2.227   0.128
 7902SOL     OW24604   1.685   6.736   1.374
 7902SOL    HW124605   1.591   6.702   1.374
 7902SOL    HW224606   1.741   6.678   1.433
 7903SOL     OW24607   2.989   1.735   5.561
 7903SOL    HW124608   3.014   1.808   5.624
 7903SOL    HW224609   2.906   1.761   5.512
 7904SOL     OW24610   4.751   2.654   2.684
 7904SOL    HW124611   4.699   2.612   2.758
 7904SOL    HW224612   4.804   2.731   2.720
 7905SOL     OW24613   6.401   2.234   0.947
 7905SOL    HW124614   6.434   2.266   0.858
 7905SOL    HW224615   6.478   2.224   1.010
 7906SOL     OW24616   0.862   5.686   6.848
 7906SOL    HW124617   0.849   5.606   6.907
 7906SOL    HW224618   0.915   5.660   6.768
 7907SOL     OW24619   6.266   6.383   3.007
 7907SOL    HW124620   6.181   6.341   3.037
 7907SOL    HW224621   6.250   6.438   2.925
 7908SOL     OW24622   1.803   0.202   6.072
 7908SOL    HW124623   1.834   0.286   6.117
 7908SOL    HW224624   1.880   0.139   6.061
 7909SOL     OW24625   6.401   3.247   1.171
 7909SOL    HW124626   6.481   3.301   1.145
 7909SOL    HW224627   6.429   3.173   1.233
 7910SOL     OW24628   1.425   4.353   5.310
 7910SOL    HW124629   1.377   4.314   5.388
 7910SOL    HW224630   1.366   4.348   5.229
 7911SOL     OW24631   5.634   4.771   5.719
 7911SOL    HW124632   5.577   4.787   5.800
 7911SOL    HW224633   5.724   4.812   5.732
 7912SOL     OW24634   5.782   5.684   0.658
 7912SOL    HW124635   5.714   5.757   0.643
 7912SOL    HW224636   5.865   5.705   0.607
 7913SOL     OW24637   1.562   5.190   6.803
 7913SOL    HW124638   1.534   5.148   6.889
 7913SOL    HW224639   1.559   5.289   6.810
 7914SOL     OW24640   1.200   6.808   4.681
 7914SOL    HW124641   1.218   6.814   4.583
 7914SOL    HW224642   1.103   6.788   4.696
 7915SOL     OW24643   2.558   4.859   2.149
 7915SOL    HW124644   2.576   4.843   2.052
 7915SOL    HW224645   2.601   4.945   2.177
 7916SOL     OW24646   1.252   6.959   3.634
 7916SOL    HW124647   1.305   0.012   3.673
 7916SOL    HW224648   1.298   6.873   3.656
 7917SOL     OW24649   5.035   1.970   1.693
 7917SOL    HW124650   5.012   2.059   1.654
 7917SOL    HW224651   4.967   1.903   1.664
 7918SOL     OW24652   2.326   2.815   2.959
 7918SOL    HW124653   2.405   2.773   2.914
 7918SOL    HW224654   2.333   2.915   2.951
 7919SOL     OW24655   0.966   6.679   4.784
 7919SOL    HW124656   1.008   6.601   4.831
 7919SOL    HW224657   0.947   6.654   4.689
 7920SOL     OW24658   4.632   0.508   1.314
 7920SOL    HW124659   4.559   0.466   1.261
 7920SOL    HW224660   4.595   0.542   1.400
 7921SOL     OW24661   5.253   2.612   0.984
 7921SOL    HW124662   5.324   2.553   0.946
 7921SOL    HW224663   5.220   2.574   1.070
 7922SOL     OW24664   2.994   7.008   2.699
 7922SOL    HW124665   2.955   0.034   2.621
 7922SOL    HW224666   3.047   6.930   2.666
 7923SOL     OW24667   4.364   0.915   0.012
 7923SOL    HW124668   4.337   0.881   0.102
 7923SOL    HW224669   4.460   0.941   0.013
 7924SOL     OW24670   5.466   5.974   0.240
 7924SOL    HW124671   5.418   5.971   0.328
 7924SOL    HW224672   5.482   5.880   0.208
 7925SOL     OW24673   1.115   5.329   6.538
 7925SOL    HW124674   1.146   5.422   6.556
 7925SOL    HW224675   1.185   5.264   6.568
 7926SOL     OW24676   5.218   6.231   5.898
 7926SOL    HW124677   5.226   6.218   5.800
 7926SOL    HW224678   5.309   6.237   5.939
 7927SOL     OW24679   4.311   7.011   3.469
 7927SOL    HW124680   4.345   7.017   3.374
 7927SOL    HW224681   4.383   0.019   3.531
 7928SOL     OW24682   5.549   1.968   3.538
 7928SOL    HW124683   5.514   1.929   3.452
 7928SOL    HW224684   5.631   1.918   3.565
 7929SOL     OW24685   4.959   4.166   5.828
 7929SOL    HW124686   4.871   4.204   5.859
 7929SOL    HW224687   4.942   4.099   5.757
 7930SOL     OW24688   4.234   6.301   6.429
 7930SOL    HW124689   4.276   6.392   6.420
 7930SOL    HW224690   4.210   6.286   6.525
 7931SOL     OW24691   4.254   1.493   0.972
 7931SOL    HW124692   4.259   1.399   0.938
 7931SOL    HW224693   4.247   1.555   0.894
 7932SOL     OW24694   1.053   3.777   1.621
 7932SOL    HW124695   1.135   3.759   1.567
 7932SOL    HW224696   0.973   3.746   1.570
 7933SOL     OW24697   1.029   1.798   6.938
 7933SOL    HW124698   1.118   1.833   6.910
 7933SOL    HW224699   0.957   1.862   6.913
 7934SOL     OW24700   0.295   5.284   1.017
 7934SOL    HW124701   0.276   5.353   1.088
 7934SOL    HW224702   0.289   5.193   1.058
 7935SOL     OW24703   6.576   3.058   3.317
 7935SOL    HW124704   6.581   3.048   3.217
 7935SOL    HW224705   6.652   3.114   3.348
 7936SOL     OW24706   2.148   5.721   3.569
 7936SOL    HW124707   2.217   5.782   3.608
 7936SOL    HW224708   2.064   5.728   3.621
 7937SOL     OW24709   4.344   1.273   1.220
 7937SOL    HW124710   4.323   1.371   1.221
 7937SOL    HW224711   4.264   1.221   1.189
 7938SOL     OW24712   2.601   0.162   3.063
 7938SOL    HW124713   2.565   0.140   3.153
 7938SOL    HW224714   2.700   0.153   3.063
 7939SOL     OW24715   1.044   0.546   2.757
 7939SOL    HW124716   0.998   0.477   2.813
 7939SOL    HW224717   1.122   0.583   2.807
 7940SOL     OW24718   5.728   1.651   4.840
 7940SOL    HW124719   5.699   1.584   4.771
 7940SOL    HW224720   5.708   1.616   4.931
 7941SOL     OW24721   3.319   6.917   0.989
 7941SOL    HW124722   3.223   6.924   0.960
 7941SOL    HW224723   3.326   6.944   1.085
 7942SOL     OW24724   1.504   4.318   0.806
 7942SOL    HW124725   1.497   4.314   0.906
 7942SOL    HW224726   1.545   4.405   0.779
 7943SOL     OW24727   1.317   6.404   6.217
 7943SOL    HW124728   1.302   6.494   6.259
 7943SOL    HW224729   1.240   6.344   6.237
 7944SOL     OW24730   1.387   1.777   1.442
 7944SOL    HW124731   1.392   1.774   1.342
 7944SOL    HW224732   1.473   1.812   1.479
 7945SOL     OW24733   6.005   3.326   2.996
 7945SOL    HW124734   6.100   3.334   3.024
 7945SOL    HW224735   5.974   3.232   3.010
 7946SOL     OW24736   4.472   2.224   6.581
 7946SOL    HW124737   4.430   2.310   6.608
 7946SOL    HW224738   4.476   2.218   6.481
 7947SOL     OW24739   0.105   3.703   6.236
 7947SOL    HW124740   0.174   3.773   6.220
 7947SOL    HW224741   0.040   3.734   6.306
 7948SOL     OW24742   1.042   5.847   1.453
 7948SOL    HW124743   1.118   5.868   1.515
 7948SOL    HW224744   0.956   5.860   1.501
 7949SOL     OW24745   2.550   5.720   5.611
 7949SOL    HW124746   2.492   5.786   5.563
 7949SOL    HW224747   2.498   5.681   5.688
 7950SOL     OW24748   6.381   4.409   6.003
 7950SOL    HW124749   6.420   4.317   6.005
 7950SOL    HW224750   6.434   4.468   6.065
 7951SOL     OW24751   4.112   6.868   3.099
 7951SOL    HW124752   4.027   6.846   3.147
 7951SOL    HW224753   4.091   6.913   3.012
 7952SOL     OW24754   6.996   4.069   4.933
 7952SOL    HW124755   0.053   4.129   4.926
 7952SOL    HW224756   7.016   3.982   4.888
 7953SOL     OW24757   1.691   0.065   7.014
 7953SOL    HW124758   1.611   0.008   6.996
 7953SOL    HW224759   1.662   0.160   0.003
 7954SOL     OW24760   3.700   3.315   0.035
 7954SOL    HW124761   3.738   3.407   0.024
 7954SOL    HW224762   3.644   3.292   6.978
 7955SOL     OW24763   0.647   1.253   6.291
 7955SOL    HW124764   0.711   1.289   6.358
 7955SOL    HW224765   0.591   1.327   6.254
 7956SOL     OW24766   0.378   6.668   0.482
 7956SOL    HW124767   0.304   6.735   0.491
 7956SOL    HW224768   0.454   6.694   0.542
 7957SOL     OW24769   5.304   1.537   5.750
 7957SOL    HW124770   5.306   1.612   5.816
 7957SOL    HW224771   5.324   1.573   5.659
 7958SOL     OW24772   4.198   2.561   6.869
 7958SOL    HW124773   4.259   2.526   6.941
 7958SOL    HW224774   4.201   2.499   6.791
 7959SOL     OW24775   5.281   2.723   0.113
 7959SOL    HW124776   5.325   2.811   0.132
 7959SOL    HW224777   5.285   2.705   0.015
 7960SOL     OW24778   0.722   1.780   4.808
 7960SOL    HW124779   0.760   1.817   4.723
 7960SOL    HW224780   0.623   1.765   4.797
 7961SOL     OW24781   6.000   0.058   0.650
 7961SOL    HW124782   5.997   0.107   0.563
 7961SOL    HW224783   5.999   0.123   0.725
 7962SOL     OW24784   5.857   6.926   5.153
 7962SOL    HW124785   5.952   6.930   5.124
 7962SOL    HW224786   5.832   7.012   5.197
 7963SOL     OW24787   5.715   6.368   3.287
 7963SOL    HW124788   5.749   6.350   3.379
 7963SOL    HW224789   5.635   6.311   3.269
 7964SOL     OW24790   6.195   3.422   1.250
 7964SOL    HW124791   6.238   3.503   1.291
 7964SOL    HW224792   6.266   3.353   1.232
 7965SOL     OW24793   5.107   2.064   6.396
 7965SOL    HW124794   5.007   2.069   6.401
 7965SOL    HW224795   5.134   2.010   6.316
 7966SOL     OW24796   5.666   3.717   5.072
 7966SOL    HW124797   5.574   3.700   5.037
 7966SOL    HW224798   5.667   3.804   5.121
 7967SOL     OW24799   1.241   4.743   0.393
 7967SOL    HW124800   1.174   4.800   0.441
 7967SOL    HW224801   1.224   4.748   0.295
 7968SOL     OW24802   2.123   2.661   3.748
 7968SOL    HW124803   2.121   2.597   3.671
 7968SOL    HW224804   2.174   2.620   3.824
 7969SOL     OW24805   3.215   4.172   6.848
 7969SOL    HW124806   3.282   4.177   6.773
 7969SOL    HW224807   3.154   4.252   6.843
 7970SOL     OW24808   5.807   2.444   4.202
 7970SOL    HW124809   5.763   2.403   4.282
 7970SOL    HW224810   5.736   2.478   4.139
 7971SOL     OW24811   2.931   1.197   6.782
 7971SOL    HW124812   2.894   1.105   6.768
 7971SOL    HW224813   2.993   1.196   6.861
 7972SOL     OW24814   3.271   4.121   4.640
 7972SOL    HW124815   3.240   4.112   4.735
 7972SOL    HW224816   3.312   4.211   4.627
 7973SOL     OW24817   6.053   4.984   2.030
 7973SOL    HW124818   6.018   5.077   2.019
 7973SOL    HW224819   6.151   4.988   2.052
 7974SOL     OW24820   0.779   3.239   4.509
 7974SOL    HW124821   0.839   3.160   4.519
 7974SOL    HW224822   0.703   3.217   4.449
 7975SOL     OW24823   4.500   0.463   6.894
 7975SOL    HW124824   4.567   0.477   6.821
 7975SOL    HW224825   4.541   0.489   6.982
 7976SOL     OW24826   0.702   0.572   0.263
 7976SOL    HW124827   0.669   0.658   0.225
 7976SOL    HW224828   0.774   0.534   0.204
 7977SOL     OW24829   5.538   5.540   3.222
 7977SOL    HW124830   5.455   5.489   3.241
 7977SOL    HW224831   5.543   5.563   3.124
 7978SOL     OW24832   0.230   3.662   1.173
 7978SOL    HW124833   0.227   3.698   1.079
 7978SOL    HW224834   0.267   3.569   1.172
 7979SOL     OW24835   2.744   2.506   5.238
 7979SOL    HW124836   2.814   2.575   5.253
 7979SOL    HW224837   2.654   2.550   5.238
 7980SOL     OW24838   3.725   5.486   1.897
 7980SOL    HW124839   3.758   5.421   1.966
 7980SOL    HW224840   3.626   5.477   1.887
 7981SOL     OW24841   1.944   3.599   4.431
 7981SOL    HW124842   1.861   3.545   4.414
 7981SOL    HW224843   1.928   3.659   4.509
 7982SOL     OW24844   6.910   1.011   6.096
 7982SOL    HW124845   6.938   1.021   6.192
 7982SOL    HW224846   6.880   1.099   6.061
 7983SOL     OW24847   3.424   0.852   1.797
 7983SOL    HW124848   3.497   0.900   1.748
 7983SOL    HW224849   3.336   0.894   1.776
 7984SOL     OW24850   6.275   2.869   2.654
 7984SOL    HW124851   6.316   2.778   2.654
 7984SOL    HW224852   6.209   2.875   2.579
 7985SOL     OW24853   3.163   2.676   5.327
 7985SOL    HW124854   3.251   2.703   5.367
 7985SOL    HW224855   3.120   2.605   5.384
 7986SOL     OW24856   4.024   0.678   4.062
 7986SOL    HW124857   3.952   0.703   3.997
 7986SOL    HW224858   4.113   0.692   4.020
 7987SOL     OW24859   1.044   3.352   6.490
 7987SOL    HW124860   1.013   3.258   6.476
 7987SOL    HW224861   1.143   3.357   6.483
 7988SOL     OW24862   6.585   0.610   1.087
 7988SOL    HW124863   6.643   0.532   1.063
 7988SOL    HW224864   6.555   0.656   1.003
 7989SOL     OW24865   0.598   4.618   1.018
 7989SOL    HW124866   0.658   4.571   0.954
 7989SOL    HW224867   0.525   4.556   1.048
 7990SOL     OW24868   4.943   5.064   4.660
 7990SOL    HW124869   4.989   5.030   4.742
 7990SOL    HW224870   4.923   5.162   4.671
 7991SOL     OW24871   5.689   0.801   4.617
 7991SOL    HW124872   5.752   0.879   4.616
 7991SOL    HW224873   5.723   0.731   4.680
 7992SOL     OW24874   1.964   0.271   6.678
 7992SOL    HW124875   2.012   0.236   6.758
 7992SOL    HW224876   1.924   0.360   6.699
 7993SOL     OW24877   5.914   5.925   0.459
 7993SOL    HW124878   5.972   5.948   0.537
 7993SOL    HW224879   5.931   5.830   0.431
 7994SOL     OW24880   6.759   0.787   4.502
 7994SOL    HW124881   6.705   0.713   4.542
 7994SOL    HW224882   6.842   0.750   4.461
 7995SOL     OW24883   0.176   5.911   1.543
 7995SOL    HW124884   0.224   5.977   1.485
 7995SOL    HW224885   0.078   5.916   1.524
 7996SOL     OW24886   2.231   6.540   3.463
 7996SOL    HW124887   2.189   6.459   3.422
 7996SOL    HW224888   2.291   6.583   3.395
 7997SOL     OW24889   2.547   1.916   5.908
 7997SOL    HW124890   2.467   1.919   5.847
 7997SOL    HW224891   2.628   1.890   5.855
 7998SOL     OW24892   2.405   1.196   1.006
 7998SOL    HW124893   2.344   1.203   0.927
 7998SOL    HW224894   2.482   1.137   0.984
 7999SOL     OW24895   0.773   0.018   3.650
 7999SOL    HW124896   0.800   0.113   3.637
 7999SOL    HW224897   0.701   0.012   3.719
 8000SOL     OW24898   4.331   5.847   0.587
 8000SOL    HW124899   4.252   5.807   0.541
 8000SOL    HW224900   4.304   5.930   0.636
 8001SOL     OW24901   4.739   4.364   1.539
 8001SOL    HW124902   4.704   4.428   1.608
 8001SOL    HW224903   4.669   4.350   1.469
 8002SOL     OW24904   1.038   0.284   4.611
 8002SOL    HW124905   1.128   0.251   4.585
 8002SOL    HW224906   0.998   0.222   4.679
 8003SOL     OW24907   2.857   5.783   3.087
 8003SOL    HW124908   2.847   5.684   3.092
 8003SOL    HW224909   2.822   5.825   3.171
 8004SOL     OW24910   1.681   3.867   4.075
 8004SOL    HW124911   1.760   3.901   4.023
 8004SOL    HW224912   1.653   3.935   4.142
 8005SOL     OW24913   2.563   0.347   4.007
 8005SOL    HW124914   2.533   0.253   4.023
 8005SOL    HW224915   2.491   0.410   4.034
 8006SOL     OW24916   4.873   5.426   5.990
 8006SOL    HW124917   4.796   5.424   5.926
 8006SOL    HW224918   4.868   5.509   6.045
 8007SOL     OW24919   0.300   0.681   1.284
 8007SOL    HW124920   0.256   0.746   1.222
 8007SOL    HW224921   0.236   0.656   1.357
 8008SOL     OW24922   4.405   5.304   0.393
 8008SOL    HW124923   4.469   5.309   0.470
 8008SOL    HW224924   4.311   5.306   0.427
 8009SOL     OW24925   6.713   1.625   0.563
 8009SOL    HW124926   6.633   1.655   0.510
 8009SOL    HW224927   6.782   1.589   0.500
 8010SOL     OW24928   3.679   1.027   5.882
 8010SOL    HW124929   3.647   1.002   5.791
 8010SOL    HW224930   3.771   0.989   5.897
 8011SOL     OW24931   3.960   1.784   2.681
 8011SOL    HW124932   3.920   1.855   2.739
 8011SOL    HW224933   3.959   1.814   2.585
 8012SOL     OW24934   6.593   1.025   4.464
 8012SOL    HW124935   6.621   1.121   4.477
 8012SOL    HW224936   6.675   0.967   4.460
 8013SOL     OW24937   3.837   0.393   3.283
 8013SOL    HW124938   3.794   0.316   3.330
 8013SOL    HW224939   3.916   0.361   3.230
 8014SOL     OW24940   2.551   2.339   3.164
 8014SOL    HW124941   2.513   2.431   3.153
 8014SOL    HW224942   2.561   2.297   3.074
 8015SOL     OW24943   3.539   0.084   4.382
 8015SOL    HW124944   3.616   0.021   4.369
 8015SOL    HW224945   3.461   0.033   4.419
 8016SOL     OW24946   3.478   2.253   5.507
 8016SOL    HW124947   3.557   2.276   5.565
 8016SOL    HW224948   3.481   2.156   5.486
 8017SOL     OW24949   6.063   5.988   1.366
 8017SOL    HW124950   5.989   5.928   1.395
 8017SOL    HW224951   6.141   5.933   1.335
 8018SOL     OW24952   3.187   3.870   0.900
 8018SOL    HW124953   3.257   3.915   0.844
 8018SOL    HW224954   3.207   3.772   0.906
 8019SOL     OW24955   2.741   3.269   0.435
 8019SOL    HW124956   2.804   3.201   0.474
 8019SOL    HW224957   2.659   3.275   0.493
 8020SOL     OW24958   0.108   0.347   6.530
 8020SOL    HW124959   0.094   0.256   6.568
 8020SOL    HW224960   0.158   0.341   6.444
 8021SOL     OW24961   1.149   3.217   0.541
 8021SOL    HW124962   1.225   3.271   0.505
 8021SOL    HW224963   1.186   3.142   0.597
 8022SOL     OW24964   4.397   6.999   2.392
 8022SOL    HW124965   4.451   0.024   2.461
 8022SOL    HW224966   4.316   0.031   2.369
 8023SOL     OW24967   4.121   5.576   2.399
 8023SOL    HW124968   4.063   5.627   2.463
 8023SOL    HW224969   4.211   5.619   2.396
 8024SOL     OW24970   2.404   0.826   6.831
 8024SOL    HW124971   2.398   0.910   6.777
 8024SOL    HW224972   2.316   0.808   6.875
 8025SOL     OW24973   0.903   6.469   1.359
 8025SOL    HW124974   0.973   6.419   1.409
 8025SOL    HW224975   0.863   6.539   1.417
 8026SOL     OW24976   0.913   6.374   6.452
 8026SOL    HW124977   0.928   6.390   6.550
 8026SOL    HW224978   0.817   6.356   6.435
 8027SOL     OW24979   3.644   0.990   6.433
 8027SOL    HW124980   3.683   1.082   6.425
 8027SOL    HW224981   3.562   0.994   6.490
 8028SOL     OW24982   3.346   6.117   6.450
 8028SOL    HW124983   3.407   6.196   6.452
 8028SOL    HW224984   3.252   6.147   6.462
 8029SOL     OW24985   0.972   0.643   1.729
 8029SOL    HW124986   1.054   0.694   1.756
 8029SOL    HW224987   0.899   0.708   1.709
 8030SOL     OW24988   0.955   4.215   0.989
 8030SOL    HW124989   0.872   4.224   1.044
 8030SOL    HW224990   0.961   4.292   0.925
 8031SOL     OW24991   6.652   0.697   1.818
 8031SOL    HW124992   6.620   0.726   1.908
 8031SOL    HW224993   6.664   0.598   1.817
 8032SOL     OW24994   0.235   2.804   0.177
 8032SOL    HW124995   0.136   2.818   0.168
 8032SOL    HW224996   0.279   2.818   0.088
 8033SOL     OW24997   3.808   4.277   1.606
 8033SOL    HW124998   3.814   4.197   1.545
 8033SOL    HW224999   3.746   4.256   1.681
 8034SOL     OW25000   0.852   6.955   5.812
 8034SOL    HW125001   0.911   6.998   5.744
 8034SOL    HW225002   0.903   6.940   5.896
 8035SOL     OW25003   6.332   6.982   4.422
 8035SOL    HW125004   6.372   0.042   4.384
 8035SOL    HW225005   6.245   7.003   4.466
 8036SOL     OW25006   5.214   3.354   3.861
 8036SOL    HW125007   5.286   3.404   3.814
 8036SOL    HW225008   5.139   3.416   3.884
 8037SOL     OW25009   2.897   1.295   6.099
 8037SOL    HW125010   2.836   1.353   6.153
 8037SOL    HW225011   2.933   1.221   6.157
 8038SOL     OW25012   6.496   5.408   2.310
 8038SOL    HW125013   6.496   5.365   2.220
 8038SOL    HW225014   6.578   5.464   2.319
 8039SOL     OW25015   2.289   2.349   4.944
 8039SOL    HW125016   2.355   2.412   4.986
 8039SOL    HW225017   2.240   2.396   4.871
 8040SOL     OW25018   0.493   6.234   6.275
 8040SOL    HW125019   0.570   6.286   6.237
 8040SOL    HW225020   0.517   6.137   6.276
 8041SOL     OW25021   3.393   1.120   3.164
 8041SOL    HW125022   3.428   1.202   3.117
 8041SOL    HW225023   3.309   1.143   3.213
 8042SOL     OW25024   3.549   3.951   6.134
 8042SOL    HW125025   3.637   3.922   6.171
 8042SOL    HW225026   3.489   3.980   6.208
 8043SOL     OW25027   4.908   5.668   0.630
 8043SOL    HW125028   4.839   5.729   0.670
 8043SOL    HW225029   4.929   5.699   0.537
 8044SOL     OW25030   1.583   2.865   1.417
 8044SOL    HW125031   1.662   2.813   1.384
 8044SOL    HW225032   1.601   2.900   1.509
 8045SOL     OW25033   6.415   3.495   4.528
 8045SOL    HW125034   6.334   3.535   4.571
 8045SOL    HW225035   6.494   3.552   4.547
 8046SOL     OW25036   0.091   4.229   1.462
 8046SOL    HW125037   0.158   4.297   1.488
 8046SOL    HW225038   0.050   4.254   1.374
 8047SOL     OW25039   2.960   6.126   6.807
 8047SOL    HW125040   2.981   6.223   6.802
 8047SOL    HW225041   2.867   6.114   6.842
 8048SOL     OW25042   3.901   2.197   6.171
 8048SOL    HW125043   3.873   2.164   6.081
 8048SOL    HW225044   3.942   2.288   6.161
 8049SOL     OW25045   1.724   1.135   0.609
 8049SOL    HW125046   1.818   1.118   0.638
 8049SOL    HW225047   1.672   1.049   0.612
 8050SOL     OW25048   0.510   5.033   5.969
 8050SOL    HW125049   0.606   5.048   5.946
 8050SOL    HW225050   0.455   5.035   5.886
 8051SOL     OW25051   4.730   6.816   3.054
 8051SOL    HW125052   4.825   6.817   3.086
 8051SOL    HW225053   4.708   6.905   3.013
 8052SOL     OW25054   2.796   1.996   2.679
 8052SOL    HW125055   2.700   1.991   2.708
 8052SOL    HW225056   2.827   2.091   2.685
 8053SOL     OW25057   1.311   2.765   6.945
 8053SOL    HW125058   1.319   2.842   7.008
 8053SOL    HW225059   1.403   2.734   6.919
 8054SOL     OW25060   5.236   3.612   4.803
 8054SOL    HW125061   5.164   3.582   4.866
 8054SOL    HW225062   5.239   3.550   4.725
 8055SOL     OW25063   6.254   0.349   0.218
 8055SOL    HW125064   6.329   0.293   0.184
 8055SOL    HW225065   6.252   0.436   0.167
 8056SOL     OW25066   2.520   1.435   3.927
 8056SOL    HW125067   2.571   1.499   3.870
 8056SOL    HW225068   2.579   1.358   3.951
 8057SOL     OW25069   3.039   2.123   2.230
 8057SOL    HW125070   2.978   2.192   2.189
 8057SOL    HW225071   3.059   2.148   2.324
 8058SOL     OW25072   3.887   6.196   2.132
 8058SOL    HW125073   3.948   6.182   2.210
 8058SOL    HW225074   3.811   6.255   2.159
 8059SOL     OW25075   3.483   2.971   5.596
 8059SOL    HW125076   3.429   2.932   5.521
 8059SOL    HW225077   3.567   3.011   5.560
 8060SOL     OW25078   0.274   0.997   6.183
 8060SOL    HW125079   0.367   1.034   6.180
 8060SOL    HW225080   0.227   1.032   6.265
 8061SOL     OW25081   6.836   1.297   1.533
 8061SOL    HW125082   6.746   1.254   1.526
 8061SOL    HW225083   6.852   1.327   1.626
 8062SOL     OW25084   4.536   4.465   5.819
 8062SOL    HW125085   4.607   4.471   5.748
 8062SOL    HW225086   4.576   4.430   5.903
 8063SOL     OW25087   2.363   4.701   2.958
 8063SOL    HW125088   2.364   4.731   3.053
 8063SOL    HW225089   2.268   4.695   2.926
 8064SOL     OW25090   0.063   2.097   0.595
 8064SOL    HW125091   7.000   2.066   0.636
 8064SOL    HW225092   0.049   2.186   0.552
 8065SOL     OW25093   4.604   0.021   6.604
 8065SOL    HW125094   4.550   6.960   6.593
 8065SOL    HW225095   4.701   7.022   6.591
 8066SOL     OW25096   0.714   6.897   6.208
 8066SOL    HW125097   0.689   6.840   6.286
 8066SOL    HW225098   0.665   6.866   6.126
 8067SOL     OW25099   5.542   0.653   4.452
 8067SOL    HW125100   5.488   0.714   4.394
 8067SOL    HW225101   5.571   0.701   4.534
 8068SOL     OW25102   6.910   3.505   1.515
 8068SOL    HW125103   6.850   3.492   1.437
 8068SOL    HW225104   6.910   3.602   1.541
 8069SOL     OW25105   0.886   2.671   2.466
 8069SOL    HW125106   0.846   2.638   2.380
 8069SOL    HW225107   0.911   2.767   2.457
 8070SOL     OW25108   5.279   3.793   0.864
 8070SOL    HW125109   5.283   3.714   0.925
 8070SOL    HW225110   5.321   3.872   0.909
 8071SOL     OW25111   3.118   0.512   6.228
 8071SOL    HW125112   3.128   0.487   6.132
 8071SOL    HW225113   3.021   0.511   6.253
 8072SOL     OW25114   2.026   2.151   4.940
 8072SOL    HW125115   2.108   2.203   4.915
 8072SOL    HW225116   1.947   2.211   4.939
 8073SOL     OW25117   5.293   0.378   6.761
 8073SOL    HW125118   5.298   0.366   6.662
 8073SOL    HW225119   5.215   0.436   6.784
 8074SOL     OW25120   6.971   0.706   0.484
 8074SOL    HW125121   0.026   0.757   0.520
 8074SOL    HW225122   6.958   0.729   0.387
 8075SOL     OW25123   0.301   0.235   1.457
 8075SOL    HW125124   0.360   0.164   1.496
 8075SOL    HW225125   0.338   0.265   1.370
 8076SOL     OW25126   6.833   6.090   0.470
 8076SOL    HW125127   6.779   6.160   0.422
 8076SOL    HW225128   6.775   6.042   0.536
 8077SOL     OW25129   5.935   4.427   1.265
 8077SOL    HW125130   6.015   4.379   1.302
 8077SOL    HW225131   5.963   4.517   1.233
 8078SOL     OW25132   6.246   1.008   1.276
 8078SOL    HW125133   6.291   0.928   1.236
 8078SOL    HW225134   6.264   1.011   1.374
 8079SOL     OW25135   0.390   1.145   6.873
 8079SOL    HW125136   0.445   1.152   6.789
 8079SOL    HW225137   0.446   1.173   6.951
 8080SOL     OW25138   1.724   3.433   3.577
 8080SOL    HW125139   1.650   3.367   3.583
 8080SOL    HW225140   1.773   3.421   3.491
 8081SOL     OW25141   6.543   0.147   5.305
 8081SOL    HW125142   6.570   0.181   5.215
 8081SOL    HW225143   6.451   0.109   5.301
 8082SOL     OW25144   3.908   2.152   4.285
 8082SOL    HW125145   3.951   2.213   4.351
 8082SOL    HW225146   3.916   2.057   4.317
 8083SOL     OW25147   6.553   2.932   4.335
 8083SOL    HW125148   6.604   2.971   4.258
 8083SOL    HW225149   6.474   2.881   4.300
 8084SOL     OW25150   4.824   1.880   6.084
 8084SOL    HW125151   4.731   1.845   6.081
 8084SOL    HW225152   4.869   1.852   6.168
 8085SOL     OW25153   1.834   5.820   4.305
 8085SOL    HW125154   1.743   5.779   4.315
 8085SOL    HW225155   1.887   5.766   4.239
 8086SOL     OW25156   6.553   1.552   2.647
 8086SOL    HW125157   6.501   1.589   2.570
 8086SOL    HW225158   6.490   1.518   2.717
 8087SOL     OW25159   6.916   1.414   6.513
 8087SOL    HW125160   6.873   1.353   6.579
 8087SOL    HW225161   6.984   1.364   6.460
 8088SOL     OW25162   0.117   0.086   4.879
 8088SOL    HW125163   0.133   0.161   4.943
 8088SOL    HW225164   0.145   7.023   4.922
 8089SOL     OW25165   6.602   1.865   6.908
 8089SOL    HW125166   6.617   1.864   7.007
 8089SOL    HW225167   6.688   1.842   6.862
 8090SOL     OW25168   4.512   2.512   5.192
 8090SOL    HW125169   4.581   2.471   5.132
 8090SOL    HW225170   4.536   2.607   5.210
 8091SOL     OW25171   0.590   4.048   4.430
 8091SOL    HW125172   0.658   4.103   4.477
 8091SOL    HW225173   0.520   4.107   4.390
 8092SOL     OW25174   4.740   0.329   6.014
 8092SOL    HW125175   4.775   0.247   6.058
 8092SOL    HW225176   4.736   0.404   6.080
 8093SOL     OW25177   3.687   6.595   3.735
 8093SOL    HW125178   3.647   6.681   3.767
 8093SOL    HW225179   3.746   6.613   3.657
 8094SOL     OW25180   2.074   3.954   3.938
 8094SOL    HW125181   2.119   3.895   4.006
 8094SOL    HW225182   2.105   4.048   3.951
 8095SOL     OW25183   1.058   4.898   4.900
 8095SOL    HW125184   1.138   4.838   4.906
 8095SOL    HW225185   1.087   4.993   4.914
 8096SOL     OW25186   0.638   4.717   0.390
 8096SOL    HW125187   0.730   4.679   0.402
 8096SOL    HW225188   0.646   4.814   0.367
 8097SOL     OW25189   4.404   6.839   6.593
 8097SOL    HW125190   4.459   6.757   6.609
 8097SOL    HW225191   4.382   6.882   6.680
 8098SOL     OW25192   2.243   5.736   4.939
 8098SOL    HW125193   2.205   5.674   4.870
 8098SOL    HW225194   2.218   5.704   5.030
 8099SOL     OW25195   1.886   4.140   2.582
 8099SOL    HW125196   1.819   4.068   2.568
 8099SOL    HW225197   1.879   4.208   2.508
 8100SOL     OW25198   6.667   0.593   7.002
 8100SOL    HW125199   6.685   0.495   6.992
 8100SOL    HW225200   6.676   0.619   0.075
 8101SOL     OW25201   2.101   5.754   0.970
 8101SOL    HW125202   2.061   5.663   0.959
 8101SOL    HW225203   2.029   5.821   0.985
 8102SOL     OW25204   0.786   3.996   4.023
 8102SOL    HW125205   0.815   3.935   3.949
 8102SOL    HW225206   0.728   3.946   4.087
 8103SOL     OW25207   4.072   0.912   0.797
 8103SOL    HW125208   4.005   0.984   0.780
 8103SOL    HW225209   4.153   0.928   0.740
 8104SOL     OW25210   1.678   5.420   6.948
 8104SOL    HW125211   1.689   5.438   6.850
 8104SOL    HW225212   1.603   5.476   6.983
 8105SOL     OW25213   0.025   6.977   3.486
 8105SOL    HW125214   0.037   0.015   3.565
 8105SOL    HW225215   0.075   7.014   3.408
 8106SOL     OW25216   2.657   6.785   6.263
 8106SOL    HW125217   2.648   6.713   6.194
 8106SOL    HW225218   2.728   6.849   6.235
 8107SOL     OW25219   1.085   6.563   6.964
 8107SOL    HW125220   1.068   6.652   7.007
 8107SOL    HW225221   1.181   6.557   6.936
 8108SOL     OW25222   1.125   1.436   6.835
 8108SOL    HW125223   1.091   1.344   6.852
 8108SOL    HW225224   1.222   1.441   6.860
 8109SOL     OW25225   6.640   3.177   2.072
 8109SOL    HW125226   6.648   3.139   1.980
 8109SOL    HW225227   6.547   3.209   2.088
 8110SOL     OW25228   4.215   4.819   0.486
 8110SOL    HW125229   4.240   4.723   0.495
 8110SOL    HW225230   4.222   4.864   0.576
 8111SOL     OW25231   6.376   0.775   2.742
 8111SOL    HW125232   6.335   0.749   2.830
 8111SOL    HW225233   6.323   0.850   2.702
 8112SOL     OW25234   1.718   5.102   6.421
 8112SOL    HW125235   1.745   5.196   6.442
 8112SOL    HW225236   1.798   5.048   6.396
 8113SOL     OW25237   4.776   4.978   6.132
 8113SOL    HW125238   4.833   5.059   6.142
 8113SOL    HW225239   4.790   4.918   6.210
 8114SOL     OW25240   1.910   3.574   2.885
 8114SOL    HW125241   1.992   3.589   2.939
 8114SOL    HW225242   1.929   3.507   2.813
 8115SOL     OW25243   2.546   1.317   5.791
 8115SOL    HW125244   2.524   1.242   5.728
 8115SOL    HW225245   2.475   1.387   5.785
 8116SOL     OW25246   4.024   3.445   1.765
 8116SOL    HW125247   4.105   3.495   1.735
 8116SOL    HW225248   4.052   3.365   1.818
 8117SOL     OW25249   2.068   6.898   4.005
 8117SOL    HW125250   1.968   6.893   3.999
 8117SOL    HW225251   2.102   6.817   4.053
 8118SOL     OW25252   6.874   3.126   6.791
 8118SOL    HW125253   6.898   3.118   6.888
 8118SOL    HW225254   6.897   3.217   6.758
 8119SOL     OW25255   5.422   6.301   6.588
 8119SOL    HW125256   5.466   6.352   6.515
 8119SOL    HW225257   5.474   6.217   6.605
 8120SOL     OW25258   2.281   6.411   2.466
 8120SOL    HW125259   2.274   6.337   2.533
 8120SOL    HW225260   2.277   6.499   2.512
 8121SOL     OW25261   1.574   2.386   2.338
 8121SOL    HW125262   1.524   2.300   2.348
 8121SOL    HW225263   1.510   2.460   2.319
 8122SOL     OW25264   0.433   4.277   1.403
 8122SOL    HW125265   0.518   4.329   1.413
 8122SOL    HW225266   0.455   4.184   1.373
 8123SOL     OW25267   6.736   2.184   6.883
 8123SOL    HW125268   6.796   2.264   6.887
 8123SOL    HW225269   6.771   2.113   6.944
 8124SOL     OW25270   6.065   6.180   5.667
 8124SOL    HW125271   6.092   6.219   5.579
 8124SOL    HW225272   6.083   6.247   5.740
 8125SOL     OW25273   1.176   5.558   2.233
 8125SOL    HW125274   1.265   5.539   2.274
 8125SOL    HW225275   1.187   5.573   2.135
 8126SOL     OW25276   3.546   5.689   5.229
 8126SOL    HW125277   3.454   5.672   5.262
 8126SOL    HW225278   3.545   5.701   5.130
 8127SOL     OW25279   4.060   1.735   6.090
 8127SOL    HW125280   4.064   1.667   6.163
 8127SOL    HW225281   4.044   1.690   6.002
 8128SOL     OW25282   3.090   2.899   1.267
 8128SOL    HW125283   3.068   2.846   1.185
 8128SOL    HW225284   3.126   2.838   1.338
 8129SOL     OW25285   0.740   2.199   2.546
 8129SOL    HW125286   0.655   2.224   2.591
 8129SOL    HW225287   0.743   2.100   2.531
 8130SOL     OW25288   6.787   6.181   6.907
 8130SOL    HW125289   6.808   6.243   6.983
 8130SOL    HW225290   6.748   6.096   6.944
 8131SOL     OW25291   1.696   2.363   0.330
 8131SOL    HW125292   1.686   2.457   0.364
 8131SOL    HW225293   1.607   2.327   0.305
 8132SOL     OW25294   6.187   1.911   4.939
 8132SOL    HW125295   6.236   1.829   4.911
 8132SOL    HW225296   6.102   1.918   4.887
 8133SOL     OW25297   3.324   5.102   1.283
 8133SOL    HW125298   3.366   5.030   1.338
 8133SOL    HW225299   3.321   5.074   1.188
 8134SOL     OW25300   5.531   2.485   5.503
 8134SOL    HW125301   5.546   2.550   5.577
 8134SOL    HW225302   5.433   2.477   5.485
 8135SOL     OW25303   2.698   6.573   1.855
 8135SOL    HW125304   2.721   6.661   1.896
 8135SOL    HW225305   2.745   6.500   1.904
 8136SOL     OW25306   4.792   4.517   2.241
 8136SOL    HW125307   4.877   4.510   2.293
 8136SOL    HW225308   4.796   4.454   2.164
 8137SOL     OW25309   4.651   2.159   6.053
 8137SOL    HW125310   4.694   2.069   6.052
 8137SOL    HW225311   4.717   2.227   6.085
 8138SOL     OW25312   5.278   1.167   2.156
 8138SOL    HW125313   5.233   1.183   2.244
 8138SOL    HW225314   5.375   1.190   2.164
 8139SOL     OW25315   0.344   1.700   3.192
 8139SOL    HW125316   0.330   1.675   3.288
 8139SOL    HW225317   0.441   1.721   3.178
 8140SOL     OW25318   4.961   2.684   2.934
 8140SOL    HW125319   4.975   2.635   2.848
 8140SOL    HW225320   5.050   2.712   2.971
 8141SOL     OW25321   5.633   3.737   4.024
 8141SOL    HW125322   5.690   3.762   3.945
 8141SOL    HW225323   5.555   3.683   3.992
 8142SOL     OW25324   6.879   6.242   0.129
 8142SOL    HW125325   6.962   6.298   0.125
 8142SOL    HW225326   6.845   6.238   0.223
 8143SOL     OW25327   6.385   3.397   5.170
 8143SOL    HW125328   6.443   3.316   5.159
 8143SOL    HW225329   6.337   3.390   5.258
 8144SOL     OW25330   5.082   6.647   0.236
 8144SOL    HW125331   5.080   6.611   0.143
 8144SOL    HW225332   5.156   6.603   0.287
 8145SOL     OW25333   4.764   6.235   3.161
 8145SOL    HW125334   4.824   6.252   3.239
 8145SOL    HW225335   4.671   6.267   3.182
 8146SOL     OW25336   3.778   1.689   4.729
 8146SOL    HW125337   3.735   1.602   4.753
 8146SOL    HW225338   3.874   1.674   4.707
 8147SOL     OW25339   5.324   1.055   2.766
 8147SOL    HW125340   5.290   1.128   2.826
 8147SOL    HW225341   5.406   1.086   2.718
 8148SOL     OW25342   6.210   4.294   3.151
 8148SOL    HW125343   6.227   4.202   3.188
 8148SOL    HW225344   6.121   4.326   3.183
 8149SOL     OW25345   3.384   5.142   3.261
 8149SOL    HW125346   3.300   5.117   3.213
 8149SOL    HW225347   3.405   5.239   3.244
 8150SOL     OW25348   0.885   6.160   1.224
 8150SOL    HW125349   0.970   6.119   1.191
 8150SOL    HW225350   0.896   6.183   1.321
 8151SOL     OW25351   0.532   1.764   4.537
 8151SOL    HW125352   0.491   1.804   4.455
 8151SOL    HW225353   0.604   1.825   4.571
 8152SOL     OW25354   1.536   0.673   3.319
 8152SOL    HW125355   1.515   0.758   3.368
 8152SOL    HW225356   1.588   0.695   3.236
 8153SOL     OW25357   1.864   6.672   0.568
 8153SOL    HW125358   1.785   6.665   0.629
 8153SOL    HW225359   1.932   6.603   0.595
 8154SOL     OW25360   2.711   6.686   3.261
 8154SOL    HW125361   2.632   6.745   3.248
 8154SOL    HW225362   2.685   6.590   3.248
 8155SOL     OW25363   3.268   3.697   4.810
 8155SOL    HW125364   3.273   3.602   4.839
 8155SOL    HW225365   3.183   3.738   4.843
 8156SOL     OW25366   0.012   0.480   5.509
 8156SOL    HW125367   0.018   0.563   5.565
 8156SOL    HW225368   0.103   0.440   5.499
 8157SOL     OW25369   5.843   2.201   6.823
 8157SOL    HW125370   5.758   2.211   6.875
 8157SOL    HW225371   5.921   2.222   6.882
 8158SOL     OW25372   1.691   5.301   2.268
 8158SOL    HW125373   1.739   5.216   2.247
 8158SOL    HW225374   1.615   5.313   2.204
 8159SOL     OW25375   0.652   5.439   1.546
 8159SOL    HW125376   0.674   5.483   1.633
 8159SOL    HW225377   0.659   5.506   1.472
 8160SOL     OW25378   4.554   1.976   1.860
 8160SOL    HW125379   4.611   2.048   1.900
 8160SOL    HW225380   4.462   2.011   1.844
 8161SOL     OW25381   3.951   2.555   1.555
 8161SOL    HW125382   3.894   2.513   1.626
 8161SOL    HW225383   3.895   2.620   1.503
 8162SOL     OW25384   6.097   0.721   1.851
 8162SOL    HW125385   6.192   0.698   1.830
 8162SOL    HW225386   6.077   0.699   1.946
 8163SOL     OW25387   1.833   3.123   5.409
 8163SOL    HW125388   1.804   3.213   5.377
 8163SOL    HW225389   1.929   3.128   5.439
 8164SOL     OW25390   4.965   2.888   2.636
 8164SOL    HW125391   4.935   2.982   2.620
 8164SOL    HW225392   5.014   2.855   2.555
 8165SOL     OW25393   2.163   4.740   1.895
 8165SOL    HW125394   2.099   4.663   1.894
 8165SOL    HW225395   2.120   4.820   1.853
 8166SOL     OW25396   3.953   6.955   1.507
 8166SOL    HW125397   3.956   6.856   1.496
 8166SOL    HW225398   3.875   6.992   1.457
 8167SOL     OW25399   5.157   2.708   4.266
 8167SOL    HW125400   5.230   2.763   4.308
 8167SOL    HW225401   5.195   2.621   4.236
 8168SOL     OW25402   2.921   2.260   2.610
 8168SOL    HW125403   2.858   2.268   2.533
 8168SOL    HW225404   3.010   2.228   2.576
 8169SOL     OW25405   5.344   4.060   4.866
 8169SOL    HW125406   5.434   4.101   4.850
 8169SOL    HW225407   5.326   3.992   4.796
 8170SOL     OW25408   1.231   5.080   4.254
 8170SOL    HW125409   1.231   5.064   4.353
 8170SOL    HW225410   1.315   5.042   4.215
 8171SOL     OW25411   1.613   1.082   6.239
 8171SOL    HW125412   1.571   1.108   6.326
 8171SOL    HW225413   1.670   1.001   6.252
 8172SOL     OW25414   0.112   6.155   1.310
 8172SOL    HW125415   0.029   6.105   1.286
 8172SOL    HW225416   0.191   6.093   1.302
 8173SOL     OW25417   5.737   2.869   0.163
 8173SOL    HW125418   5.766   2.812   0.086
 8173SOL    HW225419   5.781   2.958   0.158
 8174SOL     OW25420   5.381   6.792   2.348
 8174SOL    HW125421   5.436   6.863   2.303
 8174SOL    HW225422   5.291   6.829   2.370
 8175SOL     OW25423   1.435   2.553   4.242
 8175SOL    HW125424   1.483   2.572   4.157
 8175SOL    HW225425   1.476   2.605   4.317
 8176SOL     OW25426   4.017   5.812   3.497
 8176SOL    HW125427   4.103   5.823   3.447
 8176SOL    HW225428   3.955   5.886   3.472
 8177SOL     OW25429   1.213   6.586   5.647
 8177SOL    HW125430   1.154   6.648   5.594
 8177SOL    HW225431   1.304   6.626   5.655
 8178SOL     OW25432   2.496   6.761   5.920
 8178SOL    HW125433   2.493   6.684   5.984
 8178SOL    HW225434   2.460   6.842   5.964
 8179SOL     OW25435   3.519   0.505   0.220
 8179SOL    HW125436   3.501   0.571   0.292
 8179SOL    HW225437   3.610   0.465   0.233
 8180SOL     OW25438   4.806   4.279   5.529
 8180SOL    HW125439   4.772   4.373   5.533
 8180SOL    HW225440   4.756   4.223   5.594
 8181SOL     OW25441   2.232   2.352   2.073
 8181SOL    HW125442   2.291   2.302   2.135
 8181SOL    HW225443   2.249   2.322   1.979
 8182SOL     OW25444   5.452   2.852   5.451
 8182SOL    HW125445   5.413   2.786   5.387
 8182SOL    HW225446   5.496   2.804   5.526
 8183SOL     OW25447   2.384   2.782   3.521
 8183SOL    HW125448   2.397   2.865   3.576
 8183SOL    HW225449   2.374   2.807   3.425
 8184SOL     OW25450   5.972   6.124   4.321
 8184SOL    HW125451   6.008   6.046   4.269
 8184SOL    HW225452   5.937   6.093   4.409
 8185SOL     OW25453   1.746   1.753   3.293
 8185SOL    HW125454   1.659   1.706   3.286
 8185SOL    HW225455   1.805   1.727   3.217
 8186SOL     OW25456   4.396   3.987   7.006
 8186SOL    HW125457   4.476   3.978   6.946
 8186SOL    HW225458   4.382   3.902   0.034
 8187SOL     OW25459   2.408   1.541   5.762
 8187SOL    HW125460   2.317   1.581   5.749
 8187SOL    HW225461   2.453   1.587   5.839
 8188SOL     OW25462   5.292   2.680   2.298
 8188SOL    HW125463   5.217   2.725   2.345
 8188SOL    HW225464   5.379   2.722   2.326
 8189SOL     OW25465   6.883   5.102   3.027
 8189SOL    HW125466   6.838   5.045   3.096
 8189SOL    HW225467   6.913   5.188   3.069
 8190SOL     OW25468   5.908   3.710   2.341
 8190SOL    HW125469   5.988   3.690   2.398
 8190SOL    HW225470   5.851   3.628   2.335
 8191SOL     OW25471   6.487   5.030   1.830
 8191SOL    HW125472   6.481   4.942   1.877
 8191SOL    HW225473   6.486   5.014   1.731
 8192SOL     OW25474   1.369   2.788   0.659
 8192SOL    HW125475   1.448   2.756   0.710
 8192SOL    HW225476   1.394   2.802   0.563
 8193SOL     OW25477   3.870   6.934   5.531
 8193SOL    HW125478   3.926   6.874   5.474
 8193SOL    HW225479   3.923   6.965   5.610
 8194SOL     OW25480   2.104   0.605   2.125
 8194SOL    HW125481   2.157   0.608   2.041
 8194SOL    HW225482   2.088   0.509   2.151
 8195SOL     OW25483   5.365   1.694   1.220
 8195SOL    HW125484   5.336   1.609   1.262
 8195SOL    HW225485   5.453   1.681   1.175
 8196SOL     OW25486   2.143   0.745   6.911
 8196SOL    HW125487   2.061   0.751   6.968
 8196SOL    HW225488   2.129   0.799   6.827
 8197SOL     OW25489   0.398   0.226   1.187
 8197SOL    HW125490   0.369   0.141   1.143
 8197SOL    HW225491   0.464   0.273   1.128
 8198SOL     OW25492   3.588   0.286   3.051
 8198SOL    HW125493   3.506   0.232   3.074
 8198SOL    HW225494   3.599   0.359   3.119
 8199SOL     OW25495   6.093   4.891   1.326
 8199SOL    HW125496   6.191   4.899   1.307
 8199SOL    HW225497   6.048   4.978   1.304
 8200SOL     OW25498   4.301   3.489   1.714
 8200SOL    HW125499   4.361   3.427   1.663
 8200SOL    HW225500   4.355   3.541   1.780
 8201SOL     OW25501   6.867   1.176   5.115
 8201SOL    HW125502   6.930   1.105   5.146
 8201SOL    HW225503   6.817   1.143   5.035
 8202SOL     OW25504   1.482   3.780   4.571
 8202SOL    HW125505   1.501   3.869   4.611
 8202SOL    HW225506   1.490   3.786   4.471
 8203SOL     OW25507   5.879   4.751   0.126
 8203SOL    HW125508   5.911   4.674   0.070
 8203SOL    HW225509   5.859   4.718   0.218
 8204SOL     OW25510   3.034   0.404   0.684
 8204SOL    HW125511   3.106   0.383   0.617
 8204SOL    HW225512   2.945   0.383   0.644
 8205SOL     OW25513   5.039   6.514   3.492
 8205SOL    HW125514   5.090   6.578   3.434
 8205SOL    HW225515   5.086   6.505   3.580
 8206SOL     OW25516   3.632   1.756   4.415
 8206SOL    HW125517   3.682   1.755   4.501
 8206SOL    HW225518   3.534   1.767   4.433
 8207SOL     OW25519   2.578   5.889   6.979
 8207SOL    HW125520   2.510   5.950   7.022
 8207SOL    HW225521   2.553   5.794   6.998
 8208SOL     OW25522   1.911   6.037   6.844
 8208SOL    HW125523   1.925   6.031   6.943
 8208SOL    HW225524   1.984   6.093   6.804
 8209SOL     OW25525   1.185   5.475   5.053
 8209SOL    HW125526   1.138   5.404   5.106
 8209SOL    HW225527   1.128   5.557   5.050
 8210SOL     OW25528   2.418   1.519   0.329
 8210SOL    HW125529   2.346   1.539   0.396
 8210SOL    HW225530   2.482   1.596   0.324
 8211SOL     OW25531   3.790   4.052   3.572
 8211SOL    HW125532   3.824   4.039   3.666
 8211SOL    HW225533   3.691   4.037   3.571
 8212SOL     OW25534   4.325   5.024   6.582
 8212SOL    HW125535   4.412   5.072   6.572
 8212SOL    HW225536   4.342   4.932   6.618
 8213SOL     OW25537   4.602   4.491   1.744
 8213SOL    HW125538   4.566   4.421   1.806
 8213SOL    HW225539   4.537   4.566   1.737
 8214SOL     OW25540   4.089   5.294   3.384
 8214SOL    HW125541   4.072   5.234   3.307
 8214SOL    HW225542   4.077   5.243   3.470
 8215SOL     OW25543   2.326   6.154   6.336
 8215SOL    HW125544   2.264   6.088   6.293
 8215SOL    HW225545   2.418   6.116   6.340
 8216SOL     OW25546   5.391   5.739   1.188
 8216SOL    HW125547   5.301   5.704   1.213
 8216SOL    HW225548   5.459   5.706   1.253
 8217SOL     OW25549   3.431   6.381   4.129
 8217SOL    HW125550   3.355   6.443   4.111
 8217SOL    HW225551   3.451   6.382   4.227
 8218SOL     OW25552   1.871   6.352   4.615
 8218SOL    HW125553   1.842   6.409   4.538
 8218SOL    HW225554   1.856   6.255   4.592
 8219SOL     OW25555   4.043   3.102   3.150
 8219SOL    HW125556   3.978   3.135   3.219
 8219SOL    HW225557   4.110   3.042   3.193
 8220SOL     OW25558   4.005   4.140   5.518
 8220SOL    HW125559   3.920   4.138   5.571
 8220SOL    HW225560   4.004   4.217   5.455
 8221SOL     OW25561   6.570   3.567   3.803
 8221SOL    HW125562   6.622   3.650   3.783
 8221SOL    HW225563   6.599   3.494   3.742
 8222SOL     OW25564   5.848   2.841   6.472
 8222SOL    HW125565   5.773   2.876   6.528
 8222SOL    HW225566   5.906   2.917   6.442
 8223SOL     OW25567   1.663   6.572   5.544
 8223SOL    HW125568   1.613   6.655   5.569
 8223SOL    HW225569   1.606   6.492   5.563
 8224SOL     OW25570   5.536   1.531   6.350
 8224SOL    HW125571   5.526   1.502   6.445
 8224SOL    HW225572   5.481   1.473   6.291
 8225SOL     OW25573   6.086   3.092   0.131
 8225SOL    HW125574   5.988   3.098   0.146
 8225SOL    HW225575   6.123   3.184   0.114
 8226SOL     OW25576   3.667   1.424   6.683
 8226SOL    HW125577   3.706   1.516   6.677
 8226SOL    HW225578   3.568   1.430   6.692
 8227SOL     OW25579   4.812   2.964   2.874
 8227SOL    HW125580   4.863   2.888   2.835
 8227SOL    HW225581   4.800   3.036   2.805
 8228SOL     OW25582   3.241   1.327   4.873
 8228SOL    HW125583   3.188   1.330   4.788
 8228SOL    HW225584   3.180   1.309   4.950
 8229SOL     OW25585   4.886   4.777   0.987
 8229SOL    HW125586   4.928   4.695   1.028
 8229SOL    HW225587   4.789   4.779   1.010
 8230SOL     OW25588   5.916   1.076   6.288
 8230SOL    HW125589   5.936   1.087   6.190
 8230SOL    HW225590   5.997   1.100   6.341
 8231SOL     OW25591   3.214   1.411   2.337
 8231SOL    HW125592   3.173   1.433   2.248
 8231SOL    HW225593   3.305   1.451   2.342
 8232SOL     OW25594   4.042   6.615   3.224
 8232SOL    HW125595   4.139   6.639   3.215
 8232SOL    HW225596   4.001   6.608   3.133
 8233SOL     OW25597   2.397   1.481   7.006
 8233SOL    HW125598   2.323   1.506   0.046
 8233SOL    HW225599   2.399   1.381   6.995
 8234SOL     OW25600   1.768   2.816   6.847
 8234SOL    HW125601   1.811   2.886   6.789
 8234SOL    HW225602   1.677   2.795   6.811
 8235SOL     OW25603   0.824   0.571   1.315
 8235SOL    HW125604   0.835   0.479   1.352
 8235SOL    HW225605   0.760   0.623   1.373
 8236SOL     OW25606   0.775   0.072   1.297
 8236SOL    HW125607   0.741   0.039   1.384
 8236SOL    HW225608   0.769   0.172   1.294
 8237SOL     OW25609   3.934   5.099   5.249
 8237SOL    HW125610   3.875   5.042   5.192
 8237SOL    HW225611   4.008   5.044   5.286
 8238SOL     OW25612   0.119   5.420   0.259
 8238SOL    HW125613   0.134   5.461   0.349
 8238SOL    HW225614   0.042   5.465   0.214
 8239SOL     OW25615   3.871   1.844   5.557
 8239SOL    HW125616   3.837   1.751   5.572
 8239SOL    HW225617   3.862   1.868   5.460
 8240SOL     OW25618   3.624   3.790   5.211
 8240SOL    HW125619   3.566   3.868   5.236
 8240SOL    HW225620   3.640   3.733   5.292
 8241SOL     OW25621   1.096   3.158   5.262
 8241SOL    HW125622   1.007   3.165   5.308
 8241SOL    HW225623   1.136   3.068   5.279
 8242SOL     OW25624   0.521   2.487   2.765
 8242SOL    HW125625   0.512   2.387   2.758
 8242SOL    HW225626   0.496   2.516   2.858
 8243SOL     OW25627   1.659   6.820   3.654
 8243SOL    HW125628   1.728   6.852   3.718
 8243SOL    HW225629   1.568   6.830   3.696
 8244SOL     OW25630   6.084   0.274   3.762
 8244SOL    HW125631   5.987   0.278   3.783
 8244SOL    HW225632   6.135   0.254   3.846
 8245SOL     OW25633   4.960   3.282   2.429
 8245SOL    HW125634   5.058   3.293   2.415
 8245SOL    HW225635   4.911   3.306   2.345
 8246SOL     OW25636   1.947   4.737   6.628
 8246SOL    HW125637   1.886   4.666   6.593
 8246SOL    HW225638   2.037   4.697   6.647
 8247SOL     OW25639   2.410   4.791   3.216
 8247SOL    HW125640   2.499   4.750   3.234
 8247SOL    HW225641   2.367   4.818   3.302
 8248SOL     OW25642   6.679   6.028   3.291
 8248SOL    HW125643   6.684   6.053   3.387
 8248SOL    HW225644   6.614   5.953   3.279
 8249SOL     OW25645   3.141   1.119   6.455
 8249SOL    HW125646   3.155   1.024   6.485
 8249SOL    HW225647   3.078   1.120   6.377
 8250SOL     OW25648   1.399   1.718   6.578
 8250SOL    HW125649   1.440   1.751   6.663
 8250SOL    HW225650   1.302   1.742   6.576
 8251SOL     OW25651   1.015   1.645   5.492
 8251SOL    HW125652   1.064   1.729   5.513
 8251SOL    HW225653   0.958   1.659   5.411
 8252SOL     OW25654   0.617   2.120   6.424
 8252SOL    HW125655   0.600   2.107   6.326
 8252SOL    HW225656   0.633   2.217   6.442
 8253SOL     OW25657   5.790   5.043   6.157
 8253SOL    HW125658   5.741   5.012   6.238
 8253SOL    HW225659   5.726   5.058   6.082
 8254SOL     OW25660   5.765   5.599   6.938
 8254SOL    HW125661   5.709   5.515   6.936
 8254SOL    HW225662   5.721   5.669   6.882
 8255SOL     OW25663   1.383   0.203   5.445
 8255SOL    HW125664   1.420   0.119   5.405
 8255SOL    HW225665   1.412   0.210   5.540
 8256SOL     OW25666   1.410   5.792   3.498
 8256SOL    HW125667   1.451   5.811   3.587
 8256SOL    HW225668   1.423   5.696   3.475
 8257SOL     OW25669   4.913   3.409   3.657
 8257SOL    HW125670   4.977   3.346   3.613
 8257SOL    HW225671   4.907   3.493   3.604
 8258SOL     OW25672   0.197   2.660   3.353
 8258SOL    HW125673   0.210   2.575   3.302
 8258SOL    HW225674   0.206   2.642   3.451
 8259SOL     OW25675   5.463   2.296   4.046
 8259SOL    HW125676   5.506   2.206   4.036
 8259SOL    HW225677   5.525   2.367   4.012
 8260SOL     OW25678   5.215   2.351   6.323
 8260SOL    HW125679   5.201   2.258   6.356
 8260SOL    HW225680   5.228   2.412   6.401
 8261SOL     OW25681   6.023   1.716   3.097
 8261SOL    HW125682   5.993   1.805   3.132
 8261SOL    HW225683   5.943   1.662   3.070
 8262SOL     OW25684   5.061   4.352   1.958
 8262SOL    HW125685   4.982   4.405   1.928
 8262SOL    HW225686   5.103   4.306   1.879
 8263SOL     OW25687   6.381   1.396   6.261
 8263SOL    HW125688   6.454   1.371   6.197
 8263SOL    HW225689   6.292   1.374   6.221
 8264SOL     OW25690   3.008   0.858   1.671
 8264SOL    HW125691   3.045   0.920   1.601
 8264SOL    HW225692   3.038   0.888   1.761
 8265SOL     OW25693   4.696   5.775   6.801
 8265SOL    HW125694   4.766   5.813   6.861
 8265SOL    HW225695   4.606   5.808   6.829
 8266SOL     OW25696   3.441   1.359   2.956
 8266SOL    HW125697   3.529   1.375   2.911
 8266SOL    HW225698   3.367   1.392   2.898
 8267SOL     OW25699   1.859   3.059   3.086
 8267SOL    HW125700   1.762   3.032   3.083
 8267SOL    HW225701   1.916   2.978   3.098
 8268SOL     OW25702   2.832   4.762   0.947
 8268SOL    HW125703   2.826   4.666   0.974
 8268SOL    HW225704   2.869   4.815   1.023
 8269SOL     OW25705   6.401   2.461   4.217
 8269SOL    HW125706   6.337   2.384   4.214
 8269SOL    HW225707   6.484   2.433   4.265
 8270SOL     OW25708   3.400   4.628   6.888
 8270SOL    HW125709   3.496   4.627   6.916
 8270SOL    HW225710   3.357   4.543   6.916
 8271SOL     OW25711   3.281   6.957   5.756
 8271SOL    HW125712   3.217   0.006   5.728
 8271SOL    HW225713   3.251   6.869   5.718
 8272SOL     OW25714   0.411   0.579   1.980
 8272SOL    HW125715   0.330   0.584   1.922
 8272SOL    HW225716   0.425   0.667   2.026
 8273SOL     OW25717   3.892   6.919   6.754
 8273SOL    HW125718   3.891   6.951   6.659
 8273SOL    HW225719   3.800   6.895   6.782
 8274SOL     OW25720   5.449   6.598   4.701
 8274SOL    HW125721   5.485   6.686   4.669
 8274SOL    HW225722   5.349   6.599   4.696
 8275SOL     OW25723   4.861   1.465   5.086
 8275SOL    HW125724   4.802   1.523   5.030
 8275SOL    HW225725   4.916   1.406   5.027
 8276SOL     OW25726   5.510   2.942   0.622
 8276SOL    HW125727   5.505   2.870   0.692
 8276SOL    HW225728   5.561   2.907   0.543
 8277SOL     OW25729   1.237   6.961   1.482
 8277SOL    HW125730   1.275   0.030   1.472
 8277SOL    HW225731   1.311   6.896   1.499
 8278SOL     OW25732   1.482   0.703   1.207
 8278SOL    HW125733   1.500   0.769   1.134
 8278SOL    HW225734   1.407   0.642   1.179
 8279SOL     OW25735   5.151   5.638   5.767
 8279SOL    HW125736   5.209   5.663   5.690
 8279SOL    HW225737   5.055   5.635   5.738
 8280SOL     OW25738   5.650   4.253   6.450
 8280SOL    HW125739   5.722   4.235   6.383
 8280SOL    HW225740   5.685   4.311   6.523
 8281SOL     OW25741   3.467   4.783   6.309
 8281SOL    HW125742   3.466   4.835   6.224
 8281SOL    HW225743   3.559   4.787   6.349
 8282SOL     OW25744   4.107   2.595   1.317
 8282SOL    HW125745   4.148   2.669   1.262
 8282SOL    HW225746   4.058   2.634   1.395
 8283SOL     OW25747   0.641   0.079   3.338
 8283SOL    HW125748   0.626   7.005   3.358
 8283SOL    HW225749   0.555   0.129   3.348
 8284SOL     OW25750   5.330   2.140   1.681
 8284SOL    HW125751   5.317   2.228   1.726
 8284SOL    HW225752   5.241   2.103   1.654
 8285SOL     OW25753   1.259   4.249   0.512
 8285SOL    HW125754   1.312   4.237   0.428
 8285SOL    HW225755   1.319   4.236   0.591
 8286SOL     OW25756   6.168   2.315   6.657
 8286SOL    HW125757   6.243   2.255   6.631
 8286SOL    HW225758   6.096   2.312   6.587
 8287SOL     OW25759   0.708   0.476   3.301
 8287SOL    HW125760   0.747   0.385   3.314
 8287SOL    HW225761   0.625   0.469   3.246
 8288SOL     OW25762   2.662   0.045   2.229
 8288SOL    HW125763   2.591   0.113   2.210
 8288SOL    HW225764   2.660   6.998   2.158
 8289SOL     OW25765   5.577   0.178   0.380
 8289SOL    HW125766   5.565   0.095   0.326
 8289SOL    HW225767   5.534   0.255   0.333
 8290SOL     OW25768   5.060   2.524   1.720
 8290SOL    HW125769   5.053   2.623   1.714
 8290SOL    HW225770   4.969   2.483   1.710
 8291SOL     OW25771   4.984   5.620   6.453
 8291SOL    HW125772   5.056   5.649   6.390
 8291SOL    HW225773   4.974   5.687   6.526
 8292SOL     OW25774   0.417   3.730   5.502
 8292SOL    HW125775   0.477   3.716   5.423
 8292SOL    HW225776   0.473   3.752   5.582
 8293SOL     OW25777   3.011   4.844   3.950
 8293SOL    HW125778   2.919   4.873   3.975
 8293SOL    HW225779   3.064   4.824   4.032
 8294SOL     OW25780   6.358   3.402   5.469
 8294SOL    HW125781   6.387   3.480   5.525
 8294SOL    HW225782   6.406   3.320   5.500
 8295SOL     OW25783   4.565   5.095   2.404
 8295SOL    HW125784   4.607   5.110   2.314
 8295SOL    HW225785   4.617   5.145   2.473
 8296SOL     OW25786   3.641   0.401   2.314
 8296SOL    HW125787   3.606   0.363   2.399
 8296SOL    HW225788   3.645   0.501   2.322
 8297SOL     OW25789   6.062   4.210   1.608
 8297SOL    HW125790   6.019   4.294   1.575
 8297SOL    HW225791   6.066   4.211   1.708
 8298SOL     OW25792   0.003   6.450   1.097
 8298SOL    HW125793   0.070   6.404   1.038
 8298SOL    HW225794   0.036   6.450   1.191
 8299SOL     OW25795   1.092   3.079   6.231
 8299SOL    HW125796   1.055   3.073   6.138
 8299SOL    HW225797   1.127   2.989   6.259
 8300SOL     OW25798   5.733   5.101   4.455
 8300SOL    HW125799   5.682   5.034   4.402
 8300SOL    HW225800   5.830   5.097   4.429
 8301SOL     OW25801   6.428   4.926   0.147
 8301SOL    HW125802   6.364   4.892   0.078
 8301SOL    HW225803   6.418   5.026   0.155
 8302SOL     OW25804   3.596   6.905   6.056
 8302SOL    HW125805   3.663   6.907   5.982
 8302SOL    HW225806   3.535   6.826   6.044
 8303SOL     OW25807   1.446   4.940   4.093
 8303SOL    HW125808   1.509   4.887   4.150
 8303SOL    HW225809   1.498   5.002   4.034
 8304SOL     OW25810   6.140   2.506   3.829
 8304SOL    HW125811   6.198   2.586   3.815
 8304SOL    HW225812   6.167   2.433   3.766
 8305SOL     OW25813   4.772   6.985   5.280
 8305SOL    HW125814   4.860   6.974   5.325
 8305SOL    HW225815   4.785   6.987   5.181
 8306SOL     OW25816   5.174   1.213   3.866
 8306SOL    HW125817   5.110   1.214   3.789
 8306SOL    HW225818   5.268   1.217   3.832
 8307SOL     OW25819   0.657   5.026   3.810
 8307SOL    HW125820   0.637   4.976   3.725
 8307SOL    HW225821   0.631   4.970   3.888
 8308SOL     OW25822   1.174   5.522   0.691
 8308SOL    HW125823   1.079   5.515   0.721
 8308SOL    HW225824   1.200   5.438   0.642
 8309SOL     OW25825   6.349   4.752   2.683
 8309SOL    HW125826   6.326   4.781   2.590
 8309SOL    HW225827   6.269   4.710   2.726
 8310SOL     OW25828   2.576   6.387   2.995
 8310SOL    HW125829   2.484   6.394   3.033
 8310SOL    HW225830   2.601   6.291   2.986
 8311SOL     OW25831   4.227   6.351   2.097
 8311SOL    HW125832   4.238   6.446   2.069
 8311SOL    HW225833   4.280   6.334   2.180
 8312SOL     OW25834   6.836   2.043   0.297
 8312SOL    HW125835   6.866   2.135   0.325
 8312SOL    HW225836   6.840   1.981   0.375
 8313SOL     OW25837   4.894   3.185   6.020
 8313SOL    HW125838   4.956   3.113   5.990
 8313SOL    HW225839   4.935   3.236   6.095
 8314SOL     OW25840   4.328   5.585   3.638
 8314SOL    HW125841   4.301   5.611   3.731
 8314SOL    HW225842   4.419   5.622   3.618
 8315SOL     OW25843   3.191   2.769   6.869
 8315SOL    HW125844   3.157   2.704   6.800
 8315SOL    HW225845   3.214   2.720   6.953
 8316SOL     OW25846   1.264   1.464   5.187
 8316SOL    HW125847   1.252   1.487   5.284
 8316SOL    HW225848   1.361   1.464   5.165
 8317SOL     OW25849   1.132   2.090   5.336
 8317SOL    HW125850   1.129   2.186   5.366
 8317SOL    HW225851   1.222   2.069   5.298
 8318SOL     OW25852   4.478   6.507   5.874
 8318SOL    HW125853   4.434   6.460   5.950
 8318SOL    HW225854   4.563   6.551   5.906
 8319SOL     OW25855   2.240   5.822   6.960
 8319SOL    HW125856   2.291   5.906   6.976
 8319SOL    HW225857   2.284   5.747   7.009
 8320SOL     OW25858   3.906   4.720   5.558
 8320SOL    HW125859   3.832   4.784   5.542
 8320SOL    HW225860   3.993   4.763   5.535
 8321SOL     OW25861   0.538   0.705   0.887
 8321SOL    HW125862   0.486   0.739   0.809
 8321SOL    HW225863   0.476   0.664   0.954
 8322SOL     OW25864   1.680   0.961   1.152
 8322SOL    HW125865   1.619   0.931   1.079
 8322SOL    HW225866   1.754   1.016   1.113
 8323SOL     OW25867   6.220   5.049   6.755
 8323SOL    HW125868   6.293   5.076   6.693
 8323SOL    HW225869   6.131   5.072   6.714
 8324SOL     OW25870   5.208   6.502   6.572
 8324SOL    HW125871   5.237   6.410   6.595
 8324SOL    HW225872   5.224   6.519   6.474
 8325SOL     OW25873   1.344   6.266   5.038
 8325SOL    HW125874   1.359   6.342   5.100
 8325SOL    HW225875   1.390   6.285   4.951
 8326SOL     OW25876   2.241   2.042   6.503
 8326SOL    HW125877   2.182   2.098   6.445
 8326SOL    HW225878   2.266   2.094   6.585
 8327SOL     OW25879   1.112   6.490   4.967
 8327SOL    HW125880   1.160   6.431   4.902
 8327SOL    HW225881   1.095   6.439   5.052
 8328SOL     OW25882   0.650   6.518   0.994
 8328SOL    HW125883   0.745   6.526   0.964
 8328SOL    HW225884   0.648   6.490   1.090
 8329SOL     OW25885   1.582   2.564   5.390
 8329SOL    HW125886   1.598   2.478   5.437
 8329SOL    HW225887   1.591   2.550   5.291
 8330SOL     OW25888   2.784   6.682   0.137
 8330SOL    HW125889   2.706   6.739   0.164
 8330SOL    HW225890   2.789   6.602   0.196
 8331SOL     OW25891   2.302   2.597   5.817
 8331SOL    HW125892   2.220   2.587   5.761
 8331SOL    HW225893   2.332   2.507   5.849
 8332SOL     OW25894   5.884   3.874   1.199
 8332SOL    HW125895   5.792   3.913   1.187
 8332SOL    HW225896   5.950   3.949   1.204
 8333SOL     OW25897   2.950   4.494   6.586
 8333SOL    HW125898   2.899   4.434   6.647
 8333SOL    HW225899   3.040   4.454   6.566
 8334SOL     OW25900   3.375   2.162   5.226
 8334SOL    HW125901   3.345   2.074   5.262
 8334SOL    HW225902   3.294   2.218   5.203
 8335SOL     OW25903   5.404   3.853   5.897
 8335SOL    HW125904   5.309   3.881   5.880
 8335SOL    HW225905   5.466   3.921   5.856
 8336SOL     OW25906   1.219   4.224   3.407
 8336SOL    HW125907   1.229   4.205   3.505
 8336SOL    HW225908   1.213   4.323   3.393
 8337SOL     OW25909   6.746   1.227   4.135
 8337SOL    HW125910   6.713   1.139   4.101
 8337SOL    HW225911   6.839   1.217   4.170
 8338SOL     OW25912   2.892   5.651   0.741
 8338SOL    HW125913   2.898   5.715   0.818
 8338SOL    HW225914   2.938   5.691   0.662
 8339SOL     OW25915   6.382   0.934   2.088
 8339SOL    HW125916   6.422   1.006   2.145
 8339SOL    HW225917   6.451   0.864   2.070
 8340SOL     OW25918   5.606   2.658   6.742
 8340SOL    HW125919   5.679   2.685   6.805
 8340SOL    HW225920   5.592   2.559   6.748
 8341SOL     OW25921   4.033   0.408   1.236
 8341SOL    HW125922   3.949   0.458   1.255
 8341SOL    HW225923   4.080   0.450   1.158
 8342SOL     OW25924   3.633   1.340   0.560
 8342SOL    HW125925   3.720   1.296   0.580
 8342SOL    HW225926   3.577   1.343   0.642
 8343SOL     OW25927   5.270   5.575   3.090
 8343SOL    HW125928   5.264   5.489   3.039
 8343SOL    HW225929   5.246   5.651   3.030
 8344SOL     OW25930   2.537   4.820   6.148
 8344SOL    HW125931   2.604   4.766   6.199
 8344SOL    HW225932   2.575   4.843   6.058
 8345SOL     OW25933   6.213   0.229   4.023
 8345SOL    HW125934   6.286   0.162   4.033
 8345SOL    HW225935   6.242   0.317   4.058
 8346SOL     OW25936   6.106   3.498   4.182
 8346SOL    HW125937   6.105   3.431   4.107
 8346SOL    HW225938   6.034   3.565   4.166
 8347SOL     OW25939   1.885   1.849   5.891
 8347SOL    HW125940   1.833   1.769   5.921
 8347SOL    HW225941   1.954   1.821   5.824
 8348SOL     OW25942   3.330   5.690   1.698
 8348SOL    HW125943   3.259   5.699   1.629
 8348SOL    HW225944   3.315   5.757   1.770
 8349SOL     OW25945   4.642   5.831   1.389
 8349SOL    HW125946   4.713   5.799   1.452
 8349SOL    HW225947   4.596   5.911   1.428
 8350SOL     OW25948   1.096   0.402   6.884
 8350SOL    HW125949   1.023   0.363   6.940
 8350SOL    HW225950   1.184   0.365   6.913
 8351SOL     OW25951   6.889   2.991   3.150
 8351SOL    HW125952   6.803   2.949   3.123
 8351SOL    HW225953   6.880   3.030   3.242
 8352SOL     OW25954   2.939   6.676   6.578
 8352SOL    HW125955   2.997   6.597   6.559
 8352SOL    HW225956   2.844   6.648   6.587
 8353SOL     OW25957   0.403   6.091   2.729
 8353SOL    HW125958   0.395   6.187   2.702
 8353SOL    HW225959   0.464   6.044   2.665
 8354SOL     OW25960   4.626   1.673   2.986
 8354SOL    HW125961   4.577   1.721   3.059
 8354SOL    HW225962   4.624   1.727   2.903
 8355SOL     OW25963   2.888   5.184   5.863
 8355SOL    HW125964   2.793   5.211   5.843
 8355SOL    HW225965   2.914   5.109   5.802
 8356SOL     OW25966   2.841   4.152   1.441
 8356SOL    HW125967   2.821   4.223   1.509
 8356SOL    HW225968   2.829   4.062   1.482
 8357SOL     OW25969   3.252   7.011   4.758
 8357SOL    HW125970   3.322   0.023   4.821
 8357SOL    HW225971   3.281   0.006   4.664
 8358SOL     OW25972   0.482   0.807   4.725
 8358SOL    HW125973   0.470   0.735   4.793
 8358SOL    HW225974   0.580   0.824   4.712
 8359SOL     OW25975   4.440   2.208   5.351
 8359SOL    HW125976   4.499   2.221   5.431
 8359SOL    HW225977   4.495   2.174   5.274
 8360SOL     OW25978   3.356   6.951   1.873
 8360SOL    HW125979   3.394   6.867   1.833
 8360SOL    HW225980   3.429   7.007   1.910
 8361SOL     OW25981   5.160   1.329   0.361
 8361SOL    HW125982   5.228   1.309   0.432
 8361SOL    HW225983   5.068   1.308   0.396
 8362SOL     OW25984   0.134   4.085   1.118
 8362SOL    HW125985   0.176   4.014   1.173
 8362SOL    HW225986   0.069   4.044   1.053
 8363SOL     OW25987   0.995   2.394   1.536
 8363SOL    HW125988   0.938   2.429   1.610
 8363SOL    HW225989   0.955   2.420   1.448
 8364SOL     OW25990   0.303   2.327   4.099
 8364SOL    HW125991   0.239   2.264   4.143
 8364SOL    HW225992   0.283   2.421   4.128
 8365SOL     OW25993   1.745   2.367   1.743
 8365SOL    HW125994   1.829   2.354   1.796
 8365SOL    HW225995   1.697   2.449   1.776
 8366SOL     OW25996   5.001   5.804   2.228
 8366SOL    HW125997   4.912   5.823   2.270
 8366SOL    HW225998   4.991   5.730   2.161
 8367SOL     OW25999   2.158   4.461   3.371
 8367SOL    HW126000   2.235   4.472   3.308
 8367SOL    HW226001   2.178   4.507   3.457
 8368SOL     OW26002   6.604   4.347   5.746
 8368SOL    HW126003   6.629   4.327   5.841
 8368SOL    HW226004   6.661   4.421   5.712
 8369SOL     OW26005   1.555   6.825   6.988
 8369SOL    HW126006   1.490   6.775   0.023
 8369SOL    HW226007   1.647   6.789   7.003
 8370SOL     OW26008   3.140   2.856   0.599
 8370SOL    HW126009   3.189   2.837   0.684
 8370SOL    HW226010   3.203   2.899   0.533
 8371SOL     OW26011   2.803   4.168   6.390
 8371SOL    HW126012   2.795   4.076   6.351
 8371SOL    HW226013   2.897   4.185   6.417
 8372SOL     OW26014   1.604   0.194   1.845
 8372SOL    HW126015   1.566   0.284   1.865
 8372SOL    HW226016   1.650   0.197   1.756
 8373SOL     OW26017   5.901   0.422   4.063
 8373SOL    HW126018   5.941   0.508   4.033
 8373SOL    HW226019   5.864   0.372   3.985
 8374SOL     OW26020   1.116   1.411   3.229
 8374SOL    HW126021   1.128   1.316   3.202
 8374SOL    HW226022   1.197   1.463   3.201
 8375SOL     OW26023   1.605   1.859   5.578
 8375SOL    HW126024   1.616   1.934   5.513
 8375SOL    HW226025   1.552   1.890   5.657
 8376SOL     OW26026   0.818   1.656   3.745
 8376SOL    HW126027   0.734   1.609   3.773
 8376SOL    HW226028   0.895   1.592   3.749
 8377SOL     OW26029   3.375   5.008   0.681
 8377SOL    HW126030   3.296   4.953   0.710
 8377SOL    HW226031   3.351   5.060   0.599
 8378SOL     OW26032   4.015   5.145   4.953
 8378SOL    HW126033   4.011   5.114   5.048
 8378SOL    HW226034   3.966   5.231   4.943
 8379SOL     OW26035   6.372   2.106   2.028
 8379SOL    HW126036   6.444   2.175   2.019
 8379SOL    HW226037   6.401   2.036   2.094
 8380SOL     OW26038   0.961   6.041   2.315
 8380SOL    HW126039   0.954   6.097   2.233
 8380SOL    HW226040   0.992   5.949   2.290
 8381SOL     OW26041   1.006   2.148   2.198
 8381SOL    HW126042   0.974   2.076   2.136
 8381SOL    HW226043   1.048   2.221   2.144
 8382SOL     OW26044   0.430   6.693   1.855
 8382SOL    HW126045   0.488   6.761   1.900
 8382SOL    HW226046   0.482   6.646   1.785
 8383SOL     OW26047   2.679   0.006   5.468
 8383SOL    HW126048   2.775   0.025   5.449
 8383SOL    HW226049   2.672   6.947   5.524
 8384SOL     OW26050   0.623   3.312   3.120
 8384SOL    HW126051   0.563   3.255   3.176
 8384SOL    HW226052   0.569   3.355   3.048
 8385SOL     OW26053   4.570   2.251   2.444
 8385SOL    HW126054   4.505   2.212   2.510
 8385SOL    HW226055   4.638   2.182   2.419
 8386SOL     OW26056   0.830   5.223   1.457
 8386SOL    HW126057   0.860   5.195   1.366
 8386SOL    HW226058   0.763   5.296   1.449
 8387SOL     OW26059   0.631   1.608   3.153
 8387SOL    HW126060   0.577   1.533   3.117
 8387SOL    HW226061   0.728   1.593   3.131
 8388SOL     OW26062   3.890   5.001   1.704
 8388SOL    HW126063   3.988   4.992   1.721
 8388SOL    HW226064   3.869   5.093   1.673
 8389SOL     OW26065   1.459   2.861   3.462
 8389SOL    HW126066   1.407   2.886   3.544
 8389SOL    HW226067   1.520   2.784   3.484
 8390SOL     OW26068   2.904   0.844   6.372
 8390SOL    HW126069   2.993   0.825   6.414
 8390SOL    HW226070   2.882   0.771   6.307
 8391SOL     OW26071   4.768   6.184   1.072
 8391SOL    HW126072   4.760   6.256   1.141
 8391SOL    HW226073   4.852   6.132   1.088
 8392SOL     OW26074   4.279   6.030   0.295
 8392SOL    HW126075   4.199   6.080   0.329
 8392SOL    HW226076   4.271   5.933   0.318
 8393SOL     OW26077   1.026   5.196   1.785
 8393SOL    HW126078   0.946   5.140   1.806
 8393SOL    HW226079   1.101   5.137   1.754
 8394SOL     OW26080   1.416   1.455   3.717
 8394SOL    HW126081   1.450   1.546   3.696
 8394SOL    HW226082   1.341   1.462   3.782
 8395SOL     OW26083   1.262   6.396   5.904
 8395SOL    HW126084   1.247   6.449   5.987
 8395SOL    HW226085   1.213   6.439   5.828
 8396SOL     OW26086   4.399   2.536   0.909
 8396SOL    HW126087   4.422   2.630   0.936
 8396SOL    HW226088   4.337   2.496   0.976
 8397SOL     OW26089   1.833   5.093   3.394
 8397SOL    HW126090   1.855   5.014   3.452
 8397SOL    HW226091   1.844   5.068   3.298
 8398SOL     OW26092   5.738   1.843   0.282
 8398SOL    HW126093   5.762   1.874   0.374
 8398SOL    HW226094   5.697   1.752   0.287
 8399SOL     OW26095   5.262   5.938   6.476
 8399SOL    HW126096   5.163   5.947   6.462
 8399SOL    HW226097   5.278   5.879   6.555
 8400SOL     OW26098   6.587   6.899   4.104
 8400SOL    HW126099   6.511   6.950   4.063
 8400SOL    HW226100   6.659   6.886   4.036
 8401SOL     OW26101   3.031   3.411   5.623
 8401SOL    HW126102   3.054   3.476   5.551
 8401SOL    HW226103   3.115   3.374   5.662
 8402SOL     OW26104   5.256   0.222   5.461
 8402SOL    HW126105   5.167   0.176   5.457
 8402SOL    HW226106   5.247   0.314   5.422
 8403SOL     OW26107   0.780   2.775   5.427
 8403SOL    HW126108   0.734   2.736   5.347
 8403SOL    HW226109   0.786   2.706   5.499
 8404SOL     OW26110   4.576   4.963   5.427
 8404SOL    HW126111   4.485   5.002   5.442
 8404SOL    HW226112   4.606   4.982   5.334
 8405SOL     OW26113   1.888   2.610   5.187
 8405SOL    HW126114   1.934   2.603   5.275
 8405SOL    HW226115   1.812   2.544   5.184
 8406SOL     OW26116   4.930   3.928   2.070
 8406SOL    HW126117   5.026   3.912   2.046
 8406SOL    HW226118   4.897   4.010   2.024
 8407SOL     OW26119   5.094   3.400   3.189
 8407SOL    HW126120   5.058   3.314   3.154
 8407SOL    HW226121   5.024   3.443   3.247
 8408SOL     OW26122   4.869   3.655   3.860
 8408SOL    HW126123   4.869   3.707   3.774
 8408SOL    HW226124   4.958   3.613   3.874
 8409SOL     OW26125   1.188   1.460   3.485
 8409SOL    HW126126   1.178   1.435   3.389
 8409SOL    HW226127   1.241   1.389   3.532
 8410SOL     OW26128   2.400   5.161   2.709
 8410SOL    HW126129   2.400   5.261   2.710
 8410SOL    HW226130   2.475   5.129   2.651
 8411SOL     OW26131   2.180   3.233   3.158
 8411SOL    HW126132   2.187   3.309   3.223
 8411SOL    HW226133   2.165   3.269   3.066
 8412SOL     OW26134   6.640   1.981   2.519
 8412SOL    HW126135   6.652   2.073   2.481
 8412SOL    HW226136   6.694   1.915   2.466
 8413SOL     OW26137   1.755   4.946   1.225
 8413SOL    HW126138   1.668   4.906   1.195
 8413SOL    HW226139   1.800   4.883   1.288
 8414SOL     OW26140   6.323   0.538   3.468
 8414SOL    HW126141   6.354   0.482   3.546
 8414SOL    HW226142   6.376   0.622   3.465
 8415SOL     OW26143   6.812   4.466   1.879
 8415SOL    HW126144   6.900   4.421   1.899
 8415SOL    HW226145   6.738   4.399   1.887
 8416SOL     OW26146   4.714   4.791   2.605
 8416SOL    HW126147   4.723   4.890   2.595
 8416SOL    HW226148   4.629   4.760   2.561
 8417SOL     OW26149   1.379   5.939   6.628
 8417SOL    HW126150   1.466   5.984   6.646
 8417SOL    HW226151   1.342   5.902   6.713
 8418SOL     OW26152   5.725   5.972   2.688
 8418SOL    HW126153   5.819   5.955   2.720
 8418SOL    HW226154   5.662   5.913   2.739
 8419SOL     OW26155   5.147   0.084   4.159
 8419SOL    HW126156   5.164   0.138   4.242
 8419SOL    HW226157   5.235   0.054   4.121
 8420SOL     OW26158   4.120   2.525   5.899
 8420SOL    HW126159   4.051   2.484   5.839
 8420SOL    HW226160   4.075   2.566   5.978
 8421SOL     OW26161   6.999   1.411   1.236
 8421SOL    HW126162   0.028   1.402   1.321
 8421SOL    HW226163   6.976   1.320   1.201
 8422SOL     OW26164   3.089   6.871   1.904
 8422SOL    HW126165   3.059   6.793   1.959
 8422SOL    HW226166   3.189   6.876   1.906
 8423SOL     OW26167   2.062   3.643   1.190
 8423SOL    HW126168   2.000   3.721   1.178
 8423SOL    HW226169   2.100   3.617   1.101
 8424SOL     OW26170   2.828   2.585   1.507
 8424SOL    HW126171   2.909   2.540   1.547
 8424SOL    HW226172   2.841   2.684   1.508
 8425SOL     OW26173   6.091   5.023   6.148
 8425SOL    HW126174   6.170   4.970   6.179
 8425SOL    HW226175   6.008   4.984   6.189
 8426SOL     OW26176   3.537   3.399   2.481
 8426SOL    HW126177   3.453   3.345   2.489
 8426SOL    HW226178   3.615   3.344   2.512
 8427SOL     OW26179   1.790   1.944   0.209
 8427SOL    HW126180   1.730   1.882   0.159
 8427SOL    HW226181   1.877   1.900   0.227
 8428SOL     OW26182   5.966   3.737   0.714
 8428SOL    HW126183   5.907   3.660   0.690
 8428SOL    HW226184   5.997   3.727   0.809
 8429SOL     OW26185   1.765   6.426   2.871
 8429SOL    HW126186   1.846   6.474   2.905
 8429SOL    HW226187   1.716   6.485   2.807
 8430SOL     OW26188   4.822   4.699   3.057
 8430SOL    HW126189   4.732   4.656   3.051
 8430SOL    HW226190   4.883   4.656   2.991
 8431SOL     OW26191   3.063   3.304   2.415
 8431SOL    HW126192   2.996   3.379   2.416
 8431SOL    HW226193   3.026   3.229   2.360
 8432SOL     OW26194   4.677   6.261   6.970
 8432SOL    HW126195   4.670   6.169   7.006
 8432SOL    HW226196   4.684   6.327   0.022
 8433SOL     OW26197   0.756   1.048   4.049
 8433SOL    HW126198   0.668   1.055   4.002
 8433SOL    HW226199   0.824   1.105   4.003
 8434SOL     OW26200   5.999   6.400   6.514
 8434SOL    HW126201   5.949   6.390   6.600
 8434SOL    HW226202   6.077   6.338   6.514
 8435SOL     OW26203   4.714   1.945   1.330
 8435SOL    HW126204   4.776   1.905   1.263
 8435SOL    HW226205   4.682   1.874   1.392
 8436SOL     OW26206   3.088   4.243   1.729
 8436SOL    HW126207   3.054   4.154   1.760
 8436SOL    HW226208   3.019   4.313   1.746
 8437SOL     OW26209   0.542   2.020   0.840
 8437SOL    HW126210   0.536   2.099   0.779
 8437SOL    HW226211   0.477   1.951   0.811
 8438SOL     OW26212   1.997   5.520   0.675
 8438SOL    HW126213   1.969   5.497   0.581
 8438SOL    HW226214   2.096   5.527   0.679
 8439SOL     OW26215   5.558   0.788   1.721
 8439SOL    HW126216   5.473   0.735   1.722
 8439SOL    HW226217   5.636   0.725   1.717
 8440SOL     OW26218   1.076   3.064   3.906
 8440SOL    HW126219   0.987   3.109   3.903
 8440SOL    HW226220   1.104   3.051   4.001
 8441SOL     OW26221   4.743   5.876   2.366
 8441SOL    HW126222   4.701   5.910   2.450
 8441SOL    HW226223   4.671   5.853   2.300
 8442SOL     OW26224   2.619   3.043   0.889
 8442SOL    HW126225   2.647   3.008   0.799
 8442SOL    HW226226   2.697   3.038   0.952
 8443SOL     OW26227   0.241   1.861   1.393
 8443SOL    HW126228   0.156   1.809   1.383
 8443SOL    HW226229   0.230   1.952   1.356
 8444SOL     OW26230   4.120   1.340   3.325
 8444SOL    HW126231   4.197   1.283   3.354
 8444SOL    HW226232   4.148   1.396   3.247
 8445SOL     OW26233   4.302   5.759   2.083
 8445SOL    HW126234   4.242   5.813   2.025
 8445SOL    HW226235   4.274   5.663   2.080
 8446SOL     OW26236   7.005   3.102   2.938
 8446SOL    HW126237   6.949   3.052   3.004
 8446SOL    HW226238   6.949   3.174   2.895
 8447SOL     OW26239   4.370   3.694   1.091
 8447SOL    HW126240   4.283   3.744   1.092
 8447SOL    HW226241   4.410   3.693   1.182
 8448SOL     OW26242   1.874   3.563   5.842
 8448SOL    HW126243   1.832   3.559   5.751
 8448SOL    HW226244   1.829   3.634   5.897
 8449SOL     OW26245   1.004   0.861   4.823
 8449SOL    HW126246   0.921   0.806   4.833
 8449SOL    HW226247   0.986   0.955   4.852
 8450SOL     OW26248   1.941   5.528   1.002
 8450SOL    HW126249   1.841   5.527   1.012
 8450SOL    HW226250   1.981   5.460   1.063
 8451SOL     OW26251   3.317   3.330   0.794
 8451SOL    HW126252   3.342   3.248   0.845
 8451SOL    HW226253   3.218   3.330   0.776
 8452SOL     OW26254   0.146   5.483   1.201
 8452SOL    HW126255   0.089   5.427   1.261
 8452SOL    HW226256   0.093   5.561   1.168
 8453SOL     OW26257   6.628   5.504   5.113
 8453SOL    HW126258   6.653   5.498   5.209
 8453SOL    HW226259   6.544   5.453   5.097
 8454SOL     OW26260   2.085   6.815   4.557
 8454SOL    HW126261   2.163   6.769   4.599
 8454SOL    HW226262   2.057   6.892   4.614
 8455SOL     OW26263   5.835   2.561   0.933
 8455SOL    HW126264   5.792   2.492   0.991
 8455SOL    HW226265   5.842   2.647   0.983
 8456SOL     OW26266   5.191   4.784   3.717
 8456SOL    HW126267   5.138   4.803   3.634
 8456SOL    HW226268   5.128   4.757   3.790
 8457SOL     OW26269   6.464   6.081   5.578
 8457SOL    HW126270   6.444   5.983   5.567
 8457SOL    HW226271   6.434   6.130   5.496
 8458SOL     OW26272   1.581   2.121   1.150
 8458SOL    HW126273   1.628   2.208   1.152
 8458SOL    HW226274   1.485   2.134   1.175
 8459SOL     OW26275   2.538   4.860   3.569
 8459SOL    HW126276   2.441   4.840   3.553
 8459SOL    HW226277   2.558   4.953   3.539
 8460SOL     OW26278   3.928   1.283   1.206
 8460SOL    HW126279   3.861   1.280   1.132
 8460SOL    HW226280   3.996   1.211   1.193
 8461SOL     OW26281   5.293   3.807   3.432
 8461SOL    HW126282   5.233   3.846   3.361
 8461SOL    HW226283   5.245   3.806   3.520
 8462SOL     OW26284   1.562   3.804   0.647
 8462SOL    HW126285   1.501   3.815   0.726
 8462SOL    HW226286   1.657   3.808   0.677
 8463SOL     OW26287   6.863   0.161   1.245
 8463SOL    HW126288   6.949   0.137   1.199
 8463SOL    HW226289   6.873   0.249   1.291
 8464SOL     OW26290   6.222   3.126   6.342
 8464SOL    HW126291   6.267   3.133   6.253
 8464SOL    HW226292   6.258   3.196   6.403
 8465SOL     OW26293   4.846   3.687   1.041
 8465SOL    HW126294   4.749   3.692   1.018
 8465SOL    HW226295   4.887   3.608   0.995
 8466SOL     OW26296   0.511   1.366   5.450
 8466SOL    HW126297   0.544   1.311   5.373
 8466SOL    HW226298   0.571   1.351   5.529
 8467SOL     OW26299   2.951   1.350   0.756
 8467SOL    HW126300   2.979   1.400   0.674
 8467SOL    HW226301   3.015   1.275   0.773
 8468SOL     OW26302   5.431   4.404   0.578
 8468SOL    HW126303   5.471   4.477   0.634
 8468SOL    HW226304   5.465   4.411   0.485
 8469SOL     OW26305   3.805   2.859   5.595
 8469SOL    HW126306   3.881   2.835   5.655
 8469SOL    HW226307   3.804   2.798   5.516
 8470SOL     OW26308   1.314   5.824   1.568
 8470SOL    HW126309   1.325   5.916   1.532
 8470SOL    HW226310   1.398   5.772   1.552
 8471SOL     OW26311   4.260   1.667   4.734
 8471SOL    HW126312   4.291   1.579   4.770
 8471SOL    HW226313   4.176   1.695   4.781
 8472SOL     OW26314   5.596   1.980   6.875
 8472SOL    HW126315   5.670   2.024   6.926
 8472SOL    HW226316   5.517   2.042   6.871
 8473SOL     OW26317   5.072   5.019   5.937
 8473SOL    HW126318   5.000   5.068   5.888
 8473SOL    HW226319   5.160   5.036   5.892
 8474SOL     OW26320   2.823   4.075   5.243
 8474SOL    HW126321   2.756   4.095   5.314
 8474SOL    HW226322   2.896   4.143   5.245
 8475SOL     OW26323   6.899   1.521   3.046
 8475SOL    HW126324   6.938   1.444   2.994
 8475SOL    HW226325   6.973   1.574   3.086
 8476SOL     OW26326   6.197   1.262   1.682
 8476SOL    HW126327   6.192   1.186   1.746
 8476SOL    HW226328   6.152   1.236   1.596
 8477SOL     OW26329   5.955   0.828   1.396
 8477SOL    HW126330   5.904   0.860   1.476
 8477SOL    HW226331   6.053   0.831   1.416
 8478SOL     OW26332   0.520   6.301   5.877
 8478SOL    HW126333   0.575   6.343   5.805
 8478SOL    HW226334   0.579   6.282   5.956
 8479SOL     OW26335   1.244   2.575   0.118
 8479SOL    HW126336   1.313   2.539   0.056
 8479SOL    HW226337   1.209   2.662   0.082
 8480SOL     OW26338   3.314   4.357   0.649
 8480SOL    HW126339   3.300   4.395   0.740
 8480SOL    HW226340   3.352   4.264   0.657
 8481SOL     OW26341   4.135   2.223   2.845
 8481SOL    HW126342   4.171   2.314   2.821
 8481SOL    HW226343   4.157   2.202   2.940
 8482SOL     OW26344   4.087   0.582   6.702
 8482SOL    HW126345   4.015   0.639   6.740
 8482SOL    HW226346   4.084   0.587   6.602
 8483SOL     OW26347   3.959   4.819   3.563
 8483SOL    HW126348   3.914   4.907   3.576
 8483SOL    HW226349   3.932   4.779   3.475
 8484SOL     OW26350   6.084   6.174   5.386
 8484SOL    HW126351   6.154   6.190   5.317
 8484SOL    HW226352   6.104   6.090   5.435
 8485SOL     OW26353   4.556   1.214   5.876
 8485SOL    HW126354   4.550   1.302   5.922
 8485SOL    HW226355   4.523   1.224   5.782
 8486SOL     OW26356   6.096   2.442   4.806
 8486SOL    HW126357   6.014   2.392   4.834
 8486SOL    HW226358   6.090   2.536   4.837
 8487SOL     OW26359   6.716   2.638   5.937
 8487SOL    HW126360   6.620   2.666   5.928
 8487SOL    HW226361   6.734   2.612   6.032
 8488SOL     OW26362   4.538   4.456   2.577
 8488SOL    HW126363   4.464   4.447   2.511
 8488SOL    HW226364   4.622   4.416   2.540
 8489SOL     OW26365   6.244   1.727   2.239
 8489SOL    HW126366   6.231   1.722   2.140
 8489SOL    HW226367   6.221   1.819   2.271
 8490SOL     OW26368   2.920   6.746   0.483
 8490SOL    HW126369   3.000   6.764   0.426
 8490SOL    HW226370   2.900   6.827   0.539
 8491SOL     OW26371   3.171   5.501   2.296
 8491SOL    HW126372   3.207   5.431   2.234
 8491SOL    HW226373   3.238   5.519   2.368
 8492SOL     OW26374   6.299   5.970   4.226
 8492SOL    HW126375   6.306   6.069   4.214
 8492SOL    HW226376   6.213   5.948   4.273
 8493SOL     OW26377   5.154   1.048   5.927
 8493SOL    HW126378   5.103   1.089   5.851
 8493SOL    HW226379   5.105   0.966   5.959
 8494SOL     OW26380   6.980   3.395   2.263
 8494SOL    HW126381   6.941   3.487   2.270
 8494SOL    HW226382   7.009   3.364   2.354
 8495SOL     OW26383   5.586   5.848   6.070
 8495SOL    HW126384   5.663   5.887   6.020
 8495SOL    HW226385   5.514   5.917   6.079
 8496SOL     OW26386   5.252   1.650   2.318
 8496SOL    HW126387   5.235   1.705   2.399
 8496SOL    HW226388   5.199   1.686   2.241
 8497SOL     OW26389   6.766   0.516   2.574
 8497SOL    HW126390   6.794   0.600   2.621
 8497SOL    HW226391   6.675   0.529   2.535
 8498SOL     OW26392   4.792   6.073   4.279
 8498SOL    HW126393   4.808   5.987   4.327
 8498SOL    HW226394   4.865   6.088   4.212
 8499SOL     OW26395   5.898   6.854   5.597
 8499SOL    HW126396   5.977   6.908   5.568
 8499SOL    HW226397   5.822   6.915   5.621
 8500SOL     OW26398   0.979   0.713   6.854
 8500SOL    HW126399   0.958   0.769   6.934
 8500SOL    HW226400   0.932   0.749   6.774
 8501SOL     OW26401   2.954   1.079   6.258
 8501SOL    HW126402   2.925   1.002   6.315
 8501SOL    HW226403   3.009   1.044   6.182
 8502SOL     OW26404   6.367   3.015   0.087
 8502SOL    HW126405   6.383   3.070   0.169
 8502SOL    HW226406   6.295   2.947   0.107
 8503SOL     OW26407   4.919   2.337   5.410
 8503SOL    HW126408   4.905   2.426   5.454
 8503SOL    HW226409   4.941   2.350   5.314
 8504SOL     OW26410   1.065   6.824   2.293
 8504SOL    HW126411   1.151   6.868   2.269
 8504SOL    HW226412   1.073   6.780   2.383
 8505SOL     OW26413   5.518   1.915   2.857
 8505SOL    HW126414   5.539   1.964   2.773
 8505SOL    HW226415   5.423   1.883   2.854
 8506SOL     OW26416   1.265   0.083   6.454
 8506SOL    HW126417   1.201   0.153   6.486
 8506SOL    HW226418   1.358   0.122   6.452
 8507SOL     OW26419   3.964   5.122   5.561
 8507SOL    HW126420   3.974   5.092   5.656
 8507SOL    HW226421   4.040   5.183   5.537
 8508SOL     OW26422   3.420   0.868   6.210
 8508SOL    HW126423   3.473   0.909   6.285
 8508SOL    HW226424   3.399   0.773   6.232
 8509SOL     OW26425   5.100   2.436   2.420
 8509SOL    HW126426   5.165   2.504   2.387
 8509SOL    HW226427   5.024   2.428   2.356
 8510SOL     OW26428   0.719   2.334   4.747
 8510SOL    HW126429   0.742   2.401   4.677
 8510SOL    HW226430   0.645   2.275   4.713
 8511SOL     OW26431   5.834   1.996   3.683
 8511SOL    HW126432   5.925   1.957   3.667
 8511SOL    HW226433   5.843   2.092   3.708
 8512SOL     OW26434   1.907   6.064   5.687
 8512SOL    HW126435   1.947   6.143   5.641
 8512SOL    HW226436   1.824   6.092   5.734
 8513SOL     OW26437   4.873   5.944   6.911
 8513SOL    HW126438   4.939   5.985   6.849
 8513SOL    HW226439   4.879   5.989   7.000
 8514SOL     OW26440   3.431   5.597   4.390
 8514SOL    HW126441   3.398   5.516   4.340
 8514SOL    HW226442   3.452   5.571   4.484
 8515SOL     OW26443   6.094   2.290   2.025
 8515SOL    HW126444   6.048   2.286   2.114
 8515SOL    HW226445   6.136   2.202   2.005
 8516SOL     OW26446   6.593   1.378   2.396
 8516SOL    HW126447   6.601   1.468   2.353
 8516SOL    HW226448   6.498   1.346   2.389
 8517SOL     OW26449   1.318   3.961   5.180
 8517SOL    HW126450   1.260   4.039   5.202
 8517SOL    HW226451   1.413   3.991   5.169
 8518SOL     OW26452   3.149   5.840   0.956
 8518SOL    HW126453   3.248   5.841   0.945
 8518SOL    HW226454   3.105   5.853   0.868
 8519SOL     OW26455   2.706   5.890   3.542
 8519SOL    HW126456   2.710   5.826   3.618
 8519SOL    HW226457   2.785   5.876   3.482
 8520SOL     OW26458   3.380   6.196   6.706
 8520SOL    HW126459   3.366   6.135   6.785
 8520SOL    HW226460   3.338   6.155   6.625
 8521SOL     OW26461   2.119   0.350   2.247
 8521SOL    HW126462   2.113   0.251   2.259
 8521SOL    HW226463   2.118   0.394   2.337
 8522SOL     OW26464   2.260   6.380   4.794
 8522SOL    HW126465   2.290   6.285   4.784
 8522SOL    HW226466   2.203   6.388   4.876
 8523SOL     OW26467   1.788   6.651   6.598
 8523SOL    HW126468   1.713   6.709   6.630
 8523SOL    HW226469   1.798   6.573   6.659
 8524SOL     OW26470   1.788   1.379   6.965
 8524SOL    HW126471   1.832   1.292   6.943
 8524SOL    HW226472   1.838   1.454   6.922
 8525SOL     OW26473   6.058   3.390   3.937
 8525SOL    HW126474   5.971   3.440   3.937
 8525SOL    HW226475   6.039   3.292   3.929
 8526SOL     OW26476   1.809   3.233   2.230
 8526SOL    HW126477   1.900   3.257   2.195
 8526SOL    HW226478   1.751   3.205   2.154
 8527SOL     OW26479   4.749   0.121   4.790
 8527SOL    HW126480   4.814   0.070   4.735
 8527SOL    HW226481   4.732   0.210   4.748
 8528SOL     OW26482   5.698   1.584   6.890
 8528SOL    HW126483   5.713   1.612   6.795
 8528SOL    HW226484   5.785   1.587   6.939
 8529SOL     OW26485   6.809   6.876   5.417
 8529SOL    HW126486   6.906   6.853   5.408
 8529SOL    HW226487   6.792   6.966   5.377
 8530SOL     OW26488   1.968   5.110   5.837
 8530SOL    HW126489   1.879   5.065   5.842
 8530SOL    HW226490   2.040   5.040   5.836
 8531SOL     OW26491   4.148   5.434   1.510
 8531SOL    HW126492   4.070   5.456   1.451
 8531SOL    HW226493   4.233   5.447   1.459
 8532SOL     OW26494   1.472   4.092   0.633
 8532SOL    HW126495   1.551   4.036   0.659
 8532SOL    HW226496   1.486   4.186   0.663
 8533SOL     OW26497   3.829   6.649   5.703
 8533SOL    HW126498   3.781   6.561   5.699
 8533SOL    HW226499   3.884   6.660   5.620
 8534SOL     OW26500   2.146   2.388   0.972
 8534SOL    HW126501   2.086   2.362   1.048
 8534SOL    HW226502   2.135   2.324   0.896
 8535SOL     OW26503   0.456   3.442   5.683
 8535SOL    HW126504   0.533   3.387   5.651
 8535SOL    HW226505   0.374   3.416   5.632
 8536SOL     OW26506   6.192   1.111   5.952
 8536SOL    HW126507   6.280   1.118   5.905
 8536SOL    HW226508   6.121   1.158   5.899
 8537SOL     OW26509   4.290   6.094   3.666
 8537SOL    HW126510   4.363   6.075   3.600
 8537SOL    HW226511   4.236   6.173   3.635
 8538SOL     OW26512   5.065   0.168   5.200
 8538SOL    HW126513   4.999   0.172   5.125
 8538SOL    HW226514   5.158   0.164   5.163
 8539SOL     OW26515   0.905   2.998   2.524
 8539SOL    HW126516   0.982   3.047   2.564
 8539SOL    HW226517   0.819   3.039   2.554
 8540SOL     OW26518   3.961   0.154   6.992
 8540SOL    HW126519   4.018   0.234   6.977
 8540SOL    HW226520   3.943   0.108   6.905
 8541SOL     OW26521   2.935   6.632   5.233
 8541SOL    HW126522   2.849   6.662   5.273
 8541SOL    HW226523   2.931   6.533   5.218
 8542SOL     OW26524   1.003   5.407   5.678
 8542SOL    HW126525   1.092   5.421   5.634
 8542SOL    HW226526   1.002   5.319   5.725
 8543SOL     OW26527   3.043   2.202   5.473
 8543SOL    HW126528   3.017   2.262   5.397
 8543SOL    HW226529   3.122   2.147   5.447
 8544SOL     OW26530   5.475   4.338   5.538
 8544SOL    HW126531   5.558   4.303   5.582
 8544SOL    HW226532   5.398   4.278   5.558
 8545SOL     OW26533   2.240   0.161   6.040
 8545SOL    HW126534   2.274   0.201   6.125
 8545SOL    HW226535   2.316   0.150   5.976
 8546SOL     OW26536   3.536   1.191   3.691
 8546SOL    HW126537   3.527   1.272   3.633
 8546SOL    HW226538   3.447   1.170   3.732
 8547SOL     OW26539   5.114   6.360   6.119
 8547SOL    HW126540   5.140   6.298   6.193
 8547SOL    HW226541   5.159   6.333   6.034
 8548SOL     OW26542   1.291   4.265   4.109
 8548SOL    HW126543   1.201   4.303   4.130
 8548SOL    HW226544   1.359   4.302   4.173
 8549SOL     OW26545   2.795   0.418   3.834
 8549SOL    HW126546   2.780   0.494   3.771
 8549SOL    HW226547   2.707   0.389   3.874
 8550SOL     OW26548   0.450   4.644   5.433
 8550SOL    HW126549   0.470   4.581   5.358
 8550SOL    HW226550   0.535   4.686   5.465
 8551SOL     OW26551   3.672   1.417   4.690
 8551SOL    HW126552   3.636   1.326   4.713
 8551SOL    HW226553   3.618   1.457   4.617
 8552SOL     OW26554   3.588   1.754   2.144
 8552SOL    HW126555   3.652   1.828   2.122
 8552SOL    HW226556   3.496   1.790   2.154
 8553SOL     OW26557   4.789   3.993   0.907
 8553SOL    HW126558   4.888   3.984   0.905
 8553SOL    HW226559   4.748   3.907   0.936
 8554SOL     OW26560   1.256   1.084   6.270
 8554SOL    HW126561   1.315   1.127   6.338
 8554SOL    HW226562   1.304   1.006   6.228
 8555SOL     OW26563   2.947   1.935   3.704
 8555SOL    HW126564   2.886   1.891   3.770
 8555SOL    HW226565   2.972   1.870   3.632
 8556SOL     OW26566   6.947   5.165   5.469
 8556SOL    HW126567   6.938   5.083   5.412
 8556SOL    HW226568   0.020   5.182   5.489
 8557SOL     OW26569   6.531   1.240   0.100
 8557SOL    HW126570   6.600   1.205   0.162
 8557SOL    HW226571   6.558   1.223   0.006
 8558SOL     OW26572   2.557   6.767   3.902
 8558SOL    HW126573   2.651   6.734   3.902
 8558SOL    HW226574   2.544   6.832   3.977
 8559SOL     OW26575   1.664   3.501   2.552
 8559SOL    HW126576   1.763   3.501   2.568
 8559SOL    HW226577   1.618   3.449   2.624
 8560SOL     OW26578   3.574   3.864   1.386
 8560SOL    HW126579   3.541   3.908   1.302
 8560SOL    HW226580   3.509   3.879   1.460
 8561SOL     OW26581   4.115   0.522   3.217
 8561SOL    HW126582   4.184   0.476   3.161
 8561SOL    HW226583   4.082   0.460   3.288
 8562SOL     OW26584   5.536   2.550   6.269
 8562SOL    HW126585   5.514   2.496   6.188
 8562SOL    HW226586   5.498   2.506   6.350
 8563SOL     OW26587   1.872   5.215   2.924
 8563SOL    HW126588   1.950   5.191   2.867
 8563SOL    HW226589   1.880   5.172   3.013
 8564SOL     OW26590   3.622   5.966   0.331
 8564SOL    HW126591   3.705   6.015   0.303
 8564SOL    HW226592   3.570   5.940   0.249
 8565SOL     OW26593   1.164   5.131   1.156
 8565SOL    HW126594   1.236   5.104   1.093
 8565SOL    HW226595   1.141   5.227   1.141
 8566SOL     OW26596   3.715   0.673   3.398
 8566SOL    HW126597   3.771   0.755   3.390
 8566SOL    HW226598   3.760   0.596   3.352
 8567SOL     OW26599   1.659   2.195   1.423
 8567SOL    HW126600   1.637   2.107   1.382
 8567SOL    HW226601   1.649   2.190   1.522
 8568SOL     OW26602   6.153   0.207   5.974
 8568SOL    HW126603   6.109   0.295   5.994
 8568SOL    HW226604   6.236   0.199   6.029
 8569SOL     OW26605   5.192   1.788   0.100
 8569SOL    HW126606   5.113   1.825   0.052
 8569SOL    HW226607   5.273   1.796   0.042
 8570SOL     OW26608   2.040   1.583   3.285
 8570SOL    HW126609   2.058   1.502   3.340
 8570SOL    HW226610   1.948   1.618   3.307
 8571SOL     OW26611   1.452   0.432   3.197
 8571SOL    HW126612   1.461   0.527   3.226
 8571SOL    HW226613   1.448   0.373   3.278
 8572SOL     OW26614   3.207   4.040   5.793
 8572SOL    HW126615   3.236   3.955   5.748
 8572SOL    HW226616   3.169   4.102   5.726
 8573SOL     OW26617   1.849   6.105   6.352
 8573SOL    HW126618   1.819   6.056   6.270
 8573SOL    HW226619   1.769   6.128   6.407
 8574SOL     OW26620   5.640   1.246   5.428
 8574SOL    HW126621   5.698   1.200   5.495
 8574SOL    HW226622   5.576   1.180   5.389
 8575SOL     OW26623   3.266   6.064   4.537
 8575SOL    HW126624   3.235   5.971   4.556
 8575SOL    HW226625   3.366   6.066   4.539
 8576SOL     OW26626   1.336   4.219   4.635
 8576SOL    HW126627   1.271   4.227   4.559
 8576SOL    HW226628   1.352   4.309   4.675
 8577SOL     OW26629   2.267   0.744   0.463
 8577SOL    HW126630   2.259   0.644   0.457
 8577SOL    HW226631   2.280   0.782   0.372
 8578SOL     OW26632   1.040   7.012   6.030
 8578SOL    HW126633   1.019   7.017   6.127
 8578SOL    HW226634   1.077   0.076   5.999
 8579SOL     OW26635   3.581   0.068   1.996
 8579SOL    HW126636   3.521   0.147   2.011
 8579SOL    HW226637   3.670   0.100   1.964
 8580SOL     OW26638   2.288   0.690   1.947
 8580SOL    HW126639   2.233   0.756   1.895
 8580SOL    HW226640   2.362   0.656   1.889
 8581SOL     OW26641   3.999   3.916   2.171
 8581SOL    HW126642   3.920   3.976   2.159
 8581SOL    HW226643   4.068   3.961   2.228
 8582SOL     OW26644   4.453   5.642   5.842
 8582SOL    HW126645   4.378   5.582   5.815
 8582SOL    HW226646   4.496   5.681   5.760
 8583SOL     OW26647   3.315   6.874   2.671
 8583SOL    HW126648   3.290   6.937   2.598
 8583SOL    HW226649   3.391   6.816   2.640
 8584SOL     OW26650   6.398   1.556   5.066
 8584SOL    HW126651   6.367   1.631   5.124
 8584SOL    HW226652   6.361   1.568   4.974
 8585SOL     OW26653   5.018   2.238   1.969
 8585SOL    HW126654   5.022   2.214   1.872
 8585SOL    HW226655   5.020   2.337   1.980
 8586SOL     OW26656   6.172   5.930   5.472
 8586SOL    HW126657   6.236   5.933   5.395
 8586SOL    HW226658   6.220   5.900   5.554
 8587SOL     OW26659   6.668   1.411   6.888
 8587SOL    HW126660   6.683   1.444   6.981
 8587SOL    HW226661   6.752   1.367   6.854
 8588SOL     OW26662   1.537   0.755   5.320
 8588SOL    HW126663   1.568   0.741   5.226
 8588SOL    HW226664   1.494   0.671   5.353
 8589SOL     OW26665   5.597   2.898   6.619
 8589SOL    HW126666   5.570   2.815   6.668
 8589SOL    HW226667   5.610   2.972   6.685
 8590SOL     OW26668   1.463   1.214   3.591
 8590SOL    HW126669   1.494   1.293   3.645
 8590SOL    HW226670   1.528   1.195   3.518
 8591SOL     OW26671   0.609   3.698   4.979
 8591SOL    HW126672   0.590   3.752   4.896
 8591SOL    HW226673   0.585   3.752   5.059
 8592SOL     OW26674   6.986   2.002   4.102
 8592SOL    HW126675   6.912   1.955   4.150
 8592SOL    HW226676   0.043   1.941   4.098
 8593SOL     OW26677   6.371   1.468   0.059
 8593SOL    HW126678   6.305   1.463   0.133
 8593SOL    HW226679   6.413   1.378   0.045
 8594SOL     OW26680   5.877   4.482   6.194
 8594SOL    HW126681   5.909   4.412   6.257
 8594SOL    HW226682   5.945   4.495   6.122
 8595SOL     OW26683   5.184   6.154   2.969
 8595SOL    HW126684   5.278   6.128   2.948
 8595SOL    HW226685   5.140   6.189   2.886
 8596SOL     OW26686   1.290   2.428   5.546
 8596SOL    HW126687   1.278   2.512   5.598
 8596SOL    HW226688   1.238   2.433   5.461
 8597SOL     OW26689   5.876   2.367   6.352
 8597SOL    HW126690   5.823   2.439   6.307
 8597SOL    HW226691   5.845   2.357   6.447
 8598SOL     OW26692   0.078   0.566   5.971
 8598SOL    HW126693   0.162   0.619   5.984
 8598SOL    HW226694   0.099   0.483   5.919
 8599SOL     OW26695   6.176   4.348   4.993
 8599SOL    HW126696   6.094   4.396   5.024
 8599SOL    HW226697   6.174   4.254   5.029
 8600SOL     OW26698   4.404   2.832   1.727
 8600SOL    HW126699   4.489   2.875   1.695
 8600SOL    HW226700   4.364   2.887   1.800
 8601SOL     OW26701   5.362   5.660   2.698
 8601SOL    HW126702   5.272   5.618   2.690
 8601SOL    HW226703   5.416   5.637   2.617
 8602SOL     OW26704   1.748   0.444   5.639
 8602SOL    HW126705   1.715   0.359   5.680
 8602SOL    HW226706   1.728   0.444   5.541
 8603SOL     OW26707   0.463   0.779   6.747
 8603SOL    HW126708   0.459   0.772   6.647
 8603SOL    HW226709   0.371   0.795   6.783
 8604SOL     OW26710   1.613   5.578   5.884
 8604SOL    HW126711   1.673   5.541   5.813
 8604SOL    HW226712   1.545   5.509   5.910
 8605SOL     OW26713   6.798   4.453   3.840
 8605SOL    HW126714   6.733   4.441   3.765
 8605SOL    HW226715   6.757   4.424   3.926
 8606SOL     OW26716   1.267   0.687   6.930
 8606SOL    HW126717   1.281   0.728   7.020
 8606SOL    HW226718   1.170   0.695   6.905
 8607SOL     OW26719   2.883   3.115   1.675
 8607SOL    HW126720   2.932   3.112   1.588
 8607SOL    HW226721   2.789   3.148   1.658
 8608SOL     OW26722   1.512   5.988   1.794
 8608SOL    HW126723   1.414   5.992   1.811
 8608SOL    HW226724   1.545   5.895   1.809
 8609SOL     OW26725   5.319   2.232   4.707
 8609SOL    HW126726   5.366   2.165   4.650
 8609SOL    HW226727   5.305   2.194   4.798
 8610SOL     OW26728   6.651   5.232   2.797
 8610SOL    HW126729   6.696   5.148   2.766
 8610SOL    HW226730   6.592   5.212   2.874
 8611SOL     OW26731   2.136   1.625   5.367
 8611SOL    HW126732   2.210   1.691   5.386
 8611SOL    HW226733   2.158   1.538   5.410
 8612SOL     OW26734   3.535   3.193   5.078
 8612SOL    HW126735   3.479   3.181   4.996
 8612SOL    HW226736   3.481   3.172   5.159
 8613SOL     OW26737   3.962   3.076   3.631
 8613SOL    HW126738   3.955   3.161   3.578
 8613SOL    HW226739   4.039   3.083   3.695
 8614SOL     OW26740   0.888   2.370   3.361
 8614SOL    HW126741   0.952   2.443   3.337
 8614SOL    HW226742   0.796   2.394   3.328
 8615SOL     OW26743   3.577   1.800   5.593
 8615SOL    HW126744   3.497   1.829   5.646
 8615SOL    HW226745   3.613   1.878   5.543
 8616SOL     OW26746   5.628   4.463   5.039
 8616SOL    HW126747   5.535   4.434   5.015
 8616SOL    HW226748   5.645   4.554   5.001
 8617SOL     OW26749   1.356   6.385   3.086
 8617SOL    HW126750   1.355   6.470   3.032
 8617SOL    HW226751   1.319   6.403   3.177
 8618SOL     OW26752   5.725   4.318   0.665
 8618SOL    HW126753   5.731   4.292   0.569
 8618SOL    HW226754   5.677   4.247   0.716
 8619SOL     OW26755   4.932   5.994   0.566
 8619SOL    HW126756   4.955   5.924   0.498
 8619SOL    HW226757   4.848   5.967   0.614
 8620SOL     OW26758   1.846   6.237   3.824
 8620SOL    HW126759   1.774   6.167   3.822
 8620SOL    HW226760   1.839   6.289   3.909
 8621SOL     OW26761   5.845   3.725   1.915
 8621SOL    HW126762   5.758   3.685   1.886
 8621SOL    HW226763   5.919   3.683   1.863
 8622SOL     OW26764   0.663   5.493   1.807
 8622SOL    HW126765   0.750   5.483   1.856
 8622SOL    HW226766   0.607   5.412   1.822
 8623SOL     OW26767   1.799   1.961   3.462
 8623SOL    HW126768   1.809   2.034   3.395
 8623SOL    HW226769   1.810   1.872   3.417
 8624SOL     OW26770   3.468   4.207   5.618
 8624SOL    HW126771   3.529   4.180   5.692
 8624SOL    HW226772   3.498   4.293   5.579
 8625SOL     OW26773   4.472   3.743   6.191
 8625SOL    HW126774   4.385   3.756   6.142
 8625SOL    HW226775   4.521   3.830   6.196
 8626SOL     OW26776   4.869   1.764   1.633
 8626SOL    HW126777   4.893   1.668   1.619
 8626SOL    HW226778   4.771   1.776   1.618
 8627SOL     OW26779   1.579   0.191   2.734
 8627SOL    HW126780   1.577   0.263   2.664
 8627SOL    HW226781   1.489   0.148   2.739
 8628SOL     OW26782   1.124   6.929   1.033
 8628SOL    HW126783   1.066   6.997   0.989
 8628SOL    HW226784   1.068   6.870   1.091
 8629SOL     OW26785   0.252   6.901   4.481
 8629SOL    HW126786   0.167   6.936   4.521
 8629SOL    HW226787   0.235   6.812   4.439
 8630SOL     OW26788   4.871   2.599   1.525
 8630SOL    HW126789   4.861   2.698   1.519
 8630SOL    HW226790   4.789   2.555   1.488
 8631SOL     OW26791   2.119   6.024   6.233
 8631SOL    HW126792   2.060   6.069   6.300
 8631SOL    HW226793   2.111   6.071   6.145
 8632SOL     OW26794   6.191   5.473   3.938
 8632SOL    HW126795   6.247   5.394   3.958
 8632SOL    HW226796   6.124   5.450   3.867
 8633SOL     OW26797   6.112   3.847   5.544
 8633SOL    HW126798   6.197   3.806   5.511
 8633SOL    HW226799   6.053   3.868   5.466
 8634SOL     OW26800   5.223   4.769   6.821
 8634SOL    HW126801   5.302   4.750   6.764
 8634SOL    HW226802   5.191   4.863   6.804
 8635SOL     OW26803   4.865   2.804   6.688
 8635SOL    HW126804   4.930   2.846   6.624
 8635SOL    HW226805   4.807   2.875   6.728
 8636SOL     OW26806   4.044   6.069   1.744
 8636SOL    HW126807   4.056   6.161   1.783
 8636SOL    HW226808   4.121   6.012   1.770
 8637SOL     OW26809   2.026   2.365   0.034
 8637SOL    HW126810   2.037   2.270   0.063
 8637SOL    HW226811   2.066   2.426   0.103
 8638SOL     OW26812   4.747   2.859   4.316
 8638SOL    HW126813   4.811   2.934   4.301
 8638SOL    HW226814   4.745   2.835   4.413
 8639SOL     OW26815   3.066   4.711   0.307
 8639SOL    HW126816   3.058   4.736   0.404
 8639SOL    HW226817   3.141   4.764   0.266
 8640SOL     OW26818   4.061   2.522   0.661
 8640SOL    HW126819   4.005   2.519   0.744
 8640SOL    HW226820   4.155   2.496   0.683
 8641SOL     OW26821   3.213   4.924   2.991
 8641SOL    HW126822   3.299   4.954   2.950
 8641SOL    HW226823   3.168   4.858   2.930
 8642SOL     OW26824   2.210   5.907   3.119
 8642SOL    HW126825   2.186   5.891   3.024
 8642SOL    HW226826   2.158   5.845   3.178
 8643SOL     OW26827   3.821   6.647   1.528
 8643SOL    HW126828   3.808   6.733   1.480
 8643SOL    HW226829   3.767   6.575   1.484
 8644SOL     OW26830   5.943   2.945   5.710
 8644SOL    HW126831   5.902   2.912   5.625
 8644SOL    HW226832   5.872   2.974   5.773
 8645SOL     OW26833   5.225   5.355   2.920
 8645SOL    HW126834   5.141   5.344   2.972
 8645SOL    HW226835   5.203   5.380   2.826
 8646SOL     OW26836   0.045   2.765   5.269
 8646SOL    HW126837   7.011   2.699   5.220
 8646SOL    HW226838   0.142   2.745   5.252
 8647SOL     OW26839   1.840   5.295   1.704
 8647SOL    HW126840   1.773   5.254   1.765
 8647SOL    HW226841   1.924   5.315   1.754
 8648SOL     OW26842   4.957   5.386   0.470
 8648SOL    HW126843   4.959   5.298   0.518
 8648SOL    HW226844   4.906   5.453   0.524
 8649SOL     OW26845   5.308   1.793   0.971
 8649SOL    HW126846   5.344   1.880   0.938
 8649SOL    HW226847   5.302   1.794   1.070
 8650SOL     OW26848   2.153   0.625   5.746
 8650SOL    HW126849   2.193   0.534   5.748
 8650SOL    HW226850   2.053   0.618   5.745
 8651SOL     OW26851   4.041   1.931   1.926
 8651SOL    HW126852   3.994   2.015   1.952
 8651SOL    HW226853   4.011   1.903   1.835
 8652SOL     OW26854   0.420   2.333   3.839
 8652SOL    HW126855   0.511   2.301   3.812
 8652SOL    HW226856   0.414   2.335   3.939
 8653SOL     OW26857   6.005   1.237   7.019
 8653SOL    HW126858   5.923   1.205   6.973
 8653SOL    HW226859   5.994   1.333   0.022
 8654SOL     OW26860   0.136   4.808   2.765
 8654SOL    HW126861   0.036   4.808   2.757
 8654SOL    HW226862   0.169   4.901   2.778
 8655SOL     OW26863   0.780   0.089   5.022
 8655SOL    HW126864   0.698   0.102   5.079
 8655SOL    HW226865   0.814   0.178   4.992
 8656SOL     OW26866   4.558   6.603   0.796
 8656SOL    HW126867   4.610   6.530   0.751
 8656SOL    HW226868   4.531   6.573   0.887
 8657SOL     OW26869   3.020   1.849   2.918
 8657SOL    HW126870   2.929   1.811   2.902
 8657SOL    HW226871   3.040   1.918   2.849
 8658SOL     OW26872   6.837   3.597   1.084
 8658SOL    HW126873   6.867   3.502   1.079
 8658SOL    HW226874   6.737   3.601   1.077
 8659SOL     OW26875   4.100   0.689   2.990
 8659SOL    HW126876   4.087   0.614   3.054
 8659SOL    HW226877   4.192   0.686   2.952
 8660SOL     OW26878   0.424   3.697   1.398
 8660SOL    HW126879   0.408   3.673   1.494
 8660SOL    HW226880   0.351   3.659   1.341
 8661SOL     OW26881   6.323   3.638   1.966
 8661SOL    HW126882   6.411   3.684   1.947
 8661SOL    HW226883   6.296   3.656   2.060
 8662SOL     OW26884   1.242   1.976   2.560
 8662SOL    HW126885   1.206   2.062   2.523
 8662SOL    HW226886   1.314   1.996   2.626
 8663SOL     OW26887   4.029   4.904   2.477
 8663SOL    HW126888   3.933   4.932   2.474
 8663SOL    HW226889   4.080   4.967   2.535
 8664SOL     OW26890   3.212   6.557   4.349
 8664SOL    HW126891   3.312   6.555   4.352
 8664SOL    HW226892   3.177   6.463   4.356
 8665SOL     OW26893   5.856   3.897   6.812
 8665SOL    HW126894   5.921   3.932   6.879
 8665SOL    HW226895   5.869   3.945   6.725
 8666SOL     OW26896   4.909   0.710   3.124
 8666SOL    HW126897   4.948   0.689   3.214
 8666SOL    HW226898   4.951   0.650   3.055
 8667SOL     OW26899   5.433   2.517   1.976
 8667SOL    HW126900   5.499   2.442   1.971
 8667SOL    HW226901   5.477   2.598   2.015
 8668SOL     OW26902   4.315   1.922   4.610
 8668SOL    HW126903   4.310   1.826   4.636
 8668SOL    HW226904   4.229   1.968   4.632
 8669SOL     OW26905   6.764   6.031   6.323
 8669SOL    HW126906   6.735   6.003   6.232
 8669SOL    HW226907   6.780   6.130   6.324
 8670SOL     OW26908   0.198   5.212   5.430
 8670SOL    HW126909   0.181   5.194   5.333
 8670SOL    HW226910   0.289   5.178   5.454
 8671SOL     OW26911   0.236   2.997   2.957
 8671SOL    HW126912   0.230   2.932   3.033
 8671SOL    HW226913   0.151   3.050   2.952
 8672SOL     OW26914   6.908   1.409   2.369
 8672SOL    HW126915   6.951   1.468   2.437
 8672SOL    HW226916   6.819   1.378   2.404
 8673SOL     OW26917   1.047   1.344   1.279
 8673SOL    HW126918   1.133   1.353   1.229
 8673SOL    HW226919   0.972   1.380   1.222
 8674SOL     OW26920   6.945   3.942   3.396
 8674SOL    HW126921   6.959   4.041   3.394
 8674SOL    HW226922   0.006   3.896   3.369
 8675SOL     OW26923   4.565   2.753   5.106
 8675SOL    HW126924   4.543   2.821   5.176
 8675SOL    HW226925   4.501   2.760   5.030
 8676SOL     OW26926   4.624   2.368   0.938
 8676SOL    HW126927   4.559   2.425   0.889
 8676SOL    HW226928   4.581   2.282   0.964
 8677SOL     OW26929   2.953   0.210   6.799
 8677SOL    HW126930   2.957   0.110   6.794
 8677SOL    HW226931   2.875   0.237   6.855
 8678SOL     OW26932   2.912   2.350   0.105
 8678SOL    HW126933   2.839   2.317   0.166
 8678SOL    HW226934   2.945   2.274   0.050
 8679SOL     OW26935   1.823   1.837   6.481
 8679SOL    HW126936   1.764   1.815   6.404
 8679SOL    HW226937   1.799   1.779   6.559
 8680SOL     OW26938   6.991   0.421   0.967
 8680SOL    HW126939   0.003   0.500   0.917
 8680SOL    HW226940   0.011   0.418   1.057
 8681SOL     OW26941   5.507   4.957   1.437
 8681SOL    HW126942   5.585   4.907   1.399
 8681SOL    HW226943   5.490   5.039   1.382
 8682SOL     OW26944   2.772   0.758   2.529
 8682SOL    HW126945   2.712   0.680   2.544
 8682SOL    HW226946   2.723   0.843   2.551
 8683SOL     OW26947   2.376   4.408   3.982
 8683SOL    HW126948   2.458   4.421   4.039
 8683SOL    HW226949   2.297   4.448   4.029
 8684SOL     OW26950   2.131   4.085   3.380
 8684SOL    HW126951   2.220   4.125   3.359
 8684SOL    HW226952   2.059   4.137   3.334
 8685SOL     OW26953   5.037   3.541   4.965
 8685SOL    HW126954   4.949   3.582   4.987
 8685SOL    HW226955   5.088   3.525   5.050
 8686SOL     OW26956   1.074   4.967   2.567
 8686SOL    HW126957   1.037   4.929   2.652
 8686SOL    HW226958   1.009   4.953   2.493
 8687SOL     OW26959   5.245   4.543   5.453
 8687SOL    HW126960   5.206   4.480   5.519
 8687SOL    HW226961   5.309   4.605   5.499
 8688SOL     OW26962   1.152   3.970   4.674
 8688SOL    HW126963   1.176   4.032   4.600
 8688SOL    HW226964   1.210   3.889   4.670
 8689SOL     OW26965   4.622   3.455   1.156
 8689SOL    HW126966   4.582   3.366   1.180
 8689SOL    HW226967   4.597   3.522   1.226
 8690SOL     OW26968   0.921   1.703   2.131
 8690SOL    HW126969   0.998   1.640   2.139
 8690SOL    HW226970   0.880   1.695   2.040
 8691SOL     OW26971   3.521   2.125   6.863
 8691SOL    HW126972   3.464   2.048   6.835
 8691SOL    HW226973   3.466   2.191   6.915
 8692SOL     OW26974   4.940   2.677   4.515
 8692SOL    HW126975   4.974   2.707   4.426
 8692SOL    HW226976   5.015   2.681   4.582
 8693SOL     OW26977   0.153   0.022   5.271
 8693SOL    HW126978   0.150   6.952   5.308
 8693SOL    HW226979   0.177   0.085   5.345
 8694SOL     OW26980   4.471   3.749   5.790
 8694SOL    HW126981   4.511   3.699   5.713
 8694SOL    HW226982   4.398   3.809   5.756
 8695SOL     OW26983   3.390   4.964   1.039
 8695SOL    HW126984   3.329   4.935   0.964
 8695SOL    HW226985   3.436   4.883   1.077
 8696SOL     OW26986   2.537   5.978   6.323
 8696SOL    HW126987   2.634   5.969   6.302
 8696SOL    HW226988   2.501   5.889   6.350
 8697SOL     OW26989   1.077   3.545   5.007
 8697SOL    HW126990   1.171   3.526   4.978
 8697SOL    HW226991   1.069   3.642   5.033
 8698SOL     OW26992   4.555   4.513   6.661
 8698SOL    HW126993   4.458   4.522   6.684
 8698SOL    HW226994   4.571   4.553   6.571
 8699SOL     OW26995   2.490   2.405   0.998
 8699SOL    HW126996   2.442   2.365   0.920
 8699SOL    HW226997   2.432   2.474   1.041
 8700SOL     OW26998   0.260   1.668   4.562
 8700SOL    HW126999   0.323   1.691   4.636
 8700SOL    HW227000   0.297   1.701   4.475
 8701SOL     OW27001   1.847   3.966   6.445
 8701SOL    HW127002   1.854   3.994   6.350
 8701SOL    HW227003   1.768   3.907   6.457
 8702SOL     OW27004   5.945   4.468   1.573
 8702SOL    HW127005   5.926   4.493   1.478
 8702SOL    HW227006   6.005   4.537   1.614
 8703SOL     OW27007   2.134   5.756   2.125
 8703SOL    HW127008   2.195   5.701   2.069
 8703SOL    HW227009   2.092   5.699   2.196
 8704SOL     OW27010   6.892   1.595   3.908
 8704SOL    HW127011   6.803   1.640   3.915
 8704SOL    HW227012   6.907   1.539   3.989
 8705SOL     OW27013   3.741   2.235   0.656
 8705SOL    HW127014   3.721   2.309   0.720
 8705SOL    HW227015   3.659   2.212   0.604
 8706SOL     OW27016   4.741   2.932   6.055
 8706SOL    HW127017   4.741   3.025   6.021
 8706SOL    HW227018   4.792   2.928   6.141
 8707SOL     OW27019   1.163   0.898   4.115
 8707SOL    HW127020   1.229   0.829   4.147
 8707SOL    HW227021   1.071   0.873   4.145
 8708SOL     OW27022   5.758   2.574   0.660
 8708SOL    HW127023   5.797   2.644   0.599
 8708SOL    HW227024   5.778   2.599   0.755
 8709SOL     OW27025   6.813   5.984   3.900
 8709SOL    HW127026   6.774   6.067   3.862
 8709SOL    HW227027   6.875   6.008   3.975
 8710SOL     OW27028   2.200   2.255   3.686
 8710SOL    HW127029   2.176   2.183   3.752
 8710SOL    HW227030   2.295   2.282   3.700
 8711SOL     OW27031   1.886   1.241   2.086
 8711SOL    HW127032   1.887   1.313   2.016
 8711SOL    HW227033   1.899   1.282   2.176
 8712SOL     OW27034   1.181   4.162   4.405
 8712SOL    HW127035   1.100   4.152   4.346
 8712SOL    HW227036   1.237   4.079   4.399
 8713SOL     OW27037   0.302   3.646   2.612
 8713SOL    HW127038   0.359   3.629   2.692
 8713SOL    HW227039   0.359   3.680   2.537
 8714SOL     OW27040   6.502   4.460   6.322
 8714SOL    HW127041   6.537   4.500   6.237
 8714SOL    HW227042   6.416   4.504   6.347
 8715SOL     OW27043   2.453   5.239   1.086
 8715SOL    HW127044   2.366   5.193   1.068
 8715SOL    HW227045   2.528   5.174   1.075
 8716SOL     OW27046   6.008   0.354   2.288
 8716SOL    HW127047   6.012   0.377   2.385
 8716SOL    HW227048   6.034   0.259   2.274
 8717SOL     OW27049   3.387   2.147   0.789
 8717SOL    HW127050   3.432   2.119   0.873
 8717SOL    HW227051   3.288   2.131   0.797
 8718SOL     OW27052   2.798   5.532   6.349
 8718SOL    HW127053   2.853   5.523   6.266
 8718SOL    HW227054   2.858   5.545   6.428
 8719SOL     OW27055   2.796   1.564   4.772
 8719SOL    HW127056   2.892   1.537   4.773
 8719SOL    HW227057   2.754   1.544   4.860
 8720SOL     OW27058   0.627   6.321   4.911
 8720SOL    HW127059   0.669   6.236   4.942
 8720SOL    HW227060   0.679   6.399   4.946
 8721SOL     OW27061   1.396   0.392   1.169
 8721SOL    HW127062   1.337   0.435   1.100
 8721SOL    HW227063   1.388   0.292   1.160
 8722SOL     OW27064   3.547   1.244   0.327
 8722SOL    HW127065   3.448   1.248   0.310
 8722SOL    HW227066   3.568   1.290   0.413
 8723SOL     OW27067   3.661   6.387   2.695
 8723SOL    HW127068   3.685   6.338   2.779
 8723SOL    HW227069   3.706   6.476   2.695
 8724SOL     OW27070   3.472   1.181   5.191
 8724SOL    HW127071   3.543   1.112   5.204
 8724SOL    HW227072   3.511   1.260   5.144
 8725SOL     OW27073   0.423   0.677   2.528
 8725SOL    HW127074   0.340   0.733   2.537
 8725SOL    HW227075   0.431   0.617   2.607
 8726SOL     OW27076   6.785   1.259   0.468
 8726SOL    HW127077   6.804   1.232   0.562
 8726SOL    HW227078   6.835   1.343   0.447
 8727SOL     OW27079   5.111   5.282   6.391
 8727SOL    HW127080   5.180   5.318   6.328
 8727SOL    HW227081   5.101   5.344   6.469
 8728SOL     OW27082   6.293   6.192   4.497
 8728SOL    HW127083   6.273   6.289   4.482
 8728SOL    HW227084   6.371   6.165   4.439
 8729SOL     OW27085   5.836   5.937   5.982
 8729SOL    HW127086   5.828   6.011   5.915
 8729SOL    HW227087   5.913   5.955   6.042
 8730SOL     OW27088   4.026   4.711   1.782
 8730SOL    HW127089   4.089   4.634   1.775
 8730SOL    HW227090   4.078   4.796   1.788
 8731SOL     OW27091   0.149   1.974   3.623
 8731SOL    HW127092   0.092   2.016   3.552
 8731SOL    HW227093   0.124   2.012   3.712
 8732SOL     OW27094   5.144   6.484   5.740
 8732SOL    HW127095   5.071   6.424   5.773
 8732SOL    HW227096   5.215   6.428   5.696
 8733SOL     OW27097   6.907   4.275   2.195
 8733SOL    HW127098   6.936   4.276   2.099
 8733SOL    HW227099   6.938   4.359   2.240
 8734SOL     OW27100   0.960   5.039   0.358
 8734SOL    HW127101   0.988   4.945   0.378
 8734SOL    HW227102   0.923   5.081   0.441
 8735SOL     OW27103   1.293   2.782   5.918
 8735SOL    HW127104   1.336   2.707   5.969
 8735SOL    HW227105   1.201   2.798   5.954
 8736SOL     OW27106   2.081   5.711   3.294
 8736SOL    HW127107   2.107   5.698   3.389
 8736SOL    HW227108   1.989   5.675   3.279
 8737SOL     OW27109   0.079   5.599   6.859
 8737SOL    HW127110   0.045   5.602   6.765
 8737SOL    HW227111   0.022   5.657   6.917
 8738SOL     OW27112   1.725   2.646   2.187
 8738SOL    HW127113   1.640   2.601   2.214
 8738SOL    HW227114   1.764   2.600   2.107
 8739SOL     OW27115   5.295   4.166   2.761
 8739SOL    HW127116   5.393   4.150   2.778
 8739SOL    HW227117   5.242   4.124   2.834
 8740SOL     OW27118   3.117   1.220   3.231
 8740SOL    HW127119   3.125   1.205   3.133
 8740SOL    HW227120   3.020   1.225   3.256
 8741SOL     OW27121   0.886   1.622   2.418
 8741SOL    HW127122   0.904   1.547   2.355
 8741SOL    HW227123   0.960   1.690   2.411
 8742SOL     OW27124   2.244   2.769   1.847
 8742SOL    HW127125   2.248   2.714   1.931
 8742SOL    HW227126   2.155   2.757   1.804
 8743SOL     OW27127   1.070   3.663   6.795
 8743SOL    HW127128   1.043   3.654   6.890
 8743SOL    HW227129   1.086   3.572   6.756
 8744SOL     OW27130   3.090   3.902   6.247
 8744SOL    HW127131   3.002   3.925   6.288
 8744SOL    HW227132   3.080   3.820   6.189
 8745SOL     OW27133   5.590   1.851   6.623
 8745SOL    HW127134   5.585   1.883   6.717
 8745SOL    HW227135   5.628   1.923   6.565
 8746SOL     OW27136   4.115   4.882   4.646
 8746SOL    HW127137   4.127   4.877   4.547
 8746SOL    HW227138   4.017   4.885   4.667
 8747SOL     OW27139   0.895   0.091   2.069
 8747SOL    HW127140   0.827   0.156   2.102
 8747SOL    HW227141   0.880   0.002   2.113
 8748SOL     OW27142   5.887   1.859   4.145
 8748SOL    HW127143   5.881   1.840   4.047
 8748SOL    HW227144   5.938   1.943   4.160
 8749SOL     OW27145   2.442   1.653   4.129
 8749SOL    HW127146   2.481   1.621   4.043
 8749SOL    HW227147   2.391   1.579   4.172
 8750SOL     OW27148   4.515   3.653   1.314
 8750SOL    HW127149   4.527   3.625   1.409
 8750SOL    HW227150   4.593   3.709   1.286
 8751SOL     OW27151   2.275   0.320   0.614
 8751SOL    HW127152   2.279   0.227   0.576
 8751SOL    HW227153   2.186   0.335   0.656
 8752SOL     OW27154   6.992   3.427   5.875
 8752SOL    HW127155   6.967   3.398   5.968
 8752SOL    HW227156   0.051   3.485   5.879
 8753SOL     OW27157   1.927   2.045   1.048
 8753SOL    HW127158   2.001   2.010   0.991
 8753SOL    HW227159   1.840   2.035   1.000
 8754SOL     OW27160   1.056   5.981   6.327
 8754SOL    HW127161   0.987   5.972   6.399
 8754SOL    HW227162   1.051   6.072   6.287
 8755SOL     OW27163   0.415   2.656   1.586
 8755SOL    HW127164   0.361   2.724   1.537
 8755SOL    HW227165   0.361   2.572   1.596
 8756SOL     OW27166   1.632   1.672   2.201
 8756SOL    HW127167   1.571   1.705   2.130
 8756SOL    HW227168   1.615   1.722   2.286
 8757SOL     OW27169   5.946   6.081   4.784
 8757SOL    HW127170   5.906   6.170   4.764
 8757SOL    HW227171   5.920   6.052   4.876
 8758SOL     OW27172   3.717   5.754   5.899
 8758SOL    HW127173   3.630   5.705   5.899
 8758SOL    HW227174   3.729   5.801   5.986
 8759SOL     OW27175   6.057   1.189   1.376
 8759SOL    HW127176   6.111   1.142   1.306
 8759SOL    HW227177   6.098   1.278   1.395
 8760SOL     OW27178   2.182   2.553   4.676
 8760SOL    HW127179   2.216   2.630   4.731
 8760SOL    HW227180   2.159   2.586   4.584
 8761SOL     OW27181   4.769   2.646   3.105
 8761SOL    HW127182   4.851   2.652   3.048
 8761SOL    HW227183   4.791   2.674   3.198
 8762SOL     OW27184   4.322   6.475   3.119
 8762SOL    HW127185   4.271   6.425   3.050
 8762SOL    HW227186   4.396   6.527   3.075
 8763SOL     OW27187   0.079   1.633   4.941
 8763SOL    HW127188   7.016   1.658   4.986
 8763SOL    HW227189   0.123   1.560   4.993
 8764SOL     OW27190   3.366   4.589   6.061
 8764SOL    HW127191   3.278   4.561   6.099
 8764SOL    HW227192   3.408   4.659   6.120
 8765SOL     OW27193   4.804   6.774   3.940
 8765SOL    HW127194   4.892   6.727   3.929
 8765SOL    HW227195   4.730   6.708   3.928
 8766SOL     OW27196   5.768   0.197   4.960
 8766SOL    HW127197   5.854   0.211   5.009
 8766SOL    HW227198   5.781   0.129   4.888
 8767SOL     OW27199   1.922   0.838   4.854
 8767SOL    HW127200   1.879   0.901   4.789
 8767SOL    HW227201   1.902   0.744   4.826
 8768SOL     OW27202   6.545   1.904   0.811
 8768SOL    HW127203   6.566   1.962   0.732
 8768SOL    HW227204   6.600   1.820   0.806
 8769SOL     OW27205   6.024   6.816   6.387
 8769SOL    HW127206   6.045   6.719   6.395
 8769SOL    HW227207   5.947   6.829   6.324
 8770SOL     OW27208   4.648   1.865   6.711
 8770SOL    HW127209   4.651   1.929   6.789
 8770SOL    HW227210   4.578   1.896   6.646
 8771SOL     OW27211   0.689   2.380   6.187
 8771SOL    HW127212   0.640   2.293   6.185
 8771SOL    HW227213   0.732   2.396   6.098
 8772SOL     OW27214   0.965   6.672   3.605
 8772SOL    HW127215   0.969   6.767   3.573
 8772SOL    HW227216   1.014   6.664   3.692
 8773SOL     OW27217   0.283   1.681   3.862
 8773SOL    HW127218   0.369   1.683   3.812
 8773SOL    HW227219   0.225   1.608   3.826
 8774SOL     OW27220   1.548   2.067   6.616
 8774SOL    HW127221   1.636   2.075   6.570
 8774SOL    HW227222   1.552   1.992   6.683
 8775SOL     OW27223   5.300   2.132   3.021
 8775SOL    HW127224   5.206   2.158   2.999
 8775SOL    HW227225   5.302   2.035   3.047
 8776SOL     OW27226   4.939   2.991   1.513
 8776SOL    HW127227   5.021   2.936   1.531
 8776SOL    HW227228   4.963   3.088   1.521
 8777SOL     OW27229   6.721   2.230   3.522
 8777SOL    HW127230   6.737   2.155   3.457
 8777SOL    HW227231   6.715   2.316   3.472
 8778SOL     OW27232   2.345   4.140   0.189
 8778SOL    HW127233   2.352   4.227   0.141
 8778SOL    HW227234   2.360   4.065   0.125
 8779SOL     OW27235   3.807   6.010   3.438
 8779SOL    HW127236   3.822   6.097   3.484
 8779SOL    HW227237   3.760   6.026   3.351
 8780SOL     OW27238   1.007   3.987   4.299
 8780SOL    HW127239   0.957   3.915   4.348
 8780SOL    HW227240   1.042   3.950   4.212
 8781SOL     OW27241   3.161   1.895   1.624
 8781SOL    HW127242   3.232   1.925   1.560
 8781SOL    HW227243   3.181   1.801   1.653
 8782SOL     OW27244   6.672   2.493   0.301
 8782SOL    HW127245   6.697   2.570   0.243
 8782SOL    HW227246   6.584   2.455   0.272
 8783SOL     OW27247   4.074   4.008   5.302
 8783SOL    HW127248   4.039   4.049   5.386
 8783SOL    HW227249   4.011   4.026   5.227
 8784SOL     OW27250   4.366   0.630   6.663
 8784SOL    HW127251   4.361   0.630   6.563
 8784SOL    HW227252   4.278   0.659   6.701
 8785SOL     OW27253   6.743   5.825   5.765
 8785SOL    HW127254   6.819   5.814   5.828
 8785SOL    HW227255   6.657   5.818   5.815
 8786SOL     OW27256   5.716   2.110   3.345
 8786SOL    HW127257   5.668   2.094   3.432
 8786SOL    HW227258   5.655   2.159   3.282
 8787SOL     OW27259   3.515   5.072   2.127
 8787SOL    HW127260   3.547   5.165   2.146
 8787SOL    HW227261   3.554   5.040   2.041
 8788SOL     OW27262   0.226   6.027   4.135
 8788SOL    HW127263   0.320   5.998   4.117
 8788SOL    HW227264   0.226   6.104   4.199
 8789SOL     OW27265   1.339   2.903   6.603
 8789SOL    HW127266   1.253   2.941   6.636
 8789SOL    HW227267   1.405   2.977   6.588
 8790SOL     OW27268   4.806   2.834   5.008
 8790SOL    HW127269   4.733   2.767   5.023
 8790SOL    HW227270   4.803   2.864   4.913
 8791SOL     OW27271   4.101   6.142   5.182
 8791SOL    HW127272   4.009   6.105   5.197
 8791SOL    HW227273   4.127   6.199   5.260
 8792SOL     OW27274   5.549   5.231   1.377
 8792SOL    HW127275   5.599   5.242   1.463
 8792SOL    HW227276   5.600   5.273   1.302
 8793SOL     OW27277   6.228   6.496   5.400
 8793SOL    HW127278   6.227   6.477   5.302
 8793SOL    HW227279   6.135   6.492   5.436
 8794SOL     OW27280   0.353   1.940   2.764
 8794SOL    HW127281   0.280   1.940   2.695
 8794SOL    HW227282   0.313   1.942   2.855
 8795SOL     OW27283   1.577   6.798   6.713
 8795SOL    HW127284   1.577   6.827   6.809
 8795SOL    HW227285   1.532   6.867   6.657
 8796SOL     OW27286   5.799   4.272   4.438
 8796SOL    HW127287   5.757   4.351   4.482
 8796SOL    HW227288   5.733   4.196   4.438
 8797SOL     OW27289   4.948   6.179   4.509
 8797SOL    HW127290   4.905   6.268   4.493
 8797SOL    HW227291   4.922   6.115   4.437
 8798SOL     OW27292   1.770   5.967   6.129
 8798SOL    HW127293   1.673   5.971   6.152
 8798SOL    HW227294   1.793   5.875   6.097
 8799SOL     OW27295   1.336   6.078   1.487
 8799SOL    HW127296   1.431   6.108   1.491
 8799SOL    HW227297   1.282   6.126   1.556
 8800SOL     OW27298   6.422   5.732   4.002
 8800SOL    HW127299   6.344   5.794   4.011
 8800SOL    HW227300   6.506   5.779   4.031
 8801SOL     OW27301   4.923   3.472   5.712
 8801SOL    HW127302   4.867   3.464   5.794
 8801SOL    HW227303   4.899   3.398   5.649
 8802SOL     OW27304   0.962   6.377   0.102
 8802SOL    HW127305   0.964   6.413   0.195
 8802SOL    HW227306   1.016   6.435   0.042
 8803SOL     OW27307   5.502   5.376   5.265
 8803SOL    HW127308   5.483   5.375   5.363
 8803SOL    HW227309   5.571   5.307   5.244
 8804SOL     OW27310   1.769   6.593   2.000
 8804SOL    HW127311   1.684   6.588   1.948
 8804SOL    HW227312   1.815   6.504   1.997
 8805SOL     OW27313   5.135   4.705   2.457
 8805SOL    HW127314   5.142   4.704   2.557
 8805SOL    HW227315   5.060   4.766   2.430
 8806SOL     OW27316   1.162   0.867   2.345
 8806SOL    HW127317   1.184   0.772   2.364
 8806SOL    HW227318   1.241   0.925   2.365
 8807SOL     OW27319   5.831   2.315   1.427
 8807SOL    HW127320   5.825   2.218   1.448
 8807SOL    HW227321   5.872   2.328   1.337
 8808SOL     OW27322   1.597   1.754   0.081
 8808SOL    HW127323   1.601   1.665   0.127
 8808SOL    HW227324   1.531   1.813   0.129
 8809SOL     OW27325   1.057   3.535   3.223
 8809SOL    HW127326   1.144   3.554   3.178
 8809SOL    HW227327   0.992   3.498   3.157
 8810SOL     OW27328   6.876   2.519   4.578
 8810SOL    HW127329   6.931   2.597   4.549
 8810SOL    HW227330   6.905   2.437   4.529
 8811SOL     OW27331   4.290   4.911   1.999
 8811SOL    HW127332   4.212   4.925   2.060
 8811SOL    HW227333   4.374   4.906   2.052
 8812SOL     OW27334   5.807   0.881   0.287
 8812SOL    HW127335   5.715   0.881   0.246
 8812SOL    HW227336   5.807   0.821   0.367
 8813SOL     OW27337   1.607   3.248   2.019
 8813SOL    HW127338   1.525   3.242   2.076
 8813SOL    HW227339   1.597   3.325   1.956
 8814SOL     OW27340   5.543   7.000   4.953
 8814SOL    HW127341   5.461   0.015   4.996
 8814SOL    HW227342   5.618   0.042   4.961
 8815SOL     OW27343   4.981   1.035   1.189
 8815SOL    HW127344   4.910   0.966   1.202
 8815SOL    HW227345   5.012   1.035   1.094
 8816SOL     OW27346   0.001   0.393   3.694
 8816SOL    HW127347   6.982   0.341   3.619
 8816SOL    HW227348   0.085   0.436   3.661
 8817SOL     OW27349   1.323   2.849   3.209
 8817SOL    HW127350   1.366   2.881   3.294
 8817SOL    HW227351   1.224   2.861   3.215
 8818SOL     OW27352   1.102   6.249   6.274
 8818SOL    HW127353   1.056   6.299   6.347
 8818SOL    HW227354   1.064   6.276   6.186
 8819SOL     OW27355   4.910   5.912   6.120
 8819SOL    HW127356   4.812   5.895   6.138
 8819SOL    HW227357   4.957   5.824   6.109
 8820SOL     OW27358   3.785   6.901   5.875
 8820SOL    HW127359   3.829   6.973   5.821
 8820SOL    HW227360   3.808   6.812   5.837
 8821SOL     OW27361   0.720   5.082   5.761
 8821SOL    HW127362   0.707   5.113   5.667
 8821SOL    HW227363   0.792   5.012   5.763
 8822SOL     OW27364   6.207   0.259   4.697
 8822SOL    HW127365   6.147   0.182   4.717
 8822SOL    HW227366   6.212   0.272   4.598
 8823SOL     OW27367   4.400   2.104   2.955
 8823SOL    HW127368   4.343   2.139   3.030
 8823SOL    HW227369   4.383   2.158   2.873
 8824SOL     OW27370   1.701   0.538   4.115
 8824SOL    HW127371   1.756   0.616   4.143
 8824SOL    HW227372   1.633   0.567   4.048
 8825SOL     OW27373   0.523   7.002   0.367
 8825SOL    HW127374   0.590   6.943   0.412
 8825SOL    HW227375   0.461   0.017   0.436
 8826SOL     OW27376   0.513   4.054   6.978
 8826SOL    HW127377   0.536   4.025   6.885
 8826SOL    HW227378   0.597   4.077   0.004
 8827SOL     OW27379   4.796   6.458   3.729
 8827SOL    HW127380   4.880   6.418   3.693
 8827SOL    HW227381   4.751   6.512   3.658
 8828SOL     OW27382   5.246   2.505   5.528
 8828SOL    HW127383   5.230   2.432   5.595
 8828SOL    HW227384   5.186   2.582   5.548
 8829SOL     OW27385   6.631   0.841   2.839
 8829SOL    HW127386   6.536   0.835   2.809
 8829SOL    HW227387   6.643   0.922   2.897
 8830SOL     OW27388   3.522   0.562   3.198
 8830SOL    HW127389   3.580   0.619   3.257
 8830SOL    HW227390   3.438   0.539   3.246
 8831SOL     OW27391   0.235   2.969   2.468
 8831SOL    HW127392   0.194   3.058   2.488
 8831SOL    HW227393   0.260   2.925   2.554
 8832SOL     OW27394   5.751   0.578   5.524
 8832SOL    HW127395   5.781   0.519   5.599
 8832SOL    HW227396   5.748   0.673   5.555
 8833SOL     OW27397   4.725   2.718   1.132
 8833SOL    HW127398   4.688   2.706   1.040
 8833SOL    HW227399   4.725   2.815   1.156
 8834SOL     OW27400   5.486   4.818   6.378
 8834SOL    HW127401   5.513   4.739   6.323
 8834SOL    HW227402   5.391   4.842   6.358
 8835SOL     OW27403   6.337   1.329   5.216
 8835SOL    HW127404   6.369   1.406   5.160
 8835SOL    HW227405   6.237   1.329   5.218
 8836SOL     OW27406   4.194   1.266   0.814
 8836SOL    HW127407   4.098   1.247   0.834
 8836SOL    HW227408   4.234   1.190   0.763
 8837SOL     OW27409   4.457   5.743   0.362
 8837SOL    HW127410   4.414   5.737   0.452
 8837SOL    HW227411   4.438   5.660   0.310
 8838SOL     OW27412   2.157   3.366   2.915
 8838SOL    HW127413   2.166   3.463   2.936
 8838SOL    HW227414   2.202   3.345   2.829
 8839SOL     OW27415   4.557   4.949   1.279
 8839SOL    HW127416   4.536   4.946   1.181
 8839SOL    HW227417   4.531   5.038   1.316
 8840SOL     OW27418   0.006   0.759   1.500
 8840SOL    HW127419   0.050   0.844   1.531
 8840SOL    HW227420   6.938   0.781   1.464
 8841SOL     OW27421   3.408   1.109   0.888
 8841SOL    HW127422   3.314   1.092   0.859
 8841SOL    HW227423   3.440   1.196   0.850
 8842SOL     OW27424   3.414   3.250   3.991
 8842SOL    HW127425   3.411   3.157   3.954
 8842SOL    HW227426   3.490   3.258   4.055
 8843SOL     OW27427   2.391   5.690   5.295
 8843SOL    HW127428   2.315   5.641   5.252
 8843SOL    HW227429   2.357   5.742   5.373
 8844SOL     OW27430   3.337   2.653   5.732
 8844SOL    HW127431   3.378   2.693   5.813
 8844SOL    HW227432   3.328   2.723   5.661
 8845SOL     OW27433   0.938   3.551   1.919
 8845SOL    HW127434   0.847   3.553   1.961
 8845SOL    HW227435   1.000   3.496   1.975
 8846SOL     OW27436   5.540   5.281   4.486
 8846SOL    HW127437   5.630   5.240   4.479
 8846SOL    HW227438   5.494   5.278   4.397
 8847SOL     OW27439   0.801   1.927   3.699
 8847SOL    HW127440   0.776   1.830   3.701
 8847SOL    HW227441   0.867   1.945   3.773
 8848SOL     OW27442   6.654   2.275   0.498
 8848SOL    HW127443   6.634   2.336   0.422
 8848SOL    HW227444   6.750   2.284   0.525
 8849SOL     OW27445   3.403   5.485   4.651
 8849SOL    HW127446   3.451   5.409   4.606
 8849SOL    HW227447   3.362   5.453   4.737
 8850SOL     OW27448   2.880   2.186   0.922
 8850SOL    HW127449   2.871   2.262   0.987
 8850SOL    HW227450   2.941   2.117   0.960
 8851SOL     OW27451   0.174   5.357   2.695
 8851SOL    HW127452   0.075   5.372   2.703
 8851SOL    HW227453   0.212   5.419   2.626
 8852SOL     OW27454   4.981   3.523   4.559
 8852SOL    HW127455   5.061   3.507   4.616
 8852SOL    HW227456   5.000   3.493   4.465
 8853SOL     OW27457   4.602   1.973   5.659
 8853SOL    HW127458   4.561   2.039   5.722
 8853SOL    HW227459   4.615   2.017   5.570
 8854SOL     OW27460   2.473   0.917   5.825
 8854SOL    HW127461   2.573   0.911   5.825
 8854SOL    HW227462   2.435   0.837   5.871
 8855SOL     OW27463   6.045   5.296   6.050
 8855SOL    HW127464   6.019   5.253   5.963
 8855SOL    HW227465   6.049   5.226   6.121
 8856SOL     OW27466   5.873   1.169   5.584
 8856SOL    HW127467   5.909   1.178   5.491
 8856SOL    HW227468   5.920   1.233   5.645
 8857SOL     OW27469   1.748   3.284   4.671
 8857SOL    HW127470   1.710   3.279   4.579
 8857SOL    HW227471   1.837   3.329   4.669
 8858SOL     OW27472   0.193   3.625   5.394
 8858SOL    HW127473   0.209   3.634   5.296
 8858SOL    HW227474   0.268   3.669   5.444
 8859SOL     OW27475   2.995   6.329   5.214
 8859SOL    HW127476   2.948   6.313   5.301
 8859SOL    HW227477   3.072   6.266   5.205
 8860SOL     OW27478   1.792   1.808   0.844
 8860SOL    HW127479   1.756   1.901   0.855
 8860SOL    HW227480   1.887   1.806   0.874
 8861SOL     OW27481   2.495   2.701   1.203
 8861SOL    HW127482   2.553   2.685   1.123
 8861SOL    HW227483   2.399   2.701   1.175
 8862SOL     OW27484   6.616   2.302   4.743
 8862SOL    HW127485   6.521   2.274   4.750
 8862SOL    HW227486   6.627   2.394   4.781
 8863SOL     OW27487   1.464   5.870   5.320
 8863SOL    HW127488   1.547   5.815   5.312
 8863SOL    HW227489   1.388   5.812   5.348
 8864SOL     OW27490   1.651   3.938   5.733
 8864SOL    HW127491   1.655   3.935   5.833
 8864SOL    HW227492   1.652   3.845   5.696
 8865SOL     OW27493   3.130   2.214   5.970
 8865SOL    HW127494   3.035   2.228   5.941
 8865SOL    HW227495   3.158   2.291   6.027
 8866SOL     OW27496   5.030   6.769   5.216
 8866SOL    HW127497   5.058   6.673   5.225
 8866SOL    HW227498   4.943   6.773   5.168
 8867SOL     OW27499   6.507   0.889   4.237
 8867SOL    HW127500   6.522   0.905   4.335
 8867SOL    HW227501   6.570   0.818   4.205
 8868SOL     OW27502   4.950   3.680   0.630
 8868SOL    HW127503   4.993   3.752   0.685
 8868SOL    HW227504   4.894   3.722   0.559
 8869SOL     OW27505   3.018   2.142   3.058
 8869SOL    HW127506   2.968   2.056   3.064
 8869SOL    HW227507   2.993   2.201   3.135
 8870SOL     OW27508   4.582   1.043   2.272
 8870SOL    HW127509   4.533   1.129   2.290
 8870SOL    HW227510   4.543   0.999   2.192
 8871SOL     OW27511   1.686   2.380   3.853
 8871SOL    HW127512   1.669   2.405   3.757
 8871SOL    HW227513   1.780   2.403   3.877
 8872SOL     OW27514   1.179   2.305   2.078
 8872SOL    HW127515   1.267   2.352   2.068
 8872SOL    HW227516   1.165   2.244   1.999
 8873SOL     OW27517   0.066   6.093   4.759
 8873SOL    HW127518   0.055   6.157   4.835
 8873SOL    HW227519   0.112   6.011   4.792
 8874SOL     OW27520   0.692   1.582   6.122
 8874SOL    HW127521   0.726   1.667   6.163
 8874SOL    HW227522   0.767   1.516   6.116
 8875SOL     OW27523   1.196   1.418   4.538
 8875SOL    HW127524   1.202   1.382   4.631
 8875SOL    HW227525   1.262   1.372   4.480
 8876SOL     OW27526   3.164   1.022   4.552
 8876SOL    HW127527   3.095   1.009   4.480
 8876SOL    HW227528   3.233   0.950   4.544
 8877SOL     OW27529   2.912   6.705   4.524
 8877SOL    HW127530   2.945   6.643   4.595
 8877SOL    HW227531   2.906   6.656   4.437
 8878SOL     OW27532   5.878   4.860   5.212
 8878SOL    HW127533   5.842   4.827   5.299
 8878SOL    HW227534   5.978   4.853   5.212
 8879SOL     OW27535   4.547   5.482   4.303
 8879SOL    HW127536   4.548   5.485   4.203
 8879SOL    HW227537   4.454   5.463   4.335
 8880SOL     OW27538   0.354   6.491   4.976
 8880SOL    HW127539   0.354   6.391   4.976
 8880SOL    HW227540   0.402   6.523   4.894
 8881SOL     OW27541   6.547   1.659   1.600
 8881SOL    HW127542   6.599   1.628   1.520
 8881SOL    HW227543   6.500   1.582   1.642
 8882SOL     OW27544   5.202   2.601   0.617
 8882SOL    HW127545   5.183   2.550   0.701
 8882SOL    HW227546   5.288   2.570   0.578
 8883SOL     OW27547   6.423   1.402   5.479
 8883SOL    HW127548   6.389   1.394   5.386
 8883SOL    HW227549   6.465   1.492   5.492
 8884SOL     OW27550   6.846   1.288   6.130
 8884SOL    HW127551   6.929   1.342   6.119
 8884SOL    HW227552   6.776   1.343   6.175
 8885SOL     OW27553   5.613   3.642   1.807
 8885SOL    HW127554   5.593   3.564   1.747
 8885SOL    HW227555   5.594   3.727   1.759
 8886SOL     OW27556   3.073   5.214   6.056
 8886SOL    HW127557   3.160   5.183   6.017
 8886SOL    HW227558   3.004   5.214   5.984
 8887SOL     OW27559   1.846   1.011   0.927
 8887SOL    HW127560   1.824   0.994   0.831
 8887SOL    HW227561   1.893   0.932   0.965
 8888SOL     OW27562   2.862   2.311   2.871
 8888SOL    HW127563   2.897   2.307   2.777
 8888SOL    HW227564   2.932   2.276   2.934
 8889SOL     OW27565   3.529   0.436   5.018
 8889SOL    HW127566   3.560   0.379   4.943
 8889SOL    HW227567   3.537   0.533   4.992
 8890SOL     OW27568   0.785   3.700   3.533
 8890SOL    HW127569   0.783   3.602   3.553
 8890SOL    HW227570   0.856   3.719   3.466
 8891SOL     OW27571   3.047   1.919   6.164
 8891SOL    HW127572   3.099   1.912   6.249
 8891SOL    HW227573   3.108   1.950   6.091
 8892SOL     OW27574   1.492   6.511   2.735
 8892SOL    HW127575   1.532   6.572   2.665
 8892SOL    HW227576   1.408   6.552   2.770
 8893SOL     OW27577   0.237   1.030   0.201
 8893SOL    HW127578   0.209   1.120   0.168
 8893SOL    HW227579   0.178   0.960   0.160
 8894SOL     OW27580   4.531   2.539   6.162
 8894SOL    HW127581   4.466   2.492   6.101
 8894SOL    HW227582   4.602   2.583   6.107
 8895SOL     OW27583   2.124   1.271   2.739
 8895SOL    HW127584   2.195   1.226   2.685
 8895SOL    HW227585   2.146   1.368   2.749
 8896SOL     OW27586   2.109   4.111   5.155
 8896SOL    HW127587   2.130   4.209   5.156
 8896SOL    HW227588   2.189   4.060   5.125
 8897SOL     OW27589   1.212   2.420   1.210
 8897SOL    HW127590   1.269   2.340   1.189
 8897SOL    HW227591   1.267   2.488   1.259
 8898SOL     OW27592   0.069   3.254   5.018
 8898SOL    HW127593   0.136   3.276   4.948
 8898SOL    HW227594   0.101   3.176   5.072
 8899SOL     OW27595   3.061   5.146   1.720
 8899SOL    HW127596   2.977   5.199   1.729
 8899SOL    HW227597   3.042   5.061   1.670
 8900SOL     OW27598   6.717   1.785   3.535
 8900SOL    HW127599   6.685   1.695   3.508
 8900SOL    HW227600   6.804   1.777   3.584
 8901SOL     OW27601   1.831   6.948   1.525
 8901SOL    HW127602   1.771   6.918   1.451
 8901SOL    HW227603   1.927   6.939   1.495
 8902SOL     OW27604   3.301   6.378   5.894
 8902SOL    HW127605   3.210   6.400   5.928
 8902SOL    HW227606   3.362   6.455   5.911
 8903SOL     OW27607   0.269   0.139   2.490
 8903SOL    HW127608   0.296   0.146   2.586
 8903SOL    HW227609   0.320   0.065   2.447
 8904SOL     OW27610   1.553   4.922   3.237
 8904SOL    HW127611   1.475   4.948   3.294
 8904SOL    HW227612   1.633   4.906   3.295
 8905SOL     OW27613   2.197   4.123   4.890
 8905SOL    HW127614   2.253   4.044   4.914
 8905SOL    HW227615   2.100   4.102   4.906
 8906SOL     OW27616   1.816   5.456   4.204
 8906SOL    HW127617   1.864   5.392   4.144
 8906SOL    HW227618   1.720   5.427   4.213
 8907SOL     OW27619   3.882   2.788   6.865
 8907SOL    HW127620   3.879   2.830   6.955
 8907SOL    HW227621   3.894   2.858   6.795
 8908SOL     OW27622   1.150   2.283   2.797
 8908SOL    HW127623   1.196   2.370   2.776
 8908SOL    HW227624   1.059   2.283   2.756
 8909SOL     OW27625   3.492   0.089   5.881
 8909SOL    HW127626   3.415   0.039   5.843
 8909SOL    HW227627   3.553   0.026   5.929
 8910SOL     OW27628   4.067   3.353   0.288
 8910SOL    HW127629   4.125   3.385   0.363
 8910SOL    HW227630   4.076   3.254   0.279
 8911SOL     OW27631   4.619   2.121   4.046
 8911SOL    HW127632   4.673   2.041   4.023
 8911SOL    HW227633   4.623   2.138   4.144
 8912SOL     OW27634   5.161   1.739   6.524
 8912SOL    HW127635   5.248   1.742   6.474
 8912SOL    HW227636   5.178   1.760   6.621
 8913SOL     OW27637   4.160   4.242   1.343
 8913SOL    HW127638   4.255   4.221   1.320
 8913SOL    HW227639   4.156   4.330   1.391
 8914SOL     OW27640   5.127   1.862   3.375
 8914SOL    HW127641   5.105   1.937   3.437
 8914SOL    HW227642   5.085   1.778   3.408
 8915SOL     OW27643   1.021   5.776   2.268
 8915SOL    HW127644   1.088   5.703   2.268
 8915SOL    HW227645   0.929   5.737   2.267
 8916SOL     OW27646   5.864   3.027   2.477
 8916SOL    HW127647   5.873   3.038   2.378
 8916SOL    HW227648   5.857   2.930   2.499
 8917SOL     OW27649   5.547   4.878   5.170
 8917SOL    HW127650   5.471   4.842   5.225
 8917SOL    HW227651   5.568   4.971   5.200
 8918SOL     OW27652   5.045   3.958   6.143
 8918SOL    HW127653   5.023   4.023   6.215
 8918SOL    HW227654   5.130   3.984   6.098
 8919SOL     OW27655   2.358   3.289   1.553
 8919SOL    HW127656   2.313   3.202   1.534
 8919SOL    HW227657   2.437   3.275   1.612
 8920SOL     OW27658   6.764   5.778   5.441
 8920SOL    HW127659   6.777   5.875   5.463
 8920SOL    HW227660   6.831   5.723   5.491
 8921SOL     OW27661   1.548   5.567   3.884
 8921SOL    HW127662   1.578   5.493   3.825
 8921SOL    HW227663   1.468   5.538   3.936
 8922SOL     OW27664   6.173   3.836   6.248
 8922SOL    HW127665   6.237   3.801   6.316
 8922SOL    HW227666   6.146   3.762   6.186
 8923SOL     OW27667   2.224   4.093   4.179
 8923SOL    HW127668   2.206   4.106   4.276
 8923SOL    HW227669   2.219   4.181   4.132
 8924SOL     OW27670   2.738   5.889   5.280
 8924SOL    HW127671   2.685   5.906   5.197
 8924SOL    HW227672   2.718   5.797   5.314
 8925SOL     OW27673   4.403   5.691   1.287
 8925SOL    HW127674   4.309   5.725   1.289
 8925SOL    HW227675   4.466   5.766   1.266
 8926SOL     OW27676   5.708   0.460   6.516
 8926SOL    HW127677   5.623   0.477   6.467
 8926SOL    HW227678   5.761   0.545   6.520
 8927SOL     OW27679   2.265   1.788   4.571
 8927SOL    HW127680   2.296   1.780   4.477
 8927SOL    HW227681   2.169   1.816   4.573
 8928SOL     OW27682   0.629   6.992   4.601
 8928SOL    HW127683   0.542   0.013   4.623
 8928SOL    HW227684   0.621   6.893   4.613
 8929SOL     OW27685   5.108   4.154   3.469
 8929SOL    HW127686   5.054   4.127   3.548
 8929SOL    HW227687   5.204   4.165   3.496
 8930SOL     OW27688   0.956   5.437   5.308
 8930SOL    HW127689   0.973   5.484   5.394
 8930SOL    HW227690   0.861   5.406   5.305
 8931SOL     OW27691   4.982   1.158   1.656
 8931SOL    HW127692   4.986   1.236   1.592
 8931SOL    HW227693   5.063   1.159   1.714
 8932SOL     OW27694   5.567   0.842   0.137
 8932SOL    HW127695   5.546   0.893   0.054
 8932SOL    HW227696   5.573   0.745   0.116
 8933SOL     OW27697   1.442   0.467   5.387
 8933SOL    HW127698   1.429   0.373   5.418
 8933SOL    HW227699   1.362   0.522   5.413
 8934SOL     OW27700   4.446   6.715   4.210
 8934SOL    HW127701   4.508   6.652   4.256
 8934SOL    HW227702   4.459   6.709   4.111
 8935SOL     OW27703   5.859   1.584   2.549
 8935SOL    HW127704   5.881   1.589   2.452
 8935SOL    HW227705   5.872   1.674   2.591
 8936SOL     OW27706   1.773   3.870   2.367
 8936SOL    HW127707   1.694   3.844   2.423
 8936SOL    HW227708   1.845   3.801   2.377
 8937SOL     OW27709   4.335   0.339   4.979
 8937SOL    HW127710   4.335   0.239   4.966
 8937SOL    HW227711   4.305   0.360   5.071
 8938SOL     OW27712   5.836   6.577   1.537
 8938SOL    HW127713   5.899   6.548   1.465
 8938SOL    HW227714   5.868   6.540   1.625
 8939SOL     OW27715   0.586   2.931   4.372
 8939SOL    HW127716   0.530   2.992   4.428
 8939SOL    HW227717   0.638   2.984   4.306
 8940SOL     OW27718   6.642   3.251   2.349
 8940SOL    HW127719   6.677   3.245   2.256
 8940SOL    HW227720   6.677   3.175   2.404
 8941SOL     OW27721   6.068   2.106   3.003
 8941SOL    HW127722   6.046   2.060   2.917
 8941SOL    HW227723   6.017   2.063   3.078
 8942SOL     OW27724   4.958   4.460   3.610
 8942SOL    HW127725   4.988   4.471   3.705
 8942SOL    HW227726   4.949   4.549   3.566
 8943SOL     OW27727   4.745   3.302   0.369
 8943SOL    HW127728   4.794   3.366   0.428
 8943SOL    HW227729   4.792   3.213   0.371
 8944SOL     OW27730   4.261   5.950   5.364
 8944SOL    HW127731   4.332   6.014   5.395
 8944SOL    HW227732   4.254   5.954   5.264
 8945SOL     OW27733   6.498   4.782   1.988
 8945SOL    HW127734   6.483   4.711   2.056
 8945SOL    HW227735   6.582   4.763   1.937
 8946SOL     OW27736   3.772   1.342   5.192
 8946SOL    HW127737   3.706   1.412   5.165
 8946SOL    HW227738   3.811   1.300   5.110
 8947SOL     OW27739   1.790   4.594   1.005
 8947SOL    HW127740   1.805   4.617   0.909
 8947SOL    HW227741   1.691   4.586   1.022
 8948SOL     OW27742   5.716   0.369   2.862
 8948SOL    HW127743   5.691   0.451   2.914
 8948SOL    HW227744   5.739   0.295   2.925
 8949SOL     OW27745   3.511   6.528   1.057
 8949SOL    HW127746   3.528   6.626   1.063
 8949SOL    HW227747   3.417   6.513   1.026
 8950SOL     OW27748   3.206   3.613   2.867
 8950SOL    HW127749   3.255   3.570   2.944
 8950SOL    HW227750   3.204   3.549   2.790
 8951SOL     OW27751   0.584   0.463   3.831
 8951SOL    HW127752   0.524   0.507   3.898
 8951SOL    HW227753   0.661   0.421   3.878
 8952SOL     OW27754   1.283   4.092   4.917
 8952SOL    HW127755   1.354   4.022   4.918
 8952SOL    HW227756   1.224   4.079   4.838
 8953SOL     OW27757   0.445   5.280   1.498
 8953SOL    HW127758   0.531   5.331   1.504
 8953SOL    HW227759   0.461   5.191   1.456
 8954SOL     OW27760   2.189   3.807   5.664
 8954SOL    HW127761   2.275   3.856   5.651
 8954SOL    HW227762   2.203   3.732   5.729
 8955SOL     OW27763   6.295   3.110   5.675
 8955SOL    HW127764   6.212   3.164   5.692
 8955SOL    HW227765   6.272   3.013   5.672
 8956SOL     OW27766   0.603   6.205   0.782
 8956SOL    HW127767   0.687   6.231   0.829
 8956SOL    HW227768   0.573   6.280   0.723
 8957SOL     OW27769   1.581   6.807   2.841
 8957SOL    HW127770   1.552   6.814   2.936
 8957SOL    HW227771   1.677   6.833   2.833
 8958SOL     OW27772   6.870   3.778   4.469
 8958SOL    HW127773   6.914   3.693   4.498
 8958SOL    HW227774   6.923   3.821   4.396
 8959SOL     OW27775   5.281   1.983   4.154
 8959SOL    HW127776   5.239   1.984   4.063
 8959SOL    HW227777   5.223   2.033   4.218
 8960SOL     OW27778   5.235   4.753   2.718
 8960SOL    HW127779   5.186   4.791   2.797
 8960SOL    HW227780   5.305   4.818   2.689
 8961SOL     OW27781   2.626   1.356   4.931
 8961SOL    HW127782   2.687   1.281   4.956
 8961SOL    HW227783   2.565   1.375   5.008
 8962SOL     OW27784   6.912   5.864   2.290
 8962SOL    HW127785   7.009   5.889   2.292
 8962SOL    HW227786   6.866   5.902   2.369
 8963SOL     OW27787   2.379   6.217   6.048
 8963SOL    HW127788   2.430   6.133   6.032
 8963SOL    HW227789   2.375   6.236   6.146
 8964SOL     OW27790   1.696   2.669   3.260
 8964SOL    HW127791   1.743   2.588   3.224
 8964SOL    HW227792   1.762   2.727   3.308
 8965SOL     OW27793   3.676   6.152   0.609
 8965SOL    HW127794   3.746   6.112   0.549
 8965SOL    HW227795   3.702   6.245   0.633
 8966SOL     OW27796   5.260   6.957   5.649
 8966SOL    HW127797   5.265   6.959   5.549
 8966SOL    HW227798   5.264   6.862   5.681
 8967SOL     OW27799   3.330   0.195   3.066
 8967SOL    HW127800   3.295   0.142   2.988
 8967SOL    HW227801   3.258   0.256   3.100
 8968SOL     OW27802   3.511   4.974   2.373
 8968SOL    HW127803   3.529   5.026   2.289
 8968SOL    HW227804   3.434   4.912   2.357
 8969SOL     OW27805   6.785   1.100   2.990
 8969SOL    HW127806   6.851   1.026   2.977
 8969SOL    HW227807   6.800   1.143   3.079
 8970SOL     OW27808   2.375   1.180   3.349
 8970SOL    HW127809   2.433   1.113   3.303
 8970SOL    HW227810   2.279   1.161   3.328
 8971SOL     OW27811   3.362   4.202   1.357
 8971SOL    HW127812   3.265   4.178   1.346
 8971SOL    HW227813   3.372   4.259   1.439
 8972SOL     OW27814   5.527   4.031   6.627
 8972SOL    HW127815   5.556   4.107   6.569
 8972SOL    HW227816   5.502   3.953   6.568
 8973SOL     OW27817   2.444   1.622   3.602
 8973SOL    HW127818   2.508   1.640   3.677
 8973SOL    HW227819   2.425   1.523   3.597
 8974SOL     OW27820   2.015   4.208   4.624
 8974SOL    HW127821   1.944   4.149   4.661
 8974SOL    HW227822   2.084   4.226   4.694
 8975SOL     OW27823   0.271   3.281   6.330
 8975SOL    HW127824   0.268   3.372   6.372
 8975SOL    HW227825   0.222   3.216   6.388
 8976SOL     OW27826   6.093   0.530   1.622
 8976SOL    HW127827   6.102   0.518   1.721
 8976SOL    HW227828   6.111   0.625   1.598
 8977SOL     OW27829   6.783   4.649   6.432
 8977SOL    HW127830   6.727   4.712   6.379
 8977SOL    HW227831   6.809   4.571   6.375
 8978SOL     OW27832   6.398   5.824   5.629
 8978SOL    HW127833   6.418   5.761   5.554
 8978SOL    HW227834   6.411   5.777   5.716
 8979SOL     OW27835   2.044   5.130   3.675
 8979SOL    HW127836   2.131   5.112   3.720
 8979SOL    HW227837   1.988   5.190   3.732
 8980SOL     OW27838   4.049   1.014   0.474
 8980SOL    HW127839   4.023   1.099   0.430
 8980SOL    HW227840   3.989   0.940   0.443
 8981SOL     OW27841   3.687   2.178   0.148
 8981SOL    HW127842   3.728   2.241   0.213
 8981SOL    HW227843   3.612   2.223   0.100
 8982SOL     OW27844   6.950   1.595   1.887
 8982SOL    HW127845   7.021   1.559   1.827
 8982SOL    HW227846   6.979   1.587   1.983
 8983SOL     OW27847   1.491   6.919   2.579
 8983SOL    HW127848   1.543   6.930   2.664
 8983SOL    HW227849   1.523   6.986   2.512
 8984SOL     OW27850   6.389   1.862   4.582
 8984SOL    HW127851   6.338   1.833   4.501
 8984SOL    HW227852   6.484   1.879   4.556
 8985SOL     OW27853   4.540   0.770   2.364
 8985SOL    HW127854   4.467   0.752   2.297
 8985SOL    HW227855   4.583   0.858   2.343
 8986SOL     OW27856   6.743   5.917   0.279
 8986SOL    HW127857   6.781   5.977   0.350
 8986SOL    HW227858   6.744   5.965   0.191
 8987SOL     OW27859   2.474   6.492   2.261
 8987SOL    HW127860   2.456   6.439   2.178
 8987SOL    HW227861   2.401   6.475   2.327
 8988SOL     OW27862   2.411   0.236   1.535
 8988SOL    HW127863   2.491   0.293   1.552
 8988SOL    HW227864   2.360   0.271   1.457
 8989SOL     OW27865   6.013   1.116   2.319
 8989SOL    HW127866   6.066   1.080   2.242
 8989SOL    HW227867   5.958   1.043   2.359
 8990SOL     OW27868   3.718   0.915   3.058
 8990SOL    HW127869   3.643   0.910   2.992
 8990SOL    HW227870   3.798   0.868   3.020
 8991SOL     OW27871   1.152   2.170   0.847
 8991SOL    HW127872   1.232   2.174   0.786
 8991SOL    HW227873   1.171   2.107   0.922
 8992SOL     OW27874   6.877   4.792   6.038
 8992SOL    HW127875   6.895   4.756   6.130
 8992SOL    HW227876   6.846   4.719   5.979
 8993SOL     OW27877   5.211   3.868   3.680
 8993SOL    HW127878   5.162   3.913   3.755
 8993SOL    HW227879   5.296   3.828   3.716
 8994SOL     OW27880   0.972   6.385   2.466
 8994SOL    HW127881   0.961   6.289   2.488
 8994SOL    HW227882   0.990   6.437   2.550
 8995SOL     OW27883   2.124   3.720   3.759
 8995SOL    HW127884   2.212   3.711   3.807
 8995SOL    HW227885   2.112   3.814   3.729
 8996SOL     OW27886   2.256   3.752   0.870
 8996SOL    HW127887   2.177   3.694   0.887
 8996SOL    HW227888   2.288   3.738   0.776
 8997SOL     OW27889   4.664   1.250   4.934
 8997SOL    HW127890   4.667   1.308   4.853
 8997SOL    HW227891   4.625   1.161   4.910
 8998SOL     OW27892   0.996   1.785   6.311
 8998SOL    HW127893   1.053   1.816   6.387
 8998SOL    HW227894   1.051   1.783   6.227
 8999SOL     OW27895   5.300   2.725   5.270
 8999SOL    HW127896   5.227   2.793   5.276
 8999SOL    HW227897   5.261   2.634   5.279
 9000SOL     OW27898   3.748   4.712   1.169
 9000SOL    HW127899   3.788   4.721   1.261
 9000SOL    HW227900   3.814   4.669   1.108
 9001SOL     OW27901   1.540   4.357   3.108
 9001SOL    HW127902   1.629   4.378   3.149
 9001SOL    HW227903   1.553   4.319   3.017
 9002SOL     OW27904   5.386   3.670   5.301
 9002SOL    HW127905   5.359   3.765   5.317
 9002SOL    HW227906   5.467   3.648   5.356
 9003SOL     OW27907   6.610   3.190   6.648
 9003SOL    HW127908   6.631   3.286   6.628
 9003SOL    HW227909   6.676   3.155   6.715
 9004SOL     OW27910   4.608   5.183   0.965
 9004SOL    HW127911   4.513   5.160   0.987
 9004SOL    HW227912   4.632   5.271   1.005
 9005SOL     OW27913   5.028   2.678   3.657
 9005SOL    HW127914   5.047   2.722   3.744
 9005SOL    HW227915   4.948   2.720   3.614
 9006SOL     OW27916   2.232   6.236   1.361
 9006SOL    HW127917   2.286   6.178   1.299
 9006SOL    HW227918   2.195   6.180   1.435
 9007SOL     OW27919   2.194   6.204   5.201
 9007SOL    HW127920   2.095   6.212   5.207
 9007SOL    HW227921   2.220   6.188   5.106
 9008SOL     OW27922   0.018   4.317   1.910
 9008SOL    HW127923   0.094   4.255   1.888
 9008SOL    HW227924   0.052   4.411   1.912
 9009SOL     OW27925   3.876   5.871   6.829
 9009SOL    HW127926   3.939   5.860   6.907
 9009SOL    HW227927   3.813   5.947   6.848
 9010SOL     OW27928   6.743   5.724   4.531
 9010SOL    HW127929   6.813   5.672   4.579
 9010SOL    HW227930   6.756   5.713   4.432
 9011SOL     OW27931   4.671   2.535   2.466
 9011SOL    HW127932   4.671   2.580   2.555
 9011SOL    HW227933   4.622   2.449   2.473
 9012SOL     OW27934   5.208   5.167   2.381
 9012SOL    HW127935   5.272   5.098   2.346
 9012SOL    HW227936   5.227   5.185   2.477
 9013SOL     OW27937   4.644   6.438   2.603
 9013SOL    HW127938   4.632   6.525   2.554
 9013SOL    HW227939   4.597   6.442   2.691
 9014SOL     OW27940   2.480   0.495   1.906
 9014SOL    HW127941   2.548   0.533   1.970
 9014SOL    HW227942   2.513   0.409   1.869
 9015SOL     OW27943   5.969   1.974   4.778
 9015SOL    HW127944   5.908   2.024   4.840
 9015SOL    HW227945   5.914   1.913   4.720
 9016SOL     OW27946   7.007   6.064   6.809
 9016SOL    HW127947   6.956   5.994   6.759
 9016SOL    HW227948   6.944   6.122   6.860
 9017SOL     OW27949   0.137   3.737   2.890
 9017SOL    HW127950   0.198   3.680   2.946
 9017SOL    HW227951   0.063   3.773   2.948
 9018SOL     OW27952   4.836   2.173   6.303
 9018SOL    HW127953   4.777   2.093   6.312
 9018SOL    HW227954   4.885   2.168   6.216
 9019SOL     OW27955   1.643   5.761   0.446
 9019SOL    HW127956   1.694   5.725   0.367
 9019SOL    HW227957   1.601   5.686   0.496
 9020SOL     OW27958   0.632   4.999   3.477
 9020SOL    HW127959   0.597   4.920   3.526
 9020SOL    HW227960   0.727   4.981   3.449
 9021SOL     OW27961   5.740   5.316   5.562
 9021SOL    HW127962   5.682   5.236   5.547
 9021SOL    HW227963   5.746   5.335   5.660
 9022SOL     OW27964   2.839   0.012   6.521
 9022SOL    HW127965   2.772   7.009   6.590
 9022SOL    HW227966   2.840   6.967   6.448
 9023SOL     OW27967   2.864   3.495   3.718
 9023SOL    HW127968   2.911   3.417   3.759
 9023SOL    HW227969   2.854   3.480   3.620
 9024SOL     OW27970   1.155   0.242   6.655
 9024SOL    HW127971   1.118   0.320   6.705
 9024SOL    HW227972   1.096   0.163   6.669
 9025SOL     OW27973   0.495   3.415   6.996
 9025SOL    HW127974   0.450   3.488   6.945
 9025SOL    HW227975   0.543   3.455   0.051
 9026SOL     OW27976   2.752   3.411   5.690
 9026SOL    HW127977   2.848   3.403   5.664
 9026SOL    HW227978   2.722   3.506   5.677
 9027SOL     OW27979   1.754   2.523   2.516
 9027SOL    HW127980   1.693   2.600   2.532
 9027SOL    HW227981   1.715   2.465   2.444
 9028SOL     OW27982   2.432   4.359   4.557
 9028SOL    HW127983   2.494   4.291   4.596
 9028SOL    HW227984   2.450   4.448   4.599
 9029SOL     OW27985   5.631   5.224   2.364
 9029SOL    HW127986   5.616   5.251   2.458
 9029SOL    HW227987   5.680   5.137   2.362
 9030SOL     OW27988   3.883   1.852   2.414
 9030SOL    HW127989   3.898   1.929   2.352
 9030SOL    HW227990   3.809   1.795   2.379
 9031SOL     OW27991   2.373   1.550   1.327
 9031SOL    HW127992   2.282   1.541   1.288
 9031SOL    HW227993   2.401   1.462   1.366
 9032SOL     OW27994   0.476   2.658   1.849
 9032SOL    HW127995   0.471   2.646   1.750
 9032SOL    HW227996   0.416   2.734   1.876
 9033SOL     OW27997   1.278   4.254   2.527
 9033SOL    HW127998   1.345   4.250   2.601
 9033SOL    HW227999   1.186   4.247   2.566
 9034SOL     OW28000   1.922   6.472   6.821
 9034SOL    HW128001   1.987   6.525   6.875
 9034SOL    HW228002   1.969   6.392   6.782
 9035SOL     OW28003   6.666   1.279   4.418
 9035SOL    HW128004   6.720   1.276   4.334
 9035SOL    HW228005   6.580   1.326   4.400
 9036SOL     OW28006   0.850   1.083   4.523
 9036SOL    HW128007   0.875   1.165   4.575
 9036SOL    HW228008   0.826   1.110   4.430
 9037SOL     OW28009   2.411   3.955   5.569
 9037SOL    HW128010   2.482   4.018   5.539
 9037SOL    HW228011   2.373   3.906   5.489
 9038SOL     OW28012   4.610   5.180   5.606
 9038SOL    HW128013   4.512   5.162   5.595
 9038SOL    HW228014   4.654   5.182   5.517
 9039SOL     OW28015   2.406   4.790   6.660
 9039SOL    HW128016   2.345   4.711   6.658
 9039SOL    HW228017   2.352   4.874   6.651
 9040SOL     OW28018   2.598   1.778   2.461
 9040SOL    HW128019   2.528   1.808   2.526
 9040SOL    HW228020   2.626   1.856   2.405
 9041SOL     OW28021   1.445   3.006   5.855
 9041SOL    HW128022   1.376   2.938   5.883
 9041SOL    HW228023   1.500   2.969   5.781
 9042SOL     OW28024   1.299   5.302   2.974
 9042SOL    HW128025   1.397   5.284   2.971
 9042SOL    HW228026   1.258   5.250   3.048
 9043SOL     OW28027   0.102   2.183   6.823
 9043SOL    HW128028   0.164   2.232   6.762
 9043SOL    HW228029   0.046   2.249   6.873
 9044SOL     OW28030   0.253   4.117   0.647
 9044SOL    HW128031   0.203   4.121   0.561
 9044SOL    HW228032   0.217   4.187   0.709
 9045SOL     OW28033   2.192   4.442   4.206
 9045SOL    HW128034   2.211   4.373   4.276
 9045SOL    HW228035   2.190   4.533   4.248
 9046SOL     OW28036   3.734   4.445   6.618
 9046SOL    HW128037   3.760   4.387   6.695
 9046SOL    HW228038   3.783   4.415   6.536
 9047SOL     OW28039   0.697   4.608   4.616
 9047SOL    HW128040   0.616   4.659   4.646
 9047SOL    HW228041   0.670   4.514   4.595
 9048SOL     OW28042   1.628   2.086   5.418
 9048SOL    HW128043   1.626   2.095   5.318
 9048SOL    HW228044   1.614   2.176   5.460
 9049SOL     OW28045   4.743   6.295   5.998
 9049SOL    HW128046   4.786   6.357   5.932
 9049SOL    HW228047   4.774   6.202   5.982
 9050SOL     OW28048   6.948   5.347   5.931
 9050SOL    HW128049   0.018   5.321   5.906
 9050SOL    HW228050   6.886   5.270   5.915
 9051SOL     OW28051   5.599   6.563   6.618
 9051SOL    HW128052   5.596   6.581   6.520
 9051SOL    HW228053   5.676   6.611   6.658
 9052SOL     OW28054   2.786   4.884   5.010
 9052SOL    HW128055   2.707   4.910   5.066
 9052SOL    HW228056   2.806   4.787   5.024
 9053SOL     OW28057   2.627   1.388   2.589
 9053SOL    HW128058   2.658   1.319   2.654
 9053SOL    HW228059   2.707   1.439   2.555
 9054SOL     OW28060   1.793   0.147   1.659
 9054SOL    HW128061   1.878   0.174   1.705
 9054SOL    HW228062   1.808   0.063   1.608
 9055SOL     OW28063   0.839   2.503   4.574
 9055SOL    HW128064   0.763   2.561   4.546
 9055SOL    HW228065   0.877   2.457   4.493
 9056SOL     OW28066   4.568   2.397   2.019
 9056SOL    HW128067   4.511   2.409   2.100
 9056SOL    HW228068   4.639   2.468   2.017
 9057SOL     OW28069   3.750   6.314   6.770
 9057SOL    HW128070   3.782   6.250   6.701
 9057SOL    HW228071   3.707   6.264   6.845
 9058SOL     OW28072   2.437   2.132   4.595
 9058SOL    HW128073   2.344   2.098   4.604
 9058SOL    HW228074   2.437   2.232   4.598
 9059SOL     OW28075   7.020   1.519   2.123
 9059SOL    HW128076   6.996   1.447   2.188
 9059SOL    HW228077   0.035   1.598   2.172
 9060SOL     OW28078   6.911   5.034   0.958
 9060SOL    HW128079   6.927   5.121   1.005
 9060SOL    HW228080   6.813   5.015   0.954
 9061SOL     OW28081   4.772   4.191   2.211
 9061SOL    HW128082   4.684   4.189   2.164
 9061SOL    HW228083   4.845   4.207   2.145
 9062SOL     OW28084   0.637   5.286   3.160
 9062SOL    HW128085   0.642   5.353   3.086
 9062SOL    HW228086   0.546   5.288   3.201
 9063SOL     OW28087   4.758   1.149   1.021
 9063SOL    HW128088   4.765   1.243   1.055
 9063SOL    HW228089   4.669   1.111   1.045
 9064SOL     OW28090   1.461   5.543   3.378
 9064SOL    HW128091   1.464   5.597   3.294
 9064SOL    HW228092   1.479   5.447   3.356
 9065SOL     OW28093   3.619   4.163   0.144
 9065SOL    HW128094   3.676   4.084   0.119
 9065SOL    HW228095   3.525   4.133   0.161
 9066SOL     OW28096   5.014   4.671   3.902
 9066SOL    HW128097   4.918   4.641   3.895
 9066SOL    HW228098   5.018   4.758   3.950
 9067SOL     OW28099   2.069   6.602   4.406
 9067SOL    HW128100   2.117   6.525   4.448
 9067SOL    HW228101   2.077   6.683   4.465
 9068SOL     OW28102   4.572   6.993   5.928
 9068SOL    HW128103   4.609   6.906   5.897
 9068SOL    HW228104   4.644   0.040   5.924
 9069SOL     OW28105   5.295   2.383   1.792
 9069SOL    HW128106   5.213   2.437   1.775
 9069SOL    HW228107   5.348   2.424   1.866
 9070SOL     OW28108   1.980   0.889   6.084
 9070SOL    HW128109   1.896   0.835   6.080
 9070SOL    HW228110   1.982   0.954   6.007
 9071SOL     OW28111   4.891   2.643   6.388
 9071SOL    HW128112   4.851   2.584   6.458
 9071SOL    HW228113   4.990   2.647   6.399
 9072SOL     OW28114   5.879   6.960   1.942
 9072SOL    HW128115   5.828   6.945   1.858
 9072SOL    HW228116   5.976   6.972   1.921
 9073SOL     OW28117   4.760   3.140   5.752
 9073SOL    HW128118   4.813   3.197   5.815
 9073SOL    HW228119   4.772   3.174   5.659
 9074SOL     OW28120   2.133   0.846   3.335
 9074SOL    HW128121   2.199   0.778   3.302
 9074SOL    HW228122   2.085   0.810   3.414
 9075SOL     OW28123   4.793   5.440   0.787
 9075SOL    HW128124   4.857   5.364   0.795
 9075SOL    HW228125   4.843   5.526   0.775
 9076SOL     OW28126   1.115   6.052   2.585
 9076SOL    HW128127   1.043   6.083   2.647
 9076SOL    HW228128   1.082   6.059   2.491
 9077SOL     OW28129   6.443   2.087   6.159
 9077SOL    HW128130   6.434   2.102   6.061
 9077SOL    HW228131   6.535   2.114   6.189
 9078SOL     OW28132   5.302   6.576   0.403
 9078SOL    HW128133   5.336   6.504   0.343
 9078SOL    HW228134   5.355   6.660   0.387
 9079SOL     OW28135   1.445   1.138   6.003
 9079SOL    HW128136   1.504   1.119   6.081
 9079SOL    HW228137   1.374   1.068   5.998
 9080SOL     OW28138   6.627   4.202   2.186
 9080SOL    HW128139   6.683   4.267   2.237
 9080SOL    HW228140   6.687   4.139   2.137
 9081SOL     OW28141   4.865   1.685   0.595
 9081SOL    HW128142   4.943   1.634   0.559
 9081SOL    HW228143   4.780   1.640   0.567
 9082SOL     OW28144   3.472   4.439   6.658
 9082SOL    HW128145   3.562   4.473   6.629
 9082SOL    HW228146   3.421   4.512   6.703
 9083SOL     OW28147   3.369   0.355   0.819
 9083SOL    HW128148   3.397   0.419   0.891
 9083SOL    HW228149   3.360   0.404   0.733
 9084SOL     OW28150   6.954   3.836   4.725
 9084SOL    HW128151   7.008   3.755   4.747
 9084SOL    HW228152   6.902   3.820   4.641
 9085SOL     OW28153   2.717   4.834   0.688
 9085SOL    HW128154   2.757   4.834   0.780
 9085SOL    HW228155   2.717   4.927   0.652
 9086SOL     OW28156   6.965   3.162   0.465
 9086SOL    HW128157   6.964   3.066   0.436
 9086SOL    HW228158   6.872   3.196   0.469
 9087SOL     OW28159   5.161   1.700   1.870
 9087SOL    HW128160   5.073   1.741   1.847
 9087SOL    HW228161   5.234   1.767   1.856
 9088SOL     OW28162   5.862   5.628   0.217
 9088SOL    HW128163   5.804   5.582   0.285
 9088SOL    HW228164   5.827   5.607   0.125
 9089SOL     OW28165   5.298   5.122   3.161
 9089SOL    HW128166   5.332   5.087   3.074
 9089SOL    HW228167   5.336   5.067   3.236
 9090SOL     OW28168   5.421   5.724   5.577
 9090SOL    HW128169   5.515   5.698   5.597
 9090SOL    HW228170   5.420   5.802   5.515
 9091SOL     OW28171   2.753   2.084   2.081
 9091SOL    HW128172   2.804   2.162   2.116
 9091SOL    HW228173   2.799   2.047   2.000
 9092SOL     OW28174   2.175   1.962   5.097
 9092SOL    HW128175   2.185   1.887   5.032
 9092SOL    HW228176   2.137   2.042   5.050
 9093SOL     OW28177   2.022   3.628   0.664
 9093SOL    HW128178   2.082   3.693   0.618
 9093SOL    HW228179   1.964   3.583   0.596
 9094SOL     OW28180   6.584   3.449   0.844
 9094SOL    HW128181   6.533   3.376   0.798
 9094SOL    HW228182   6.670   3.465   0.796
 9095SOL     OW28183   2.337   2.937   0.148
 9095SOL    HW128184   2.327   2.843   0.180
 9095SOL    HW228185   2.319   2.940   0.050
 9096SOL     OW28186   6.427   3.795   3.227
 9096SOL    HW128187   6.517   3.829   3.198
 9096SOL    HW228188   6.356   3.838   3.172
 9097SOL     OW28189   6.162   6.361   5.878
 9097SOL    HW128190   6.170   6.461   5.882
 9097SOL    HW228191   6.251   6.322   5.857
 9098SOL     OW28192   3.738   4.004   4.766
 9098SOL    HW128193   3.664   4.005   4.833
 9098SOL    HW228194   3.759   3.909   4.741
 9099SOL     OW28195   1.554   1.880   6.864
 9099SOL    HW128196   1.596   1.967   6.889
 9099SOL    HW228197   1.556   1.818   6.943
 9100SOL     OW28198   1.829   3.033   0.003
 9100SOL    HW128199   1.791   2.946   6.995
 9100SOL    HW228200   1.888   3.018   0.082
 9101SOL     OW28201   2.303   1.785   6.805
 9101SOL    HW128202   2.293   1.814   6.709
 9101SOL    HW228203   2.366   1.707   6.810
 9102SOL     OW28204   4.969   6.418   2.469
 9102SOL    HW128205   4.875   6.391   2.446
 9102SOL    HW228206   5.028   6.406   2.388
 9103SOL     OW28207   0.647   4.807   5.981
 9103SOL    HW128208   0.631   4.717   6.021
 9103SOL    HW228209   0.571   4.868   6.003
 9104SOL     OW28210   5.398   0.166   2.929
 9104SOL    HW128211   5.311   0.206   2.899
 9104SOL    HW228212   5.452   0.235   2.977
 9105SOL     OW28213   2.565   1.623   5.550
 9105SOL    HW128214   2.523   1.618   5.459
 9105SOL    HW228215   2.497   1.600   5.620
 9106SOL     OW28216   6.330   4.959   2.136
 9106SOL    HW128217   6.377   4.892   2.079
 9106SOL    HW228218   6.315   4.921   2.227
 9107SOL     OW28219   4.602   0.486   0.134
 9107SOL    HW128220   4.645   0.569   0.171
 9107SOL    HW228221   4.648   0.405   0.171
 9108SOL     OW28222   3.685   6.045   6.875
 9108SOL    HW128223   3.601   5.993   6.858
 9108SOL    HW228224   3.677   6.097   6.960
 9109SOL     OW28225   2.857   1.623   4.510
 9109SOL    HW128226   2.802   1.620   4.594
 9109SOL    HW228227   2.800   1.595   4.432
 9110SOL     OW28228   1.529   3.347   3.356
 9110SOL    HW128229   1.595   3.408   3.313
 9110SOL    HW228230   1.483   3.395   3.430
 9111SOL     OW28231   4.151   4.095   1.718
 9111SOL    HW128232   4.082   4.070   1.787
 9111SOL    HW228233   4.227   4.142   1.763
 9112SOL     OW28234   0.952   5.390   1.947
 9112SOL    HW128235   0.965   5.321   1.875
 9112SOL    HW228236   1.020   5.462   1.935
 9113SOL     OW28237   2.827   5.948   6.953
 9113SOL    HW128238   2.847   5.907   6.864
 9113SOL    HW228239   2.730   5.936   6.973
 9114SOL     OW28240   2.717   3.935   1.701
 9114SOL    HW128241   2.634   3.991   1.702
 9114SOL    HW228242   2.742   3.915   1.606
 9115SOL     OW28243   1.743   4.400   4.219
 9115SOL    HW128244   1.752   4.328   4.149
 9115SOL    HW228245   1.806   4.475   4.197
 9116SOL     OW28246   2.341   1.716   6.026
 9116SOL    HW128247   2.441   1.707   6.025
 9116SOL    HW228248   2.315   1.788   6.090
 9117SOL     OW28249   6.962   3.415   6.717
 9117SOL    HW128250   6.977   3.471   6.635
 9117SOL    HW228251   6.973   3.472   6.798
 9118SOL     OW28252   0.288   5.508   1.445
 9118SOL    HW128253   0.346   5.433   1.477
 9118SOL    HW228254   0.247   5.483   1.357
 9119SOL     OW28255   6.387   0.340   0.650
 9119SOL    HW128256   6.299   0.386   0.663
 9119SOL    HW228257   6.455   0.382   0.710
 9120SOL     OW28258   6.026   0.887   6.685
 9120SOL    HW128259   6.101   0.942   6.648
 9120SOL    HW228260   5.939   0.928   6.658
 9121SOL     OW28261   1.438   1.174   6.472
 9121SOL    HW128262   1.492   1.252   6.502
 9121SOL    HW228263   1.398   1.128   6.552
 9122SOL     OW28264   1.003   2.581   0.807
 9122SOL    HW128265   0.910   2.569   0.772
 9122SOL    HW228266   1.013   2.529   0.893
 9123SOL     OW28267   2.696   6.218   6.842
 9123SOL    HW128268   2.639   6.137   6.851
 9123SOL    HW228269   2.688   6.274   6.924
 9124SOL     OW28270   5.959   4.731   5.815
 9124SOL    HW128271   5.983   4.722   5.719
 9124SOL    HW228272   5.977   4.645   5.862
 9125SOL     OW28273   4.784   5.772   1.639
 9125SOL    HW128274   4.804   5.674   1.641
 9125SOL    HW228275   4.869   5.823   1.650
 9126SOL     OW28276   5.826   0.045   2.204
 9126SOL    HW128277   5.813   0.140   2.176
 9126SOL    HW228278   5.859   7.014   2.126
 9127SOL     OW28279   5.078   6.578   6.985
 9127SOL    HW128280   5.079   6.661   6.929
 9127SOL    HW228281   5.026   6.507   6.938
 9128SOL     OW28282   4.997   2.761   5.196
 9128SOL    HW128283   4.910   2.772   5.149
 9128SOL    HW228284   5.070   2.747   5.128
 9129SOL     OW28285   2.303   1.705   6.341
 9129SOL    HW128286   2.371   1.776   6.358
 9129SOL    HW228287   2.212   1.746   6.336
 9130SOL     OW28288   6.023   5.376   1.002
 9130SOL    HW128289   5.955   5.449   1.005
 9130SOL    HW228290   6.044   5.345   1.095
 9131SOL     OW28291   0.495   4.423   3.938
 9131SOL    HW128292   0.448   4.503   3.974
 9131SOL    HW228293   0.429   4.360   3.897
 9132SOL     OW28294   1.613   3.255   4.422
 9132SOL    HW128295   1.629   3.188   4.348
 9132SOL    HW228296   1.517   3.281   4.423
 9133SOL     OW28297   1.387   4.502   1.264
 9133SOL    HW128298   1.290   4.482   1.254
 9133SOL    HW228299   1.420   4.469   1.352
 9134SOL     OW28300   2.862   5.015   6.170
 9134SOL    HW128301   2.958   5.029   6.146
 9134SOL    HW228302   2.837   5.077   6.244
 9135SOL     OW28303   0.550   5.939   3.960
 9135SOL    HW128304   0.590   5.847   3.961
 9135SOL    HW228305   0.471   5.940   3.899
 9136SOL     OW28306   3.952   5.453   5.673
 9136SOL    HW128307   3.965   5.531   5.612
 9136SOL    HW228308   4.021   5.384   5.655
 9137SOL     OW28309   4.270   0.785   2.270
 9137SOL    HW128310   4.281   0.884   2.269
 9137SOL    HW228311   4.189   0.760   2.216
 9138SOL     OW28312   3.606   4.610   0.880
 9138SOL    HW128313   3.513   4.645   0.888
 9138SOL    HW228314   3.666   4.683   0.849
 9139SOL     OW28315   3.706   1.162   5.523
 9139SOL    HW128316   3.692   1.248   5.475
 9139SOL    HW228317   3.793   1.164   5.572
 9140SOL     OW28318   0.115   2.316   3.562
 9140SOL    HW128319   0.069   2.238   3.520
 9140SOL    HW228320   0.104   2.312   3.662
 9141SOL     OW28321   5.835   0.507   5.757
 9141SOL    HW128322   5.926   0.549   5.754
 9141SOL    HW228323   5.788   0.534   5.841
 9142SOL     OW28324   1.100   4.086   6.181
 9142SOL    HW128325   1.164   4.103   6.106
 9142SOL    HW228326   1.145   4.103   6.268
 9143SOL     OW28327   5.392   3.993   0.999
 9143SOL    HW128328   5.414   3.967   1.093
 9143SOL    HW228329   5.319   4.061   0.999
 9144SOL     OW28330   1.268   4.685   4.947
 9144SOL    HW128331   1.252   4.595   4.907
 9144SOL    HW228332   1.336   4.677   5.020
 9145SOL     OW28333   0.303   4.005   6.573
 9145SOL    HW128334   0.270   4.059   6.495
 9145SOL    HW228335   0.283   4.054   6.658
 9146SOL     OW28336   0.066   1.640   1.624
 9146SOL    HW128337   0.121   1.561   1.652
 9146SOL    HW228338   0.122   1.722   1.628
 9147SOL     OW28339   4.578   6.280   6.244
 9147SOL    HW128340   4.518   6.357   6.223
 9147SOL    HW228341   4.622   6.248   6.160
 9148SOL     OW28342   3.544   5.653   2.904
 9148SOL    HW128343   3.591   5.570   2.932
 9148SOL    HW228344   3.485   5.685   2.978
 9149SOL     OW28345   6.036   3.099   3.862
 9149SOL    HW128346   6.025   3.036   3.785
 9149SOL    HW228347   5.975   3.071   3.936
 9150SOL     OW28348   4.611   1.457   3.162
 9150SOL    HW128349   4.628   1.523   3.088
 9150SOL    HW228350   4.532   1.487   3.216
 9151SOL     OW28351   1.396   3.499   2.383
 9151SOL    HW128352   1.457   3.574   2.359
 9151SOL    HW228353   1.436   3.446   2.458
 9152SOL     OW28354   2.500   5.738   3.131
 9152SOL    HW128355   2.427   5.669   3.132
 9152SOL    HW228356   2.508   5.779   3.221
 9153SOL     OW28357   1.568   3.107   6.486
 9153SOL    HW128358   1.647   3.079   6.431
 9153SOL    HW228359   1.492   3.130   6.426
 9154SOL     OW28360   1.991   5.886   0.458
 9154SOL    HW128361   2.062   5.922   0.518
 9154SOL    HW228362   1.904   5.933   0.476
 9155SOL     OW28363   1.342   4.265   0.250
 9155SOL    HW128364   1.285   4.330   0.199
 9155SOL    HW228365   1.324   4.172   0.218
 9156SOL     OW28366   5.330   2.914   1.925
 9156SOL    HW128367   5.324   3.006   1.964
 9156SOL    HW228368   5.239   2.883   1.899
 9157SOL     OW28369   5.356   3.596   5.831
 9157SOL    HW128370   5.328   3.545   5.911
 9157SOL    HW228371   5.351   3.694   5.850
 9158SOL     OW28372   0.712   3.602   3.150
 9158SOL    HW128373   0.717   3.567   3.244
 9158SOL    HW228374   0.719   3.525   3.086
 9159SOL     OW28375   0.087   4.434   3.025
 9159SOL    HW128376   0.134   4.347   3.018
 9159SOL    HW228377   0.154   4.508   3.036
 9160SOL     OW28378   6.997   6.868   0.283
 9160SOL    HW128379   6.939   6.849   0.362
 9160SOL    HW228380   7.021   6.965   0.282
 9161SOL     OW28381   5.394   3.669   3.871
 9161SOL    HW128382   5.355   3.624   3.791
 9161SOL    HW228383   5.446   3.749   3.842
 9162SOL     OW28384   5.377   1.818   2.074
 9162SOL    HW128385   5.399   1.870   1.991
 9162SOL    HW228386   5.278   1.815   2.086
 9163SOL     OW28387   3.041   1.296   4.222
 9163SOL    HW128388   2.986   1.379   4.232
 9163SOL    HW228389   3.121   1.302   4.282
 9164SOL     OW28390   2.631   0.282   0.230
 9164SOL    HW128391   2.721   0.238   0.221
 9164SOL    HW228392   2.624   0.323   0.321
 9165SOL     OW28393   5.012   6.332   0.482
 9165SOL    HW128394   4.950   6.306   0.556
 9165SOL    HW228395   5.054   6.420   0.503
 9166SOL     OW28396   3.112   5.568   1.371
 9166SOL    HW128397   3.078   5.629   1.443
 9166SOL    HW228398   3.036   5.515   1.333
 9167SOL     OW28399   0.450   4.445   4.965
 9167SOL    HW128400   0.505   4.416   4.887
 9167SOL    HW228401   0.357   4.464   4.935
 9168SOL     OW28402   2.361   0.235   6.269
 9168SOL    HW128403   2.284   0.289   6.304
 9168SOL    HW228404   2.428   0.222   6.342
 9169SOL     OW28405   6.414   6.791   2.971
 9169SOL    HW128406   6.427   6.890   2.978
 9169SOL    HW228407   6.501   6.745   2.987
 9170SOL     OW28408   6.268   5.801   6.772
 9170SOL    HW128409   6.195   5.841   6.719
 9170SOL    HW228410   6.231   5.731   6.834
 9171SOL     OW28411   2.790   5.597   5.929
 9171SOL    HW128412   2.764   5.669   5.864
 9171SOL    HW228413   2.880   5.560   5.905
 9172SOL     OW28414   2.574   2.435   3.996
 9172SOL    HW128415   2.556   2.529   4.022
 9172SOL    HW228416   2.598   2.381   4.077
 9173SOL     OW28417   0.495   4.917   5.195
 9173SOL    HW128418   0.551   4.895   5.275
 9173SOL    HW228419   0.521   5.007   5.160
 9174SOL     OW28420   0.391   5.461   0.126
 9174SOL    HW128421   0.374   5.385   0.064
 9174SOL    HW228422   0.326   5.458   0.202
 9175SOL     OW28423   1.808   6.952   5.060
 9175SOL    HW128424   1.782   6.896   4.982
 9175SOL    HW228425   1.877   6.905   5.115
 9176SOL     OW28426   1.580   1.431   5.592
 9176SOL    HW128427   1.599   1.529   5.588
 9176SOL    HW228428   1.660   1.383   5.625
 9177SOL     OW28429   1.182   4.423   3.686
 9177SOL    HW128430   1.147   4.343   3.735
 9177SOL    HW228431   1.106   4.480   3.655
 9178SOL     OW28432   2.287   4.513   0.644
 9178SOL    HW128433   2.323   4.442   0.584
 9178SOL    HW228434   2.356   4.584   0.657
 9179SOL     OW28435   2.813   4.783   4.570
 9179SOL    HW128436   2.893   4.825   4.612
 9179SOL    HW228437   2.784   4.705   4.625
 9180SOL     OW28438   5.236   2.030   2.623
 9180SOL    HW128439   5.327   2.068   2.639
 9180SOL    HW228440   5.197   2.070   2.541
 9181SOL     OW28441   3.608   1.317   2.390
 9181SOL    HW128442   3.618   1.372   2.473
 9181SOL    HW228443   3.615   1.375   2.310
 9182SOL     OW28444   1.576   6.910   1.680
 9182SOL    HW128445   1.663   6.881   1.641
 9182SOL    HW228446   1.592   6.981   1.748
 9183SOL     OW28447   5.132   5.433   6.612
 9183SOL    HW128448   5.226   5.458   6.632
 9183SOL    HW228449   5.081   5.514   6.581
 9184SOL     OW28450   4.602   6.877   0.076
 9184SOL    HW128451   4.557   6.909   0.159
 9184SOL    HW228452   4.618   6.956   0.015
 9185SOL     OW28453   4.559   1.174   5.328
 9185SOL    HW128454   4.590   1.249   5.269
 9185SOL    HW228455   4.462   1.187   5.349
 9186SOL     OW28456   5.506   6.940   6.662
 9186SOL    HW128457   5.451   7.020   6.639
 9186SOL    HW228458   5.453   6.857   6.645
 9187SOL     OW28459   2.985   6.222   2.233
 9187SOL    HW128460   2.938   6.228   2.321
 9187SOL    HW228461   2.937   6.158   2.173
 9188SOL     OW28462   2.372   5.909   1.366
 9188SOL    HW128463   2.427   5.840   1.413
 9188SOL    HW228464   2.432   5.980   1.329
 9189SOL     OW28465   5.632   4.932   1.704
 9189SOL    HW128466   5.712   4.891   1.659
 9189SOL    HW228467   5.558   4.942   1.637
 9190SOL     OW28468   1.384   5.004   1.057
 9190SOL    HW128469   1.441   4.970   1.131
 9190SOL    HW228470   1.440   5.056   0.993
 9191SOL     OW28471   6.901   0.217   6.201
 9191SOL    HW128472   6.825   0.264   6.156
 9191SOL    HW228473   6.905   0.244   6.298
 9192SOL     OW28474   0.483   3.579   3.708
 9192SOL    HW128475   0.406   3.534   3.754
 9192SOL    HW228476   0.461   3.591   3.611
 9193SOL     OW28477   2.541   3.550   6.955
 9193SOL    HW128478   2.628   3.564   7.003
 9193SOL    HW228479   2.508   3.638   6.920
 9194SOL     OW28480   3.304   0.328   4.512
 9194SOL    HW128481   3.395   0.354   4.544
 9194SOL    HW228482   3.309   0.240   4.464
 9195SOL     OW28483   1.841   1.228   3.898
 9195SOL    HW128484   1.838   1.139   3.853
 9195SOL    HW228485   1.788   1.294   3.846
 9196SOL     OW28486   4.983   2.086   5.445
 9196SOL    HW128487   4.904   2.026   5.431
 9196SOL    HW228488   4.956   2.181   5.429
 9197SOL     OW28489   2.598   3.656   1.285
 9197SOL    HW128490   2.540   3.678   1.363
 9197SOL    HW228491   2.550   3.674   1.200
 9198SOL     OW28492   0.389   4.745   3.845
 9198SOL    HW128493   0.465   4.761   3.909
 9198SOL    HW228494   0.321   4.818   3.855
 9199SOL     OW28495   6.224   4.846   4.950
 9199SOL    HW128496   6.303   4.802   4.907
 9199SOL    HW228497   6.190   4.918   4.889
 9200SOL     OW28498   2.933   0.511   0.026
 9200SOL    HW128499   2.995   0.449   0.075
 9200SOL    HW228500   2.930   0.599   0.072
 9201SOL     OW28501   1.766   4.249   0.194
 9201SOL    HW128502   1.845   4.288   0.240
 9201SOL    HW228503   1.694   4.229   0.261
 9202SOL     OW28504   2.585   0.902   3.898
 9202SOL    HW128505   2.555   0.970   3.832
 9202SOL    HW228506   2.575   0.810   3.858
 9203SOL     OW28507   6.750   6.989   0.803
 9203SOL    HW128508   6.830   0.001   0.851
 9203SOL    HW228509   6.668   0.015   0.834
 9204SOL     OW28510   5.126   0.347   5.713
 9204SOL    HW128511   5.034   0.387   5.720
 9204SOL    HW228512   5.130   0.286   5.634
 9205SOL     OW28513   6.991   4.823   1.594
 9205SOL    HW128514   7.017   4.743   1.540
 9205SOL    HW228515   0.043   4.889   1.595
 9206SOL     OW28516   3.580   6.409   0.631
 9206SOL    HW128517   3.519   6.395   0.709
 9206SOL    HW228518   3.527   6.399   0.546
 9207SOL     OW28519   5.415   5.492   6.657
 9207SOL    HW128520   5.450   5.459   6.569
 9207SOL    HW228521   5.451   5.434   6.731
 9208SOL     OW28522   1.319   3.864   2.943
 9208SOL    HW128523   1.323   3.870   2.844
 9208SOL    HW228524   1.393   3.918   2.983
 9209SOL     OW28525   3.145   0.252   6.322
 9209SOL    HW128526   3.158   0.194   6.242
 9209SOL    HW228527   3.159   0.348   6.297
 9210SOL     OW28528   0.198   0.732   4.083
 9210SOL    HW128529   0.163   0.820   4.052
 9210SOL    HW228530   0.125   0.664   4.079
 9211SOL     OW28531   0.608   1.650   2.454
 9211SOL    HW128532   0.589   1.748   2.456
 9211SOL    HW228533   0.707   1.635   2.459
 9212SOL     OW28534   3.229   5.112   4.368
 9212SOL    HW128535   3.252   5.175   4.294
 9212SOL    HW228536   3.161   5.154   4.428
 9213SOL     OW28537   6.182   4.265   6.508
 9213SOL    HW128538   6.249   4.241   6.437
 9213SOL    HW228539   6.212   4.227   6.595
 9214SOL     OW28540   0.217   4.778   0.729
 9214SOL    HW128541   0.241   4.681   0.733
 9214SOL    HW228542   0.235   4.813   0.637
 9215SOL     OW28543   1.272   1.316   1.166
 9215SOL    HW128544   1.267   1.219   1.141
 9215SOL    HW228545   1.312   1.368   1.091
 9216SOL     OW28546   2.066   6.796   3.041
 9216SOL    HW128547   2.137   6.846   3.092
 9216SOL    HW228548   1.980   6.847   3.046
 9217SOL     OW28549   0.684   2.726   6.890
 9217SOL    HW128550   0.768   2.763   6.851
 9217SOL    HW228551   0.707   2.648   6.950
 9218SOL     OW28552   2.780   0.994   0.337
 9218SOL    HW128553   2.878   1.013   0.333
 9218SOL    HW228554   2.735   1.031   0.256
 9219SOL     OW28555   0.183   1.492   0.585
 9219SOL    HW128556   0.189   1.487   0.685
 9219SOL    HW228557   0.219   1.580   0.554
 9220SOL     OW28558   3.117   6.424   1.657
 9220SOL    HW128559   3.113   6.375   1.745
 9220SOL    HW228560   3.113   6.358   1.582
 9221SOL     OW28561   2.788   5.231   4.549
 9221SOL    HW128562   2.733   5.211   4.630
 9221SOL    HW228563   2.744   5.190   4.469
 9222SOL     OW28564   2.865   2.227   5.890
 9222SOL    HW128565   2.783   2.202   5.942
 9222SOL    HW228566   2.847   2.218   5.792
 9223SOL     OW28567   2.612   3.049   5.394
 9223SOL    HW128568   2.644   3.131   5.347
 9223SOL    HW228569   2.518   3.029   5.367
 9224SOL     OW28570   2.180   4.901   4.878
 9224SOL    HW128571   2.166   4.936   4.971
 9224SOL    HW228572   2.274   4.871   4.868
 9225SOL     OW28573   2.102   6.674   6.951
 9225SOL    HW128574   2.151   6.642   0.009
 9225SOL    HW228575   2.147   6.756   6.915
 9226SOL     OW28576   3.718   6.554   1.265
 9226SOL    HW128577   3.667   6.543   1.179
 9226SOL    HW228578   3.737   6.464   1.304
 9227SOL     OW28579   1.620   6.111   1.592
 9227SOL    HW128580   1.600   6.047   1.666
 9227SOL    HW228581   1.712   6.148   1.603
 9228SOL     OW28582   0.495   0.372   0.096
 9228SOL    HW128583   0.520   0.284   0.055
 9228SOL    HW228584   0.537   0.379   0.187
 9229SOL     OW28585   0.437   5.617   5.580
 9229SOL    HW128586   0.377   5.543   5.610
 9229SOL    HW228587   0.487   5.589   5.499
 9230SOL     OW28588   5.451   0.731   4.157
 9230SOL    HW128589   5.524   0.670   4.124
 9230SOL    HW228590   5.479   0.826   4.142
 9231SOL     OW28591   1.896   3.326   3.073
 9231SOL    HW128592   1.979   3.345   3.020
 9231SOL    HW228593   1.885   3.227   3.082
 9232SOL     OW28594   4.451   4.737   1.408
 9232SOL    HW128595   4.545   4.703   1.413
 9232SOL    HW228596   4.452   4.835   1.389
 9233SOL     OW28597   4.652   4.722   1.101
 9233SOL    HW128598   4.638   4.744   1.198
 9233SOL    HW228599   4.565   4.728   1.053
 9234SOL     OW28600   2.313   5.894   3.680
 9234SOL    HW128601   2.343   5.834   3.754
 9234SOL    HW228602   2.300   5.987   3.715
 9235SOL     OW28603   0.694   1.966   3.056
 9235SOL    HW128604   0.744   1.892   3.012
 9235SOL    HW228605   0.758   2.040   3.078
 9236SOL     OW28606   3.653   2.587   5.577
 9236SOL    HW128607   3.667   2.665   5.638
 9236SOL    HW228608   3.685   2.504   5.621
 9237SOL     OW28609   1.900   3.182   3.925
 9237SOL    HW128610   1.920   3.270   3.883
 9237SOL    HW228611   1.801   3.173   3.938
 9238SOL     OW28612   4.265   3.485   6.298
 9238SOL    HW128613   4.257   3.509   6.201
 9238SOL    HW228614   4.345   3.427   6.311
 9239SOL     OW28615   1.923   4.132   6.643
 9239SOL    HW128616   2.013   4.168   6.621
 9239SOL    HW228617   1.893   4.069   6.571
 9240SOL     OW28618   4.890   0.597   2.628
 9240SOL    HW128619   4.854   0.548   2.708
 9240SOL    HW228620   4.888   0.695   2.645
 9241SOL     OW28621   0.773   5.701   0.285
 9241SOL    HW128622   0.816   5.753   0.211
 9241SOL    HW228623   0.676   5.690   0.265
 9242SOL     OW28624   6.315   6.219   1.678
 9242SOL    HW128625   6.391   6.165   1.714
 9242SOL    HW228626   6.267   6.263   1.755
 9243SOL     OW28627   6.336   6.531   4.824
 9243SOL    HW128628   6.404   6.541   4.752
 9243SOL    HW228629   6.245   6.524   4.783
 9244SOL     OW28630   3.161   5.548   0.137
 9244SOL    HW128631   3.226   5.499   0.079
 9244SOL    HW228632   3.129   5.488   0.210
 9245SOL     OW28633   0.450   6.139   1.137
 9245SOL    HW128634   0.442   6.234   1.107
 9245SOL    HW228635   0.544   6.108   1.126
 9246SOL     OW28636   0.115   4.798   4.126
 9246SOL    HW128637   0.020   4.782   4.150
 9246SOL    HW228638   0.130   4.776   4.030
 9247SOL     OW28639   1.712   6.705   2.243
 9247SOL    HW128640   1.731   6.662   2.155
 9247SOL    HW228641   1.702   6.804   2.230
 9248SOL     OW28642   3.513   1.940   6.203
 9248SOL    HW128643   3.455   1.994   6.143
 9248SOL    HW228644   3.593   1.909   6.152
 9249SOL     OW28645   4.472   6.748   3.325
 9249SOL    HW128646   4.566   6.760   3.359
 9249SOL    HW228647   4.455   6.813   3.251
 9250SOL     OW28648   5.812   3.515   3.836
 9250SOL    HW128649   5.797   3.484   3.742
 9250SOL    HW228650   5.804   3.614   3.840
 9251SOL     OW28651   3.640   1.734   3.148
 9251SOL    HW128652   3.675   1.794   3.221
 9251SOL    HW228653   3.693   1.748   3.065
 9252SOL     OW28654   1.496   6.595   4.709
 9252SOL    HW128655   1.534   6.613   4.800
 9252SOL    HW228656   1.529   6.664   4.645
 9253SOL     OW28657   1.285   6.955   5.704
 9253SOL    HW128658   1.360   7.011   5.737
 9253SOL    HW228659   1.239   6.911   5.781
 9254SOL     OW28660   5.572   3.468   1.568
 9254SOL    HW128661   5.556   3.552   1.517
 9254SOL    HW228662   5.526   3.392   1.523
 9255SOL     OW28663   0.201   4.646   0.386
 9255SOL    HW128664   0.192   4.745   0.402
 9255SOL    HW228665   0.125   4.614   0.330
 9256SOL     OW28666   4.162   5.007   1.783
 9256SOL    HW128667   4.217   4.976   1.860
 9256SOL    HW228668   4.203   5.088   1.742
 9257SOL     OW28669   0.763   3.535   1.050
 9257SOL    HW128670   0.741   3.494   1.139
 9257SOL    HW228671   0.862   3.539   1.039
 9258SOL     OW28672   4.117   3.590   3.805
 9258SOL    HW128673   4.140   3.618   3.899
 9258SOL    HW228674   4.157   3.654   3.740
 9259SOL     OW28675   1.024   2.779   0.369
 9259SOL    HW128676   0.945   2.724   0.340
 9259SOL    HW228677   1.033   2.774   0.468
 9260SOL     OW28678   5.711   3.615   0.012
 9260SOL    HW128679   5.705   3.709   0.045
 9260SOL    HW228680   5.678   3.610   6.940
 9261SOL     OW28681   4.326   0.194   0.011
 9261SOL    HW128682   4.260   0.139   0.061
 9261SOL    HW228683   4.290   0.286   7.021
 9262SOL     OW28684   5.114   0.992   5.472
 9262SOL    HW128685   5.193   1.009   5.531
 9262SOL    HW228686   5.053   0.925   5.514
 9263SOL     OW28687   5.435   3.865   2.092
 9263SOL    HW128688   5.458   3.934   2.161
 9263SOL    HW228689   5.477   3.777   2.117
 9264SOL     OW28690   6.344   2.630   0.117
 9264SOL    HW128691   6.249   2.653   0.097
 9264SOL    HW228692   6.350   2.537   0.152
 9265SOL     OW28693   1.881   1.410   5.388
 9265SOL    HW128694   1.825   1.493   5.395
 9265SOL    HW228695   1.977   1.436   5.385
 9266SOL     OW28696   1.970   6.193   2.308
 9266SOL    HW128697   1.962   6.107   2.358
 9266SOL    HW228698   2.054   6.192   2.254
 9267SOL     OW28699   2.439   5.184   5.441
 9267SOL    HW128700   2.367   5.115   5.447
 9267SOL    HW228701   2.528   5.139   5.441
 9268SOL     OW28702   0.540   1.040   2.651
 9268SOL    HW128703   0.528   1.131   2.691
 9268SOL    HW228704   0.506   0.971   2.714
 9269SOL     OW28705   4.149   1.876   5.577
 9269SOL    HW128706   4.194   1.890   5.489
 9269SOL    HW228707   4.051   1.891   5.567
 9270SOL     OW28708   1.203   6.815   5.917
 9270SOL    HW128709   1.249   6.762   5.989
 9270SOL    HW228710   1.134   6.874   5.958
 9271SOL     OW28711   0.906   4.899   6.878
 9271SOL    HW128712   0.951   4.812   6.860
 9271SOL    HW228713   0.952   4.973   6.828
 9272SOL     OW28714   2.725   4.976   6.894
 9272SOL    HW128715   2.713   4.890   6.944
 9272SOL    HW228716   2.813   4.976   6.846
 9273SOL     OW28717   3.830   6.057   5.235
 9273SOL    HW128718   3.749   6.108   5.206
 9273SOL    HW228719   3.821   6.033   5.332
 9274SOL     OW28720   6.126   2.247   1.006
 9274SOL    HW128721   6.086   2.300   1.081
 9274SOL    HW228722   6.226   2.257   1.008
 9275SOL     OW28723   0.626   0.515   6.343
 9275SOL    HW128724   0.681   0.459   6.281
 9275SOL    HW228725   0.533   0.521   6.309
 9276SOL     OW28726   4.944   6.026   4.749
 9276SOL    HW128727   4.845   6.030   4.743
 9276SOL    HW228728   4.984   6.075   4.671
 9277SOL     OW28729   3.624   2.690   0.576
 9277SOL    HW128730   3.712   2.656   0.543
 9277SOL    HW228731   3.638   2.752   0.653
 9278SOL     OW28732   1.263   2.239   1.577
 9278SOL    HW128733   1.332   2.285   1.521
 9278SOL    HW228734   1.173   2.278   1.558
 9279SOL     OW28735   3.386   0.021   1.257
 9279SOL    HW128736   3.373   0.004   1.355
 9279SOL    HW228737   3.314   0.083   1.225
 9280SOL     OW28738   2.248   0.764   2.737
 9280SOL    HW128739   2.168   0.784   2.794
 9280SOL    HW228740   2.217   0.726   2.650
 9281SOL     OW28741   1.894   2.766   0.407
 9281SOL    HW128742   1.925   2.775   0.502
 9281SOL    HW228743   1.800   2.731   0.405
 9282SOL     OW28744   4.527   2.257   6.299
 9282SOL    HW128745   4.572   2.195   6.235
 9282SOL    HW228746   4.568   2.348   6.291
 9283SOL     OW28747   5.887   1.863   2.576
 9283SOL    HW128748   5.909   1.901   2.486
 9283SOL    HW228749   5.798   1.818   2.572
 9284SOL     OW28750   3.303   3.632   2.115
 9284SOL    HW128751   3.352   3.618   2.201
 9284SOL    HW228752   3.369   3.637   2.040
 9285SOL     OW28753   5.968   2.586   6.583
 9285SOL    HW128754   5.934   2.667   6.535
 9285SOL    HW228755   6.043   2.612   6.644
 9286SOL     OW28756   5.409   6.090   5.065
 9286SOL    HW128757   5.336   6.022   5.068
 9286SOL    HW228758   5.427   6.117   4.971
 9287SOL     OW28759   3.129   6.289   1.918
 9287SOL    HW128760   3.158   6.318   2.009
 9287SOL    HW228761   3.125   6.189   1.915
 9288SOL     OW28762   4.627   2.596   5.710
 9288SOL    HW128763   4.538   2.622   5.673
 9288SOL    HW228764   4.616   2.521   5.775
 9289SOL     OW28765   4.903   3.312   2.833
 9289SOL    HW128766   4.951   3.249   2.894
 9289SOL    HW228767   4.838   3.366   2.886
 9290SOL     OW28768   4.563   2.086   4.900
 9290SOL    HW128769   4.648   2.079   4.848
 9290SOL    HW228770   4.500   2.148   4.854
 9291SOL     OW28771   0.755   1.912   4.567
 9291SOL    HW128772   0.784   1.998   4.610
 9291SOL    HW228773   0.753   1.923   4.468
 9292SOL     OW28774   6.503   3.559   6.810
 9292SOL    HW128775   6.544   3.650   6.817
 9292SOL    HW228776   6.541   3.500   6.881
 9293SOL     OW28777   5.887   3.985   6.557
 9293SOL    HW128778   5.791   4.011   6.545
 9293SOL    HW228779   5.946   4.059   6.525
 9294SOL     OW28780   5.427   5.997   6.895
 9294SOL    HW128781   5.381   6.077   6.934
 9294SOL    HW228782   5.440   5.928   6.966
 9295SOL     OW28783   4.878   1.677   3.468
 9295SOL    HW128784   4.852   1.626   3.387
 9295SOL    HW228785   4.796   1.714   3.512
 9296SOL     OW28786   6.530   6.666   5.865
 9296SOL    HW128787   6.554   6.760   5.840
 9296SOL    HW228788   6.462   6.632   5.800
 9297SOL     OW28789   0.786   0.582   0.785
 9297SOL    HW128790   0.691   0.600   0.811
 9297SOL    HW228791   0.788   0.516   0.709
 9298SOL     OW28792   0.812   6.543   4.985
 9298SOL    HW128793   0.893   6.510   4.936
 9298SOL    HW228794   0.801   6.641   4.970
 9299SOL     OW28795   2.232   2.914   4.378
 9299SOL    HW128796   2.242   2.946   4.284
 9299SOL    HW228797   2.275   2.824   4.386
 9300SOL     OW28798   5.668   4.307   4.033
 9300SOL    HW128799   5.641   4.211   4.040
 9300SOL    HW228800   5.600   4.357   3.980
 9301SOL     OW28801   5.992   3.847   2.732
 9301SOL    HW128802   5.985   3.926   2.794
 9301SOL    HW228803   5.903   3.804   2.722
 9302SOL     OW28804   2.543   2.072   2.737
 9302SOL    HW128805   2.571   2.129   2.814
 9302SOL    HW228806   2.501   2.129   2.666
 9303SOL     OW28807   3.482   4.718   1.155
 9303SOL    HW128808   3.576   4.714   1.120
 9303SOL    HW228809   3.483   4.704   1.254
 9304SOL     OW28810   4.173   3.531   0.634
 9304SOL    HW128811   4.169   3.483   0.721
 9304SOL    HW228812   4.215   3.472   0.564
 9305SOL     OW28813   5.262   2.948   2.630
 9305SOL    HW128814   5.173   2.993   2.635
 9305SOL    HW228815   5.335   3.016   2.635
 9306SOL     OW28816   6.325   4.244   3.805
 9306SOL    HW128817   6.381   4.214   3.882
 9306SOL    HW228818   6.312   4.343   3.810
 9307SOL     OW28819   2.470   1.506   6.392
 9307SOL    HW128820   2.554   1.560   6.380
 9307SOL    HW228821   2.391   1.563   6.371
 9308SOL     OW28822   6.709   2.664   0.561
 9308SOL    HW128823   6.734   2.680   0.466
 9308SOL    HW228824   6.611   2.644   0.567
 9309SOL     OW28825   4.950   3.598   6.767
 9309SOL    HW128826   4.851   3.600   6.757
 9309SOL    HW228827   4.990   3.536   6.700
 9310SOL     OW28828   3.663   6.287   0.938
 9310SOL    HW128829   3.593   6.338   0.988
 9310SOL    HW228830   3.632   6.269   0.845
 9311SOL     OW28831   6.269   2.960   1.352
 9311SOL    HW128832   6.286   3.044   1.403
 9311SOL    HW228833   6.341   2.893   1.373
 9312SOL     OW28834   1.337   4.814   5.360
 9312SOL    HW128835   1.364   4.745   5.293
 9312SOL    HW228836   1.277   4.772   5.429
 9313SOL     OW28837   6.047   6.845   2.227
 9313SOL    HW128838   5.978   6.787   2.185
 9313SOL    HW228839   6.046   6.831   2.326
 9314SOL     OW28840   5.149   5.020   0.399
 9314SOL    HW128841   5.102   4.966   0.468
 9314SOL    HW228842   5.228   4.970   0.365
 9315SOL     OW28843   6.494   6.493   6.483
 9315SOL    HW128844   6.491   6.546   6.568
 9315SOL    HW228845   6.480   6.396   6.504
 9316SOL     OW28846   3.865   5.912   4.292
 9316SOL    HW128847   3.902   5.905   4.200
 9316SOL    HW228848   3.928   5.870   4.357
 9317SOL     OW28849   5.909   4.223   4.783
 9317SOL    HW128850   5.895   4.188   4.690
 9317SOL    HW228851   5.975   4.298   4.781
 9318SOL     OW28852   6.237   6.984   6.419
 9318SOL    HW128853   6.235   7.013   6.323
 9318SOL    HW228854   6.157   6.926   6.437
 9319SOL     OW28855   6.701   3.691   4.948
 9319SOL    HW128856   6.724   3.666   4.854
 9319SOL    HW228857   6.671   3.610   4.999
 9320SOL     OW28858   4.245   2.852   6.700
 9320SOL    HW128859   4.269   2.761   6.736
 9320SOL    HW228860   4.293   2.866   6.613
 9321SOL     OW28861   6.332   6.088   3.331
 9321SOL    HW128862   6.332   6.014   3.398
 9321SOL    HW228863   6.298   6.054   3.243
 9322SOL     OW28864   0.627   6.176   0.185
 9322SOL    HW128865   0.683   6.115   0.241
 9322SOL    HW228866   0.540   6.131   0.165
 9323SOL     OW28867   0.276   1.584   6.157
 9323SOL    HW128868   0.338   1.646   6.110
 9323SOL    HW228869   0.288   1.593   6.256
 9324SOL     OW28870   2.054   5.610   6.897
 9324SOL    HW128871   2.044   5.582   6.993
 9324SOL    HW228872   2.106   5.694   6.892
 9325SOL     OW28873   0.396   3.013   0.321
 9325SOL    HW128874   0.336   3.079   0.367
 9325SOL    HW228875   0.341   2.947   0.271
 9326SOL     OW28876   2.337   5.733   1.156
 9326SOL    HW128877   2.266   5.736   1.086
 9326SOL    HW228878   2.347   5.824   1.198
 9327SOL     OW28879   3.908   1.150   3.512
 9327SOL    HW128880   3.846   1.128   3.437
 9327SOL    HW228881   3.997   1.177   3.474
 9328SOL     OW28882   3.661   0.917   2.170
 9328SOL    HW128883   3.617   0.987   2.227
 9328SOL    HW228884   3.758   0.911   2.195
 9329SOL     OW28885   1.317   3.553   1.712
 9329SOL    HW128886   1.262   3.582   1.790
 9329SOL    HW228887   1.380   3.626   1.687
 9330SOL     OW28888   5.629   0.114   6.958
 9330SOL    HW128889   5.545   0.168   6.963
 9330SOL    HW228890   5.606   0.017   6.966
 9331SOL     OW28891   0.472   1.423   6.686
 9331SOL    HW128892   0.409   1.472   6.745
 9331SOL    HW228893   0.552   1.480   6.668
 9332SOL     OW28894   3.367   3.836   4.597
 9332SOL    HW128895   3.319   3.791   4.672
 9332SOL    HW228896   3.357   3.935   4.606
 9333SOL     OW28897   5.720   5.199   1.152
 9333SOL    HW128898   5.685   5.209   1.059
 9333SOL    HW228899   5.768   5.112   1.161
 9334SOL     OW28900   2.747   0.368   4.805
 9334SOL    HW128901   2.796   0.380   4.892
 9334SOL    HW228902   2.744   0.270   4.782
 9335SOL     OW28903   0.743   0.909   0.988
 9335SOL    HW128904   0.724   0.930   1.084
 9335SOL    HW228905   0.672   0.849   0.953
 9336SOL     OW28906   2.914   0.072   5.353
 9336SOL    HW128907   2.990   0.103   5.409
 9336SOL    HW228908   2.948   0.017   5.277
 9337SOL     OW28909   4.977   7.017   2.917
 9337SOL    HW128910   4.903   0.050   2.881
 9337SOL    HW228911   5.034   6.984   2.842
 9338SOL     OW28912   4.094   0.323   1.654
 9338SOL    HW128913   4.103   0.421   1.669
 9338SOL    HW228914   3.997   0.298   1.653
 9339SOL     OW28915   3.944   6.029   0.733
 9339SOL    HW128916   3.918   6.120   0.765
 9339SOL    HW228917   3.914   5.961   0.800
 9340SOL     OW28918   5.229   3.237   0.737
 9340SOL    HW128919   5.188   3.165   0.792
 9340SOL    HW228920   5.327   3.224   0.732
 9341SOL     OW28921   6.734   5.137   5.993
 9341SOL    HW128922   6.783   5.056   6.025
 9341SOL    HW228923   6.691   5.184   6.071
 9342SOL     OW28924   0.675   6.534   6.290
 9342SOL    HW128925   0.746   6.596   6.323
 9342SOL    HW228926   0.700   6.500   6.199
 9343SOL     OW28927   6.565   5.523   4.625
 9343SOL    HW128928   6.598   5.457   4.557
 9343SOL    HW228929   6.622   5.605   4.623
 9344SOL     OW28930   4.464   6.412   0.986
 9344SOL    HW128931   4.481   6.313   0.988
 9344SOL    HW228932   4.368   6.429   0.961
 9345SOL     OW28933   6.954   2.883   0.371
 9345SOL    HW128934   6.857   2.875   0.351
 9345SOL    HW228935   7.006   2.885   0.286
 9346SOL     OW28936   6.005   6.805   0.625
 9346SOL    HW128937   5.997   6.780   0.721
 9346SOL    HW228938   6.009   6.904   0.616
 9347SOL     OW28939   1.294   6.652   1.945
 9347SOL    HW128940   1.212   6.613   1.988
 9347SOL    HW228941   1.344   6.705   2.013
 9348SOL     OW28942   2.896   4.978   0.390
 9348SOL    HW128943   2.872   5.040   0.465
 9348SOL    HW228944   2.951   4.903   0.425
 9349SOL     OW28945   1.999   6.064   2.697
 9349SOL    HW128946   2.006   6.037   2.601
 9349SOL    HW228947   1.933   6.138   2.707
 9350SOL     OW28948   0.311   2.714   5.599
 9350SOL    HW128949   0.316   2.807   5.635
 9350SOL    HW228950   0.404   2.680   5.582
 9351SOL     OW28951   2.644   1.229   6.812
 9351SOL    HW128952   2.735   1.267   6.824
 9351SOL    HW228953   2.604   1.264   6.728
 9352SOL     OW28954   2.289   4.685   5.436
 9352SOL    HW128955   2.202   4.672   5.484
 9352SOL    HW228956   2.365   4.660   5.497
 9353SOL     OW28957   6.046   0.715   0.789
 9353SOL    HW128958   6.129   0.760   0.821
 9353SOL    HW228959   5.976   0.783   0.768
 9354SOL     OW28960   0.755   1.841   6.182
 9354SOL    HW128961   0.834   1.835   6.244
 9354SOL    HW228962   0.766   1.920   6.122
 9355SOL     OW28963   0.444   1.561   4.980
 9355SOL    HW128964   0.533   1.519   4.999
 9355SOL    HW228965   0.371   1.500   5.012
 9356SOL     OW28966   5.542   0.163   3.909
 9356SOL    HW128967   5.599   0.125   3.836
 9356SOL    HW228968   5.498   0.247   3.877
 9357SOL     OW28969   0.880   1.506   6.974
 9357SOL    HW128970   0.947   1.510   6.900
 9357SOL    HW228971   0.887   1.590   0.006
 9358SOL     OW28972   1.204   2.455   1.812
 9358SOL    HW128973   1.261   2.452   1.894
 9358SOL    HW228974   1.111   2.428   1.835
 9359SOL     OW28975   0.961   0.070   5.392
 9359SOL    HW128976   0.980   0.104   5.484
 9359SOL    HW228977   0.867   0.039   5.386
 9360SOL     OW28978   0.622   0.123   6.211
 9360SOL    HW128979   0.532   0.153   6.179
 9360SOL    HW228980   0.623   0.023   6.218
 9361SOL     OW28981   2.211   5.320   4.065
 9361SOL    HW128982   2.297   5.333   4.113
 9361SOL    HW228983   2.221   5.346   3.969
 9362SOL     OW28984   2.306   0.916   2.217
 9362SOL    HW128985   2.292   0.848   2.145
 9362SOL    HW228986   2.368   0.878   2.286
 9363SOL     OW28987   1.878   4.768   2.760
 9363SOL    HW128988   1.912   4.844   2.705
 9363SOL    HW228989   1.894   4.682   2.711
 9364SOL     OW28990   0.737   2.706   0.282
 9364SOL    HW128991   0.659   2.752   0.324
 9364SOL    HW228992   0.704   2.638   0.217
 9365SOL     OW28993   3.280   1.005   5.013
 9365SOL    HW128994   3.301   1.045   5.102
 9365SOL    HW228995   3.183   1.017   4.993
 9366SOL     OW28996   4.102   5.963   2.613
 9366SOL    HW128997   4.089   5.967   2.712
 9366SOL    HW228998   4.160   6.039   2.585
 9367SOL     OW28999   6.387   1.226   1.207
 9367SOL    HW129000   6.353   1.148   1.260
 9367SOL    HW229001   6.329   1.241   1.128
 9368SOL     OW29002   2.811   0.229   2.779
 9368SOL    HW129003   2.747   0.200   2.708
 9368SOL    HW229004   2.804   0.167   2.857
 9369SOL     OW29005   3.468   5.267   0.545
 9369SOL    HW129006   3.546   5.207   0.529
 9369SOL    HW229007   3.484   5.319   0.629
 9370SOL     OW29008   4.285   1.817   5.000
 9370SOL    HW129009   4.373   1.810   4.952
 9370SOL    HW229010   4.242   1.904   4.978
 9371SOL     OW29011   4.521   4.989   0.784
 9371SOL    HW129012   4.581   4.909   0.784
 9371SOL    HW229013   4.553   5.055   0.852
 9372SOL     OW29014   4.251   5.942   1.486
 9372SOL    HW129015   4.217   5.911   1.575
 9372SOL    HW229016   4.321   6.013   1.500
 9373SOL     OW29017   6.610   2.866   0.940
 9373SOL    HW129018   6.681   2.804   0.907
 9373SOL    HW229019   6.524   2.846   0.895
 9374SOL     OW29020   0.121   5.503   6.300
 9374SOL    HW129021   0.157   5.447   6.225
 9374SOL    HW229022   0.021   5.507   6.294
 9375SOL     OW29023   0.723   1.086   6.898
 9375SOL    HW129024   0.665   1.125   6.827
 9375SOL    HW229025   0.666   1.054   6.974
 9376SOL     OW29026   2.471   3.750   1.075
 9376SOL    HW129027   2.472   3.832   1.132
 9376SOL    HW229028   2.401   3.760   1.004
 9377SOL     OW29029   2.338   0.390   3.287
 9377SOL    HW129030   2.415   0.453   3.291
 9377SOL    HW229031   2.356   0.312   3.347
 9378SOL     OW29032   3.661   0.979   5.269
 9378SOL    HW129033   3.690   1.045   5.339
 9378SOL    HW229034   3.735   0.914   5.251
 9379SOL     OW29035   4.709   6.860   4.372
 9379SOL    HW129036   4.613   6.886   4.360
 9379SOL    HW229037   4.714   6.768   4.411
 9380SOL     OW29038   5.313   5.561   0.654
 9380SOL    HW129039   5.265   5.649   0.661
 9380SOL    HW229040   5.297   5.520   0.565
 9381SOL     OW29041   5.353   1.010   5.608
 9381SOL    HW129042   5.342   1.100   5.651
 9381SOL    HW229043   5.407   0.951   5.667
 9382SOL     OW29044   2.985   4.962   5.740
 9382SOL    HW129045   3.004   4.905   5.820
 9382SOL    HW229046   3.066   4.967   5.682
 9383SOL     OW29047   5.712   3.709   2.660
 9383SOL    HW129048   5.724   3.653   2.742
 9383SOL    HW229049   5.647   3.782   2.678
 9384SOL     OW29050   3.686   0.331   1.418
 9384SOL    HW129051   3.634   0.367   1.495
 9384SOL    HW229052   3.726   0.407   1.366
 9385SOL     OW29053   4.139   1.254   4.439
 9385SOL    HW129054   4.201   1.184   4.474
 9385SOL    HW229055   4.147   1.260   4.340
 9386SOL     OW29056   5.047   6.478   1.346
 9386SOL    HW129057   5.051   6.565   1.395
 9386SOL    HW229058   5.045   6.495   1.248
 9387SOL     OW29059   2.494   1.550   6.747
 9387SOL    HW129060   2.468   1.488   6.673
 9387SOL    HW229061   2.459   1.515   6.834
 9388SOL     OW29062   2.534   0.181   5.344
 9388SOL    HW129063   2.580   0.208   5.260
 9388SOL    HW229064   2.593   0.119   5.396
 9389SOL     OW29065   2.036   3.797   1.651
 9389SOL    HW129066   1.958   3.813   1.591
 9389SOL    HW229067   2.034   3.703   1.685
 9390SOL     OW29068   4.940   4.393   4.550
 9390SOL    HW129069   4.955   4.413   4.453
 9390SOL    HW229070   4.889   4.307   4.558
 9391SOL     OW29071   1.256   3.682   4.677
 9391SOL    HW129072   1.278   3.608   4.741
 9391SOL    HW229073   1.337   3.706   4.624
 9392SOL     OW29074   5.206   4.436   2.742
 9392SOL    HW129075   5.256   4.351   2.756
 9392SOL    HW229076   5.249   4.489   2.669
 9393SOL     OW29077   1.506   6.036   6.217
 9393SOL    HW129078   1.458   6.070   6.136
 9393SOL    HW229079   1.444   5.979   6.271
 9394SOL     OW29080   4.163   0.328   0.273
 9394SOL    HW129081   4.240   0.377   0.232
 9394SOL    HW229082   4.180   0.315   0.371
 9395SOL     OW29083   1.427   1.483   0.959
 9395SOL    HW129084   1.401   1.576   0.982
 9395SOL    HW229085   1.379   1.454   0.877
 9396SOL     OW29086   0.837   0.709   6.031
 9396SOL    HW129087   0.846   0.645   5.955
 9396SOL    HW229088   0.895   0.679   6.107
 9397SOL     OW29089   3.920   1.232   4.956
 9397SOL    HW129090   4.009   1.187   4.959
 9397SOL    HW229091   3.857   1.176   4.902
 9398SOL     OW29092   0.811   2.078   0.381
 9398SOL    HW129093   0.721   2.054   0.345
 9398SOL    HW229094   0.851   1.998   0.427
 9399SOL     OW29095   0.676   2.312   4.046
 9399SOL    HW129096   0.664   2.213   4.044
 9399SOL    HW229097   0.771   2.335   4.028
 9400SOL     OW29098   5.456   1.574   0.943
 9400SOL    HW129099   5.528   1.601   1.007
 9400SOL    HW229100   5.382   1.641   0.946
 9401SOL     OW29101   0.407   2.258   3.500
 9401SOL    HW129102   0.496   2.231   3.537
 9401SOL    HW229103   0.341   2.265   3.575
 9402SOL     OW29104   2.544   6.510   4.534
 9402SOL    HW129105   2.600   6.592   4.547
 9402SOL    HW229106   2.452   6.527   4.568
 9403SOL     OW29107   5.527   2.260   0.983
 9403SOL    HW129108   5.589   2.182   0.986
 9403SOL    HW229109   5.554   2.327   1.053
 9404SOL     OW29110   2.250   2.904   1.217
 9404SOL    HW129111   2.182   2.965   1.176
 9404SOL    HW229112   2.342   2.939   1.201
 9405SOL     OW29113   6.372   5.993   5.306
 9405SOL    HW129114   6.461   5.974   5.265
 9405SOL    HW229115   6.324   6.063   5.253
 9406SOL     OW29116   1.131   2.141   0.437
 9406SOL    HW129117   1.183   2.226   0.429
 9406SOL    HW229118   1.106   2.109   0.346
 9407SOL     OW29119   1.593   4.493   4.865
 9407SOL    HW129120   1.624   4.522   4.955
 9407SOL    HW229121   1.500   4.456   4.872
 9408SOL     OW29122   5.962   4.577   4.311
 9408SOL    HW129123   6.025   4.499   4.319
 9408SOL    HW229124   5.930   4.603   4.402
 9409SOL     OW29125   6.092   5.549   2.069
 9409SOL    HW129126   6.004   5.592   2.050
 9409SOL    HW229127   6.116   5.561   2.165
 9410SOL     OW29128   4.081   0.445   0.705
 9410SOL    HW129129   4.149   0.437   0.631
 9410SOL    HW229130   4.024   0.363   0.706
 9411SOL     OW29131   3.292   3.859   3.246
 9411SOL    HW129132   3.223   3.883   3.314
 9411SOL    HW229133   3.260   3.885   3.155
 9412SOL     OW29134   4.661   6.692   1.630
 9412SOL    HW129135   4.667   6.767   1.564
 9412SOL    HW229136   4.655   6.730   1.723
 9413SOL     OW29137   4.764   4.224   2.962
 9413SOL    HW129138   4.716   4.197   2.878
 9413SOL    HW229139   4.699   4.263   3.027
 9414SOL     OW29140   2.373   2.191   2.533
 9414SOL    HW129141   2.353   2.142   2.448
 9414SOL    HW229142   2.433   2.269   2.513
 9415SOL     OW29143   5.628   0.234   1.744
 9415SOL    HW129144   5.604   0.245   1.841
 9415SOL    HW229145   5.632   0.137   1.722
 9416SOL     OW29146   5.837   5.507   5.384
 9416SOL    HW129147   5.763   5.479   5.445
 9416SOL    HW229148   5.916   5.535   5.439
 9417SOL     OW29149   3.371   5.559   2.474
 9417SOL    HW129150   3.463   5.548   2.436
 9417SOL    HW229151   3.373   5.620   2.553
 9418SOL     OW29152   2.924   1.918   4.952
 9418SOL    HW129153   2.891   1.981   4.882
 9418SOL    HW229154   2.849   1.858   4.980
 9419SOL     OW29155   2.184   2.688   6.709
 9419SOL    HW129156   2.103   2.649   6.752
 9419SOL    HW229157   2.266   2.658   6.758
 9420SOL     OW29158   6.028   4.138   5.645
 9420SOL    HW129159   6.120   4.169   5.670
 9420SOL    HW229160   6.031   4.088   5.559
 9421SOL     OW29161   3.815   6.117   6.563
 9421SOL    HW129162   3.902   6.103   6.610
 9421SOL    HW229163   3.752   6.043   6.587
 9422SOL     OW29164   2.634   6.381   5.295
 9422SOL    HW129165   2.559   6.347   5.238
 9422SOL    HW229166   2.596   6.430   5.374
 9423SOL     OW29167   4.241   5.248   1.675
 9423SOL    HW129168   4.210   5.326   1.620
 9423SOL    HW229169   4.340   5.241   1.670
 9424SOL     OW29170   0.091   0.631   4.573
 9424SOL    HW129171   0.094   0.549   4.516
 9424SOL    HW229172   0.023   0.618   4.645
 9425SOL     OW29173   6.715   3.898   0.443
 9425SOL    HW129174   6.730   3.915   0.346
 9425SOL    HW229175   6.676   3.806   0.455
 9426SOL     OW29176   4.578   2.825   6.442
 9426SOL    HW129177   4.505   2.760   6.419
 9426SOL    HW229178   4.649   2.779   6.496
 9427SOL     OW29179   4.574   4.687   2.323
 9427SOL    HW129180   4.489   4.674   2.273
 9427SOL    HW229181   4.645   4.629   2.284
 9428SOL     OW29182   0.937   6.285   5.790
 9428SOL    HW129183   0.915   6.196   5.752
 9428SOL    HW229184   0.870   6.353   5.759
 9429SOL     OW29185   3.062   2.099   4.229
 9429SOL    HW129186   3.161   2.103   4.216
 9429SOL    HW229187   3.038   2.142   4.316
 9430SOL     OW29188   1.785   0.794   4.155
 9430SOL    HW129189   1.844   0.822   4.079
 9430SOL    HW229190   1.779   0.868   4.222
 9431SOL     OW29191   0.874   4.393   5.420
 9431SOL    HW129192   0.939   4.345   5.478
 9431SOL    HW229193   0.923   4.453   5.357
 9432SOL     OW29194   6.971   1.474   4.154
 9432SOL    HW129195   6.983   1.375   4.167
 9432SOL    HW229196   7.006   1.522   4.235
 9433SOL     OW29197   4.618   5.457   2.205
 9433SOL    HW129198   4.549   5.422   2.269
 9433SOL    HW229199   4.573   5.484   2.119
 9434SOL     OW29200   4.258   5.441   4.314
 9434SOL    HW129201   4.267   5.394   4.402
 9434SOL    HW229202   4.163   5.439   4.285
 9435SOL     OW29203   6.257   3.947   1.135
 9435SOL    HW129204   6.188   4.019   1.137
 9435SOL    HW229205   6.346   3.986   1.161
 9436SOL     OW29206   2.880   0.704   3.256
 9436SOL    HW129207   2.849   0.609   3.263
 9436SOL    HW229208   2.978   0.708   3.275
 9437SOL     OW29209   5.282   0.640   4.670
 9437SOL    HW129210   5.240   0.611   4.584
 9437SOL    HW229211   5.249   0.582   4.745
 9438SOL     OW29212   4.648   0.351   2.656
 9438SOL    HW129213   4.712   0.383   2.726
 9438SOL    HW229214   4.653   0.410   2.576
 9439SOL     OW29215   1.903   4.267   1.037
 9439SOL    HW129216   1.935   4.305   0.950
 9439SOL    HW229217   1.946   4.316   1.113
 9440SOL     OW29218   1.642   5.227   4.230
 9440SOL    HW129219   1.648   5.169   4.149
 9440SOL    HW229220   1.730   5.227   4.278
 9441SOL     OW29221   0.409   6.541   4.708
 9441SOL    HW129222   0.432   6.452   4.669
 9441SOL    HW229223   0.350   6.590   4.644
 9442SOL     OW29224   5.783   3.161   0.866
 9442SOL    HW129225   5.853   3.177   0.936
 9442SOL    HW229226   5.694   3.192   0.899
 9443SOL     OW29227   2.472   4.294   1.534
 9443SOL    HW129228   2.458   4.197   1.555
 9443SOL    HW229229   2.465   4.308   1.435
 9444SOL     OW29230   1.730   5.457   6.680
 9444SOL    HW129231   1.760   5.411   6.597
 9444SOL    HW229232   1.768   5.550   6.683
 9445SOL     OW29233   0.488   1.057   4.002
 9445SOL    HW129234   0.432   1.137   3.982
 9445SOL    HW229235   0.491   1.041   4.100
 9446SOL     OW29236   6.256   4.222   4.365
 9446SOL    HW129237   6.312   4.255   4.440
 9446SOL    HW229238   6.297   4.139   4.327
 9447SOL     OW29239   5.292   5.004   2.033
 9447SOL    HW129240   5.320   5.031   2.125
 9447SOL    HW229241   5.355   4.935   1.997
 9448SOL     OW29242   5.461   2.151   6.491
 9448SOL    HW129243   5.397   2.098   6.546
 9448SOL    HW229244   5.554   2.118   6.507
 9449SOL     OW29245   5.452   7.004   1.919
 9449SOL    HW129246   5.352   7.005   1.914
 9449SOL    HW229247   5.490   6.992   1.827
 9450SOL     OW29248   1.319   6.683   3.116
 9450SOL    HW129249   1.253   6.757   3.119
 9450SOL    HW229250   1.290   6.610   3.178
 9451SOL     OW29251   3.976   4.895   0.067
 9451SOL    HW129252   4.060   4.868   0.114
 9451SOL    HW229253   3.905   4.915   0.134
 9452SOL     OW29254   5.851   4.183   6.016
 9452SOL    HW129255   5.943   4.212   5.989
 9452SOL    HW229256   5.790   4.187   5.937
 9453SOL     OW29257   5.747   4.427   1.768
 9453SOL    HW129258   5.816   4.468   1.709
 9453SOL    HW229259   5.789   4.353   1.821
 9454SOL     OW29260   5.930   5.276   0.748
 9454SOL    HW129261   5.883   5.364   0.734
 9454SOL    HW229262   5.984   5.279   0.832
 9455SOL     OW29263   4.207   0.857   1.062
 9455SOL    HW129264   4.251   0.777   1.103
 9455SOL    HW229265   4.194   0.841   0.964
 9456SOL     OW29266   6.806   2.312   3.154
 9456SOL    HW129267   6.736   2.281   3.090
 9456SOL    HW229268   6.887   2.254   3.146
 9457SOL     OW29269   6.437   6.217   3.915
 9457SOL    HW129270   6.354   6.170   3.885
 9457SOL    HW229271   6.431   6.235   4.014
 9458SOL     OW29272   5.804   4.285   0.390
 9458SOL    HW129273   5.881   4.251   0.444
 9458SOL    HW229274   5.825   4.276   0.293
 9459SOL     OW29275   4.652   4.302   4.760
 9459SOL    HW129276   4.596   4.244   4.818
 9459SOL    HW229277   4.613   4.394   4.755
 9460SOL     OW29278   1.415   2.840   2.206
 9460SOL    HW129279   1.419   2.940   2.213
 9460SOL    HW229280   1.327   2.813   2.165
 9461SOL     OW29281   2.041   1.328   1.691
 9461SOL    HW129282   2.079   1.415   1.660
 9461SOL    HW229283   2.009   1.337   1.785
 9462SOL     OW29284   7.017   1.349   5.542
 9462SOL    HW129285   0.083   1.368   5.500
 9462SOL    HW229286   7.010   1.251   5.563
 9463SOL     OW29287   6.378   4.089   0.464
 9463SOL    HW129288   6.380   4.147   0.544
 9463SOL    HW229289   6.433   4.007   0.481
 9464SOL     OW29290   1.113   0.775   1.457
 9464SOL    HW129291   1.177   0.815   1.523
 9464SOL    HW229292   1.106   0.676   1.473
 9465SOL     OW29293   6.605   5.411   0.292
 9465SOL    HW129294   6.684   5.375   0.243
 9465SOL    HW229295   6.624   5.505   0.321
 9466SOL     OW29296   4.507   3.896   5.519
 9466SOL    HW129297   4.548   3.805   5.528
 9466SOL    HW229298   4.425   3.890   5.462
 9467SOL     OW29299   1.262   3.887   0.577
 9467SOL    HW129300   1.353   3.927   0.568
 9467SOL    HW229301   1.220   3.917   0.663
 9468SOL     OW29302   6.073   1.552   0.921
 9468SOL    HW129303   6.135   1.476   0.938
 9468SOL    HW229304   5.994   1.544   0.982
 9469SOL     OW29305   6.843   6.968   1.553
 9469SOL    HW129306   6.777   0.003   1.504
 9469SOL    HW229307   6.935   6.988   1.521
 9470SOL     OW29308   4.070   3.018   0.519
 9470SOL    HW129309   4.005   3.049   0.589
 9470SOL    HW229310   4.159   3.059   0.536
 9471SOL     OW29311   6.195   2.921   4.949
 9471SOL    HW129312   6.273   2.946   5.007
 9471SOL    HW229313   6.113   2.968   4.981
 9472SOL     OW29314   1.418   3.251   5.451
 9472SOL    HW129315   1.409   3.270   5.548
 9472SOL    HW229316   1.382   3.328   5.398
 9473SOL     OW29317   3.380   3.402   1.361
 9473SOL    HW129318   3.471   3.411   1.401
 9473SOL    HW229319   3.342   3.492   1.343
 9474SOL     OW29320   5.833   4.377   0.897
 9474SOL    HW129321   5.802   4.333   0.813
 9474SOL    HW229322   5.931   4.359   0.910
 9475SOL     OW29323   5.254   3.517   6.057
 9475SOL    HW129324   5.170   3.566   6.078
 9475SOL    HW229325   5.291   3.475   6.140
 9476SOL     OW29326   3.961   4.149   1.161
 9476SOL    HW129327   3.974   4.172   1.065
 9476SOL    HW229328   4.043   4.174   1.213
 9477SOL     OW29329   1.513   4.586   1.014
 9477SOL    HW129330   1.500   4.576   0.915
 9477SOL    HW229331   1.427   4.567   1.061
 9478SOL     OW29332   5.745   3.794   6.216
 9478SOL    HW129333   5.709   3.752   6.300
 9478SOL    HW229334   5.809   3.731   6.173
 9479SOL     OW29335   3.945   0.912   2.250
 9479SOL    HW129336   3.932   0.968   2.332
 9479SOL    HW229337   3.984   0.968   2.177
 9480SOL     OW29338   5.719   0.536   0.675
 9480SOL    HW129339   5.808   0.557   0.715
 9480SOL    HW229340   5.647   0.558   0.740
 9481SOL     OW29341   4.995   0.636   3.370
 9481SOL    HW129342   4.981   0.537   3.380
 9481SOL    HW229343   5.059   0.668   3.440
 9482SOL     OW29344   6.628   5.028   5.279
 9482SOL    HW129345   6.592   5.100   5.220
 9482SOL    HW229346   6.623   5.057   5.375
 9483SOL     OW29347   5.970   5.646   6.539
 9483SOL    HW129348   5.946   5.569   6.597
 9483SOL    HW229349   5.944   5.627   6.444
 9484SOL     OW29350   2.410   5.939   4.899
 9484SOL    HW129351   2.492   5.919   4.953
 9484SOL    HW229352   2.344   5.865   4.911
 9485SOL     OW29353   0.671   1.397   4.958
 9485SOL    HW129354   0.751   1.378   5.014
 9485SOL    HW229355   0.669   1.334   4.881
 9486SOL     OW29356   6.398   5.998   6.333
 9486SOL    HW129357   6.365   5.926   6.271
 9486SOL    HW229358   6.457   5.958   6.402
 9487SOL     OW29359   3.543   3.929   3.621
 9487SOL    HW129360   3.474   3.945   3.691
 9487SOL    HW229361   3.516   3.852   3.563
 9488SOL     OW29362   2.245   1.152   1.637
 9488SOL    HW129363   2.173   1.211   1.673
 9488SOL    HW229364   2.289   1.103   1.712
 9489SOL     OW29365   6.028   4.040   6.941
 9489SOL    HW129366   6.032   4.075   0.012
 9489SOL    HW229367   6.117   4.000   6.917
 9490SOL     OW29368   5.463   3.356   4.558
 9490SOL    HW129369   5.533   3.402   4.612
 9490SOL    HW229370   5.471   3.385   4.462
 9491SOL     OW29371   5.751   6.932   3.048
 9491SOL    HW129372   5.836   6.915   3.099
 9491SOL    HW229373   5.751   6.875   2.966
 9492SOL     OW29374   4.689   2.281   3.841
 9492SOL    HW129375   4.646   2.217   3.905
 9492SOL    HW229376   4.636   2.365   3.838
 9493SOL     OW29377   3.347   5.898   1.898
 9493SOL    HW129378   3.301   5.983   1.925
 9493SOL    HW229379   3.330   5.828   1.967
 9494SOL     OW29380   5.180   2.610   2.052
 9494SOL    HW129381   5.225   2.659   2.127
 9494SOL    HW229382   5.247   2.553   2.005
 9495SOL     OW29383   5.595   2.925   1.470
 9495SOL    HW129384   5.659   3.002   1.472
 9495SOL    HW229385   5.629   2.852   1.529
 9496SOL     OW29386   6.010   2.877   1.000
 9496SOL    HW129387   6.015   2.905   1.096
 9496SOL    HW229388   5.920   2.898   0.964
 9497SOL     OW29389   5.018   5.257   5.060
 9497SOL    HW129390   4.965   5.334   5.026
 9497SOL    HW229391   4.975   5.221   5.143
 9498SOL     OW29392   1.088   5.961   5.474
 9498SOL    HW129393   1.147   6.029   5.430
 9498SOL    HW229394   1.020   6.007   5.531
 9499SOL     OW29395   5.965   6.505   4.213
 9499SOL    HW129396   6.056   6.495   4.174
 9499SOL    HW229397   5.911   6.566   4.155
 9500SOL     OW29398   3.073   1.720   0.604
 9500SOL    HW129399   2.991   1.767   0.636
 9500SOL    HW229400   3.048   1.635   0.559
 9501SOL     OW29401   1.959   4.095   5.382
 9501SOL    HW129402   1.965   3.998   5.403
 9501SOL    HW229403   2.022   4.117   5.307
 9502SOL     OW29404   5.944   4.714   3.867
 9502SOL    HW129405   6.020   4.703   3.802
 9502SOL    HW229406   5.861   4.736   3.817
 9503SOL     OW29407   6.089   1.000   0.118
 9503SOL    HW129408   6.020   0.955   0.174
 9503SOL    HW229409   6.051   1.085   0.081
 9504SOL     OW29410   6.189   5.812   2.196
 9504SOL    HW129411   6.276   5.788   2.153
 9504SOL    HW229412   6.168   5.908   2.179
 9505SOL     OW29413   4.654   3.959   6.365
 9505SOL    HW129414   4.615   4.009   6.287
 9505SOL    HW229415   4.639   4.012   6.449
 9506SOL     OW29416   2.786   1.311   1.339
 9506SOL    HW129417   2.830   1.394   1.304
 9506SOL    HW229418   2.767   1.323   1.437
 9507SOL     OW29419   6.307   6.801   1.682
 9507SOL    HW129420   6.246   6.727   1.712
 9507SOL    HW229421   6.280   6.832   1.591
 9508SOL     OW29422   4.515   0.716   2.642
 9508SOL    HW129423   4.605   0.744   2.674
 9508SOL    HW229424   4.506   0.735   2.544
 9509SOL     OW29425   5.522   1.456   3.451
 9509SOL    HW129426   5.423   1.468   3.456
 9509SOL    HW229427   5.559   1.510   3.376
 9510SOL     OW29428   1.830   2.983   2.795
 9510SOL    HW129429   1.878   2.993   2.882
 9510SOL    HW229430   1.870   2.908   2.743
 9511SOL     OW29431   0.878   1.498   1.124
 9511SOL    HW129432   0.874   1.596   1.143
 9511SOL    HW229433   0.827   1.477   1.041
 9512SOL     OW29434   6.369   1.776   1.912
 9512SOL    HW129435   6.450   1.820   1.951
 9512SOL    HW229436   6.379   1.768   1.813
 9513SOL     OW29437   4.764   3.920   5.366
 9513SOL    HW129438   4.707   3.933   5.447
 9513SOL    HW229439   4.762   4.003   5.310
 9514SOL     OW29440   3.652   2.883   0.776
 9514SOL    HW129441   3.575   2.943   0.752
 9514SOL    HW229442   3.735   2.937   0.787
 9515SOL     OW29443   0.244   5.470   3.015
 9515SOL    HW129444   0.170   5.410   2.985
 9515SOL    HW229445   0.225   5.564   2.986
 9516SOL     OW29446   0.629   3.893   6.124
 9516SOL    HW129447   0.718   3.916   6.086
 9516SOL    HW229448   0.581   3.832   6.062
 9517SOL     OW29449   0.072   0.021   1.507
 9517SOL    HW129450   0.104   6.968   1.451
 9517SOL    HW229451   0.115   0.106   1.477
 9518SOL     OW29452   0.504   1.129   1.274
 9518SOL    HW129453   0.499   1.172   1.364
 9518SOL    HW229454   0.539   1.036   1.283
 9519SOL     OW29455   1.235   2.555   5.031
 9519SOL    HW129456   1.237   2.496   5.112
 9519SOL    HW229457   1.206   2.647   5.058
 9520SOL     OW29458   4.008   6.561   1.797
 9520SOL    HW129459   3.925   6.596   1.753
 9520SOL    HW229460   3.993   6.465   1.823
 9521SOL     OW29461   5.351   4.962   3.412
 9521SOL    HW129462   5.285   4.965   3.487
 9521SOL    HW229463   5.311   4.912   3.335
 9522SOL     OW29464   3.043   5.143   6.634
 9522SOL    HW129465   3.059   5.231   6.589
 9522SOL    HW229466   2.956   5.105   6.601
 9523SOL     OW29467   2.211   6.433   5.457
 9523SOL    HW129468   2.183   6.528   5.439
 9523SOL    HW229469   2.244   6.392   5.371
 9524SOL     OW29470   5.124   3.181   0.341
 9524SOL    HW129471   5.189   3.141   0.405
 9524SOL    HW229472   5.160   3.174   0.248
 9525SOL     OW29473   4.172   6.767   4.657
 9525SOL    HW129474   4.149   6.847   4.712
 9525SOL    HW229475   4.214   6.796   4.571
 9526SOL     OW29476   4.953   6.064   1.489
 9526SOL    HW129477   4.966   5.987   1.427
 9526SOL    HW229478   4.979   6.037   1.582
 9527SOL     OW29479   0.227   2.337   0.495
 9527SOL    HW129480   0.323   2.365   0.493
 9527SOL    HW229481   0.193   2.328   0.402
 9528SOL     OW29482   6.592   1.169   1.498
 9528SOL    HW129483   6.633   1.133   1.414
 9528SOL    HW229484   6.503   1.127   1.512
 9529SOL     OW29485   1.593   3.064   5.014
 9529SOL    HW129486   1.690   3.056   5.036
 9529SOL    HW229487   1.582   3.071   4.915
 9530SOL     OW29488   2.277   1.309   3.897
 9530SOL    HW129489   2.224   1.357   3.967
 9530SOL    HW229490   2.366   1.352   3.888
 9531SOL     OW29491   2.906   6.869   4.197
 9531SOL    HW129492   2.858   6.782   4.186
 9531SOL    HW229493   2.951   6.871   4.287
 9532SOL     OW29494   3.126   1.484   2.079
 9532SOL    HW129495   3.121   1.573   2.033
 9532SOL    HW229496   3.034   1.448   2.091
 9533SOL     OW29497   0.950   1.628   4.792
 9533SOL    HW129498   1.023   1.633   4.861
 9533SOL    HW229499   0.868   1.673   4.827
 9534SOL     OW29500   5.618   1.902   4.842
 9534SOL    HW129501   5.666   1.815   4.830
 9534SOL    HW229502   5.678   1.967   4.888
 9535SOL     OW29503   3.294   1.655   4.458
 9535SOL    HW129504   3.269   1.700   4.372
 9535SOL    HW229505   3.222   1.590   4.484
 9536SOL     OW29506   2.368   6.863   6.147
 9536SOL    HW129507   2.285   6.813   6.170
 9536SOL    HW229508   2.445   6.828   6.201
 9537SOL     OW29509   2.209   0.282   0.321
 9537SOL    HW129510   2.220   0.188   0.289
 9537SOL    HW229511   2.259   0.295   0.406
 9538SOL     OW29512   5.782   3.564   2.870
 9538SOL    HW129513   5.727   3.484   2.892
 9538SOL    HW229514   5.878   3.546   2.893
 9539SOL     OW29515   6.930   3.726   6.751
 9539SOL    HW129516   6.960   3.699   6.843
 9539SOL    HW229517   6.832   3.745   6.752
 9540SOL     OW29518   5.571   3.556   5.484
 9540SOL    HW129519   5.595   3.546   5.580
 9540SOL    HW229520   5.548   3.467   5.445
 9541SOL     OW29521   6.734   2.003   3.372
 9541SOL    HW129522   6.664   1.999   3.301
 9541SOL    HW229523   6.753   1.911   3.405
 9542SOL     OW29524   4.594   4.423   4.481
 9542SOL    HW129525   4.571   4.386   4.571
 9542SOL    HW229526   4.616   4.520   4.489
 9543SOL     OW29527   4.358   2.834   0.970
 9543SOL    HW129528   4.353   2.836   0.870
 9543SOL    HW229529   4.433   2.891   1.001
 9544SOL     OW29530   4.483   1.077   1.083
 9544SOL    HW129531   4.442   1.096   0.993
 9544SOL    HW229532   4.461   1.152   1.145
 9545SOL     OW29533   1.314   6.742   4.954
 9545SOL    HW129534   1.240   6.704   5.010
 9545SOL    HW229535   1.306   6.707   4.860
 9546SOL     OW29536   2.472   4.228   1.866
 9546SOL    HW129537   2.518   4.313   1.841
 9546SOL    HW229538   2.432   4.237   1.958
 9547SOL     OW29539   5.579   5.453   3.650
 9547SOL    HW129540   5.501   5.502   3.609
 9547SOL    HW229541   5.656   5.516   3.660
 9548SOL     OW29542   5.842   6.921   2.445
 9548SOL    HW129543   5.846   6.958   2.352
 9548SOL    HW229544   5.763   6.960   2.493
 9549SOL     OW29545   2.287   6.041   0.311
 9549SOL    HW129546   2.192   6.008   0.309
 9549SOL    HW229547   2.340   5.984   0.374
 9550SOL     OW29548   1.441   1.216   0.155
 9550SOL    HW129549   1.473   1.138   0.208
 9550SOL    HW229550   1.519   1.277   0.135
 9551SOL     OW29551   1.463   5.614   4.997
 9551SOL    HW129552   1.397   5.552   4.953
 9551SOL    HW229553   1.527   5.649   4.929
 9552SOL     OW29554   0.189   4.948   3.122
 9552SOL    HW129555   0.129   4.869   3.127
 9552SOL    HW229556   0.189   4.996   3.210
 9553SOL     OW29557   5.676   4.970   6.462
 9553SOL    HW129558   5.607   4.900   6.440
 9553SOL    HW229559   5.745   4.930   6.523
 9554SOL     OW29560   1.879   1.925   1.569
 9554SOL    HW129561   1.948   1.869   1.525
 9554SOL    HW229562   1.874   1.902   1.666
 9555SOL     OW29563   6.835   2.568   6.196
 9555SOL    HW129564   6.929   2.579   6.228
 9555SOL    HW229565   6.772   2.582   6.272
 9556SOL     OW29566   6.713   1.032   1.277
 9556SOL    HW129567   6.660   1.057   1.196
 9556SOL    HW229568   6.810   1.046   1.260
 9557SOL     OW29569   4.627   1.252   2.065
 9557SOL    HW129570   4.531   1.271   2.047
 9557SOL    HW229571   4.648   1.273   2.161
 9558SOL     OW29572   6.536   3.385   1.459
 9558SOL    HW129573   6.457   3.445   1.442
 9558SOL    HW229574   6.614   3.416   1.404
 9559SOL     OW29575   0.671   4.050   2.619
 9559SOL    HW129576   0.758   4.035   2.666
 9559SOL    HW229577   0.660   4.147   2.599
 9560SOL     OW29578   3.945   2.401   5.699
 9560SOL    HW129579   4.000   2.318   5.708
 9560SOL    HW229580   3.970   2.449   5.615
 9561SOL     OW29581   3.316   5.619   6.200
 9561SOL    HW129582   3.313   5.705   6.251
 9561SOL    HW229583   3.367   5.551   6.253
 9562SOL     OW29584   5.853   5.108   4.184
 9562SOL    HW129585   5.855   5.188   4.124
 9562SOL    HW229586   5.790   5.040   4.147
 9563SOL     OW29587   0.288   6.350   6.891
 9563SOL    HW129588   0.242   6.419   6.835
 9563SOL    HW229589   0.333   6.283   6.831
 9564SOL     OW29590   1.440   0.723   5.878
 9564SOL    HW129591   1.463   0.818   5.854
 9564SOL    HW229592   1.484   0.661   5.814
 9565SOL     OW29593   3.294   5.596   5.292
 9565SOL    HW129594   3.199   5.609   5.263
 9565SOL    HW229595   3.299   5.595   5.392
 9566SOL     OW29596   3.054   4.295   5.733
 9566SOL    HW129597   2.986   4.301   5.806
 9566SOL    HW229598   3.087   4.387   5.711
 9567SOL     OW29599   6.096   5.088   4.856
 9567SOL    HW129600   6.123   5.114   4.949
 9567SOL    HW229601   6.065   5.169   4.807
 9568SOL     OW29602   5.820   3.759   5.757
 9568SOL    HW129603   5.846   3.692   5.686
 9568SOL    HW229604   5.903   3.802   5.793
 9569SOL     OW29605   6.150   0.127   1.628
 9569SOL    HW129606   6.077   0.194   1.643
 9569SOL    HW229607   6.110   0.039   1.604
 9570SOL     OW29608   1.138   1.812   6.566
 9570SOL    HW129609   1.174   1.904   6.548
 9570SOL    HW229610   1.083   1.815   6.649
 9571SOL     OW29611   3.163   2.007   0.776
 9571SOL    HW129612   3.209   1.927   0.737
 9571SOL    HW229613   3.149   1.993   0.874
 9572SOL     OW29614   0.402   3.868   0.765
 9572SOL    HW129615   0.356   3.945   0.720
 9572SOL    HW229616   0.490   3.899   0.802
 9573SOL     OW29617   4.947   1.181   2.993
 9573SOL    HW129618   4.853   1.192   2.960
 9573SOL    HW229619   5.009   1.236   2.937
 9574SOL     OW29620   2.842   2.325   3.653
 9574SOL    HW129621   2.822   2.326   3.752
 9574SOL    HW229622   2.778   2.386   3.606
 9575SOL     OW29623   3.879   1.561   3.152
 9575SOL    HW129624   3.855   1.548   3.248
 9575SOL    HW229625   3.812   1.619   3.108
 9576SOL     OW29626   3.591   3.442   5.669
 9576SOL    HW129627   3.548   3.453   5.759
 9576SOL    HW229628   3.640   3.526   5.645
 9577SOL     OW29629   0.823   5.510   3.749
 9577SOL    HW129630   0.782   5.547   3.666
 9577SOL    HW229631   0.913   5.472   3.727
 9578SOL     OW29632   6.987   3.983   0.926
 9578SOL    HW129633   0.016   4.008   0.845
 9578SOL    HW229634   6.923   3.909   0.904
 9579SOL     OW29635   1.707   4.910   2.917
 9579SOL    HW129636   1.651   4.855   2.979
 9579SOL    HW229637   1.776   4.853   2.874
 9580SOL     OW29638   4.103   3.672   5.875
 9580SOL    HW129639   4.137   3.741   5.810
 9580SOL    HW229640   4.047   3.605   5.826
 9581SOL     OW29641   1.124   5.776   5.859
 9581SOL    HW129642   1.108   5.682   5.829
 9581SOL    HW229643   1.218   5.786   5.890
 9582SOL     OW29644   4.249   5.494   2.880
 9582SOL    HW129645   4.273   5.585   2.846
 9582SOL    HW229646   4.184   5.503   2.956
 9583SOL     OW29647   1.547   5.066   1.410
 9583SOL    HW129648   1.636   5.102   1.381
 9583SOL    HW229649   1.528   4.981   1.362
 9584SOL     OW29650   4.661   4.498   0.115
 9584SOL    HW129651   4.687   4.404   0.093
 9584SOL    HW229652   4.671   4.555   0.034
 9585SOL     OW29653   6.297   0.782   3.024
 9585SOL    HW129654   6.360   0.824   3.089
 9585SOL    HW229655   6.271   0.691   3.055
 9586SOL     OW29656   5.299   3.904   2.477
 9586SOL    HW129657   5.219   3.878   2.422
 9586SOL    HW229658   5.275   3.980   2.537
 9587SOL     OW29659   4.262   6.406   1.559
 9587SOL    HW129660   4.220   6.397   1.468
 9587SOL    HW229661   4.353   6.445   1.550
 9588SOL     OW29662   6.226   0.974   3.603
 9588SOL    HW129663   6.279   0.923   3.535
 9588SOL    HW229664   6.288   1.008   3.673
 9589SOL     OW29665   3.492   2.006   4.720
 9589SOL    HW129666   3.409   1.998   4.665
 9589SOL    HW229667   3.467   2.030   4.814
 9590SOL     OW29668   0.324   4.803   4.396
 9590SOL    HW129669   0.372   4.717   4.378
 9590SOL    HW229670   0.330   4.862   4.316
 9591SOL     OW29671   0.698   4.425   2.151
 9591SOL    HW129672   0.632   4.372   2.205
 9591SOL    HW229673   0.683   4.408   2.054
 9592SOL     OW29674   4.094   5.802   0.364
 9592SOL    HW129675   4.019   5.861   0.392
 9592SOL    HW229676   4.072   5.707   0.386
 9593SOL     OW29677   2.223   1.791   3.653
 9593SOL    HW129678   2.225   1.848   3.571
 9593SOL    HW229679   2.293   1.720   3.646
 9594SOL     OW29680   5.908   0.081   1.168
 9594SOL    HW129681   5.840   0.064   1.097
 9594SOL    HW229682   5.868   0.138   1.239
 9595SOL     OW29683   1.398   5.522   5.271
 9595SOL    HW129684   1.392   5.513   5.172
 9595SOL    HW229685   1.347   5.603   5.301
 9596SOL     OW29686   5.133   6.191   2.030
 9596SOL    HW129687   5.210   6.224   2.084
 9596SOL    HW229688   5.136   6.232   1.939
 9597SOL     OW29689   2.640   5.008   1.494
 9597SOL    HW129690   2.608   4.935   1.433
 9597SOL    HW229691   2.566   5.033   1.557
 9598SOL     OW29692   6.982   6.137   6.087
 9598SOL    HW129693   6.898   6.084   6.073
 9598SOL    HW229694   6.966   6.206   6.158
 9599SOL     OW29695   3.878   2.147   5.097
 9599SOL    HW129696   3.922   2.072   5.146
 9599SOL    HW229697   3.850   2.218   5.162
 9600SOL     OW29698   1.631   6.505   6.790
 9600SOL    HW129699   1.585   6.594   6.795
 9600SOL    HW229700   1.728   6.516   6.810
 9601SOL     OW29701   0.769   6.836   4.959
 9601SOL    HW129702   0.764   6.932   4.989
 9601SOL    HW229703   0.844   6.826   4.894
 9602SOL     OW29704   1.056   5.293   6.264
 9602SOL    HW129705   1.015   5.300   6.356
 9602SOL    HW229706   1.153   5.316   6.268
 9603SOL     OW29707   0.841   5.285   2.339
 9603SOL    HW129708   0.916   5.248   2.284
 9603SOL    HW229709   0.852   5.256   2.434
 9604SOL     OW29710   0.418   0.308   6.571
 9604SOL    HW129711   0.327   0.308   6.613
 9604SOL    HW229712   0.443   0.402   6.548
 9605SOL     OW29713   3.385   4.866   1.412
 9605SOL    HW129714   3.444   4.844   1.490
 9605SOL    HW229715   3.306   4.805   1.412
 9606SOL     OW29716   6.955   0.231   5.253
 9606SOL    HW129717   6.955   0.180   5.339
 9606SOL    HW229718   0.026   0.257   5.230
 9607SOL     OW29719   0.198   2.228   2.887
 9607SOL    HW129720   0.116   2.176   2.906
 9607SOL    HW229721   0.278   2.168   2.889
 9608SOL     OW29722   6.042   0.992   1.821
 9608SOL    HW129723   6.062   0.902   1.781
 9608SOL    HW229724   5.947   0.996   1.849
 9609SOL     OW29725   1.358   2.313   3.651
 9609SOL    HW129726   1.406   2.349   3.571
 9609SOL    HW229727   1.381   2.216   3.663
 9610SOL     OW29728   4.622   0.938   5.178
 9610SOL    HW129729   4.702   0.960   5.123
 9610SOL    HW229730   4.590   1.021   5.225
 9611SOL     OW29731   4.686   5.451   1.049
 9611SOL    HW129732   4.592   5.483   1.040
 9611SOL    HW229733   4.732   5.456   0.960
 9612SOL     OW29734   5.723   2.936   3.798
 9612SOL    HW129735   5.630   2.956   3.767
 9612SOL    HW229736   5.742   2.988   3.882
 9613SOL     OW29737   5.521   0.620   4.837
 9613SOL    HW129738   5.552   0.526   4.818
 9613SOL    HW229739   5.438   0.639   4.785
 9614SOL     OW29740   2.805   2.463   0.664
 9614SOL    HW129741   2.784   2.365   0.666
 9614SOL    HW229742   2.787   2.499   0.572
 9615SOL     OW29743   0.491   5.288   3.772
 9615SOL    HW129744   0.537   5.200   3.780
 9615SOL    HW229745   0.525   5.349   3.844
 9616SOL     OW29746   1.071   2.395   0.987
 9616SOL    HW129747   1.122   2.420   1.070
 9616SOL    HW229748   1.115   2.317   0.943
 9617SOL     OW29749   0.595   2.326   3.089
 9617SOL    HW129750   0.641   2.415   3.092
 9617SOL    HW229751   0.514   2.328   3.148
 9618SOL     OW29752   4.842   4.108   1.881
 9618SOL    HW129753   4.846   4.088   1.783
 9618SOL    HW229754   4.858   4.205   1.896
 9619SOL     OW29755   0.426   6.998   1.039
 9619SOL    HW129756   0.384   6.943   0.966
 9619SOL    HW229757   0.500   0.030   1.000
 9620SOL     OW29758   4.440   1.297   7.007
 9620SOL    HW129759   4.346   1.281   0.011
 9620SOL    HW229760   4.501   1.282   0.062
 9621SOL     OW29761   0.205   1.134   1.284
 9621SOL    HW129762   0.196   1.205   1.353
 9621SOL    HW229763   0.301   1.105   1.279
 9622SOL     OW29764   6.474   6.347   5.442
 9622SOL    HW129765   6.500   6.348   5.539
 9622SOL    HW229766   6.407   6.419   5.425
 9623SOL     OW29767   2.969   6.052   5.932
 9623SOL    HW129768   3.004   6.043   6.025
 9623SOL    HW229769   2.870   6.034   5.932
 9624SOL     OW29770   4.585   5.761   5.639
 9624SOL    HW129771   4.662   5.816   5.670
 9624SOL    HW229772   4.618   5.682   5.588
 9625SOL     OW29773   4.952   4.481   6.278
 9625SOL    HW129774   5.024   4.422   6.240
 9625SOL    HW229775   4.947   4.468   6.377
 9626SOL     OW29776   2.533   2.689   6.573
 9626SOL    HW129777   2.621   2.726   6.543
 9626SOL    HW229778   2.543   2.591   6.589
 9627SOL     OW29779   7.005   5.885   0.591
 9627SOL    HW129780   0.050   5.924   0.528
 9627SOL    HW229781   0.019   5.801   0.631
 9628SOL     OW29782   5.901   1.024   5.998
 9628SOL    HW129783   5.922   0.956   5.929
 9628SOL    HW229784   5.918   1.116   5.962
 9629SOL     OW29785   1.142   5.601   3.872
 9629SOL    HW129786   1.210   5.563   3.934
 9629SOL    HW229787   1.127   5.539   3.796
 9630SOL     OW29788   5.432   0.599   6.460
 9630SOL    HW129789   5.412   0.637   6.370
 9630SOL    HW229790   5.390   0.508   6.468
 9631SOL     OW29791   4.611   6.243   0.713
 9631SOL    HW129792   4.595   6.197   0.626
 9631SOL    HW229793   4.672   6.321   0.698
 9632SOL     OW29794   2.621   5.121   3.500
 9632SOL    HW129795   2.558   5.194   3.475
 9632SOL    HW229796   2.677   5.097   3.420
 9633SOL     OW29797   3.464   2.847   5.227
 9633SOL    HW129798   3.452   2.940   5.261
 9633SOL    HW229799   3.450   2.782   5.302
 9634SOL     OW29800   5.801   4.531   2.702
 9634SOL    HW129801   5.867   4.589   2.655
 9634SOL    HW229802   5.709   4.551   2.669
 9635SOL     OW29803   0.644   4.717   4.266
 9635SOL    HW129804   0.736   4.700   4.301
 9635SOL    HW229805   0.579   4.658   4.312
 9636SOL     OW29806   5.496   3.243   4.094
 9636SOL    HW129807   5.523   3.156   4.135
 9636SOL    HW229808   5.579   3.292   4.066
 9637SOL     OW29809   1.769   3.516   6.991
 9637SOL    HW129810   1.744   3.534   0.063
 9637SOL    HW229811   1.686   3.516   6.934
 9638SOL     OW29812   6.542   4.522   5.488
 9638SOL    HW129813   6.482   4.522   5.568
 9638SOL    HW229814   6.500   4.574   5.413
 9639SOL     OW29815   4.973   2.596   1.211
 9639SOL    HW129816   4.891   2.645   1.181
 9639SOL    HW229817   4.981   2.604   1.311
 9640SOL     OW29818   3.383   7.011   3.585
 9640SOL    HW129819   3.401   0.064   3.648
 9640SOL    HW229820   3.337   0.023   3.503
 9641SOL     OW29821   0.524   3.211   4.391
 9641SOL    HW129822   0.480   3.181   4.475
 9641SOL    HW229823   0.498   3.305   4.370
 9642SOL     OW29824   0.819   2.921   4.933
 9642SOL    HW129825   0.871   2.841   4.901
 9642SOL    HW229826   0.860   3.004   4.895
 9643SOL     OW29827   5.373   4.960   4.331
 9643SOL    HW129828   5.309   4.968   4.407
 9643SOL    HW229829   5.444   4.893   4.354
 9644SOL     OW29830   1.038   4.885   3.770
 9644SOL    HW129831   1.004   4.978   3.757
 9644SOL    HW229832   1.137   4.887   3.781
 9645SOL     OW29833   1.339   5.151   6.639
 9645SOL    HW129834   1.277   5.176   6.713
 9645SOL    HW229835   1.433   5.153   6.672
 9646SOL     OW29836   2.954   5.149   0.827
 9646SOL    HW129837   2.906   5.140   0.914
 9646SOL    HW229838   3.049   5.175   0.843
 9647SOL     OW29839   6.019   6.890   3.154
 9647SOL    HW129840   6.000   6.950   3.231
 9647SOL    HW229841   6.088   6.932   3.095
 9648SOL     OW29842   3.294   2.055   1.311
 9648SOL    HW129843   3.346   2.086   1.231
 9648SOL    HW229844   3.301   2.124   1.383
 9649SOL     OW29845   6.783   6.268   1.195
 9649SOL    HW129846   6.812   6.357   1.230
 9649SOL    HW229847   6.831   6.248   1.110
 9650SOL     OW29848   0.785   4.975   4.955
 9650SOL    HW129849   0.713   4.909   4.977
 9650SOL    HW229850   0.874   4.929   4.958
 9651SOL     OW29851   3.993   1.892   0.037
 9651SOL    HW129852   4.042   1.954   0.099
 9651SOL    HW229853   3.934   1.946   7.000
 9652SOL     OW29854   0.038   3.539   0.411
 9652SOL    HW129855   0.033   3.636   0.389
 9652SOL    HW229856   7.007   3.487   0.346
 9653SOL     OW29857   5.216   4.648   5.208
 9653SOL    HW129858   5.240   4.603   5.294
 9653SOL    HW229859   5.117   4.644   5.195
 9654SOL     OW29860   3.895   4.014   3.833
 9654SOL    HW129861   3.994   4.025   3.826
 9654SOL    HW229862   3.868   4.012   3.929
 9655SOL     OW29863   4.819   0.826   1.317
 9655SOL    HW129864   4.799   0.861   1.409
 9655SOL    HW229865   4.734   0.800   1.272
 9656SOL     OW29866   4.838   4.425   6.506
 9656SOL    HW129867   4.756   4.469   6.469
 9656SOL    HW229868   4.846   4.447   6.604
 9657SOL     OW29869   5.075   4.813   2.950
 9657SOL    HW129870   5.052   4.716   2.940
 9657SOL    HW229871   4.996   4.862   2.986
 9658SOL     OW29872   5.579   1.062   2.645
 9658SOL    HW129873   5.603   1.118   2.566
 9658SOL    HW229874   5.662   1.029   2.690
 9659SOL     OW29875   3.294   3.210   0.144
 9659SOL    HW129876   3.301   3.116   0.110
 9659SOL    HW229877   3.384   3.242   0.171
 9660SOL     OW29878   1.836   6.867   1.194
 9660SOL    HW129879   1.931   6.842   1.211
 9660SOL    HW229880   1.776   6.809   1.249
 9661SOL     OW29881   4.122   3.674   2.077
 9661SOL    HW129882   4.153   3.667   1.982
 9661SOL    HW229883   4.092   3.767   2.095
 9662SOL     OW29884   4.810   6.992   5.717
 9662SOL    HW129885   4.763   0.052   5.746
 9662SOL    HW229886   4.895   6.982   5.769
 9663SOL     OW29887   0.834   5.913   2.763
 9663SOL    HW129888   0.802   5.860   2.685
 9663SOL    HW229889   0.826   5.859   2.846
 9664SOL     OW29890   2.705   4.655   2.601
 9664SOL    HW129891   2.654   4.702   2.673
 9664SOL    HW229892   2.717   4.718   2.523
 9665SOL     OW29893   6.287   4.633   6.364
 9665SOL    HW129894   6.212   4.635   6.430
 9665SOL    HW229895   6.274   4.705   6.297
 9666SOL     OW29896   5.068   3.974   0.819
 9666SOL    HW129897   5.096   4.044   0.885
 9666SOL    HW229898   5.139   3.904   0.811
 9667SOL     OW29899   5.486   6.404   6.871
 9667SOL    HW129900   5.566   6.359   6.913
 9667SOL    HW229901   5.499   6.409   6.772
 9668SOL     OW29902   1.593   1.186   6.748
 9668SOL    HW129903   1.524   1.231   6.805
 9668SOL    HW229904   1.617   1.245   6.671
 9669SOL     OW29905   3.394   0.518   6.987
 9669SOL    HW129906   3.440   0.518   0.052
 9669SOL    HW229907   3.359   0.426   6.967
 9670SOL     OW29908   0.312   1.467   1.305
 9670SOL    HW129909   0.355   1.413   1.378
 9670SOL    HW229910   0.348   1.438   1.217
 9671SOL     OW29911   0.872   5.454   6.605
 9671SOL    HW129912   0.846   5.514   6.529
 9671SOL    HW229913   0.957   5.407   6.582
 9672SOL     OW29914   0.806   3.215   3.924
 9672SOL    HW129915   0.824   3.307   3.958
 9672SOL    HW229916   0.720   3.181   3.962
 9673SOL     OW29917   2.423   2.923   6.660
 9673SOL    HW129918   2.464   2.834   6.639
 9673SOL    HW229919   2.398   2.969   6.575
 9674SOL     OW29920   1.998   0.180   4.275
 9674SOL    HW129921   1.916   0.150   4.227
 9674SOL    HW229922   2.067   0.108   4.272
 9675SOL     OW29923   6.338   4.485   5.749
 9675SOL    HW129924   6.366   4.579   5.729
 9675SOL    HW229925   6.357   4.464   5.844
 9676SOL     OW29926   0.872   3.433   5.530
 9676SOL    HW129927   0.860   3.444   5.432
 9676SOL    HW229928   0.902   3.520   5.570
 9677SOL     OW29929   0.193   5.022   2.566
 9677SOL    HW129930   0.117   5.060   2.512
 9677SOL    HW229931   0.259   4.980   2.504
 9678SOL     OW29932   3.768   3.079   5.435
 9678SOL    HW129933   3.746   3.062   5.339
 9678SOL    HW229934   3.796   2.993   5.479
 9679SOL     OW29935   1.574   0.710   3.649
 9679SOL    HW129936   1.539   0.786   3.595
 9679SOL    HW229937   1.589   0.631   3.590
 9680SOL     OW29938   4.679   0.527   2.428
 9680SOL    HW129939   4.768   0.559   2.462
 9680SOL    HW229940   4.614   0.603   2.428
 9681SOL     OW29941   1.118   3.331   1.158
 9681SOL    HW129942   1.022   3.329   1.185
 9681SOL    HW229943   1.175   3.308   1.237
 9682SOL     OW29944   4.652   6.884   5.514
 9682SOL    HW129945   4.733   6.890   5.572
 9682SOL    HW229946   4.655   6.956   5.444
 9683SOL     OW29947   3.557   5.805   4.663
 9683SOL    HW129948   3.572   5.888   4.610
 9683SOL    HW229949   3.644   5.772   4.699
 9684SOL     OW29950   6.898   3.010   5.861
 9684SOL    HW129951   6.851   3.024   5.949
 9684SOL    HW229952   6.861   3.073   5.793
 9685SOL     OW29953   3.581   4.254   1.787
 9685SOL    HW129954   3.569   4.345   1.826
 9685SOL    HW229955   3.501   4.198   1.808
 9686SOL     OW29956   0.232   1.661   5.367
 9686SOL    HW129957   0.303   1.726   5.339
 9686SOL    HW229958   0.144   1.689   5.328
 9687SOL     OW29959   5.669   1.602   3.664
 9687SOL    HW129960   5.722   1.662   3.604
 9687SOL    HW229961   5.618   1.535   3.609
 9688SOL     OW29962   0.089   5.419   1.719
 9688SOL    HW129963   0.162   5.434   1.652
 9688SOL    HW229964   0.130   5.410   1.810
 9689SOL     OW29965   1.704   5.496   1.585
 9689SOL    HW129966   1.644   5.468   1.510
 9689SOL    HW229967   1.749   5.415   1.622
 9690SOL     OW29968   0.054   4.692   4.766
 9690SOL    HW129969   0.115   4.763   4.732
 9690SOL    HW229970   6.989   4.732   4.790
 9691SOL     OW29971   4.139   3.209   2.289
 9691SOL    HW129972   4.098   3.229   2.200
 9691SOL    HW229973   4.189   3.122   2.283
 9692SOL     OW29974   4.917   4.550   0.535
 9692SOL    HW129975   5.016   4.546   0.552
 9692SOL    HW229976   4.896   4.630   0.479
 9693SOL     OW29977   4.657   3.554   6.712
 9693SOL    HW129978   4.582   3.491   6.692
 9693SOL    HW229979   4.680   3.606   6.629
 9694SOL     OW29980   2.342   6.516   0.997
 9694SOL    HW129981   2.336   6.425   0.956
 9694SOL    HW229982   2.437   6.537   1.021
 9695SOL     OW29983   1.466   2.742   4.039
 9695SOL    HW129984   1.459   2.786   4.128
 9695SOL    HW229985   1.517   2.800   3.976
 9696SOL     OW29986   4.819   2.774   3.348
 9696SOL    HW129987   4.880   2.695   3.354
 9696SOL    HW229988   4.782   2.794   3.438
 9697SOL     OW29989   0.173   0.363   1.642
 9697SOL    HW129990   0.191   0.297   1.715
 9697SOL    HW229991   0.215   0.331   1.557
 9698SOL     OW29992   6.961   3.172   1.817
 9698SOL    HW129993   6.982   3.211   1.907
 9698SOL    HW229994   6.895   3.230   1.770
 9699SOL     OW29995   0.876   6.504   1.667
 9699SOL    HW129996   0.974   6.522   1.666
 9699SOL    HW229997   0.859   6.413   1.706
 9700SOL     OW29998   5.832   0.738   6.449
 9700SOL    HW129999   5.921   0.694   6.438
 9700SOL    HW230000   5.815   0.799   6.371
 9701SOL     OW30001   5.462   4.305   0.106
 9701SOL    HW130002   5.495   4.326   0.198
 9701SOL    HW230003   5.362   4.295   0.107
 9702SOL     OW30004   3.348   3.862   1.849
 9702SOL    HW130005   3.335   3.763   1.850
 9702SOL    HW230006   3.354   3.896   1.943
 9703SOL     OW30007   6.348   4.984   3.117
 9703SOL    HW130008   6.402   4.902   3.100
 9703SOL    HW230009   6.276   4.964   3.183
 9704SOL     OW30010   0.733   4.786   2.154
 9704SOL    HW130011   0.705   4.858   2.091
 9704SOL    HW230012   0.766   4.707   2.101
 9705SOL     OW30013   0.269   3.959   6.200
 9705SOL    HW130014   0.343   3.908   6.244
 9705SOL    HW230015   0.220   4.013   6.269
 9706SOL     OW30016   0.868   0.426   1.880
 9706SOL    HW130017   0.890   0.338   1.838
 9706SOL    HW230018   0.921   0.498   1.835
 9707SOL     OW30019   1.317   5.007   2.359
 9707SOL    HW130020   1.265   4.980   2.441
 9707SOL    HW230021   1.285   4.954   2.281
 9708SOL     OW30022   3.040   1.278   1.881
 9708SOL    HW130023   2.986   1.362   1.890
 9708SOL    HW230024   3.005   1.209   1.945
 9709SOL     OW30025   5.080   1.747   2.143
 9709SOL    HW130026   5.031   1.661   2.144
 9709SOL    HW230027   5.035   1.812   2.082
 9710SOL     OW30028   4.824   5.020   4.410
 9710SOL    HW130029   4.752   5.077   4.449
 9710SOL    HW230030   4.892   4.999   4.480
 9711SOL     OW30031   2.707   0.649   6.698
 9711SOL    HW130032   2.656   0.733   6.680
 9711SOL    HW230033   2.800   0.673   6.728
 9712SOL     OW30034   5.499   0.104   5.457
 9712SOL    HW130035   5.482   0.045   5.379
 9712SOL    HW230036   5.414   0.145   5.488
 9713SOL     OW30037   1.977   0.468   2.723
 9713SOL    HW130038   1.926   0.504   2.644
 9713SOL    HW230039   1.976   0.535   2.797
 9714SOL     OW30040   2.221   3.001   4.106
 9714SOL    HW130041   2.230   2.983   4.008
 9714SOL    HW230042   2.209   3.099   4.121
 9715SOL     OW30043   6.973   2.402   6.594
 9715SOL    HW130044   0.001   2.411   6.508
 9715SOL    HW230045   7.005   2.322   6.644
 9716SOL     OW30046   2.221   6.776   0.656
 9716SOL    HW130047   2.309   6.729   0.656
 9716SOL    HW230048   2.170   6.750   0.739
 9717SOL     OW30049   3.544   2.470   5.914
 9717SOL    HW130050   3.576   2.409   5.986
 9717SOL    HW230051   3.475   2.423   5.859
 9718SOL     OW30052   3.563   2.750   0.324
 9718SOL    HW130053   3.561   2.702   0.412
 9718SOL    HW230054   3.573   2.848   0.340
 9719SOL     OW30055   4.477   0.600   6.005
 9719SOL    HW130056   4.390   0.551   6.002
 9719SOL    HW230057   4.499   0.634   5.913
 9720SOL     OW30058   2.117   2.445   2.745
 9720SOL    HW130059   2.044   2.435   2.678
 9720SOL    HW230060   2.205   2.446   2.698
 9721SOL     OW30061   0.804   1.771   1.131
 9721SOL    HW130062   0.852   1.824   1.061
 9721SOL    HW230063   0.706   1.780   1.118
 9722SOL     OW30064   4.014   2.754   5.305
 9722SOL    HW130065   4.050   2.680   5.249
 9722SOL    HW230066   3.914   2.748   5.308
 9723SOL     OW30067   5.849   0.639   4.768
 9723SOL    HW130068   5.834   0.621   4.865
 9723SOL    HW230069   5.933   0.691   4.756
 9724SOL     OW30070   1.492   4.778   1.526
 9724SOL    HW130071   1.447   4.751   1.610
 9724SOL    HW230072   1.590   4.760   1.533
 9725SOL     OW30073   5.245   5.395   3.953
 9725SOL    HW130074   5.194   5.315   3.985
 9725SOL    HW230075   5.342   5.372   3.946
 9726SOL     OW30076   6.903   0.256   3.477
 9726SOL    HW130077   6.835   0.329   3.486
 9726SOL    HW230078   6.871   0.174   3.524
 9727SOL     OW30079   5.965   2.592   1.490
 9727SOL    HW130080   6.055   2.549   1.488
 9727SOL    HW230081   5.909   2.550   1.561
 9728SOL     OW30082   5.014   2.115   4.795
 9728SOL    HW130083   4.920   2.088   4.778
 9728SOL    HW230084   5.075   2.066   4.733
 9729SOL     OW30085   0.516   3.861   2.914
 9729SOL    HW130086   0.549   3.769   2.897
 9729SOL    HW230087   0.591   3.919   2.944
 9730SOL     OW30088   1.363   5.351   3.583
 9730SOL    HW130089   1.346   5.289   3.507
 9730SOL    HW230090   1.444   5.407   3.563
 9731SOL     OW30091   6.598   2.258   1.715
 9731SOL    HW130092   6.514   2.204   1.721
 9731SOL    HW230093   6.581   2.340   1.661
 9732SOL     OW30094   1.450   3.286   2.546
 9732SOL    HW130095   1.452   3.194   2.507
 9732SOL    HW230096   1.400   3.285   2.632
 9733SOL     OW30097   6.396   5.266   1.747
 9733SOL    HW130098   6.435   5.179   1.777
 9733SOL    HW230099   6.312   5.285   1.798
 9734SOL     OW30100   3.931   4.658   6.862
 9734SOL    HW130101   3.968   4.739   6.907
 9734SOL    HW230102   3.991   4.580   6.881
 9735SOL     OW30103   0.615   1.362   0.009
 9735SOL    HW130104   0.686   1.362   6.961
 9735SOL    HW230105   0.609   1.271   0.050
 9736SOL     OW30106   5.227   2.132   4.952
 9736SOL    HW130107   5.203   2.167   5.042
 9736SOL    HW230108   5.145   2.129   4.894
 9737SOL     OW30109   5.447   3.168   4.917
 9737SOL    HW130110   5.366   3.226   4.920
 9737SOL    HW230111   5.472   3.149   4.822
 9738SOL     OW30112   2.428   6.315   1.634
 9738SOL    HW130113   2.342   6.266   1.625
 9738SOL    HW230114   2.414   6.398   1.688
 9739SOL     OW30115   5.645   6.807   0.557
 9739SOL    HW130116   5.671   6.728   0.612
 9739SOL    HW230117   5.668   6.790   0.461
 9740SOL     OW30118   6.493   0.732   1.569
 9740SOL    HW130119   6.589   0.747   1.546
 9740SOL    HW230120   6.486   0.701   1.664
 9741SOL     OW30121   2.306   2.188   3.277
 9741SOL    HW130122   2.364   2.258   3.319
 9741SOL    HW230123   2.250   2.230   3.205
 9742SOL     OW30124   4.139   1.978   6.455
 9742SOL    HW130125   4.057   2.033   6.435
 9742SOL    HW230126   4.154   1.978   6.554
 9743SOL     OW30127   6.615   3.328   4.262
 9743SOL    HW130128   6.613   3.272   4.179
 9743SOL    HW230129   6.526   3.371   4.275
 9744SOL     OW30130   1.494   1.569   2.536
 9744SOL    HW130131   1.544   1.649   2.503
 9744SOL    HW230132   1.496   1.568   2.636
 9745SOL     OW30133   0.726   6.591   5.941
 9745SOL    HW130134   0.824   6.608   5.925
 9745SOL    HW230135   0.686   6.671   5.987
 9746SOL     OW30136   3.036   6.457   5.932
 9746SOL    HW130137   2.986   6.407   5.861
 9746SOL    HW230138   2.985   6.540   5.957
 9747SOL     OW30139   3.605   1.475   3.694
 9747SOL    HW130140   3.692   1.452   3.650
 9747SOL    HW230141   3.585   1.571   3.678
 9748SOL     OW30142   0.505   1.903   2.426
 9748SOL    HW130143   0.496   1.921   2.328
 9748SOL    HW230144   0.432   1.950   2.476
 9749SOL     OW30145   6.426   0.428   1.330
 9749SOL    HW130146   6.390   0.387   1.414
 9749SOL    HW230147   6.479   0.510   1.353
 9750SOL     OW30148   5.248   2.445   5.258
 9750SOL    HW130149   5.252   2.469   5.355
 9750SOL    HW230150   5.262   2.347   5.247
 9751SOL     OW30151   2.920   6.234   1.079
 9751SOL    HW130152   2.941   6.141   1.110
 9751SOL    HW230153   2.893   6.290   1.157
 9752SOL     OW30154   3.455   3.085   0.650
 9752SOL    HW130155   3.450   3.182   0.677
 9752SOL    HW230156   3.376   3.063   0.593
 9753SOL     OW30157   6.404   5.927   3.568
 9753SOL    HW130158   6.424   5.833   3.595
 9753SOL    HW230159   6.332   5.964   3.627
 9754SOL     OW30160   3.187   0.966   2.117
 9754SOL    HW130161   3.160   1.017   2.199
 9754SOL    HW230162   3.230   0.880   2.144
 9755SOL     OW30163   3.475   3.557   0.185
 9755SOL    HW130164   3.376   3.559   0.171
 9755SOL    HW230165   3.507   3.463   0.188
 9756SOL     OW30166   5.798   0.039   6.709
 9756SOL    HW130167   5.805   0.039   6.809
 9756SOL    HW230168   5.709   0.004   6.682
 9757SOL     OW30169   5.431   3.949   4.297
 9757SOL    HW130170   5.468   3.936   4.205
 9757SOL    HW230171   5.332   3.932   4.295
 9758SOL     OW30172   2.753   0.421   2.230
 9758SOL    HW130173   2.778   0.344   2.172
 9758SOL    HW230174   2.725   0.498   2.173
 9759SOL     OW30175   6.612   2.262   1.318
 9759SOL    HW130176   6.562   2.178   1.336
 9759SOL    HW230177   6.671   2.250   1.238
 9760SOL     OW30178   4.642   0.517   6.213
 9760SOL    HW130179   4.647   0.588   6.283
 9760SOL    HW230180   4.569   0.540   6.148
 9761SOL     OW30181   0.833   2.072   1.329
 9761SOL    HW130182   0.759   2.079   1.396
 9761SOL    HW230183   0.872   2.163   1.314
 9762SOL     OW30184   3.492   1.256   6.302
 9762SOL    HW130185   3.468   1.195   6.377
 9762SOL    HW230186   3.577   1.226   6.259
 9763SOL     OW30187   6.464   2.577   0.986
 9763SOL    HW130188   6.367   2.597   1.002
 9763SOL    HW230189   6.485   2.484   1.016
 9764SOL     OW30190   0.803   2.764   2.999
 9764SOL    HW130191   0.788   2.736   2.904
 9764SOL    HW230192   0.771   2.858   3.011
 9765SOL     OW30193   6.736   1.938   1.618
 9765SOL    HW130194   6.733   1.874   1.541
 9765SOL    HW230195   6.751   2.031   1.583
 9766SOL     OW30196   0.454   3.062   2.797
 9766SOL    HW130197   0.448   3.009   2.712
 9766SOL    HW230198   0.375   3.041   2.855
 9767SOL     OW30199   3.463   1.746   5.354
 9767SOL    HW130200   3.367   1.724   5.333
 9767SOL    HW230201   3.472   1.765   5.451
 9768SOL     OW30202   4.692   2.142   6.986
 9768SOL    HW130203   4.664   2.214   0.027
 9768SOL    HW230204   4.671   2.171   6.892
 9769SOL     OW30205   3.683   1.542   5.627
 9769SOL    HW130206   3.619   1.472   5.659
 9769SOL    HW230207   3.633   1.611   5.575
 9770SOL     OW30208   1.729   3.360   5.331
 9770SOL    HW130209   1.639   3.404   5.323
 9770SOL    HW230210   1.771   3.355   5.240
 9771SOL     OW30211   3.166   1.007   1.848
 9771SOL    HW130212   3.125   1.093   1.819
 9771SOL    HW230213   3.151   0.994   1.946
 9772SOL     OW30214   0.687   0.891   1.278
 9772SOL    HW130215   0.651   0.805   1.314
 9772SOL    HW230216   0.773   0.913   1.324
 9773SOL     OW30217   5.579   6.338   2.245
 9773SOL    HW130218   5.656   6.274   2.250
 9773SOL    HW230219   5.613   6.429   2.222
 9774SOL     OW30220   1.968   5.269   4.679
 9774SOL    HW130221   1.892   5.207   4.700
 9774SOL    HW230222   1.943   5.326   4.601
 9775SOL     OW30223   1.468   1.038   2.777
 9775SOL    HW130224   1.450   1.106   2.705
 9775SOL    HW230225   1.450   1.079   2.866
 9776SOL     OW30226   2.189   5.394   1.500
 9776SOL    HW130227   2.106   5.372   1.448
 9776SOL    HW230228   2.266   5.404   1.438
 9777SOL     OW30229   4.159   2.225   5.283
 9777SOL    HW130230   4.081   2.164   5.271
 9777SOL    HW230231   4.244   2.171   5.288
 9778SOL     OW30232   1.563   4.002   2.978
 9778SOL    HW130233   1.652   3.960   2.961
 9778SOL    HW230234   1.569   4.100   2.961
 9779SOL     OW30235   3.115   0.412   3.559
 9779SOL    HW130236   3.095   0.458   3.646
 9779SOL    HW230237   3.068   0.323   3.558
 9780SOL     OW30238   0.788   1.425   0.645
 9780SOL    HW130239   0.730   1.350   0.679
 9780SOL    HW230240   0.781   1.503   0.707
 9781SOL     OW30241   1.332   1.383   2.067
 9781SOL    HW130242   1.303   1.417   1.977
 9781SOL    HW230243   1.329   1.284   2.067
 9782SOL     OW30244   0.353   2.542   0.293
 9782SOL    HW130245   0.357   2.562   0.391
 9782SOL    HW230246   0.361   2.627   0.241
 9783SOL     OW30247   4.335   0.969   2.716
 9783SOL    HW130248   4.344   1.037   2.644
 9783SOL    HW230249   4.296   0.885   2.677
 9784SOL     OW30250   1.538   1.541   6.807
 9784SOL    HW130251   1.609   1.556   6.876
 9784SOL    HW230252   1.472   1.474   6.841
 9785SOL     OW30253   0.818   3.502   4.979
 9785SOL    HW130254   0.762   3.584   4.995
 9785SOL    HW230255   0.914   3.527   4.977
 9786SOL     OW30256   2.230   4.555   6.784
 9786SOL    HW130257   2.295   4.480   6.773
 9786SOL    HW230258   2.152   4.524   6.838
 9787SOL     OW30259   2.932   3.614   1.931
 9787SOL    HW130260   2.976   3.694   1.972
 9787SOL    HW230261   2.920   3.544   2.001
 9788SOL     OW30262   3.231   0.040   2.859
 9788SOL    HW130263   3.132   0.048   2.842
 9788SOL    HW230264   3.279   0.036   2.772
 9789SOL     OW30265   4.155   1.314   6.995
 9789SOL    HW130266   4.058   1.307   6.974
 9789SOL    HW230267   4.168   1.363   0.058
 9790SOL     OW30268   4.336   5.162   4.979
 9790SOL    HW130269   4.301   5.130   4.891
 9790SOL    HW230270   4.269   5.221   5.023
 9791SOL     OW30271   0.107   0.369   1.207
 9791SOL    HW130272   0.194   0.320   1.201
 9791SOL    HW230273   0.109   0.431   1.286
 9792SOL     OW30274   3.686   4.448   0.611
 9792SOL    HW130275   3.653   4.492   0.527
 9792SOL    HW230276   3.653   4.498   0.691
 9793SOL     OW30277   5.983   0.599   2.871
 9793SOL    HW130278   5.909   0.617   2.936
 9793SOL    HW230279   6.039   0.523   2.904
 9794SOL     OW30280   3.629   5.359   4.322
 9794SOL    HW130281   3.606   5.320   4.233
 9794SOL    HW230282   3.667   5.451   4.309
 9795SOL     OW30283   1.384   3.489   3.543
 9795SOL    HW130284   1.384   3.566   3.479
 9795SOL    HW230285   1.357   3.522   3.634
 9796SOL     OW30286   3.219   3.615   4.224
 9796SOL    HW130287   3.130   3.660   4.239
 9796SOL    HW230288   3.218   3.566   4.138
 9797SOL     OW30289   3.292   5.440   6.905
 9797SOL    HW130290   3.380   5.405   6.872
 9797SOL    HW230291   3.222   5.369   6.896
 9798SOL     OW30292   6.903   4.023   6.893
 9798SOL    HW130293   6.924   4.051   6.987
 9798SOL    HW230294   6.938   3.931   6.877
 9799SOL     OW30295   3.639   6.797   6.793
 9799SOL    HW130296   3.672   6.814   6.886
 9799SOL    HW230297   3.542   6.771   6.797
 9800SOL     OW30298   6.598   4.491   4.505
 9800SOL    HW130299   6.513   4.443   4.526
 9800SOL    HW230300   6.671   4.425   4.491
 9801SOL     OW30301   4.439   6.712   1.241
 9801SOL    HW130302   4.382   6.747   1.166
 9801SOL    HW230303   4.386   6.713   1.325
 9802SOL     OW30304   3.590   3.789   0.190
 9802SOL    HW130305   3.568   3.693   0.174
 9802SOL    HW230306   3.565   3.814   0.283
 9803SOL     OW30307   1.466   3.748   6.209
 9803SOL    HW130308   1.377   3.729   6.166
 9803SOL    HW230309   1.533   3.682   6.175
 9804SOL     OW30310   0.837   4.372   3.334
 9804SOL    HW130311   0.749   4.363   3.286
 9804SOL    HW230312   0.878   4.282   3.347
 9805SOL     OW30313   0.196   5.539   4.389
 9805SOL    HW130314   0.288   5.572   4.412
 9805SOL    HW230315   0.168   5.580   4.302
 9806SOL     OW30316   3.750   1.676   0.216
 9806SOL    HW130317   3.846   1.692   0.238
 9806SOL    HW230318   3.738   1.669   0.117
 9807SOL     OW30319   4.021   3.346   3.405
 9807SOL    HW130320   4.036   3.362   3.502
 9807SOL    HW230321   3.951   3.276   3.392
 9808SOL     OW30322   2.909   5.680   2.061
 9808SOL    HW130323   2.912   5.597   2.006
 9808SOL    HW230324   2.828   5.680   2.118
 9809SOL     OW30325   6.055   2.430   0.778
 9809SOL    HW130326   5.971   2.484   0.788
 9809SOL    HW230327   6.066   2.371   0.858
 9810SOL     OW30328   2.512   3.011   1.186
 9810SOL    HW130329   2.523   3.109   1.166
 9810SOL    HW230330   2.507   2.961   1.100
 9811SOL     OW30331   5.734   3.383   4.098
 9811SOL    HW130332   5.783   3.454   4.047
 9811SOL    HW230333   5.765   3.382   4.193
 9812SOL     OW30334   3.418   5.680   5.954
 9812SOL    HW130335   3.365   5.698   6.036
 9812SOL    HW230336   3.370   5.613   5.897
 9813SOL     OW30337   3.965   0.683   2.142
 9813SOL    HW130338   4.000   0.627   2.217
 9813SOL    HW230339   3.937   0.772   2.178
 9814SOL     OW30340   0.370   2.021   5.985
 9814SOL    HW130341   0.292   2.061   5.937
 9814SOL    HW230342   0.414   1.954   5.926
 9815SOL     OW30343   4.117   2.255   4.472
 9815SOL    HW130344   4.199   2.281   4.420
 9815SOL    HW230345   4.143   2.198   4.550
 9816SOL     OW30346   2.812   1.396   0.390
 9816SOL    HW130347   2.819   1.296   0.395
 9816SOL    HW230348   2.728   1.426   0.434
 9817SOL     OW30349   6.345   0.630   1.852
 9817SOL    HW130350   6.435   0.665   1.881
 9817SOL    HW230351   6.345   0.530   1.857
 9818SOL     OW30352   4.053   3.168   5.165
 9818SOL    HW130353   3.985   3.170   5.092
 9818SOL    HW230354   4.092   3.076   5.171
 9819SOL     OW30355   3.281   0.375   1.757
 9819SOL    HW130356   3.238   0.464   1.742
 9819SOL    HW230357   3.270   0.318   1.675
 9820SOL     OW30358   3.856   2.581   0.468
 9820SOL    HW130359   3.928   2.554   0.532
 9820SOL    HW230360   3.886   2.661   0.416
 9821SOL     OW30361   0.092   5.288   6.998
 9821SOL    HW130362   0.119   5.312   0.068
 9821SOL    HW230363   0.162   5.319   6.934
 9822SOL     OW30364   0.341   0.234   2.736
 9822SOL    HW130365   0.413   0.290   2.694
 9822SOL    HW230366   0.344   0.244   2.835
 9823SOL     OW30367   3.491   6.459   1.583
 9823SOL    HW130368   3.417   6.475   1.649
 9823SOL    HW230369   3.565   6.409   1.628
 9824SOL     OW30370   1.779   4.097   6.207
 9824SOL    HW130371   1.847   4.151   6.157
 9824SOL    HW230372   1.711   4.158   6.248
 9825SOL     OW30373   4.157   4.905   5.367
 9825SOL    HW130374   4.132   4.820   5.322
 9825SOL    HW230375   4.144   4.896   5.466
 9826SOL     OW30376   5.610   6.691   5.539
 9826SOL    HW130377   5.590   6.687   5.637
 9826SOL    HW230378   5.683   6.758   5.524
 9827SOL     OW30379   0.694   4.341   4.460
 9827SOL    HW130380   0.633   4.405   4.413
 9827SOL    HW230381   0.778   4.330   4.408
 9828SOL     OW30382   2.842   2.679   6.715
 9828SOL    HW130383   2.759   2.683   6.771
 9828SOL    HW230384   2.909   2.620   6.759
 9829SOL     OW30385   2.616   4.510   1.227
 9829SOL    HW130386   2.708   4.532   1.195
 9829SOL    HW230387   2.587   4.578   1.294
 9830SOL     OW30388   6.943   1.491   0.452
 9830SOL    HW130389   6.958   1.558   0.380
 9830SOL    HW230390   0.007   1.469   0.496
 9831SOL     OW30391   5.582   6.659   1.450
 9831SOL    HW130392   5.623   6.704   1.370
 9831SOL    HW230393   5.643   6.587   1.483
 9832SOL     OW30394   3.705   4.992   1.278
 9832SOL    HW130395   3.689   4.912   1.336
 9832SOL    HW230396   3.724   5.071   1.335
 9833SOL     OW30397   4.639   3.950   5.886
 9833SOL    HW130398   4.699   3.928   5.963
 9833SOL    HW230399   4.567   3.881   5.879
 9834SOL     OW30400   2.290   2.501   3.924
 9834SOL    HW130401   2.350   2.550   3.986
 9834SOL    HW230402   2.278   2.407   3.955
 9835SOL     OW30403   4.980   1.779   4.538
 9835SOL    HW130404   4.950   1.711   4.471
 9835SOL    HW230405   4.948   1.752   4.629
 9836SOL     OW30406   5.214   5.318   2.125
 9836SOL    HW130407   5.208   5.290   2.221
 9836SOL    HW230408   5.212   5.237   2.067
 9837SOL     OW30409   1.438   6.419   5.259
 9837SOL    HW130410   1.464   6.335   5.306
 9837SOL    HW230411   1.422   6.492   5.326
 9838SOL     OW30412   6.822   5.405   4.909
 9838SOL    HW130413   6.747   5.457   4.950
 9838SOL    HW230414   6.850   5.450   4.823
 9839SOL     OW30415   6.556   2.406   2.632
 9839SOL    HW130416   6.615   2.368   2.560
 9839SOL    HW230417   6.490   2.338   2.661
 9840SOL     OW30418   5.987   0.572   1.059
 9840SOL    HW130419   6.081   0.554   1.033
 9840SOL    HW230420   5.982   0.659   1.109
 9841SOL     OW30421   2.122   3.406   3.885
 9841SOL    HW130422   2.081   3.498   3.888
 9841SOL    HW230423   2.134   3.372   3.978
 9842SOL     OW30424   2.880   3.411   3.448
 9842SOL    HW130425   2.869   3.502   3.408
 9842SOL    HW230426   2.892   3.343   3.376
 9843SOL     OW30427   5.798   3.806   2.997
 9843SOL    HW130428   5.835   3.884   2.945
 9843SOL    HW230429   5.767   3.736   2.933
 9844SOL     OW30430   5.334   0.132   2.579
 9844SOL    HW130431   5.367   0.221   2.612
 9844SOL    HW230432   5.359   0.061   2.645
 9845SOL     OW30433   1.448   1.792   3.546
 9845SOL    HW130434   1.451   1.874   3.603
 9845SOL    HW230435   1.354   1.776   3.516
 9846SOL     OW30436   2.970   3.228   3.277
 9846SOL    HW130437   3.051   3.270   3.237
 9846SOL    HW230438   2.981   3.128   3.279
 9847SOL     OW30439   2.017   4.516   4.552
 9847SOL    HW130440   1.977   4.551   4.637
 9847SOL    HW230441   1.980   4.425   4.533
 9848SOL     OW30442   5.235   3.481   0.638
 9848SOL    HW130443   5.236   3.449   0.543
 9848SOL    HW230444   5.220   3.403   0.700
 9849SOL     OW30445   0.166   0.068   5.712
 9849SOL    HW130446   0.134   7.022   5.776
 9849SOL    HW230447   0.258   0.044   5.679
 9850SOL     OW30448   4.383   0.252   2.707
 9850SOL    HW130449   4.475   0.281   2.680
 9850SOL    HW230450   4.316   0.317   2.670
 9851SOL     OW30451   5.462   2.843   4.910
 9851SOL    HW130452   5.473   2.938   4.942
 9851SOL    HW230453   5.551   2.797   4.912
 9852SOL     OW30454   4.707   1.694   4.161
 9852SOL    HW130455   4.673   1.786   4.143
 9852SOL    HW230456   4.657   1.654   4.238
 9853SOL     OW30457   0.331   3.943   1.261
 9853SOL    HW130458   0.317   3.844   1.269
 9853SOL    HW230459   0.420   3.967   1.302
 9854SOL     OW30460   4.270   5.831   3.404
 9854SOL    HW130461   4.263   5.931   3.400
 9854SOL    HW230462   4.341   5.800   3.339
 9855SOL     OW30463   1.724   3.541   0.777
 9855SOL    HW130464   1.744   3.497   0.690
 9855SOL    HW230465   1.625   3.544   0.792
 9856SOL     OW30466   4.105   2.736   1.019
 9856SOL    HW130467   4.124   2.644   0.986
 9856SOL    HW230468   4.191   2.788   1.023
 9857SOL     OW30469   6.212   4.130   2.889
 9857SOL    HW130470   6.193   4.187   2.969
 9857SOL    HW230471   6.178   4.176   2.807
 9858SOL     OW30472   4.254   1.540   1.234
 9858SOL    HW130473   4.217   1.626   1.270
 9858SOL    HW230474   4.243   1.536   1.135
 9859SOL     OW30475   6.324   0.386   1.575
 9859SOL    HW130476   6.242   0.436   1.603
 9859SOL    HW230477   6.342   0.313   1.642
 9860SOL     OW30478   0.559   0.830   2.357
 9860SOL    HW130479   0.526   0.762   2.422
 9860SOL    HW230480   0.647   0.866   2.388
 9861SOL     OW30481   3.201   6.736   4.841
 9861SOL    HW130482   3.209   6.826   4.798
 9861SOL    HW230483   3.291   6.706   4.873
 9862SOL     OW30484   0.760   2.339   1.037
 9862SOL    HW130485   0.720   2.329   1.128
 9862SOL    HW230486   0.859   2.350   1.045
 9863SOL     OW30487   2.965   0.036   0.915
 9863SOL    HW130488   3.053   0.075   0.888
 9863SOL    HW230489   2.970   6.959   0.912
 9864SOL     OW30490   4.166   6.336   2.939
 9864SOL    HW130491   4.138   6.385   2.856
 9864SOL    HW230492   4.221   6.256   2.914
 9865SOL     OW30493   1.336   2.576   4.510
 9865SOL    HW130494   1.319   2.480   4.488
 9865SOL    HW230495   1.361   2.584   4.607
 9866SOL     OW30496   4.003   4.823   2.882
 9866SOL    HW130497   4.078   4.756   2.887
 9866SOL    HW230498   4.024   4.890   2.811
 9867SOL     OW30499   4.129   0.537   6.441
 9867SOL    HW130500   4.048   0.560   6.387
 9867SOL    HW230501   4.132   0.438   6.457
 9868SOL     OW30502   0.297   5.130   6.447
 9868SOL    HW130503   0.219   5.188   6.469
 9868SOL    HW230504   0.306   5.124   6.347
 9869SOL     OW30505   1.909   3.912   3.349
 9869SOL    HW130506   1.919   3.835   3.286
 9869SOL    HW230507   1.990   3.971   3.343
 9870SOL     OW30508   4.994   4.316   2.606
 9870SOL    HW130509   5.084   4.337   2.645
 9870SOL    HW230510   4.931   4.290   2.680
 9871SOL     OW30511   1.309   1.576   5.502
 9871SOL    HW130512   1.220   1.601   5.540
 9871SOL    HW230513   1.361   1.524   5.570
 9872SOL     OW30514   1.375   4.679   3.607
 9872SOL    HW130515   1.440   4.654   3.679
 9872SOL    HW230516   1.313   4.603   3.590
 9873SOL     OW30517   1.212   2.497   0.652
 9873SOL    HW130518   1.151   2.471   0.727
 9873SOL    HW230519   1.212   2.596   0.642
 9874SOL     OW30520   0.702   3.007   3.503
 9874SOL    HW130521   0.796   3.031   3.530
 9874SOL    HW230522   0.646   2.997   3.585
 9875SOL     OW30523   1.515   0.822   3.044
 9875SOL    HW130524   1.436   0.768   3.071
 9875SOL    HW230525   1.547   0.793   2.954
 9876SOL     OW30526   0.041   5.685   2.667
 9876SOL    HW130527   0.056   5.784   2.673
 9876SOL    HW230528   6.969   5.668   2.640
 9877SOL     OW30529   3.879   6.885   1.973
 9877SOL    HW130530   3.829   6.818   1.918
 9877SOL    HW230531   3.853   6.978   1.944
 9878SOL     OW30532   0.636   0.430   5.326
 9878SOL    HW130533   0.648   0.513   5.271
 9878SOL    HW230534   0.560   0.441   5.388
 9879SOL     OW30535   5.277   6.159   5.357
 9879SOL    HW130536   5.288   6.158   5.258
 9879SOL    HW230537   5.329   6.084   5.397
 9880SOL     OW30538   2.151   2.136   4.555
 9880SOL    HW130539   2.125   2.228   4.524
 9880SOL    HW230540   2.070   2.088   4.589
 9881SOL     OW30541   6.893   1.931   6.288
 9881SOL    HW130542   6.901   2.016   6.235
 9881SOL    HW230543   6.929   1.855   6.234
 9882SOL     OW30544   1.543   1.681   2.838
 9882SOL    HW130545   1.564   1.779   2.838
 9882SOL    HW230546   1.452   1.667   2.875
 9883SOL     OW30547   2.423   1.338   2.023
 9883SOL    HW130548   2.429   1.382   2.112
 9883SOL    HW230549   2.387   1.246   2.034
 9884SOL     OW30550   3.924   0.726   4.366
 9884SOL    HW130551   3.870   0.810   4.367
 9884SOL    HW230552   3.972   0.719   4.279
 9885SOL     OW30553   6.399   4.482   3.333
 9885SOL    HW130554   6.322   4.521   3.384
 9885SOL    HW230555   6.444   4.412   3.388
 9886SOL     OW30556   1.197   3.547   2.075
 9886SOL    HW130557   1.131   3.544   2.150
 9886SOL    HW230558   1.190   3.635   2.029
 9887SOL     OW30559   4.376   0.157   5.909
 9887SOL    HW130560   4.374   0.211   5.993
 9887SOL    HW230561   4.429   0.073   5.924
 9888SOL     OW30562   6.670   4.853   0.311
 9888SOL    HW130563   6.570   4.854   0.309
 9888SOL    HW230564   6.705   4.927   0.254
 9889SOL     OW30565   0.667   4.983   0.342
 9889SOL    HW130566   0.750   4.998   0.287
 9889SOL    HW230567   0.670   5.042   0.423
 9890SOL     OW30568   1.313   3.426   0.454
 9890SOL    HW130569   1.390   3.488   0.439
 9890SOL    HW230570   1.227   3.476   0.447
 9891SOL     OW30571   5.075   1.406   1.914
 9891SOL    HW130572   5.132   1.489   1.913
 9891SOL    HW230573   5.132   1.327   1.934
 9892SOL     OW30574   0.247   5.948   6.802
 9892SOL    HW130575   0.155   5.979   6.826
 9892SOL    HW230576   0.304   6.027   6.781
 9893SOL     OW30577   2.577   1.842   1.317
 9893SOL    HW130578   2.600   1.938   1.334
 9893SOL    HW230579   2.495   1.818   1.369
 9894SOL     OW30580   1.653   1.321   1.064
 9894SOL    HW130581   1.697   1.410   1.071
 9894SOL    HW230582   1.555   1.333   1.049
 9895SOL     OW30583   5.002   3.664   6.159
 9895SOL    HW130584   5.047   3.753   6.167
 9895SOL    HW230585   4.903   3.677   6.157
 9896SOL     OW30586   6.704   6.718   6.433
 9896SOL    HW130587   6.741   6.754   6.347
 9896SOL    HW230588   6.692   6.619   6.424
 9897SOL     OW30589   6.113   5.034   3.963
 9897SOL    HW130590   6.032   5.050   3.907
 9897SOL    HW230591   6.093   4.968   4.034
 9898SOL     OW30592   2.690   6.639   5.672
 9898SOL    HW130593   2.636   6.567   5.628
 9898SOL    HW230594   2.646   6.727   5.657
 9899SOL     OW30595   6.905   5.324   6.732
 9899SOL    HW130596   6.835   5.393   6.710
 9899SOL    HW230597   6.953   5.351   6.815
 9900SOL     OW30598   2.136   3.418   3.379
 9900SOL    HW130599   2.160   3.389   3.471
 9900SOL    HW230600   2.143   3.518   3.371
 9901SOL     OW30601   2.022   2.582   5.447
 9901SOL    HW130602   2.102   2.539   5.488
 9901SOL    HW230603   1.986   2.652   5.510
 9902SOL     OW30604   2.698   4.327   6.625
 9902SOL    HW130605   2.751   4.263   6.570
 9902SOL    HW230606   2.600   4.315   6.605
 9903SOL     OW30607   5.779   0.702   4.320
 9903SOL    HW130608   5.772   0.795   4.284
 9903SOL    HW230609   5.689   0.671   4.350
 9904SOL     OW30610   6.486   2.268   6.988
 9904SOL    HW130611   6.566   2.213   6.964
 9904SOL    HW230612   6.444   2.305   6.905
 9905SOL     OW30613   4.942   1.018   0.162
 9905SOL    HW130614   5.003   1.096   0.149
 9905SOL    HW230615   4.988   0.950   0.220
 9906SOL     OW30616   3.852   3.215   4.980
 9906SOL    HW130617   3.814   3.222   4.888
 9906SOL    HW230618   3.779   3.228   5.048
 9907SOL     OW30619   1.109   0.482   1.539
 9907SOL    HW130620   1.196   0.441   1.567
 9907SOL    HW230621   1.062   0.517   1.620
 9908SOL     OW30622   5.028   3.179   3.048
 9908SOL    HW130623   4.963   3.127   3.104
 9908SOL    HW230624   5.104   3.121   3.022
 9909SOL     OW30625   2.216   0.162   5.222
 9909SOL    HW130626   2.163   0.115   5.292
 9909SOL    HW230627   2.311   0.169   5.251
 9910SOL     OW30628   0.332   4.349   3.278
 9910SOL    HW130629   0.429   4.327   3.280
 9910SOL    HW230630   0.279   4.270   3.307
 9911SOL     OW30631   2.397   5.990   2.768
 9911SOL    HW130632   2.303   5.959   2.776
 9911SOL    HW230633   2.412   6.028   2.676
 9912SOL     OW30634   5.585   0.810   6.520
 9912SOL    HW130635   5.679   0.776   6.513
 9912SOL    HW230636   5.523   0.746   6.475
 9913SOL     OW30637   4.733   3.346   6.479
 9913SOL    HW130638   4.684   3.289   6.544
 9913SOL    HW230639   4.679   3.428   6.459
 9914SOL     OW30640   6.984   4.050   4.554
 9914SOL    HW130641   7.003   4.006   4.467
 9914SOL    HW230642   6.970   3.980   4.625
 9915SOL     OW30643   5.481   0.975   3.995
 9915SOL    HW130644   5.487   1.069   3.963
 9915SOL    HW230645   5.544   0.917   3.943
 9916SOL     OW30646   2.376   2.380   1.573
 9916SOL    HW130647   2.295   2.438   1.564
 9916SOL    HW230648   2.458   2.435   1.559
 9917SOL     OW30649   6.405   4.676   4.797
 9917SOL    HW130650   6.361   4.692   4.709
 9917SOL    HW230651   6.414   4.578   4.812
 9918SOL     OW30652   4.372   2.117   2.639
 9918SOL    HW130653   4.363   2.207   2.680
 9918SOL    HW230654   4.305   2.055   2.679
 9919SOL     OW30655   6.457   6.325   0.512
 9919SOL    HW130656   6.470   6.424   0.515
 9919SOL    HW230657   6.525   6.284   0.451
 9920SOL     OW30658   4.668   1.583   2.189
 9920SOL    HW130659   4.606   1.629   2.126
 9920SOL    HW230660   4.615   1.539   2.262
 9921SOL     OW30661   3.412   5.148   6.259
 9921SOL    HW130662   3.503   5.129   6.296
 9921SOL    HW230663   3.346   5.082   6.296
 9922SOL     OW30664   0.400   5.300   0.760
 9922SOL    HW130665   0.379   5.298   0.857
 9922SOL    HW230666   0.499   5.292   0.747
 9923SOL     OW30667   5.444   4.762   0.969
 9923SOL    HW130668   5.505   4.683   0.974
 9923SOL    HW230669   5.394   4.772   1.055
 9924SOL     OW30670   0.645   3.568   4.693
 9924SOL    HW130671   0.620   3.664   4.708
 9924SOL    HW230672   0.725   3.545   4.749
 9925SOL     OW30673   5.433   2.426   3.445
 9925SOL    HW130674   5.341   2.453   3.475
 9925SOL    HW230675   5.497   2.501   3.464
 9926SOL     OW30676   2.480   5.427   6.774
 9926SOL    HW130677   2.542   5.350   6.765
 9926SOL    HW230678   2.392   5.396   6.810
 9927SOL     OW30679   5.938   0.200   3.271
 9927SOL    HW130680   5.961   0.124   3.331
 9927SOL    HW230681   5.886   0.269   3.322
 9928SOL     OW30682   4.629   4.670   1.999
 9928SOL    HW130683   4.697   4.605   2.035
 9928SOL    HW230684   4.543   4.622   1.981
 9929SOL     OW30685   1.056   4.639   2.470
 9929SOL    HW130686   1.138   4.692   2.448
 9929SOL    HW230687   1.072   4.588   2.554
 9930SOL     OW30688   6.783   0.667   3.830
 9930SOL    HW130689   6.853   0.620   3.883
 9930SOL    HW230690   6.693   0.630   3.853
 9931SOL     OW30691   0.616   4.813   5.646
 9931SOL    HW130692   0.685   4.815   5.719
 9931SOL    HW230693   0.525   4.816   5.686
 9932SOL     OW30694   0.817   6.150   5.050
 9932SOL    HW130695   0.803   6.057   5.083
 9932SOL    HW230696   0.912   6.176   5.063
 9933SOL     OW30697   0.643   6.096   2.303
 9933SOL    HW130698   0.630   6.169   2.370
 9933SOL    HW230699   0.738   6.095   2.273
 9934SOL     OW30700   6.765   2.058   5.940
 9934SOL    HW130701   6.805   1.968   5.954
 9934SOL    HW230702   6.763   2.079   5.842
 9935SOL     OW30703   3.367   0.620   6.306
 9935SOL    HW130704   3.393   0.565   6.386
 9935SOL    HW230705   3.268   0.614   6.292
 9936SOL     OW30706   0.667   3.965   3.579
 9936SOL    HW130707   0.748   3.990   3.632
 9936SOL    HW230708   0.681   3.874   3.539
 9937SOL     OW30709   6.674   2.185   6.327
 9937SOL    HW130710   6.765   2.220   6.303
 9937SOL    HW230711   6.671   2.165   6.425
 9938SOL     OW30712   6.829   6.508   2.690
 9938SOL    HW130713   6.772   6.445   2.638
 9938SOL    HW230714   6.920   6.513   2.649
 9939SOL     OW30715   3.540   3.186   3.011
 9939SOL    HW130716   3.547   3.091   3.040
 9939SOL    HW230717   3.617   3.208   2.951
 9940SOL     OW30718   7.020   1.135   0.347
 9940SOL    HW130719   6.990   1.051   0.302
 9940SOL    HW230720   6.974   1.144   0.435
 9941SOL     OW30721   3.159   5.298   5.686
 9941SOL    HW130722   3.241   5.280   5.632
 9941SOL    HW230723   3.111   5.212   5.704
 9942SOL     OW30724   3.056   5.676   3.975
 9942SOL    HW130725   3.087   5.660   4.069
 9942SOL    HW230726   2.977   5.618   3.956
 9943SOL     OW30727   1.569   6.726   5.063
 9943SOL    HW130728   1.473   6.739   5.040
 9943SOL    HW230729   1.626   6.780   5.001
 9944SOL     OW30730   1.528   3.919   6.746
 9944SOL    HW130731   1.618   3.955   6.770
 9944SOL    HW230732   1.469   3.919   6.827
 9945SOL     OW30733   6.506   5.969   6.787
 9945SOL    HW130734   6.553   5.974   6.699
 9945SOL    HW230735   6.422   5.917   6.777
 9946SOL     OW30736   5.371   1.463   4.701
 9946SOL    HW130737   5.388   1.364   4.703
 9946SOL    HW230738   5.341   1.493   4.791
 9947SOL     OW30739   5.815   4.786   3.432
 9947SOL    HW130740   5.820   4.700   3.483
 9947SOL    HW230741   5.761   4.772   3.349
 9948SOL     OW30742   5.063   3.921   3.904
 9948SOL    HW130743   5.122   3.860   3.958
 9948SOL    HW230744   5.043   4.003   3.957
 9949SOL     OW30745   5.589   5.226   2.054
 9949SOL    HW130746   5.591   5.128   2.032
 9949SOL    HW230747   5.575   5.238   2.152
 9950SOL     OW30748   3.460   5.939   5.903
 9950SOL    HW130749   3.471   5.845   5.935
 9950SOL    HW230750   3.550   5.980   5.887
 9951SOL     OW30751   6.295   2.260   2.991
 9951SOL    HW130752   6.327   2.269   3.086
 9951SOL    HW230753   6.201   2.226   2.991
 9952SOL     OW30754   0.356   5.236   6.926
 9952SOL    HW130755   0.382   5.229   6.830
 9952SOL    HW230756   0.391   5.156   6.976
 9953SOL     OW30757   6.416   2.390   3.726
 9953SOL    HW130758   6.501   2.412   3.775
 9953SOL    HW230759   6.404   2.454   3.650
 9954SOL     OW30760   4.100   0.218   5.403
 9954SOL    HW130761   4.021   0.165   5.371
 9954SOL    HW230762   4.181   0.160   5.403
 9955SOL     OW30763   0.442   4.553   4.361
 9955SOL    HW130764   0.377   4.548   4.285
 9955SOL    HW230765   0.407   4.499   4.438
 9956SOL     OW30766   1.144   5.977   0.792
 9956SOL    HW130767   1.215   5.909   0.774
 9956SOL    HW230768   1.059   5.930   0.819
 9957SOL     OW30769   6.108   5.337   2.604
 9957SOL    HW130770   6.191   5.388   2.584
 9957SOL    HW230771   6.075   5.294   2.521
 9958SOL     OW30772   2.263   4.358   1.029
 9958SOL    HW130773   2.195   4.389   0.963
 9958SOL    HW230774   2.349   4.338   0.981
 9959SOL     OW30775   3.731   3.504   1.177
 9959SOL    HW130776   3.640   3.518   1.138
 9959SOL    HW230777   3.724   3.445   1.258
 9960SOL     OW30778   0.536   1.375   1.962
 9960SOL    HW130779   0.530   1.403   2.058
 9960SOL    HW230780   0.615   1.314   1.950
 9961SOL     OW30781   2.150   3.779   4.441
 9961SOL    HW130782   2.158   3.781   4.541
 9961SOL    HW230783   2.106   3.694   4.413
 9962SOL     OW30784   5.180   6.504   4.661
 9962SOL    HW130785   5.203   6.433   4.594
 9962SOL    HW230786   5.150   6.586   4.614
 9963SOL     OW30787   3.194   0.856   0.533
 9963SOL    HW130788   3.174   0.806   0.617
 9963SOL    HW230789   3.156   0.808   0.455
 9964SOL     OW30790   4.955   5.728   4.866
 9964SOL    HW130791   4.961   5.828   4.864
 9964SOL    HW230792   4.864   5.701   4.896
 9965SOL     OW30793   3.780   6.768   0.021
 9965SOL    HW130794   3.795   6.818   0.107
 9965SOL    HW230795   3.868   6.752   6.999
 9966SOL     OW30796   6.984   0.232   3.091
 9966SOL    HW130797   0.055   0.265   3.078
 9966SOL    HW230798   6.920   0.308   3.078
 9967SOL     OW30799   0.771   5.411   0.575
 9967SOL    HW130800   0.789   5.415   0.476
 9967SOL    HW230801   0.715   5.490   0.601
 9968SOL     OW30802   2.926   3.370   2.813
 9968SOL    HW130803   2.923   3.392   2.910
 9968SOL    HW230804   3.020   3.371   2.781
 9969SOL     OW30805   1.598   3.200   1.623
 9969SOL    HW130806   1.572   3.108   1.651
 9969SOL    HW230807   1.565   3.217   1.530
 9970SOL     OW30808   5.906   4.777   1.558
 9970SOL    HW130809   6.003   4.794   1.535
 9970SOL    HW230810   5.848   4.815   1.486
 9971SOL     OW30811   2.346   6.317   0.355
 9971SOL    HW130812   2.329   6.218   0.356
 9971SOL    HW230813   2.314   6.356   0.269
 9972SOL     OW30814   6.754   4.993   1.526
 9972SOL    HW130815   6.665   4.948   1.529
 9972SOL    HW230816   6.825   4.931   1.557
 9973SOL     OW30817   6.100   6.787   3.751
 9973SOL    HW130818   6.033   6.713   3.736
 9973SOL    HW230819   6.186   6.763   3.707
 9974SOL     OW30820   2.510   0.446   4.378
 9974SOL    HW130821   2.598   0.487   4.351
 9974SOL    HW230822   2.436   0.492   4.330
 9975SOL     OW30823   6.198   3.743   0.496
 9975SOL    HW130824   6.202   3.690   0.411
 9975SOL    HW230825   6.107   3.783   0.505
 9976SOL     OW30826   2.007   6.809   5.184
 9976SOL    HW130827   2.021   6.846   5.276
 9976SOL    HW230828   1.978   6.714   5.189
 9977SOL     OW30829   6.648   4.395   4.086
 9977SOL    HW130830   6.560   4.351   4.069
 9977SOL    HW230831   6.634   4.488   4.118
 9978SOL     OW30832   0.191   3.030   5.126
 9978SOL    HW130833   0.203   2.959   5.195
 9978SOL    HW230834   0.241   3.005   5.043
 9979SOL     OW30835   0.689   4.111   4.828
 9979SOL    HW130836   0.725   4.027   4.787
 9979SOL    HW230837   0.765   4.165   4.866
 9980SOL     OW30838   2.994   6.545   4.726
 9980SOL    HW130839   3.073   6.585   4.772
 9980SOL    HW230840   3.015   6.450   4.700
 9981SOL     OW30841   3.964   2.145   4.004
 9981SOL    HW130842   4.064   2.148   4.002
 9981SOL    HW230843   3.934   2.127   4.098
 9982SOL     OW30844   6.491   6.294   2.808
 9982SOL    HW130845   6.584   6.305   2.845
 9982SOL    HW230846   6.425   6.314   2.880
 9983SOL     OW30847   6.701   0.986   0.921
 9983SOL    HW130848   6.787   1.026   0.952
 9983SOL    HW230849   6.653   1.053   0.864
 9984SOL     OW30850   2.612   0.983   6.922
 9984SOL    HW130851   2.643   1.041   6.846
 9984SOL    HW230852   2.525   0.939   6.897
 9985SOL     OW30853   1.627   1.367   1.889
 9985SOL    HW130854   1.649   1.278   1.848
 9985SOL    HW230855   1.651   1.366   1.986
 9986SOL     OW30856   5.081   4.153   4.719
 9986SOL    HW130857   5.083   4.086   4.794
 9986SOL    HW230858   5.166   4.204   4.717
 9987SOL     OW30859   0.255   4.596   5.849
 9987SOL    HW130860   0.215   4.524   5.906
 9987SOL    HW230861   0.351   4.576   5.831
 9988SOL     OW30862   6.650   6.997   4.750
 9988SOL    HW130863   6.557   0.003   4.774
 9988SOL    HW230864   6.654   6.975   4.653
 9989SOL     OW30865   1.216   2.998   4.432
 9989SOL    HW130866   1.208   2.907   4.392
 9989SOL    HW230867   1.288   2.998   4.502
 9990SOL     OW30868   1.540   5.379   2.053
 9990SOL    HW130869   1.521   5.476   2.041
 9990SOL    HW230870   1.454   5.328   2.047
 9991SOL     OW30871   4.200   2.228   3.124
 9991SOL    HW130872   4.108   2.196   3.143
 9991SOL    HW230873   4.220   2.308   3.180
 9992SOL     OW30874   6.640   5.635   6.175
 9992SOL    HW130875   6.677   5.681   6.255
 9992SOL    HW230876   6.711   5.626   6.105
 9993SOL     OW30877   1.316   0.726   1.917
 9993SOL    HW130878   1.243   0.790   1.894
 9993SOL    HW230879   1.395   0.776   1.953
 9994SOL     OW30880   6.034   4.831   3.199
 9994SOL    HW130881   6.066   4.842   3.293
 9994SOL    HW230882   5.954   4.771   3.197
 9995SOL     OW30883   5.089   1.323   4.334
 9995SOL    HW130884   5.114   1.251   4.398
 9995SOL    HW230885   4.989   1.332   4.331
 9996SOL     OW30886   2.599   3.275   6.980
 9996SOL    HW130887   2.593   3.373   6.962
 9996SOL    HW230888   2.605   3.225   6.894
 9997SOL     OW30889   2.482   0.477   4.642
 9997SOL    HW130890   2.483   0.468   4.543
 9997SOL    HW230891   2.565   0.435   4.680
 9998SOL     OW30892   5.828   6.103   5.449
 9998SOL    HW130893   5.921   6.107   5.414
 9998SOL    HW230894   5.793   6.196   5.463
 9999SOL     OW30895   6.472   2.231   4.455
 9999SOL    HW130896   6.400   2.225   4.524
 9999SOL    HW230897   6.544   2.292   4.488
10000SOL     OW30898   6.579   4.561   0.101
10000SOL    HW130899   6.518   4.570   0.180
10000SOL    HW230900   6.622   4.649   0.082
10001SOL     OW30901   3.954   0.070   3.645
10001SOL    HW130902   3.987   7.007   3.606
10001SOL    HW230903   4.015   0.098   3.720
10002SOL     OW30904   1.454   1.657   1.944
10002SOL    HW130905   1.446   1.559   1.927
10002SOL    HW230906   1.372   1.704   1.911
10003SOL     OW30907   5.177   2.910   3.516
10003SOL    HW130908   5.155   2.824   3.562
10003SOL    HW230909   5.275   2.929   3.526
10004SOL     OW30910   0.391   2.611   2.983
10004SOL    HW130911   0.424   2.609   3.077
10004SOL    HW230912   0.292   2.626   2.983
10005SOL     OW30913   5.220   0.133   4.454
10005SOL    HW130914   5.243   0.039   4.481
10005SOL    HW230915   5.186   0.183   4.534
10006SOL     OW30916   4.916   1.765   4.800
10006SOL    HW130917   4.998   1.777   4.856
10006SOL    HW230918   4.848   1.711   4.850
10007SOL     OW30919   6.707   3.809   3.747
10007SOL    HW130920   6.748   3.734   3.694
10007SOL    HW230921   6.719   3.895   3.697
10008SOL     OW30922   3.490   6.794   4.253
10008SOL    HW130923   3.557   6.731   4.213
10008SOL    HW230924   3.534   6.848   4.324
10009SOL     OW30925   2.182   4.394   1.494
10009SOL    HW130926   2.122   4.340   1.552
10009SOL    HW230927   2.275   4.359   1.501
10010SOL     OW30928   6.143   1.395   6.125
10010SOL    HW130929   6.152   1.306   6.081
10010SOL    HW230930   6.121   1.464   6.056
10011SOL     OW30931   6.912   6.871   4.248
10011SOL    HW130932   6.895   6.795   4.185
10011SOL    HW230933   6.996   6.854   4.299
10012SOL     OW30934   5.907   0.555   4.507
10012SOL    HW130935   5.865   0.564   4.597
10012SOL    HW230936   5.865   0.619   4.444
10013SOL     OW30937   1.527   0.844   2.042
10013SOL    HW130938   1.589   0.919   2.019
10013SOL    HW230939   1.563   0.792   2.119
10014SOL     OW30940   1.442   4.739   5.961
10014SOL    HW130941   1.463   4.733   6.059
10014SOL    HW230942   1.344   4.727   5.947
10015SOL     OW30943   2.257   5.019   6.681
10015SOL    HW130944   2.241   4.966   6.764
10015SOL    HW230945   2.194   5.097   6.678
10016SOL     OW30946   2.322   0.600   5.302
10016SOL    HW130947   2.334   0.591   5.400
10016SOL    HW230948   2.367   0.523   5.256
10017SOL     OW30949   0.556   2.184   4.275
10017SOL    HW130950   0.555   2.201   4.176
10017SOL    HW230951   0.549   2.271   4.324
10018SOL     OW30952   4.989   6.723   5.880
10018SOL    HW130953   5.011   6.653   5.948
10018SOL    HW230954   4.946   6.681   5.800
10019SOL     OW30955   1.735   1.095   2.548
10019SOL    HW130956   1.721   1.183   2.594
10019SOL    HW230957   1.748   1.111   2.450
10020SOL     OW30958   7.005   3.152   0.025
10020SOL    HW130959   6.926   3.194   0.071
10020SOL    HW230960   0.063   3.208   0.040
10021SOL     OW30961   5.491   3.080   1.713
10021SOL    HW130962   5.502   3.014   1.639
10021SOL    HW230963   5.414   3.052   1.770
10022SOL     OW30964   1.830   0.514   6.470
10022SOL    HW130965   1.790   0.443   6.528
10022SOL    HW230966   1.830   0.602   6.519
10023SOL     OW30967   0.387   3.029   0.684
10023SOL    HW130968   0.480   3.046   0.719
10023SOL    HW230969   0.323   3.027   0.761
10024SOL     OW30970   1.221   4.518   3.375
10024SOL    HW130971   1.168   4.557   3.300
10024SOL    HW230972   1.318   4.516   3.350
10025SOL     OW30973   0.854   0.948   0.575
10025SOL    HW130974   0.901   0.883   0.635
10025SOL    HW230975   0.919   1.016   0.543
10026SOL     OW30976   6.748   0.430   4.136
10026SOL    HW130977   6.737   0.419   4.235
10026SOL    HW230978   6.696   0.359   4.089
10027SOL     OW30979   5.526   2.694   5.669
10027SOL    HW130980   5.442   2.720   5.715
10027SOL    HW230981   5.605   2.727   5.721
10028SOL     OW30982   2.261   0.586   1.447
10028SOL    HW130983   2.241   0.572   1.544
10028SOL    HW230984   2.358   0.568   1.430
10029SOL     OW30985   4.300   1.021   4.196
10029SOL    HW130986   4.353   0.979   4.123
10029SOL    HW230987   4.228   1.078   4.156
10030SOL     OW30988   1.626   0.732   2.819
10030SOL    HW130989   1.538   0.728   2.771
10030SOL    HW230990   1.673   0.817   2.795
10031SOL     OW30991   6.544   4.700   3.877
10031SOL    HW130992   6.464   4.679   3.932
10031SOL    HW230993   6.595   4.616   3.858
10032SOL     OW30994   3.211   1.666   5.271
10032SOL    HW130995   3.148   1.648   5.195
10032SOL    HW230996   3.179   1.621   5.354
10033SOL     OW30997   4.970   2.830   4.109
10033SOL    HW130998   4.965   2.913   4.165
10033SOL    HW230999   5.034   2.766   4.150
10034SOL     OW31000   4.216   0.403   5.904
10034SOL    HW131001   4.163   0.415   5.820
10034SOL    HW231002   4.233   0.306   5.919
10035SOL     OW31003   0.596   6.602   3.871
10035SOL    HW131004   0.600   6.651   3.783
10035SOL    HW231005   0.672   6.537   3.877
10036SOL     OW31006   6.771   0.194   0.341
10036SOL    HW131007   6.798   0.124   0.275
10036SOL    HW231008   6.673   0.187   0.359
10037SOL     OW31009   6.810   6.942   1.098
10037SOL    HW131010   6.763   7.011   1.154
10037SOL    HW231011   6.864   6.882   1.157
10038SOL     OW31012   6.198   0.165   1.101
10038SOL    HW131013   6.116   0.125   1.140
10038SOL    HW231014   6.268   0.176   1.172
10039SOL     OW31015   4.069   0.349   3.451
10039SOL    HW131016   4.093   0.348   3.548
10039SOL    HW231017   3.981   0.395   3.440
10040SOL     OW31018   0.362   2.241   0.748
10040SOL    HW131019   0.343   2.307   0.675
10040SOL    HW231020   0.288   2.173   0.751
10041SOL     OW31021   1.237   6.449   0.745
10041SOL    HW131022   1.177   6.502   0.685
10041SOL    HW231023   1.241   6.354   0.714
10042SOL     OW31024   6.203   2.027   3.395
10042SOL    HW131025   6.238   1.947   3.347
10042SOL    HW231026   6.263   2.105   3.380
10043SOL     OW31027   1.360   2.938   5.115
10043SOL    HW131028   1.322   2.986   5.036
10043SOL    HW231029   1.459   2.954   5.119
10044SOL     OW31030   4.667   1.976   6.353
10044SOL    HW131031   4.622   1.951   6.267
10044SOL    HW231032   4.617   1.937   6.430
10045SOL     OW31033   2.643   1.021   0.910
10045SOL    HW131034   2.698   0.948   0.951
10045SOL    HW231035   2.686   1.109   0.930
10046SOL     OW31036   0.884   5.283   1.190
10046SOL    HW131037   0.940   5.365   1.202
10046SOL    HW231038   0.806   5.304   1.132
10047SOL     OW31039   1.728   3.098   0.468
10047SOL    HW131040   1.760   3.152   0.390
10047SOL    HW231041   1.751   3.001   0.454
10048SOL     OW31042   5.991   4.415   2.203
10048SOL    HW131043   5.949   4.333   2.164
10048SOL    HW231044   5.969   4.494   2.145
10049SOL     OW31045   6.059   1.360   5.177
10049SOL    HW131046   6.052   1.374   5.078
10049SOL    HW231047   5.977   1.395   5.222
10050SOL     OW31048   6.697   2.738   5.442
10050SOL    HW131049   6.682   2.806   5.370
10050SOL    HW231050   6.758   2.777   5.512
10051SOL     OW31051   2.481   1.209   4.496
10051SOL    HW131052   2.478   1.114   4.528
10051SOL    HW231053   2.538   1.263   4.558
10052SOL     OW31054   1.103   0.445   3.731
10052SOL    HW131055   1.148   0.534   3.735
10052SOL    HW231056   1.159   0.377   3.779
10053SOL     OW31057   5.722   4.928   3.001
10053SOL    HW131058   5.770   5.015   3.010
10053SOL    HW231059   5.699   4.912   2.905
10054SOL     OW31060   6.469   3.708   4.018
10054SOL    HW131061   6.420   3.793   4.001
10054SOL    HW231062   6.493   3.666   3.931
10055SOL     OW31063   1.774   1.598   6.636
10055SOL    HW131064   1.682   1.595   6.676
10055SOL    HW231065   1.775   1.547   6.551
10056SOL     OW31066   5.708   2.335   4.420
10056SOL    HW131067   5.740   2.246   4.454
10056SOL    HW231068   5.622   2.358   4.466
10057SOL     OW31069   5.719   4.786   5.468
10057SOL    HW131070   5.677   4.731   5.396
10057SOL    HW231071   5.670   4.771   5.554
10058SOL     OW31072   6.670   4.022   4.307
10058SOL    HW131073   6.716   3.934   4.319
10058SOL    HW231074   6.729   4.083   4.254
10059SOL     OW31075   5.243   6.348   7.002
10059SOL    HW131076   5.186   6.428   6.987
10059SOL    HW231077   5.323   6.352   6.942
10060SOL     OW31078   3.075   1.770   2.248
10060SOL    HW131079   3.037   1.838   2.311
10060SOL    HW231080   3.080   1.809   2.156
10061SOL     OW31081   3.575   7.013   2.483
10061SOL    HW131082   3.638   6.997   2.558
10061SOL    HW231083   3.585   6.940   2.415
10062SOL     OW31084   6.845   0.130   4.872
10062SOL    HW131085   6.941   0.114   4.849
10062SOL    HW231086   6.787   0.081   4.807
10063SOL     OW31087   3.149   2.156   4.704
10063SOL    HW131088   3.089   2.151   4.784
10063SOL    HW231089   3.117   2.229   4.643
10064SOL     OW31090   3.141   0.039   2.218
10064SOL    HW131091   3.158   0.118   2.159
10064SOL    HW231092   3.045   0.037   2.245
10065SOL     OW31093   0.035   2.161   1.685
10065SOL    HW131094   6.981   2.180   1.625
10065SOL    HW231095   0.023   2.211   1.771
10066SOL     OW31096   6.496   4.287   3.515
10066SOL    HW131097   6.417   4.254   3.567
10066SOL    HW231098   6.528   4.214   3.455
10067SOL     OW31099   6.190   4.110   5.114
10067SOL    HW131100   6.268   4.050   5.095
10067SOL    HW231101   6.106   4.069   5.078
10068SOL     OW31102   1.836   2.890   2.098
10068SOL    HW131103   1.797   2.799   2.112
10068SOL    HW231104   1.905   2.907   2.168
10069SOL     OW31105   3.241   4.603   1.516
10069SOL    HW131106   3.251   4.642   1.607
10069SOL    HW231107   3.228   4.504   1.523
10070SOL     OW31108   5.196   0.326   0.561
10070SOL    HW131109   5.213   0.413   0.607
10070SOL    HW231110   5.099   0.316   0.542
10071SOL     OW31111   5.430   0.625   5.710
10071SOL    HW131112   5.453   0.536   5.749
10071SOL    HW231113   5.409   0.690   5.783
10072SOL     OW31114   6.019   2.780   2.117
10072SOL    HW131115   6.078   2.781   2.037
10072SOL    HW231116   6.064   2.728   2.190
10073SOL     OW31117   5.571   5.630   5.186
10073SOL    HW131118   5.550   5.540   5.225
10073SOL    HW231119   5.629   5.681   5.249
10074SOL     OW31120   2.102   4.695   0.557
10074SOL    HW131121   2.171   4.623   0.567
10074SOL    HW231122   2.079   4.704   0.460
10075SOL     OW31123   1.512   2.554   1.770
10075SOL    HW131124   1.445   2.566   1.697
10075SOL    HW231125   1.526   2.641   1.817
10076SOL     OW31126   5.794   3.804   3.830
10076SOL    HW131127   5.874   3.864   3.821
10076SOL    HW231128   5.716   3.845   3.785
10077SOL     OW31129   4.179   3.746   6.386
10077SOL    HW131130   4.196   3.648   6.373
10077SOL    HW231131   4.182   3.792   6.298
10078SOL     OW31132   6.058   5.328   4.706
10078SOL    HW131133   5.975   5.384   4.713
10078SOL    HW231134   6.059   5.281   4.617
10079SOL     OW31135   5.244   4.777   3.192
10079SOL    HW131136   5.191   4.819   3.117
10079SOL    HW231137   5.253   4.679   3.176
10080SOL     OW31138   5.294   1.997   5.808
10080SOL    HW131139   5.210   1.954   5.773
10080SOL    HW231140   5.339   1.935   5.872
10081SOL     OW31141   1.405   4.831   6.768
10081SOL    HW131142   1.332   4.797   6.710
10081SOL    HW231143   1.493   4.817   6.723
10082SOL     OW31144   1.149   4.425   1.121
10082SOL    HW131145   1.079   4.356   1.102
10082SOL    HW231146   1.180   4.466   1.036
10083SOL     OW31147   2.912   6.335   2.867
10083SOL    HW131148   2.922   6.298   2.775
10083SOL    HW231149   2.869   6.425   2.862
10084SOL     OW31150   1.944   2.777   4.245
10084SOL    HW131151   1.956   2.857   4.302
10084SOL    HW231152   1.953   2.802   4.148
10085SOL     OW31153   4.738   6.838   1.875
10085SOL    HW131154   4.729   6.883   1.964
10085SOL    HW231155   4.835   6.819   1.858
10086SOL     OW31156   3.526   0.000   3.329
10086SOL    HW131157   3.426   0.001   3.334
10086SOL    HW231158   3.562   0.085   3.369
10087SOL     OW31159   1.625   5.644   5.218
10087SOL    HW131160   1.629   5.628   5.119
10087SOL    HW231161   1.560   5.580   5.259
10088SOL     OW31162   6.495   2.503   1.370
10088SOL    HW131163   6.536   2.418   1.336
10088SOL    HW231164   6.512   2.511   1.468
10089SOL     OW31165   4.366   6.886   2.152
10089SOL    HW131166   4.285   6.926   2.108
10089SOL    HW231167   4.370   6.915   2.247
10090SOL     OW31168   2.057   5.963   2.462
10090SOL    HW131169   2.034   5.866   2.456
10090SOL    HW231170   2.156   5.974   2.460
10091SOL     OW31171   5.375   4.917   4.085
10091SOL    HW131172   5.381   4.930   4.184
10091SOL    HW231173   5.427   4.836   4.059
10092SOL     OW31174   0.426   1.275   2.777
10092SOL    HW131175   0.331   1.259   2.803
10092SOL    HW231176   0.441   1.373   2.764
10093SOL     OW31177   4.199   4.011   6.491
10093SOL    HW131178   4.187   3.915   6.464
10093SOL    HW231179   4.296   4.028   6.509
10094SOL     OW31180   3.959   2.088   0.515
10094SOL    HW131181   3.896   2.148   0.566
10094SOL    HW231182   3.965   2.119   0.420
10095SOL     OW31183   4.326   3.199   5.354
10095SOL    HW131184   4.343   3.287   5.309
10095SOL    HW231185   4.389   3.188   5.430
10096SOL     OW31186   6.745   4.002   2.477
10096SOL    HW131187   6.713   4.058   2.554
10096SOL    HW231188   6.836   4.033   2.450
10097SOL     OW31189   1.182   1.722   0.715
10097SOL    HW131190   1.220   1.630   0.715
10097SOL    HW231191   1.167   1.752   0.620
10098SOL     OW31192   3.687   6.163   5.877
10098SOL    HW131193   3.780   6.128   5.863
10098SOL    HW231194   3.672   6.177   5.975
10099SOL     OW31195   6.974   5.581   3.202
10099SOL    HW131196   7.020   5.627   3.126
10099SOL    HW231197   0.006   5.592   3.285
10100SOL     OW31198   5.257   4.676   4.078
10100SOL    HW131199   5.275   4.774   4.070
10100SOL    HW231200   5.180   4.652   4.019
10101SOL     OW31201   7.022   2.361   0.019
10101SOL    HW131202   0.030   2.364   0.114
10101SOL    HW231203   6.927   2.394   0.014
10102SOL     OW31204   6.702   4.809   2.958
10102SOL    HW131205   6.748   4.741   2.901
10102SOL    HW231206   6.630   4.855   2.905
10103SOL     OW31207   0.177   6.571   6.742
10103SOL    HW131208   0.197   6.623   6.658
10103SOL    HW231209   0.079   6.573   6.760
10104SOL     OW31210   2.961   1.110   4.933
10104SOL    HW131211   3.000   1.196   4.899
10104SOL    HW231212   2.904   1.069   4.863
10105SOL     OW31213   3.374   1.277   3.928
10105SOL    HW131214   3.288   1.269   3.878
10105SOL    HW231215   3.387   1.371   3.958
10106SOL     OW31216   6.280   4.084   1.504
10106SOL    HW131217   6.198   4.122   1.547
10106SOL    HW231218   6.347   4.061   1.574
10107SOL     OW31219   5.503   6.044   6.350
10107SOL    HW131220   5.443   5.972   6.385
10107SOL    HW231221   5.551   6.087   6.427
10108SOL     OW31222   2.445   2.549   5.018
10108SOL    HW131223   2.384   2.617   4.976
10108SOL    HW231224   2.482   2.585   5.103
10109SOL     OW31225   1.271   3.253   0.955
10109SOL    HW131226   1.227   3.272   1.043
10109SOL    HW231227   1.297   3.339   0.911
10110SOL     OW31228   6.339   6.233   2.439
10110SOL    HW131229   6.248   6.270   2.420
10110SOL    HW231230   6.387   6.218   2.353
10111SOL     OW31231   6.474   2.489   1.637
10111SOL    HW131232   6.401   2.421   1.637
10111SOL    HW231233   6.440   2.574   1.676
10112SOL     OW31234   6.829   2.790   4.092
10112SOL    HW131235   6.773   2.872   4.086
10112SOL    HW231236   6.812   2.732   4.012
10113SOL     OW31237   0.103   6.382   5.686
10113SOL    HW131238   0.076   6.317   5.615
10113SOL    HW231239   0.021   6.416   5.733
10114SOL     OW31240   5.079   3.960   1.726
10114SOL    HW131241   5.122   4.025   1.789
10114SOL    HW231242   5.035   4.010   1.651
10115SOL     OW31243   3.672   2.855   6.437
10115SOL    HW131244   3.711   2.864   6.528
10115SOL    HW231245   3.655   2.946   6.398
10116SOL     OW31246   0.376   6.728   6.495
10116SOL    HW131247   0.458   6.783   6.481
10116SOL    HW231248   0.384   6.641   6.446
10117SOL     OW31249   0.356   4.507   1.053
10117SOL    HW131250   0.305   4.443   1.111
10117SOL    HW231251   0.335   4.488   0.957
10118SOL     OW31252   4.108   4.949   3.822
10118SOL    HW131253   4.097   4.896   3.738
10118SOL    HW231254   4.203   4.981   3.829
10119SOL     OW31255   5.893   6.069   6.780
10119SOL    HW131256   5.892   6.158   6.734
10119SOL    HW231257   5.929   6.080   6.872
10120SOL     OW31258   2.615   2.371   2.767
10120SOL    HW131259   2.701   2.359   2.816
10120SOL    HW231260   2.634   2.389   2.671
10121SOL     OW31261   6.287   5.667   1.898
10121SOL    HW131262   6.239   5.741   1.851
10121SOL    HW231263   6.223   5.616   1.955
10122SOL     OW31264   2.192   0.392   3.061
10122SOL    HW131265   2.244   0.375   3.145
10122SOL    HW231266   2.135   0.313   3.040
10123SOL     OW31267   6.072   5.882   6.612
10123SOL    HW131268   6.011   5.938   6.669
10123SOL    HW231269   6.030   5.793   6.597
10124SOL     OW31270   2.644   5.111   2.230
10124SOL    HW131271   2.577   5.185   2.227
10124SOL    HW231272   2.731   5.143   2.191
10125SOL     OW31273   1.758   1.558   4.761
10125SOL    HW131274   1.712   1.645   4.781
10125SOL    HW231275   1.774   1.550   4.663
10126SOL     OW31276   6.649   6.265   4.615
10126SOL    HW131277   6.717   6.208   4.660
10126SOL    HW231278   6.661   6.360   4.642
10127SOL     OW31279   2.316   0.318   5.473
10127SOL    HW131280   2.222   0.285   5.468
10127SOL    HW231281   2.376   0.246   5.507
10128SOL     OW31282   2.196   1.958   0.182
10128SOL    HW131283   2.198   2.057   0.199
10128SOL    HW231284   2.253   1.938   0.102
10129SOL     OW31285   0.125   2.381   4.758
10129SOL    HW131286   0.104   2.369   4.855
10129SOL    HW231287   0.145   2.293   4.716
10130SOL     OW31288   1.463   1.773   3.254
10130SOL    HW131289   1.471   1.794   3.352
10130SOL    HW231290   1.388   1.827   3.215
10131SOL     OW31291   2.037   0.251   5.471
10131SOL    HW131292   1.961   0.254   5.405
10131SOL    HW231293   1.999   0.253   5.564
10132SOL     OW31294   6.079   0.383   2.533
10132SOL    HW131295   6.023   0.338   2.602
10132SOL    HW231296   6.176   0.376   2.558
10133SOL     OW31297   4.174   5.530   0.831
10133SOL    HW131298   4.240   5.458   0.851
10133SOL    HW231299   4.197   5.612   0.884
10134SOL     OW31300   0.163   6.480   3.176
10134SOL    HW131301   0.222   6.534   3.237
10134SOL    HW231302   0.081   6.451   3.225
10135SOL     OW31303   6.398   6.529   3.875
10135SOL    HW131304   6.371   6.480   3.958
10135SOL    HW231305   6.498   6.530   3.867
10136SOL     OW31306   4.797   0.874   3.608
10136SOL    HW131307   4.888   0.889   3.568
10136SOL    HW231308   4.748   0.960   3.612
10137SOL     OW31309   6.835   5.643   3.612
10137SOL    HW131310   6.916   5.700   3.598
10137SOL    HW231311   6.764   5.696   3.659
10138SOL     OW31312   0.176   1.910   2.068
10138SOL    HW131313   0.191   1.820   2.109
10138SOL    HW231314   0.100   1.955   2.114
10139SOL     OW31315   4.068   3.063   0.260
10139SOL    HW131316   4.091   3.041   0.355
10139SOL    HW231317   4.140   3.030   0.200
10140SOL     OW31318   6.516   6.282   4.942
10140SOL    HW131319   6.447   6.216   4.972
10140SOL    HW231320   6.479   6.374   4.952
10141SOL     OW31321   1.281   1.913   4.993
10141SOL    HW131322   1.296   1.952   5.083
10141SOL    HW231323   1.345   1.953   4.927
10142SOL     OW31324   4.551   5.851   2.149
10142SOL    HW131325   4.455   5.825   2.137
10142SOL    HW231326   4.588   5.880   2.061
10143SOL     OW31327   5.969   3.407   6.597
10143SOL    HW131328   6.007   3.476   6.536
10143SOL    HW231329   5.878   3.381   6.566
10144SOL     OW31330   3.733   0.197   1.038
10144SOL    HW131331   3.662   0.153   0.983
10144SOL    HW231332   3.716   0.179   1.135
10145SOL     OW31333   6.471   0.421   5.043
10145SOL    HW131334   6.459   0.459   5.135
10145SOL    HW231335   6.541   0.350   5.045
10146SOL     OW31336   1.668   2.653   5.653
10146SOL    HW131337   1.621   2.633   5.568
10146SOL    HW231338   1.623   2.605   5.729
10147SOL     OW31339   3.627   5.112   0.369
10147SOL    HW131340   3.616   5.015   0.344
10147SOL    HW231341   3.689   5.156   0.304
10148SOL     OW31342   0.559   5.363   6.342
10148SOL    HW131343   0.482   5.341   6.283
10148SOL    HW231344   0.645   5.346   6.293
10149SOL     OW31345   3.432   3.099   3.283
10149SOL    HW131346   3.383   3.180   3.315
10149SOL    HW231347   3.473   3.118   3.194
10150SOL     OW31348   5.019   4.297   1.462
10150SOL    HW131349   4.945   4.354   1.497
10150SOL    HW231350   5.079   4.271   1.537
10151SOL     OW31351   0.022   0.500   6.737
10151SOL    HW131352   0.031   0.449   6.651
10151SOL    HW231353   6.976   0.571   6.727
10152SOL     OW31354   3.847   6.067   4.009
10152SOL    HW131355   3.870   6.104   3.920
10152SOL    HW231356   3.771   6.003   4.001
10153SOL     OW31357   5.240   3.730   1.707
10153SOL    HW131358   5.197   3.671   1.638
10153SOL    HW231359   5.195   3.819   1.708
10154SOL     OW31360   4.380   5.260   5.311
10154SOL    HW131361   4.362   5.171   5.353
10154SOL    HW231362   4.320   5.273   5.232
10155SOL     OW31363   4.155   1.996   4.172
10155SOL    HW131364   4.081   1.936   4.202
10155SOL    HW231365   4.200   2.036   4.251
10156SOL     OW31366   3.710   2.275   6.583
10156SOL    HW131367   3.713   2.191   6.636
10156SOL    HW231368   3.689   2.352   6.645
10157SOL     OW31369   0.981   4.662   0.715
10157SOL    HW131370   0.974   4.720   0.796
10157SOL    HW231371   0.995   4.567   0.742
10158SOL     OW31372   5.534   5.131   0.068
10158SOL    HW131373   5.611   5.099   0.123
10158SOL    HW231374   5.562   5.139   6.996
10159SOL     OW31375   3.850   2.853   1.751
10159SOL    HW131376   3.948   2.856   1.734
10159SOL    HW231377   3.800   2.848   1.665
10160SOL     OW31378   0.075   3.776   2.516
10160SOL    HW131379   0.023   3.827   2.584
10160SOL    HW231380   0.142   3.718   2.562
10161SOL     OW31381   6.132   3.192   6.648
10161SOL    HW131382   6.072   3.268   6.621
10161SOL    HW231383   6.208   3.228   6.701
10162SOL     OW31384   1.753   2.098   2.326
10162SOL    HW131385   1.805   2.176   2.359
10162SOL    HW231386   1.655   2.121   2.325
10163SOL     OW31387   3.467   5.150   4.808
10163SOL    HW131388   3.518   5.162   4.723
10163SOL    HW231389   3.405   5.228   4.822
10164SOL     OW31390   0.345   1.031   4.284
10164SOL    HW131391   0.347   0.944   4.332
10164SOL    HW231392   0.255   1.044   4.242
10165SOL     OW31393   1.789   3.445   3.835
10165SOL    HW131394   1.752   3.438   3.742
10165SOL    HW231395   1.815   3.540   3.853
10166SOL     OW31396   3.396   6.412   3.094
10166SOL    HW131397   3.322   6.372   3.040
10166SOL    HW231398   3.361   6.437   3.184
10167SOL     OW31399   3.724   1.680   6.735
10167SOL    HW131400   3.792   1.670   6.808
10167SOL    HW231401   3.757   1.743   6.666
10168SOL     OW31402   0.893   1.410   6.159
10168SOL    HW131403   0.925   1.441   6.249
10168SOL    HW231404   0.958   1.343   6.123
10169SOL     OW31405   4.299   5.727   2.766
10169SOL    HW131406   4.385   5.709   2.718
10169SOL    HW231407   4.290   5.824   2.786
10170SOL     OW31408   4.825   6.701   0.248
10170SOL    HW131409   4.815   6.791   0.207
10170SOL    HW231410   4.923   6.678   0.252
10171SOL     OW31411   1.663   4.442   3.733
10171SOL    HW131412   1.578   4.409   3.773
10171SOL    HW231413   1.673   4.408   3.640
10172SOL     OW31414   0.773   0.689   2.786
10172SOL    HW131415   0.798   0.758   2.717
10172SOL    HW231416   0.826   0.606   2.771
10173SOL     OW31417   4.481   3.186   5.566
10173SOL    HW131418   4.486   3.282   5.595
10173SOL    HW231419   4.496   3.126   5.645
10174SOL     OW31420   5.073   4.693   1.970
10174SOL    HW131421   5.171   4.680   1.981
10174SOL    HW231422   5.031   4.708   2.060
10175SOL     OW31423   6.622   0.241   3.979
10175SOL    HW131424   6.711   0.204   3.951
10175SOL    HW231425   6.553   0.169   3.971
10176SOL     OW31426   0.318   1.260   4.491
10176SOL    HW131427   0.309   1.360   4.488
10176SOL    HW231428   0.380   1.229   4.420
10177SOL     OW31429   3.280   1.242   4.378
10177SOL    HW131430   3.282   1.183   4.458
10177SOL    HW231431   3.357   1.221   4.318
10178SOL     OW31432   6.842   1.134   2.045
10178SOL    HW131433   6.854   1.050   1.992
10178SOL    HW231434   6.860   1.116   2.141
10179SOL     OW31435   0.358   6.077   0.748
10179SOL    HW131436   0.317   6.101   0.660
10179SOL    HW231437   0.434   6.140   0.767
10180SOL     OW31438   2.765   0.176   6.119
10180SOL    HW131439   2.761   0.240   6.196
10180SOL    HW231440   2.808   0.091   6.149
10181SOL     OW31441   6.968   3.924   2.721
10181SOL    HW131442   6.876   3.951   2.751
10181SOL    HW231443   0.002   4.006   2.711
10182SOL     OW31444   4.261   6.912   0.112
10182SOL    HW131445   4.342   6.949   0.158
10182SOL    HW231446   4.211   6.853   0.176
10183SOL     OW31447   3.851   6.413   6.145
10183SOL    HW131448   3.892   6.419   6.235
10183SOL    HW231449   3.751   6.423   6.153
10184SOL     OW31450   5.354   2.789   4.655
10184SOL    HW131451   5.312   2.865   4.605
10184SOL    HW231452   5.427   2.824   4.713
10185SOL     OW31453   2.867   4.777   2.154
10185SOL    HW131454   2.847   4.717   2.076
10185SOL    HW231455   2.913   4.725   2.225
10186SOL     OW31456   3.342   2.850   1.068
10186SOL    HW131457   3.367   2.785   1.140
10186SOL    HW231458   3.242   2.860   1.065
10187SOL     OW31459   1.792   3.713   5.579
10187SOL    HW131460   1.820   3.618   5.560
10187SOL    HW231461   1.867   3.775   5.556
10188SOL     OW31462   2.208   6.886   6.822
10188SOL    HW131463   2.284   6.896   6.757
10188SOL    HW231464   2.121   6.891   6.772
10189SOL     OW31465   2.143   2.107   5.486
10189SOL    HW131466   2.100   2.154   5.563
10189SOL    HW231467   2.226   2.155   5.460
10190SOL     OW31468   3.984   3.692   0.806
10190SOL    HW131469   4.025   3.780   0.829
10190SOL    HW231470   3.997   3.673   0.709
10191SOL     OW31471   5.511   0.906   0.389
10191SOL    HW131472   5.515   0.882   0.292
10191SOL    HW231473   5.435   0.968   0.405
10192SOL     OW31474   2.362   0.531   4.099
10192SOL    HW131475   2.358   0.610   4.160
10192SOL    HW231476   2.286   0.469   4.120
10193SOL     OW31477   3.724   3.778   3.789
10193SOL    HW131478   3.664   3.823   3.722
10193SOL    HW231479   3.805   3.835   3.804
10194SOL     OW31480   3.106   6.211   3.942
10194SOL    HW131481   3.180   6.203   4.009
10194SOL    HW231482   3.061   6.123   3.932
10195SOL     OW31483   5.159   0.612   3.004
10195SOL    HW131484   5.132   0.527   2.958
10195SOL    HW231485   5.211   0.669   2.941
10196SOL     OW31486   5.037   4.139   4.074
10196SOL    HW131487   5.055   4.226   4.028
10196SOL    HW231488   4.943   4.138   4.107
10197SOL     OW31489   4.939   2.019   2.652
10197SOL    HW131490   4.986   2.037   2.738
10197SOL    HW231491   4.931   2.104   2.600
10198SOL     OW31492   2.797   1.688   2.106
10198SOL    HW131493   2.896   1.689   2.122
10198SOL    HW231494   2.776   1.747   2.028
10199SOL     OW31495   0.821   1.971   6.861
10199SOL    HW131496   0.817   2.028   6.944
10199SOL    HW231497   0.754   2.003   6.795
10200SOL     OW31498   5.769   6.669   4.070
10200SOL    HW131499   5.760   6.728   3.989
10200SOL    HW231500   5.764   6.725   4.153
10201SOL     OW31501   1.357   4.491   2.252
10201SOL    HW131502   1.376   4.565   2.316
10201SOL    HW231503   1.314   4.415   2.301
10202SOL     OW31504   0.915   1.791   3.247
10202SOL    HW131505   0.852   1.823   3.318
10202SOL    HW231506   0.945   1.869   3.191
10203SOL     OW31507   0.487   2.087   1.111
10203SOL    HW131508   0.509   2.010   1.171
10203SOL    HW231509   0.467   2.053   1.019
10204SOL     OW31510   2.540   5.910   4.007
10204SOL    HW131511   2.601   5.980   3.968
10204SOL    HW231512   2.499   5.945   4.091
10205SOL     OW31513   3.663   0.090   1.289
10205SOL    HW131514   3.676   0.185   1.318
10205SOL    HW231515   3.566   0.074   1.271
10206SOL     OW31516   5.917   6.269   0.439
10206SOL    HW131517   6.004   6.262   0.488
10206SOL    HW231518   5.876   6.178   0.432
10207SOL     OW31519   4.034   1.546   2.798
10207SOL    HW131520   4.127   1.533   2.835
10207SOL    HW231521   4.024   1.640   2.765
10208SOL     OW31522   6.808   3.493   6.149
10208SOL    HW131523   6.886   3.431   6.146
10208SOL    HW231524   6.768   3.501   6.058
10209SOL     OW31525   3.253   6.161   0.055
10209SOL    HW131526   3.285   6.172   0.149
10209SOL    HW231527   3.253   6.250   0.009
10210SOL     OW31528   5.191   5.607   6.880
10210SOL    HW131529   5.278   5.565   6.856
10210SOL    HW231530   5.118   5.539   6.873
10211SOL     OW31531   3.773   6.034   5.514
10211SOL    HW131532   3.820   6.084   5.586
10211SOL    HW231533   3.676   6.058   5.514
10212SOL     OW31534   6.119   6.573   6.336
10212SOL    HW131535   6.099   6.512   6.259
10212SOL    HW231536   6.117   6.521   6.421
10213SOL     OW31537   4.086   7.015   4.741
10213SOL    HW131538   4.160   0.057   4.723
10213SOL    HW231539   4.033   0.024   4.820
10214SOL     OW31540   0.209   0.642   0.305
10214SOL    HW131541   0.167   0.592   0.381
10214SOL    HW231542   0.179   0.604   0.218
10215SOL     OW31543   4.453   2.529   0.425
10215SOL    HW131544   4.453   2.459   0.354
10215SOL    HW231545   4.407   2.611   0.390
10216SOL     OW31546   4.949   0.243   2.663
10216SOL    HW131547   4.850   0.243   2.652
10216SOL    HW231548   4.991   0.181   2.597
10217SOL     OW31549   3.709   2.229   5.318
10217SOL    HW131550   3.735   2.316   5.359
10217SOL    HW231551   3.613   2.232   5.290
10218SOL     OW31552   3.764   1.242   6.502
10218SOL    HW131553   3.824   1.291   6.440
10218SOL    HW231554   3.737   1.302   6.578
10219SOL     OW31555   1.280   5.330   0.280
10219SOL    HW131556   1.299   5.253   0.343
10219SOL    HW231557   1.182   5.336   0.264
10220SOL     OW31558   4.149   2.304   0.101
10220SOL    HW131559   4.120   2.216   0.138
10220SOL    HW231560   4.076   2.372   0.114
10221SOL     OW31561   2.744   1.083   4.358
10221SOL    HW131562   2.662   1.075   4.302
10221SOL    HW231563   2.824   1.053   4.305
10222SOL     OW31564   1.748   4.428   5.105
10222SOL    HW131565   1.846   4.446   5.096
10222SOL    HW231566   1.729   4.334   5.078
10223SOL     OW31567   0.946   4.872   6.049
10223SOL    HW131568   0.851   4.841   6.054
10223SOL    HW231569   0.954   4.962   6.091
10224SOL     OW31570   2.548   6.525   4.928
10224SOL    HW131571   2.633   6.482   4.960
10224SOL    HW231572   2.531   6.498   4.833
10225SOL     OW31573   5.227   6.053   4.487
10225SOL    HW131574   5.290   6.044   4.564
10225SOL    HW231575   5.164   6.129   4.504
10226SOL     OW31576   6.409   2.569   5.833
10226SOL    HW131577   6.409   2.663   5.869
10226SOL    HW231578   6.459   2.567   5.747
10227SOL     OW31579   4.993   4.763   5.427
10227SOL    HW131580   4.919   4.769   5.494
10227SOL    HW231581   5.049   4.682   5.446
10228SOL     OW31582   0.886   2.913   1.995
10228SOL    HW131583   0.848   2.824   1.971
10228SOL    HW231584   0.815   2.983   1.988
10229SOL     OW31585   2.786   0.706   1.802
10229SOL    HW131586   2.752   0.772   1.735
10229SOL    HW231587   2.838   0.634   1.756
10230SOL     OW31588   6.045   6.594   3.403
10230SOL    HW131589   6.027   6.549   3.315
10230SOL    HW231590   6.015   6.689   3.398
10231SOL     OW31591   4.628   6.258   4.293
10231SOL    HW131592   4.572   6.259   4.210
10231SOL    HW231593   4.689   6.179   4.291
10232SOL     OW31594   3.752   2.164   3.373
10232SOL    HW131595   3.725   2.182   3.467
10232SOL    HW231596   3.834   2.217   3.351
10233SOL     OW31597   5.000   6.857   5.497
10233SOL    HW131598   5.023   6.952   5.515
10233SOL    HW231599   5.036   6.831   5.407
10234SOL     OW31600   4.241   5.264   1.218
10234SOL    HW131601   4.161   5.204   1.225
10234SOL    HW231602   4.212   5.359   1.224
10235SOL     OW31603   5.124   0.577   0.336
10235SOL    HW131604   5.222   0.575   0.354
10235SOL    HW231605   5.109   0.587   0.237
10236SOL     OW31606   1.662   5.801   1.293
10236SOL    HW131607   1.759   5.796   1.266
10236SOL    HW231608   1.609   5.734   1.240
10237SOL     OW31609   5.938   2.439   2.776
10237SOL    HW131610   5.846   2.464   2.806
10237SOL    HW231611   5.937   2.348   2.734
10238SOL     OW31612   4.704   5.847   4.995
10238SOL    HW131613   4.632   5.849   5.065
10238SOL    HW231614   4.697   5.929   4.939
10239SOL     OW31615   6.089   2.980   4.693
10239SOL    HW131616   5.995   2.999   4.721
10239SOL    HW231617   6.144   2.957   4.773
10240SOL     OW31618   5.057   3.636   3.520
10240SOL    HW131619   4.996   3.609   3.446
10240SOL    HW231620   5.035   3.729   3.549
10241SOL     OW31621   1.523   2.536   2.820
10241SOL    HW131622   1.529   2.436   2.823
10241SOL    HW231623   1.460   2.564   2.748
10242SOL     OW31624   1.023   5.188   5.817
10242SOL    HW131625   0.982   5.109   5.772
10242SOL    HW231626   1.057   5.162   5.907
10243SOL     OW31627   0.590   5.727   2.874
10243SOL    HW131628   0.597   5.764   2.781
10243SOL    HW231629   0.670   5.756   2.927
10244SOL     OW31630   1.402   5.557   0.422
10244SOL    HW131631   1.392   5.466   0.381
10244SOL    HW231632   1.339   5.620   0.378
10245SOL     OW31633   2.428   2.752   0.645
10245SOL    HW131634   2.364   2.683   0.680
10245SOL    HW231635   2.518   2.739   0.687
10246SOL     OW31636   2.982   3.898   4.482
10246SOL    HW131637   2.968   3.996   4.496
10246SOL    HW231638   2.981   3.851   4.571
10247SOL     OW31639   0.686   6.353   6.082
10247SOL    HW131640   0.713   6.421   6.014
10247SOL    HW231641   0.747   6.274   6.076
10248SOL     OW31642   6.125   0.703   3.631
10248SOL    HW131643   6.216   0.674   3.602
10248SOL    HW231644   6.132   0.787   3.683
10249SOL     OW31645   5.024   0.834   6.080
10249SOL    HW131646   5.020   0.751   6.136
10249SOL    HW231647   4.941   0.888   6.095
10250SOL     OW31648   4.553   6.017   0.552
10250SOL    HW131649   4.551   6.073   0.469
10250SOL    HW231650   4.481   5.948   0.548
10251SOL     OW31651   3.865   4.479   1.402
10251SOL    HW131652   3.820   4.457   1.315
10251SOL    HW231653   3.849   4.406   1.468
10252SOL     OW31654   0.467   4.004   1.020
10252SOL    HW131655   0.423   4.074   0.963
10252SOL    HW231656   0.403   3.974   1.091
10253SOL     OW31657   3.787   4.853   0.303
10253SOL    HW131658   3.779   4.867   0.402
10253SOL    HW231659   3.807   4.757   0.285
10254SOL     OW31660   2.423   1.727   4.826
10254SOL    HW131661   2.368   1.768   4.753
10254SOL    HW231662   2.382   1.748   4.914
10255SOL     OW31663   3.420   5.686   3.539
10255SOL    HW131664   3.498   5.748   3.533
10255SOL    HW231665   3.449   5.594   3.511
10256SOL     OW31666   5.580   6.156   0.849
10256SOL    HW131667   5.511   6.086   0.869
10256SOL    HW231668   5.543   6.220   0.782
10257SOL     OW31669   1.422   5.719   5.680
10257SOL    HW131670   1.505   5.740   5.628
10257SOL    HW231671   1.446   5.697   5.775
10258SOL     OW31672   4.328   0.714   3.253
10258SOL    HW131673   4.235   0.680   3.237
10258SOL    HW231674   4.363   0.756   3.169
10259SOL     OW31675   0.276   2.994   3.601
10259SOL    HW131676   0.300   2.963   3.510
10259SOL    HW231677   0.199   2.940   3.636
10260SOL     OW31678   0.172   5.861   2.333
10260SOL    HW131679   0.201   5.951   2.302
10260SOL    HW231680   0.238   5.825   2.399
10261SOL     OW31681   2.233   0.392   1.992
10261SOL    HW131682   2.201   0.377   2.086
10261SOL    HW231683   2.307   0.459   1.994
10262SOL     OW31684   1.360   6.428   4.118
10262SOL    HW131685   1.319   6.346   4.078
10262SOL    HW231686   1.457   6.412   4.134
10263SOL     OW31687   6.802   3.554   4.746
10263SOL    HW131688   6.739   3.477   4.736
10263SOL    HW231689   6.856   3.564   4.663
10264SOL     OW31690   0.383   6.399   0.140
10264SOL    HW131691   0.316   6.355   0.199
10264SOL    HW231692   0.362   6.377   0.044
10265SOL     OW31693   4.586   2.022   3.370
10265SOL    HW131694   4.620   2.103   3.418
10265SOL    HW231695   4.493   2.002   3.401
10266SOL     OW31696   3.770   3.589   0.002
10266SOL    HW131697   3.856   3.617   0.044
10266SOL    HW231698   3.701   3.661   0.017
10267SOL     OW31699   6.269   1.129   6.217
10267SOL    HW131700   6.238   1.089   6.131
10267SOL    HW231701   6.348   1.078   6.252
10268SOL     OW31702   6.793   3.781   0.845
10268SOL    HW131703   6.771   3.754   0.939
10268SOL    HW231704   6.715   3.828   0.804
10269SOL     OW31705   4.179   1.969   6.191
10269SOL    HW131706   4.133   1.892   6.148
10269SOL    HW231707   4.200   1.948   6.286
10270SOL     OW31708   2.843   5.968   2.302
10270SOL    HW131709   2.914   5.906   2.270
10270SOL    HW231710   2.845   5.973   2.402
10271SOL     OW31711   1.936   5.061   1.573
10271SOL    HW131712   1.924   4.992   1.644
10271SOL    HW231713   1.899   5.148   1.605
10272SOL     OW31714   1.571   2.145   3.906
10272SOL    HW131715   1.631   2.068   3.929
10272SOL    HW231716   1.622   2.230   3.910
10273SOL     OW31717   4.466   6.346   4.070
10273SOL    HW131718   4.474   6.435   4.025
10273SOL    HW231719   4.370   6.329   4.093
10274SOL     OW31720   2.830   4.973   6.564
10274SOL    HW131721   2.798   5.000   6.473
10274SOL    HW231722   2.903   4.906   6.555
10275SOL     OW31723   0.664   6.402   1.243
10275SOL    HW131724   0.742   6.453   1.278
10275SOL    HW231725   0.665   6.309   1.281
10276SOL     OW31726   0.722   6.801   0.483
10276SOL    HW131727   0.685   6.741   0.553
10276SOL    HW231728   0.811   6.836   0.512
10277SOL     OW31729   0.304   6.194   2.043
10277SOL    HW131730   0.224   6.253   2.053
10277SOL    HW231731   0.291   6.134   1.964
10278SOL     OW31732   6.656   0.848   5.549
10278SOL    HW131733   6.722   0.866   5.622
10278SOL    HW231734   6.639   0.750   5.543
10279SOL     OW31735   3.636   6.057   5.045
10279SOL    HW131736   3.646   5.958   5.030
10279SOL    HW231737   3.553   6.074   5.098
10280SOL     OW31738   2.929   2.773   0.453
10280SOL    HW131739   2.945   2.838   0.378
10280SOL    HW231740   2.995   2.788   0.526
10281SOL     OW31741   4.998   0.590   4.132
10281SOL    HW131742   5.004   0.690   4.142
10281SOL    HW231743   5.088   0.550   4.147
10282SOL     OW31744   1.122   2.566   4.065
10282SOL    HW131745   1.219   2.546   4.075
10282SOL    HW231746   1.080   2.498   4.005
10283SOL     OW31747   1.760   4.346   5.793
10283SOL    HW131748   1.751   4.422   5.728
10283SOL    HW231749   1.799   4.267   5.747
10284SOL     OW31750   5.097   3.415   6.974
10284SOL    HW131751   5.160   3.416   6.896
10284SOL    HW231752   5.079   3.509   7.004
10285SOL     OW31753   4.955   1.883   1.190
10285SOL    HW131754   5.031   1.927   1.237
10285SOL    HW231755   4.972   1.784   1.184
10286SOL     OW31756   4.198   0.400   4.400
10286SOL    HW131757   4.103   0.366   4.395
10286SOL    HW231758   4.225   0.407   4.496
10287SOL     OW31759   1.604   4.796   1.846
10287SOL    HW131760   1.572   4.878   1.798
10287SOL    HW231761   1.557   4.788   1.934
10288SOL     OW31762   3.837   6.352   4.840
10288SOL    HW131763   3.858   6.441   4.800
10288SOL    HW231764   3.916   6.318   4.890
10289SOL     OW31765   2.902   1.495   1.809
10289SOL    HW131766   2.964   1.540   1.874
10289SOL    HW231767   2.808   1.526   1.826
10290SOL     OW31768   3.166   2.969   3.278
10290SOL    HW131769   3.260   3.003   3.289
10290SOL    HW231770   3.160   2.876   3.315
10291SOL     OW31771   4.082   0.402   4.859
10291SOL    HW131772   4.162   0.410   4.918
10291SOL    HW231773   4.047   0.309   4.864
10292SOL     OW31774   0.073   2.227   4.216
10292SOL    HW131775   0.037   2.149   4.164
10292SOL    HW231776   7.020   2.279   4.254
10293SOL     OW31777   3.240   4.965   2.684
10293SOL    HW131778   3.333   4.960   2.721
10293SOL    HW231779   3.212   5.061   2.678
10294SOL     OW31780   6.508   1.066   3.574
10294SOL    HW131781   6.602   1.032   3.569
10294SOL    HW231782   6.481   1.105   3.486
10295SOL     OW31783   1.607   4.078   4.221
10295SOL    HW131784   1.636   4.131   4.300
10295SOL    HW231785   1.530   4.124   4.176
10296SOL     OW31786   6.350   3.113   1.718
10296SOL    HW131787   6.379   3.047   1.787
10296SOL    HW231788   6.419   3.184   1.708
10297SOL     OW31789   3.113   4.993   5.413
10297SOL    HW131790   3.037   5.043   5.373
10297SOL    HW231791   3.117   4.901   5.374
10298SOL     OW31792   6.081   2.946   3.025
10298SOL    HW131793   5.987   2.961   3.058
10298SOL    HW231794   6.082   2.950   2.925
10299SOL     OW31795   4.749   4.289   2.474
10299SOL    HW131796   4.766   4.276   2.376
10299SOL    HW231797   4.835   4.294   2.523
10300SOL     OW31798   0.629   6.205   1.952
10300SOL    HW131799   0.552   6.144   1.939
10300SOL    HW231800   0.605   6.276   2.018
10301SOL     OW31801   4.588   0.613   1.774
10301SOL    HW131802   4.621   0.701   1.808
10301SOL    HW231803   4.665   0.556   1.746
10302SOL     OW31804   1.781   4.074   3.540
10302SOL    HW131805   1.812   4.003   3.477
10302SOL    HW231806   1.831   4.159   3.522
10303SOL     OW31807   4.387   3.051   1.477
10303SOL    HW131808   4.460   3.031   1.542
10303SOL    HW231809   4.300   3.061   1.527
10304SOL     OW31810   5.756   6.380   3.768
10304SOL    HW131811   5.796   6.356   3.680
10304SOL    HW231812   5.825   6.420   3.827
10305SOL     OW31813   1.683   5.315   1.218
10305SOL    HW131814   1.769   5.275   1.248
10305SOL    HW231815   1.626   5.335   1.298
10306SOL     OW31816   4.193   4.302   0.566
10306SOL    HW131817   4.222   4.238   0.636
10306SOL    HW231818   4.202   4.260   0.475
10307SOL     OW31819   2.666   2.013   5.526
10307SOL    HW131820   2.687   1.946   5.596
10307SOL    HW231821   2.710   2.100   5.548
10308SOL     OW31822   2.690   4.978   3.767
10308SOL    HW131823   2.773   4.923   3.759
10308SOL    HW231824   2.614   4.931   3.723
10309SOL     OW31825   0.527   6.120   3.562
10309SOL    HW131826   0.554   6.068   3.481
10309SOL    HW231827   0.609   6.141   3.616
10310SOL     OW31828   2.899   3.455   4.190
10310SOL    HW131829   2.929   3.421   4.279
10310SOL    HW231830   2.811   3.414   4.167
10311SOL     OW31831   1.009   0.895   0.982
10311SOL    HW131832   1.017   0.833   1.060
10311SOL    HW231833   0.914   0.923   0.970
10312SOL     OW31834   2.463   4.810   0.808
10312SOL    HW131835   2.399   4.852   0.744
10312SOL    HW231836   2.555   4.813   0.769
10313SOL     OW31837   0.019   5.782   4.357
10313SOL    HW131838   0.051   5.764   4.265
10313SOL    HW231839   6.944   5.763   4.363
10314SOL     OW31840   0.125   5.936   5.228
10314SOL    HW131841   0.067   5.883   5.165
10314SOL    HW231842   0.141   5.884   5.311
10315SOL     OW31843   4.328   6.701   5.736
10315SOL    HW131844   4.379   6.653   5.807
10315SOL    HW231845   4.373   6.687   5.647
10316SOL     OW31846   0.183   4.181   3.041
10316SOL    HW131847   0.087   4.187   3.014
10316SOL    HW231848   0.227   4.106   2.992
10317SOL     OW31849   4.819   4.311   6.938
10317SOL    HW131850   4.889   4.346   6.876
10317SOL    HW231851   4.736   4.288   6.887
10318SOL     OW31852   5.764   4.989   2.722
10318SOL    HW131853   5.861   5.002   2.745
10318SOL    HW231854   5.753   4.988   2.623
10319SOL     OW31855   5.035   6.624   3.967
10319SOL    HW131856   5.011   6.548   3.906
10319SOL    HW231857   5.066   6.587   4.055
10320SOL     OW31858   4.483   6.552   2.329
10320SOL    HW131859   4.409   6.579   2.267
10320SOL    HW231860   4.495   6.622   2.399
10321SOL     OW31861   4.523   6.617   4.620
10321SOL    HW131862   4.496   6.569   4.703
10321SOL    HW231863   4.472   6.703   4.613
10322SOL     OW31864   0.428   2.045   0.027
10322SOL    HW131865   0.438   1.949   0.052
10322SOL    HW231866   0.332   2.072   0.034
10323SOL     OW31867   0.938   2.298   5.452
10323SOL    HW131868   0.901   2.236   5.383
10323SOL    HW231869   0.891   2.283   5.539
10324SOL     OW31870   3.556   2.935   4.196
10324SOL    HW131871   3.465   2.910   4.229
10324SOL    HW231872   3.575   2.887   4.110
10325SOL     OW31873   6.566   3.493   3.416
10325SOL    HW131874   6.643   3.476   3.354
10325SOL    HW231875   6.581   3.580   3.463
10326SOL     OW31876   5.989   2.056   1.340
10326SOL    HW131877   5.948   2.119   1.273
10326SOL    HW231878   6.078   2.026   1.306
10327SOL     OW31879   6.011   1.396   3.440
10327SOL    HW131880   5.975   1.337   3.511
10327SOL    HW231881   5.945   1.401   3.364
10328SOL     OW31882   6.329   3.699   2.230
10328SOL    HW131883   6.425   3.726   2.215
10328SOL    HW231884   6.273   3.781   2.237
10329SOL     OW31885   3.671   6.057   3.206
10329SOL    HW131886   3.576   6.051   3.176
10329SOL    HW231887   3.731   6.034   3.129
10330SOL     OW31888   3.266   3.870   1.169
10330SOL    HW131889   3.359   3.904   1.183
10330SOL    HW231890   3.240   3.882   1.073
10331SOL     OW31891   5.543   1.397   4.102
10331SOL    HW131892   5.606   1.351   4.166
10331SOL    HW231893   5.450   1.362   4.117
10332SOL     OW31894   1.335   1.950   6.035
10332SOL    HW131895   1.313   1.880   6.103
10332SOL    HW231896   1.411   2.006   6.068
10333SOL     OW31897   6.763   4.633   5.060
10333SOL    HW131898   6.861   4.644   5.074
10333SOL    HW231899   6.715   4.713   5.097
10334SOL     OW31900   0.703   5.344   5.303
10334SOL    HW131901   0.691   5.300   5.214
10334SOL    HW231902   0.619   5.391   5.329
10335SOL     OW31903   3.514   5.245   2.827
10335SOL    HW131904   3.612   5.252   2.847
10335SOL    HW231905   3.499   5.252   2.729
10336SOL     OW31906   5.116   6.814   3.053
10336SOL    HW131907   5.058   6.891   3.027
10336SOL    HW231908   5.207   6.827   3.015
10337SOL     OW31909   0.610   4.158   6.234
10337SOL    HW131910   0.622   4.085   6.167
10337SOL    HW231911   0.612   4.119   6.326
10338SOL     OW31912   2.709   4.798   2.376
10338SOL    HW131913   2.790   4.856   2.381
10338SOL    HW231914   2.673   4.799   2.283
10339SOL     OW31915   2.683   5.396   0.264
10339SOL    HW131916   2.647   5.383   0.356
10339SOL    HW231917   2.770   5.349   0.255
10340SOL     OW31918   1.545   6.437   0.781
10340SOL    HW131919   1.604   6.517   0.775
10340SOL    HW231920   1.468   6.447   0.718
10341SOL     OW31921   0.594   2.330   1.714
10341SOL    HW131922   0.500   2.303   1.734
10341SOL    HW231923   0.657   2.276   1.769
10342SOL     OW31924   3.292   5.746   4.739
10342SOL    HW131925   3.265   5.650   4.728
10342SOL    HW231926   3.385   5.759   4.705
10343SOL     OW31927   2.423   2.742   4.600
10343SOL    HW131928   2.509   2.723   4.647
10343SOL    HW231929   2.415   2.683   4.520
10344SOL     OW31930   4.508   3.804   1.665
10344SOL    HW131931   4.444   3.864   1.617
10344SOL    HW231932   4.575   3.860   1.714
10345SOL     OW31933   3.405   2.298   6.486
10345SOL    HW131934   3.349   2.215   6.482
10345SOL    HW231935   3.501   2.273   6.471
10346SOL     OW31936   6.328   4.990   0.510
10346SOL    HW131937   6.392   5.066   0.497
10346SOL    HW231938   6.241   5.025   0.544
10347SOL     OW31939   4.564   0.001   1.765
10347SOL    HW131940   4.471   6.990   1.747
10347SOL    HW231941   4.608   6.965   1.832
10348SOL     OW31942   6.705   4.849   5.496
10348SOL    HW131943   6.666   4.875   5.584
10348SOL    HW231944   6.631   4.835   5.430
10349SOL     OW31945   6.113   2.113   6.907
10349SOL    HW131946   6.193   2.055   6.893
10349SOL    HW231947   6.129   2.202   6.863
10350SOL     OW31948   1.588   4.764   4.615
10350SOL    HW131949   1.654   4.748   4.541
10350SOL    HW231950   1.563   4.861   4.618
10351SOL     OW31951   3.749   4.981   5.060
10351SOL    HW131952   3.716   5.075   5.055
10351SOL    HW231953   3.793   4.956   4.974
10352SOL     OW31954   6.970   1.085   1.195
10352SOL    HW131955   0.034   1.096   1.242
10352SOL    HW231956   6.986   1.067   1.098
10353SOL     OW31957   5.910   2.627   3.917
10353SOL    HW131958   5.828   2.570   3.926
10353SOL    HW231959   5.986   2.572   3.882
10354SOL     OW31960   6.668   3.094   1.155
10354SOL    HW131961   6.709   3.092   1.246
10354SOL    HW231962   6.623   3.006   1.136
10355SOL     OW31963   0.797   2.038   0.929
10355SOL    HW131964   0.700   2.014   0.935
10355SOL    HW231965   0.809   2.134   0.955
10356SOL     OW31966   5.798   2.700   6.947
10356SOL    HW131967   5.748   2.631   7.000
10356SOL    HW231968   5.896   2.683   6.954
10357SOL     OW31969   0.787   0.344   6.222
10357SOL    HW131970   0.877   0.299   6.220
10357SOL    HW231971   0.715   0.276   6.223
10358SOL     OW31972   0.788   2.504   3.102
10358SOL    HW131973   0.778   2.599   3.074
10358SOL    HW231974   0.879   2.471   3.078
10359SOL     OW31975   0.810   2.319   2.276
10359SOL    HW131976   0.777   2.289   2.365
10359SOL    HW231977   0.889   2.264   2.249
10360SOL     OW31978   6.028   4.129   1.165
10360SOL    HW131979   6.073   4.196   1.224
10360SOL    HW231980   5.931   4.152   1.157
10361SOL     OW31981   6.286   1.342   2.305
10361SOL    HW131982   6.205   1.377   2.350
10361SOL    HW231983   6.302   1.392   2.220
10362SOL     OW31984   0.760   5.930   1.455
10362SOL    HW131985   0.792   6.025   1.454
10362SOL    HW231986   0.677   5.923   1.510
10363SOL     OW31987   5.448   4.692   6.656
10363SOL    HW131988   5.441   4.735   6.566
10363SOL    HW231989   5.446   4.592   6.646
10364SOL     OW31990   5.835   5.433   2.238
10364SOL    HW131991   5.903   5.499   2.271
10364SOL    HW231992   5.743   5.468   2.256
10365SOL     OW31993   6.216   5.374   0.037
10365SOL    HW131994   6.239   5.468   0.010
10365SOL    HW231995   6.170   5.376   0.126
10366SOL     OW31996   3.056   0.322   3.924
10366SOL    HW131997   3.000   0.365   3.853
10366SOL    HW231998   2.999   0.259   3.978
10367SOL     OW31999   5.332   6.642   1.907
10367SOL    HW132000   5.257   6.636   1.841
10367SOL    HW232001   5.312   6.715   1.972
10368SOL     OW32002   0.893   6.242   1.823
10368SOL    HW132003   0.964   6.259   1.892
10368SOL    HW232004   0.803   6.240   1.866
10369SOL     OW32005   2.488   0.596   5.715
10369SOL    HW132006   2.576   0.631   5.685
10369SOL    HW232007   2.500   0.537   5.795
10370SOL     OW32008   2.294   2.202   5.733
10370SOL    HW132009   2.246   2.181   5.819
10370SOL    HW232010   2.305   2.117   5.680
10371SOL     OW32011   4.355   6.017   3.218
10371SOL    HW132012   4.399   6.103   3.243
10371SOL    HW232013   4.411   5.969   3.150
10372SOL     OW32014   2.032   6.463   0.643
10372SOL    HW132015   2.130   6.454   0.621
10372SOL    HW232016   1.999   6.379   0.684
10373SOL     OW32017   6.332   0.607   0.098
10373SOL    HW132018   6.307   0.697   0.134
10373SOL    HW232019   6.377   0.618   0.009
10374SOL     OW32020   2.857   4.868   2.914
10374SOL    HW132021   2.768   4.883   2.872
10374SOL    HW232022   2.925   4.851   2.842
10375SOL     OW32023   2.387   5.315   0.145
10375SOL    HW132024   2.338   5.279   0.065
10375SOL    HW232025   2.484   5.293   0.137
10376SOL     OW32026   2.260   4.840   3.485
10376SOL    HW132027   2.252   4.754   3.535
10376SOL    HW232028   2.179   4.853   3.429
10377SOL     OW32029   2.567   0.722   3.059
10377SOL    HW132030   2.519   0.807   3.041
10377SOL    HW232031   2.666   0.737   3.053
10378SOL     OW32032   0.439   6.231   5.135
10378SOL    HW132033   0.518   6.284   5.106
10378SOL    HW232034   0.378   6.216   5.057
10379SOL     OW32035   1.968   6.493   3.675
10379SOL    HW132036   1.985   6.590   3.693
10379SOL    HW232037   1.920   6.453   3.754
10380SOL     OW32038   3.547   1.066   4.040
10380SOL    HW132039   3.557   1.020   3.952
10380SOL    HW232040   3.471   1.131   4.034
10381SOL     OW32041   4.026   0.021   2.861
10381SOL    HW132042   4.084   0.032   2.780
10381SOL    HW232043   4.034   0.103   2.918
10382SOL     OW32044   4.109   5.659   1.717
10382SOL    HW132045   4.023   5.658   1.666
10382SOL    HW232046   4.112   5.579   1.777
10383SOL     OW32047   0.384   5.764   6.629
10383SOL    HW132048   0.327   5.687   6.601
10383SOL    HW232049   0.329   5.827   6.685
10384SOL     OW32050   4.819   5.501   1.642
10384SOL    HW132051   4.787   5.417   1.598
10384SOL    HW232052   4.864   5.479   1.728
10385SOL     OW32053   4.123   4.498   7.001
10385SOL    HW132054   4.136   4.531   0.072
10385SOL    HW232055   4.130   4.398   7.000
10386SOL     OW32056   0.201   0.588   1.788
10386SOL    HW132057   0.141   0.582   1.868
10386SOL    HW232058   0.189   0.506   1.732
10387SOL     OW32059   5.018   3.008   2.115
10387SOL    HW132060   4.980   2.945   2.046
10387SOL    HW232061   5.072   3.078   2.069
10388SOL     OW32062   1.924   0.380   4.573
10388SOL    HW132063   1.906   0.472   4.539
10388SOL    HW232064   1.913   0.314   4.499
10389SOL     OW32065   0.528   3.724   6.998
10389SOL    HW132066   0.564   3.646   0.027
10389SOL    HW232067   0.602   3.768   6.948
10390SOL     OW32068   2.062   2.045   1.880
10390SOL    HW132069   1.969   2.007   1.881
10390SOL    HW232070   2.108   2.017   1.796
10391SOL     OW32071   6.479   0.132   3.538
10391SOL    HW132072   6.428   0.047   3.522
10391SOL    HW232073   6.572   0.110   3.567
10392SOL     OW32074   6.467   4.176   4.043
10392SOL    HW132075   6.557   4.135   4.024
10392SOL    HW232076   6.434   4.142   4.131
10393SOL     OW32077   2.017   2.535   2.471
10393SOL    HW132078   1.920   2.556   2.484
10393SOL    HW232079   2.055   2.596   2.401
10394SOL     OW32080   3.188   6.590   4.072
10394SOL    HW132081   3.110   6.532   4.053
10394SOL    HW232082   3.189   6.614   4.170
10395SOL     OW32083   1.245   0.569   1.038
10395SOL    HW132084   1.233   0.630   0.960
10395SOL    HW232085   1.178   0.592   1.109
10396SOL     OW32086   3.387   2.109   4.945
10396SOL    HW132087   3.313   2.165   4.907
10396SOL    HW232088   3.396   2.128   5.043
10397SOL     OW32089   5.146   1.547   4.042
10397SOL    HW132090   5.193   1.602   3.974
10397SOL    HW232091   5.198   1.463   4.058
10398SOL     OW32092   5.734   2.117   2.157
10398SOL    HW132093   5.641   2.082   2.144
10398SOL    HW232094   5.775   2.134   2.067
10399SOL     OW32095   0.762   3.765   2.217
10399SOL    HW132096   0.838   3.826   2.196
10399SOL    HW232097   0.729   3.783   2.309
10400SOL     OW32098   2.221   6.265   0.843
10400SOL    HW132099   2.121   6.261   0.853
10400SOL    HW232100   2.245   6.316   0.761
10401SOL     OW32101   0.349   0.605   5.700
10401SOL    HW132102   0.326   0.526   5.757
10401SOL    HW232103   0.265   0.644   5.662
10402SOL     OW32104   6.689   4.102   5.261
10402SOL    HW132105   6.621   4.175   5.248
10402SOL    HW232106   6.700   4.051   5.176
10403SOL     OW32107   3.155   0.157   1.196
10403SOL    HW132108   3.083   0.096   1.229
10403SOL    HW232109   3.127   0.200   1.111
10404SOL     OW32110   6.925   6.457   5.865
10404SOL    HW132111   6.853   6.429   5.929
10404SOL    HW232112   6.926   6.557   5.858
10405SOL     OW32113   0.254   2.578   6.653
10405SOL    HW132114   0.346   2.578   6.692
10405SOL    HW232115   0.195   2.639   6.706
10406SOL     OW32116   1.514   5.428   1.416
10406SOL    HW132117   1.463   5.346   1.441
10406SOL    HW232118   1.458   5.484   1.354
10407SOL     OW32119   2.054   5.853   5.616
10407SOL    HW132120   1.992   5.775   5.627
10407SOL    HW232121   2.004   5.938   5.633
10408SOL     OW32122   4.619   0.995   0.030
10408SOL    HW132123   4.698   0.947   7.016
10408SOL    HW232124   4.627   1.093   0.010
10409SOL     OW32125   6.131   3.774   0.929
10409SOL    HW132126   6.093   3.693   0.973
10409SOL    HW232127   6.181   3.829   0.996
10410SOL     OW32128   4.242   0.056   0.478
10410SOL    HW132129   4.159   0.110   0.497
10410SOL    HW232130   4.242   6.997   0.537
10411SOL     OW32131   1.753   4.660   4.401
10411SOL    HW132132   1.817   4.633   4.329
10411SOL    HW232133   1.771   4.605   4.483
10412SOL     OW32134   5.093   6.973   0.398
10412SOL    HW132135   5.121   0.006   0.476
10412SOL    HW232136   5.172   6.921   0.365
10413SOL     OW32137   6.178   3.218   2.215
10413SOL    HW132138   6.205   3.224   2.119
10413SOL    HW232139   6.253   3.181   2.269
10414SOL     OW32140   4.666   2.669   4.131
10414SOL    HW132141   4.740   2.603   4.143
10414SOL    HW232142   4.685   2.751   4.185
10415SOL     OW32143   0.400   0.734   6.471
10415SOL    HW132144   0.457   0.684   6.406
10415SOL    HW232145   0.305   0.731   6.441
10416SOL     OW32146   5.670   2.746   4.031
10416SOL    HW132147   5.602   2.799   3.980
10416SOL    HW232148   5.756   2.746   3.980
10417SOL     OW32149   2.027   4.155   3.113
10417SOL    HW132150   1.947   4.108   3.077
10417SOL    HW232151   2.028   4.249   3.079
10418SOL     OW32152   1.646   5.931   5.632
10418SOL    HW132153   1.663   5.978   5.718
10418SOL    HW232154   1.554   5.952   5.599
10419SOL     OW32155   0.881   1.209   0.212
10419SOL    HW132156   0.839   1.262   0.286
10419SOL    HW232157   0.980   1.208   0.224
10420SOL     OW32158   0.644   3.007   3.025
10420SOL    HW132159   0.605   3.006   2.933
10420SOL    HW232160   0.656   3.102   3.054
10421SOL     OW32161   0.422   1.404   3.075
10421SOL    HW132162   0.367   1.427   3.155
10421SOL    HW232163   0.364   1.366   3.003
10422SOL     OW32164   5.610   3.571   5.744
10422SOL    HW132165   5.657   3.659   5.751
10422SOL    HW232166   5.516   3.581   5.775
10423SOL     OW32167   4.921   4.000   2.935
10423SOL    HW132168   4.916   3.964   2.842
10423SOL    HW232169   4.866   4.083   2.942
10424SOL     OW32170   5.262   1.428   6.463
10424SOL    HW132171   5.170   1.425   6.422
10424SOL    HW232172   5.323   1.478   6.403
10425SOL     OW32173   1.747   6.521   1.559
10425SOL    HW132174   1.676   6.451   1.562
10425SOL    HW232175   1.814   6.504   1.631
10426SOL     OW32176   6.174   3.999   0.326
10426SOL    HW132177   6.252   4.042   0.372
10426SOL    HW232178   6.109   3.967   0.395
10427SOL     OW32179   4.642   0.734   0.947
10427SOL    HW132180   4.603   0.759   1.035
10427SOL    HW232181   4.707   0.659   0.959
10428SOL     OW32182   4.310   0.774   3.639
10428SOL    HW132183   4.345   0.820   3.720
10428SOL    HW232184   4.367   0.797   3.560
10429SOL     OW32185   5.691   6.007   1.877
10429SOL    HW132186   5.655   5.918   1.847
10429SOL    HW232187   5.776   5.993   1.927
10430SOL     OW32188   4.276   6.545   3.375
10430SOL    HW132189   4.289   6.512   3.282
10430SOL    HW232190   4.334   6.626   3.390
10431SOL     OW32191   1.890   1.287   5.131
10431SOL    HW132192   1.876   1.324   5.223
10431SOL    HW232193   1.931   1.358   5.073
10432SOL     OW32194   5.137   1.402   4.962
10432SOL    HW132195   5.162   1.496   4.936
10432SOL    HW232196   5.185   1.378   5.047
10433SOL     OW32197   2.961   6.988   1.273
10433SOL    HW132198   2.861   6.984   1.269
10433SOL    HW232199   2.995   6.915   1.331
10434SOL     OW32200   2.629   2.444   4.474
10434SOL    HW132201   2.697   2.403   4.535
10434SOL    HW232202   2.537   2.426   4.508
10435SOL     OW32203   5.903   5.380   6.579
10435SOL    HW132204   5.884   5.301   6.638
10435SOL    HW232205   5.889   5.354   6.484
10436SOL     OW32206   1.214   0.311   1.850
10436SOL    HW132207   1.270   0.329   1.769
10436SOL    HW232208   1.136   0.254   1.824
10437SOL     OW32209   6.736   4.672   5.833
10437SOL    HW132210   6.781   4.584   5.813
10437SOL    HW232211   6.779   4.744   5.778
10438SOL     OW32212   3.638   0.239   6.056
10438SOL    HW132213   3.559   0.200   6.007
10438SOL    HW232214   3.716   0.245   5.994
10439SOL     OW32215   4.122   1.153   5.592
10439SOL    HW132216   4.075   1.206   5.663
10439SOL    HW232217   4.067   1.072   5.570
10440SOL     OW32218   1.962   6.199   0.741
10440SOL    HW132219   1.890   6.215   0.809
10440SOL    HW232220   1.964   6.101   0.718
10441SOL     OW32221   3.797   0.575   0.030
10441SOL    HW132222   3.769   0.671   0.037
10441SOL    HW232223   3.844   0.549   0.114
10442SOL     OW32224   4.825   6.386   5.238
10442SOL    HW132225   4.788   6.368   5.147
10442SOL    HW232226   4.861   6.302   5.277
10443SOL     OW32227   5.966   3.038   5.026
10443SOL    HW132228   5.941   3.134   5.016
10443SOL    HW232229   5.905   2.994   5.092
10444SOL     OW32230   3.457   4.930   4.381
10444SOL    HW132231   3.526   4.940   4.453
10444SOL    HW232232   3.367   4.953   4.418
10445SOL     OW32233   6.136   6.008   3.163
10445SOL    HW132234   6.037   6.019   3.167
10445SOL    HW232235   6.158   5.915   3.130
10446SOL     OW32236   0.615   6.286   6.543
10446SOL    HW132237   0.614   6.336   6.629
10446SOL    HW232238   0.554   6.330   6.477
10447SOL     OW32239   6.261   2.060   0.601
10447SOL    HW132240   6.274   1.961   0.593
10447SOL    HW232241   6.217   2.081   0.688
10448SOL     OW32242   3.502   3.900   2.428
10448SOL    HW132243   3.464   3.824   2.375
10448SOL    HW232244   3.588   3.872   2.470
10449SOL     OW32245   1.943   5.421   4.454
10449SOL    HW132246   1.868   5.462   4.505
10449SOL    HW232247   1.914   5.403   4.360
10450SOL     OW32248   0.028   2.823   0.611
10450SOL    HW132249   7.013   2.844   0.521
10450SOL    HW232250   0.090   2.745   0.603
10451SOL     OW32251   2.283   4.333   2.619
10451SOL    HW132252   2.374   4.374   2.624
10451SOL    HW232253   2.250   4.313   2.711
10452SOL     OW32254   1.278   3.058   4.867
10452SOL    HW132255   1.219   3.135   4.892
10452SOL    HW232256   1.372   3.090   4.858
10453SOL     OW32257   5.401   0.705   1.399
10453SOL    HW132258   5.443   0.653   1.473
10453SOL    HW232259   5.306   0.726   1.423
10454SOL     OW32260   5.028   4.094   2.429
10454SOL    HW132261   5.011   4.147   2.346
10454SOL    HW232262   5.029   3.997   2.407
10455SOL     OW32263   0.246   4.663   2.519
10455SOL    HW132264   0.224   4.703   2.608
10455SOL    HW232265   0.265   4.736   2.454
10456SOL     OW32266   3.781   6.144   1.684
10456SOL    HW132267   3.705   6.082   1.702
10456SOL    HW232268   3.865   6.105   1.722
10457SOL     OW32269   3.583   3.285   4.227
10457SOL    HW132270   3.674   3.282   4.186
10457SOL    HW232271   3.575   3.215   4.297
10458SOL     OW32272   6.428   6.476   1.755
10458SOL    HW132273   6.379   6.445   1.836
10458SOL    HW232274   6.372   6.460   1.674
10459SOL     OW32275   6.648   4.948   2.275
10459SOL    HW132276   6.630   5.016   2.203
10459SOL    HW232277   6.678   4.995   2.358
10460SOL     OW32278   1.825   4.656   1.791
10460SOL    HW132279   1.752   4.724   1.783
10460SOL    HW232280   1.867   4.642   1.701
10461SOL     OW32281   3.067   1.370   6.353
10461SOL    HW132282   3.007   1.426   6.411
10461SOL    HW232283   3.097   1.290   6.406
10462SOL     OW32284   5.290   6.744   0.986
10462SOL    HW132285   5.346   6.763   0.905
10462SOL    HW232286   5.348   6.705   1.058
10463SOL     OW32287   3.323   3.317   1.781
10463SOL    HW132288   3.257   3.380   1.740
10463SOL    HW232289   3.333   3.236   1.723
10464SOL     OW32290   5.301   6.620   1.528
10464SOL    HW132291   5.214   6.656   1.495
10464SOL    HW232292   5.376   6.668   1.482
10465SOL     OW32293   6.855   5.104   4.825
10465SOL    HW132294   6.927   5.085   4.758
10465SOL    HW232295   6.855   5.201   4.847
10466SOL     OW32296   5.001   6.006   6.400
10466SOL    HW132297   4.922   6.010   6.460
10466SOL    HW232298   4.970   6.000   6.305
10467SOL     OW32299   4.390   1.486   3.631
10467SOL    HW132300   4.382   1.386   3.626
10467SOL    HW232301   4.480   1.511   3.668
10468SOL     OW32302   3.432   5.414   3.200
10468SOL    HW132303   3.437   5.411   3.100
10468SOL    HW232304   3.471   5.500   3.233
10469SOL     OW32305   1.542   5.704   6.861
10469SOL    HW132306   1.590   5.783   6.825
10469SOL    HW232307   1.546   5.629   6.794
10470SOL     OW32308   2.582   1.932   4.453
10470SOL    HW132309   2.528   2.004   4.496
10470SOL    HW232310   2.552   1.920   4.359
10471SOL     OW32311   4.183   3.957   0.410
10471SOL    HW132312   4.221   3.925   0.497
10471SOL    HW232313   4.161   3.878   0.353
10472SOL     OW32314   4.436   1.518   3.363
10472SOL    HW132315   4.349   1.532   3.316
10472SOL    HW232316   4.421   1.513   3.461
10473SOL     OW32317   4.769   5.535   0.114
10473SOL    HW132318   4.727   5.501   0.030
10473SOL    HW232319   4.818   5.461   0.159
10474SOL     OW32320   5.040   1.258   3.617
10474SOL    HW132321   5.118   1.321   3.609
10474SOL    HW232322   4.970   1.298   3.676
10475SOL     OW32323   4.583   6.175   1.808
10475SOL    HW132324   4.549   6.107   1.744
10475SOL    HW232325   4.509   6.237   1.834
10476SOL     OW32326   0.567   4.744   6.626
10476SOL    HW132327   0.469   4.730   6.612
10476SOL    HW232328   0.583   4.840   6.649
10477SOL     OW32329   4.648   4.435   5.199
10477SOL    HW132330   4.599   4.396   5.277
10477SOL    HW232331   4.728   4.379   5.178
10478SOL     OW32332   0.331   5.979   3.015
10478SOL    HW132333   0.352   6.059   2.960
10478SOL    HW232334   0.234   5.977   3.036
10479SOL     OW32335   0.942   4.548   2.200
10479SOL    HW132336   0.959   4.537   2.298
10479SOL    HW232337   0.855   4.505   2.177
10480SOL     OW32338   5.772   0.592   1.684
10480SOL    HW132339   5.860   0.555   1.654
10480SOL    HW232340   5.698   0.541   1.641
10481SOL     OW32341   2.570   1.376   4.682
10481SOL    HW132342   2.609   1.346   4.769
10481SOL    HW232343   2.642   1.415   4.625
10482SOL     OW32344   0.882   5.676   6.392
10482SOL    HW132345   0.930   5.692   6.478
10482SOL    HW232346   0.783   5.689   6.406
10483SOL     OW32347   6.316   5.329   1.064
10483SOL    HW132348   6.387   5.398   1.080
10483SOL    HW232349   6.234   5.353   1.116
10484SOL     OW32350   6.258   2.309   1.682
10484SOL    HW132351   6.161   2.295   1.702
10484SOL    HW232352   6.307   2.222   1.695
10485SOL     OW32353   3.355   4.087   3.851
10485SOL    HW132354   3.443   4.049   3.881
10485SOL    HW232355   3.298   4.107   3.930
10486SOL     OW32356   6.085   5.518   5.541
10486SOL    HW132357   6.103   5.576   5.620
10486SOL    HW232358   6.162   5.525   5.477
10487SOL     OW32359   5.245   3.005   3.165
10487SOL    HW132360   5.175   3.009   3.236
10487SOL    HW232361   5.225   2.930   3.102
10488SOL     OW32362   0.229   2.673   4.751
10488SOL    HW132363   0.210   2.765   4.717
10488SOL    HW232364   0.159   2.610   4.719
10489SOL     OW32365   5.691   4.536   4.239
10489SOL    HW132366   5.666   4.483   4.158
10489SOL    HW232367   5.789   4.555   4.237
10490SOL     OW32368   5.846   6.747   6.716
10490SOL    HW132369   5.915   6.680   6.743
10490SOL    HW232370   5.852   6.827   6.777
10491SOL     OW32371   1.797   3.024   5.906
10491SOL    HW132372   1.890   2.989   5.893
10491SOL    HW232373   1.736   2.983   5.838
10492SOL     OW32374   2.834   6.238   0.525
10492SOL    HW132375   2.756   6.290   0.488
10492SOL    HW232376   2.832   6.243   0.625
10493SOL     OW32377   4.140   5.510   1.201
10493SOL    HW132378   4.064   5.527   1.264
10493SOL    HW232379   4.166   5.596   1.156
10494SOL     OW32380   0.598   4.818   4.002
10494SOL    HW132381   0.679   4.771   3.966
10494SOL    HW232382   0.590   4.800   4.100
10495SOL     OW32383   0.061   0.080   0.404
10495SOL    HW132384   0.067   0.167   0.356
10495SOL    HW232385   0.002   0.090   0.484
10496SOL     OW32386   0.399   4.773   6.255
10496SOL    HW132387   0.336   4.796   6.181
10496SOL    HW232388   0.352   4.716   6.323
10497SOL     OW32389   3.341   6.960   1.520
10497SOL    HW132390   3.253   6.946   1.563
10497SOL    HW232391   3.414   6.946   1.587
10498SOL     OW32392   3.930   3.403   6.835
10498SOL    HW132393   3.853   3.465   6.828
10498SOL    HW232394   4.015   3.450   6.809
10499SOL     OW32395   4.691   4.145   2.712
10499SOL    HW132396   4.694   4.196   2.626
10499SOL    HW232397   4.713   4.049   2.694
10500SOL     OW32398   1.414   3.267   5.127
10500SOL    HW132399   1.503   3.221   5.125
10500SOL    HW232400   1.343   3.202   5.155
10501SOL     OW32401   3.806   4.895   3.309
10501SOL    HW132402   3.817   4.949   3.393
10501SOL    HW232403   3.720   4.921   3.264
10502SOL     OW32404   2.886   3.564   2.649
10502SOL    HW132405   2.862   3.490   2.712
10502SOL    HW232406   2.908   3.526   2.560
10503SOL     OW32407   6.783   0.958   6.746
10503SOL    HW132408   6.826   1.041   6.711
10503SOL    HW232409   6.776   0.964   6.846
10504SOL     OW32410   1.212   4.110   5.786
10504SOL    HW132411   1.234   4.171   5.862
10504SOL    HW232412   1.223   4.015   5.815
10505SOL     OW32413   6.498   6.673   0.710
10505SOL    HW132414   6.438   6.693   0.788
10505SOL    HW232415   6.450   6.695   0.625
10506SOL     OW32416   1.637   4.762   5.792
10506SOL    HW132417   1.621   4.693   5.721
10506SOL    HW232418   1.565   4.754   5.861
10507SOL     OW32419   0.983   6.405   6.066
10507SOL    HW132420   0.962   6.338   5.996
10507SOL    HW232421   1.003   6.493   6.024
10508SOL     OW32422   1.214   6.151   0.377
10508SOL    HW132423   1.129   6.099   0.382
10508SOL    HW232424   1.291   6.088   0.363
10509SOL     OW32425   4.606   2.485   2.866
10509SOL    HW132426   4.604   2.527   2.956
10509SOL    HW232427   4.675   2.413   2.864
10510SOL     OW32428   5.369   5.763   3.288
10510SOL    HW132429   5.290   5.799   3.238
10510SOL    HW232430   5.391   5.672   3.254
10511SOL     OW32431   4.200   1.973   1.053
10511SOL    HW132432   4.192   1.927   0.964
10511SOL    HW232433   4.135   1.933   1.117
10512SOL     OW32434   4.509   1.444   6.019
10512SOL    HW132435   4.473   1.463   6.110
10512SOL    HW232436   4.594   1.496   6.005
10513SOL     OW32437   3.257   3.593   1.011
10513SOL    HW132438   3.217   3.575   0.921
10513SOL    HW232439   3.224   3.525   1.076
10514SOL     OW32440   1.277   5.288   1.482
10514SOL    HW132441   1.191   5.339   1.471
10514SOL    HW232442   1.256   5.190   1.489
10515SOL     OW32443   2.121   3.614   4.739
10515SOL    HW132444   2.048   3.652   4.684
10515SOL    HW232445   2.098   3.521   4.767
10516SOL     OW32446   5.861   1.781   1.952
10516SOL    HW132447   5.818   1.735   1.875
10516SOL    HW232448   5.955   1.749   1.963
10517SOL     OW32449   0.385   2.409   1.928
10517SOL    HW132450   0.449   2.356   1.983
10517SOL    HW232451   0.420   2.502   1.916
10518SOL     OW32452   0.491   6.368   2.131
10518SOL    HW132453   0.431   6.294   2.100
10518SOL    HW232454   0.516   6.353   2.227
10519SOL     OW32455   3.154   6.730   1.339
10519SOL    HW132456   3.248   6.697   1.346
10519SOL    HW232457   3.099   6.689   1.411
10520SOL     OW32458   1.815   2.279   6.235
10520SOL    HW132459   1.863   2.365   6.250
10520SOL    HW232460   1.835   2.245   6.143
10521SOL     OW32461   6.344   2.554   2.930
10521SOL    HW132462   6.253   2.591   2.912
10521SOL    HW232463   6.337   2.462   2.967
10522SOL     OW32464   5.260   1.460   3.662
10522SOL    HW132465   5.278   1.494   3.570
10522SOL    HW232466   5.178   1.504   3.699
10523SOL     OW32467   0.740   4.024   1.625
10523SOL    HW132468   0.837   4.033   1.645
10523SOL    HW232469   0.702   4.112   1.596
10524SOL     OW32470   6.832   6.046   4.712
10524SOL    HW132471   6.786   6.041   4.801
10524SOL    HW232472   6.930   6.057   4.726
10525SOL     OW32473   4.476   1.169   4.017
10525SOL    HW132474   4.451   1.218   4.101
10525SOL    HW232475   4.576   1.159   4.014
10526SOL     OW32476   1.286   5.514   6.219
10526SOL    HW132477   1.218   5.585   6.204
10526SOL    HW232478   1.365   5.554   6.265
10527SOL     OW32479   6.990   6.172   5.506
10527SOL    HW132480   6.950   6.264   5.507
10527SOL    HW232481   6.990   6.135   5.598
10528SOL     OW32482   1.577   4.898   5.031
10528SOL    HW132483   1.549   4.947   4.949
10528SOL    HW232484   1.604   4.965   5.102
10529SOL     OW32485   0.090   4.834   0.971
10529SOL    HW132486   0.018   4.904   0.971
10529SOL    HW232487   0.125   4.822   0.878
10530SOL     OW32488   0.025   0.147   0.851
10530SOL    HW132489   0.025   0.234   0.900
10530SOL    HW232490   6.988   0.155   0.770
10531SOL     OW32491   3.553   2.251   6.098
10531SOL    HW132492   3.524   2.209   6.012
10531SOL    HW232493   3.581   2.179   6.162
10532SOL     OW32494   4.813   5.895   5.684
10532SOL    HW132495   4.807   5.968   5.616
10532SOL    HW232496   4.862   5.929   5.764
10533SOL     OW32497   4.037   6.877   3.521
10533SOL    HW132498   4.128   6.907   3.495
10533SOL    HW232499   3.982   6.862   3.439
10534SOL     OW32500   1.530   6.236   3.879
10534SOL    HW132501   1.550   6.159   3.940
10534SOL    HW232502   1.500   6.201   3.790
10535SOL     OW32503   3.750   2.149   2.695
10535SOL    HW132504   3.689   2.139   2.617
10535SOL    HW232505   3.840   2.182   2.664
10536SOL     OW32506   5.682   4.009   5.100
10536SOL    HW132507   5.639   4.050   5.020
10536SOL    HW232508   5.648   4.053   5.183
10537SOL     OW32509   3.865   1.392   3.648
10537SOL    HW132510   3.882   1.296   3.624
10537SOL    HW232511   3.944   1.428   3.697
10538SOL     OW32512   6.906   2.747   3.457
10538SOL    HW132513   6.808   2.730   3.467
10538SOL    HW232514   6.944   2.686   3.388
10539SOL     OW32515   6.798   6.431   3.143
10539SOL    HW132516   6.716   6.398   3.190
10539SOL    HW232517   6.779   6.519   3.100
10540SOL     OW32518   1.818   3.981   6.836
10540SOL    HW132519   1.859   4.051   6.778
10540SOL    HW232520   1.859   3.892   6.815
10541SOL     OW32521   3.351   2.388   5.709
10541SOL    HW132522   3.368   2.359   5.615
10541SOL    HW232523   3.350   2.488   5.713
10542SOL     OW32524   4.353   6.489   2.728
10542SOL    HW132525   4.378   6.580   2.759
10542SOL    HW232526   4.366   6.423   2.803
10543SOL     OW32527   2.452   2.683   4.071
10543SOL    HW132528   2.448   2.666   4.169
10543SOL    HW232529   2.398   2.765   4.049
10544SOL     OW32530   3.122   1.574   2.558
10544SOL    HW132531   3.022   1.572   2.562
10544SOL    HW232532   3.155   1.510   2.488
10545SOL     OW32533   1.979   3.097   1.980
10545SOL    HW132534   1.965   2.999   1.988
10545SOL    HW232535   1.911   3.135   1.917
10546SOL     OW32536   2.549   0.054   6.029
10546SOL    HW132537   2.633   0.090   6.069
10546SOL    HW232538   2.491   0.015   6.101
10547SOL     OW32539   3.557   6.504   5.911
10547SOL    HW132540   3.618   6.425   5.901
10547SOL    HW232541   3.556   6.534   6.006
10548SOL     OW32542   1.035   5.926   3.156
10548SOL    HW132543   1.119   5.874   3.166
10548SOL    HW232544   1.054   6.023   3.170
10549SOL     OW32545   0.214   0.824   2.628
10549SOL    HW132546   0.215   0.887   2.706
10549SOL    HW232547   0.119   0.797   2.609
10550SOL     OW32548   5.000   5.786   3.421
10550SOL    HW132549   5.004   5.780   3.520
10550SOL    HW232550   4.920   5.735   3.387
10551SOL     OW32551   3.893   0.941   4.921
10551SOL    HW132552   3.897   0.860   4.863
10551SOL    HW232553   3.969   0.939   4.987
10552SOL     OW32554   3.012   0.153   3.651
10552SOL    HW132555   3.056   0.123   3.736
10552SOL    HW232556   2.914   0.134   3.655
10553SOL     OW32557   5.847   5.807   1.441
10553SOL    HW132558   5.785   5.849   1.507
10553SOL    HW232559   5.795   5.756   1.373
10554SOL     OW32560   5.922   6.482   2.323
10554SOL    HW132561   5.950   6.486   2.227
10554SOL    HW232562   5.842   6.540   2.336
10555SOL     OW32563   3.620   3.247   1.668
10555SOL    HW132564   3.533   3.290   1.645
10555SOL    HW232565   3.614   3.205   1.759
10556SOL     OW32566   2.486   1.695   2.008
10556SOL    HW132567   2.501   1.653   2.098
10556SOL    HW232568   2.480   1.624   1.938
10557SOL     OW32569   1.404   4.424   2.750
10557SOL    HW132570   1.465   4.502   2.741
10557SOL    HW232571   1.310   4.453   2.730
10558SOL     OW32572   4.152   4.853   4.342
10558SOL    HW132573   4.209   4.934   4.332
10558SOL    HW232574   4.101   4.838   4.257
10559SOL     OW32575   3.584   5.964   1.804
10559SOL    HW132576   3.647   5.938   1.877
10559SOL    HW232577   3.491   5.943   1.832
10560SOL     OW32578   6.171   0.032   3.614
10560SOL    HW132579   6.136   6.976   3.664
10560SOL    HW232580   6.151   0.116   3.666
10561SOL     OW32581   0.777   5.271   6.157
10561SOL    HW132582   0.866   5.299   6.194
10561SOL    HW232583   0.775   5.288   6.058
10562SOL     OW32584   4.141   5.949   2.284
10562SOL    HW132585   4.223   5.960   2.340
10562SOL    HW232586   4.163   5.968   2.188
10563SOL     OW32587   1.333   6.588   2.430
10563SOL    HW132588   1.370   6.522   2.365
10563SOL    HW232589   1.407   6.625   2.487
10564SOL     OW32590   5.437   4.195   3.248
10564SOL    HW132591   5.345   4.225   3.223
10564SOL    HW232592   5.431   4.107   3.294
10565SOL     OW32593   0.587   1.227   4.762
10565SOL    HW132594   0.533   1.149   4.729
10565SOL    HW232595   0.530   1.310   4.759
10566SOL     OW32596   3.713   1.918   1.000
10566SOL    HW132597   3.740   1.919   1.096
10566SOL    HW232598   3.623   1.875   0.992
10567SOL     OW32599   2.581   2.659   6.210
10567SOL    HW132600   2.577   2.598   6.130
10567SOL    HW232601   2.675   2.687   6.226
10568SOL     OW32602   5.272   2.246   5.936
10568SOL    HW132603   5.261   2.168   5.874
10568SOL    HW232604   5.236   2.328   5.891
10569SOL     OW32605   5.511   0.580   0.854
10569SOL    HW132606   5.486   0.658   0.911
10569SOL    HW232607   5.564   0.515   0.908
10570SOL     OW32608   1.615   3.889   3.234
10570SOL    HW132609   1.605   3.931   3.144
10570SOL    HW232610   1.695   3.928   3.280
10571SOL     OW32611   6.900   4.455   5.853
10571SOL    HW132612   6.873   4.362   5.878
10571SOL    HW232613   6.989   4.476   5.894
10572SOL     OW32614   6.393   4.191   0.732
10572SOL    HW132615   6.363   4.260   0.798
10572SOL    HW232616   6.370   4.100   0.767
10573SOL     OW32617   7.020   2.109   3.433
10573SOL    HW132618   6.933   2.087   3.388
10573SOL    HW232619   0.072   2.097   3.368
10574SOL     OW32620   5.789   2.205   2.424
10574SOL    HW132621   5.776   2.172   2.330
10574SOL    HW232622   5.700   2.229   2.463
10575SOL     OW32623   5.375   6.753   2.887
10575SOL    HW132624   5.307   6.684   2.864
10575SOL    HW232625   5.424   6.726   2.970
10576SOL     OW32626   1.284   3.329   4.673
10576SOL    HW132627   1.353   3.385   4.628
10576SOL    HW232628   1.193   3.356   4.642
10577SOL     OW32629   4.417   4.111   0.509
10577SOL    HW132630   4.339   4.092   0.450
10577SOL    HW232631   4.399   4.077   0.601
10578SOL     OW32632   0.797   3.336   2.517
10578SOL    HW132633   0.802   3.435   2.528
10578SOL    HW232634   0.871   3.305   2.457
10579SOL     OW32635   0.231   3.355   0.036
10579SOL    HW132636   0.226   3.338   0.135
10579SOL    HW232637   0.325   3.374   0.010
10580SOL     OW32638   5.667   6.315   0.030
10580SOL    HW132639   5.759   6.350   0.010
10580SOL    HW232640   5.674   6.227   0.077
10581SOL     OW32641   4.458   0.481   3.700
10581SOL    HW132642   4.393   0.495   3.626
10581SOL    HW232643   4.514   0.563   3.711
10582SOL     OW32644   6.210   3.664   6.767
10582SOL    HW132645   6.132   3.604   6.783
10582SOL    HW232646   6.295   3.612   6.775
10583SOL     OW32647   4.053   2.160   5.743
10583SOL    HW132648   4.052   2.127   5.649
10583SOL    HW232649   4.131   2.120   5.791
10584SOL     OW32650   0.366   0.407   3.644
10584SOL    HW132651   0.458   0.419   3.681
10584SOL    HW232652   0.338   0.312   3.654
10585SOL     OW32653   1.450   1.207   5.505
10585SOL    HW132654   1.484   1.300   5.513
10585SOL    HW232655   1.503   1.157   5.436
10586SOL     OW32656   4.625   4.094   5.653
10586SOL    HW132657   4.569   4.055   5.580
10586SOL    HW232658   4.645   4.023   5.720
10587SOL     OW32659   1.968   4.992   5.226
10587SOL    HW132660   1.948   5.028   5.317
10587SOL    HW232661   1.942   5.059   5.157
10588SOL     OW32662   1.547   4.016   3.853
10588SOL    HW132663   1.635   3.969   3.842
10588SOL    HW232664   1.488   3.962   3.913
10589SOL     OW32665   6.487   6.910   3.754
10589SOL    HW132666   6.415   6.848   3.721
10589SOL    HW232667   6.576   6.865   3.745
10590SOL     OW32668   0.870   5.570   2.722
10590SOL    HW132669   0.927   5.543   2.644
10590SOL    HW232670   0.915   5.543   2.807
10591SOL     OW32671   6.694   3.741   2.605
10591SOL    HW132672   6.594   3.748   2.599
10591SOL    HW232673   6.736   3.822   2.564
10592SOL     OW32674   0.066   2.701   4.500
10592SOL    HW132675   0.086   2.645   4.420
10592SOL    HW232676   0.084   2.797   4.479
10593SOL     OW32677   3.311   6.121   3.681
10593SOL    HW132678   3.388   6.120   3.744
10593SOL    HW232679   3.276   6.214   3.672
10594SOL     OW32680   3.531   5.723   3.797
10594SOL    HW132681   3.537   5.699   3.700
10594SOL    HW232682   3.474   5.655   3.843
10595SOL     OW32683   4.764   6.929   0.962
10595SOL    HW132684   4.855   6.906   0.998
10595SOL    HW232685   4.698   6.927   1.037
10596SOL     OW32686   5.021   4.068   0.555
10596SOL    HW132687   5.046   4.033   0.645
10596SOL    HW232688   4.939   4.021   0.522
10597SOL     OW32689   2.226   6.947   5.027
10597SOL    HW132690   2.197   7.022   5.086
10597SOL    HW232691   2.169   6.867   5.045
10598SOL     OW32692   3.184   0.766   0.260
10598SOL    HW132693   3.092   0.749   0.224
10598SOL    HW232694   3.242   0.801   0.186
10599SOL     OW32695   0.781   2.501   0.617
10599SOL    HW132696   0.758   2.440   0.692
10599SOL    HW232697   0.843   2.455   0.554
10600SOL     OW32698   4.205   0.996   1.811
10600SOL    HW132699   4.285   1.052   1.793
10600SOL    HW232700   4.230   0.899   1.806
10601SOL     OW32701   2.069   1.405   4.749
10601SOL    HW132702   2.001   1.436   4.815
10601SOL    HW232703   2.115   1.323   4.785
10602SOL     OW32704   6.448   6.602   1.388
10602SOL    HW132705   6.508   6.682   1.392
10602SOL    HW232706   6.504   6.519   1.385
10603SOL     OW32707   6.003   0.231   3.017
10603SOL    HW132708   6.011   0.140   2.977
10603SOL    HW232709   5.972   0.223   3.112
10604SOL     OW32710   4.582   1.803   4.985
10604SOL    HW132711   4.596   1.898   4.958
10604SOL    HW232712   4.581   1.796   5.084
10605SOL     OW32713   3.508   1.898   1.359
10605SOL    HW132714   3.516   1.881   1.457
10605SOL    HW232715   3.440   1.969   1.342
10606SOL     OW32716   6.627   1.581   0.097
10606SOL    HW132717   6.544   1.525   0.089
10606SOL    HW232718   6.601   1.678   0.106
10607SOL     OW32719   2.996   4.376   0.914
10607SOL    HW132720   3.069   4.441   0.893
10607SOL    HW232721   3.035   4.286   0.930
10608SOL     OW32722   5.693   3.682   3.543
10608SOL    HW132723   5.736   3.730   3.466
10608SOL    HW232724   5.751   3.605   3.570
10609SOL     OW32725   5.925   0.069   6.476
10609SOL    HW132726   5.972   7.010   6.444
10609SOL    HW232727   5.878   0.050   6.562
10610SOL     OW32728   0.613   1.163   2.999
10610SOL    HW132729   0.580   1.228   2.930
10610SOL    HW232730   0.659   1.213   3.072
10611SOL     OW32731   4.376   4.950   5.154
10611SOL    HW132732   4.348   5.015   5.083
10611SOL    HW232733   4.295   4.904   5.191
10612SOL     OW32734   6.389   2.655   3.200
10612SOL    HW132735   6.292   2.651   3.221
10612SOL    HW232736   6.403   2.636   3.103
10613SOL     OW32737   5.006   5.607   4.460
10613SOL    HW132738   5.068   5.556   4.400
10613SOL    HW232739   5.057   5.642   4.538
10614SOL     OW32740   3.900   2.475   6.798
10614SOL    HW132741   3.890   2.545   6.869
10614SOL    HW232742   3.820   2.477   6.738
10615SOL     OW32743   2.507   2.674   5.253
10615SOL    HW132744   2.440   2.747   5.244
10615SOL    HW232745   2.549   2.678   5.343
10616SOL     OW32746   1.467   6.026   0.293
10616SOL    HW132747   1.433   5.975   0.213
10616SOL    HW232748   1.487   5.961   0.367
10617SOL     OW32749   1.644   2.837   0.907
10617SOL    HW132750   1.624   2.931   0.936
10617SOL    HW232751   1.735   2.811   0.937
10618SOL     OW32752   0.918   5.290   4.032
10618SOL    HW132753   0.941   5.384   4.060
10618SOL    HW232754   0.905   5.234   4.114
10619SOL     OW32755   0.866   2.701   1.312
10619SOL    HW132756   0.796   2.719   1.381
10619SOL    HW232757   0.924   2.782   1.301
10620SOL     OW32758   3.555   1.330   5.742
10620SOL    HW132759   3.616   1.252   5.728
10620SOL    HW232760   3.525   1.332   5.837
10621SOL     OW32761   0.977   4.145   3.322
10621SOL    HW132762   0.990   4.047   3.303
10621SOL    HW232763   1.066   4.191   3.323
10622SOL     OW32764   4.116   2.299   6.471
10622SOL    HW132765   4.045   2.231   6.485
10622SOL    HW232766   4.174   2.271   6.394
10623SOL     OW32767   5.104   5.356   5.800
10623SOL    HW132768   5.011   5.335   5.831
10623SOL    HW232769   5.112   5.455   5.785
10624SOL     OW32770   0.529   1.730   6.459
10624SOL    HW132771   0.552   1.792   6.383
10624SOL    HW232772   0.430   1.730   6.473
10625SOL     OW32773   6.792   5.632   0.891
10625SOL    HW132774   6.776   5.534   0.891
10625SOL    HW232775   6.778   5.669   0.799
10626SOL     OW32776   5.953   3.037   2.233
10626SOL    HW132777   5.986   2.948   2.202
10626SOL    HW232778   6.030   3.100   2.240
10627SOL     OW32779   5.563   4.563   5.415
10627SOL    HW132780   5.527   4.477   5.452
10627SOL    HW232781   5.553   4.563   5.315
10628SOL     OW32782   2.876   6.274   0.816
10628SOL    HW132783   2.870   6.243   0.911
10628SOL    HW232784   2.923   6.363   0.813
10629SOL     OW32785   4.447   4.964   4.002
10629SOL    HW132786   4.475   4.919   4.087
10629SOL    HW232787   4.464   4.904   3.925
10630SOL     OW32788   4.138   1.092   1.170
10630SOL    HW132789   4.181   1.025   1.110
10630SOL    HW232790   4.160   1.071   1.265
10631SOL     OW32791   3.487   5.464   1.764
10631SOL    HW132792   3.458   5.553   1.728
10631SOL    HW232793   3.441   5.391   1.713
10632SOL     OW32794   5.796   6.876   4.302
10632SOL    HW132795   5.708   6.921   4.296
10632SOL    HW232796   5.865   6.941   4.334
10633SOL     OW32797   2.565   3.320   0.239
10633SOL    HW132798   2.646   3.296   0.292
10633SOL    HW232799   2.580   3.297   0.143
10634SOL     OW32800   0.650   4.588   6.426
10634SOL    HW132801   0.744   4.618   6.412
10634SOL    HW232802   0.609   4.642   6.500
10635SOL     OW32803   3.203   5.323   6.466
10635SOL    HW132804   3.286   5.336   6.521
10635SOL    HW232805   3.227   5.281   6.379
10636SOL     OW32806   5.890   2.761   0.523
10636SOL    HW132807   5.946   2.842   0.544
10636SOL    HW232808   5.920   2.721   0.437
10637SOL     OW32809   2.633   0.826   6.490
10637SOL    HW132810   2.636   0.889   6.413
10637SOL    HW232811   2.699   0.752   6.475
10638SOL     OW32812   4.874   5.131   0.897
10638SOL    HW132813   4.907   5.110   0.989
10638SOL    HW232814   4.774   5.135   0.898
10639SOL     OW32815   6.639   4.955   0.928
10639SOL    HW132816   6.590   4.923   0.846
10639SOL    HW232817   6.609   4.902   1.007
10640SOL     OW32818   3.864   6.364   4.519
10640SOL    HW132819   3.841   6.451   4.477
10640SOL    HW232820   3.868   6.375   4.619
10641SOL     OW32821   1.168   1.151   3.204
10641SOL    HW132822   1.121   1.088   3.266
10641SOL    HW232823   1.258   1.114   3.181
10642SOL     OW32824   6.929   2.225   6.198
10642SOL    HW132825   6.984   2.287   6.255
10642SOL    HW232826   6.893   2.275   6.120
10643SOL     OW32827   2.630   5.235   5.801
10643SOL    HW132828   2.553   5.258   5.860
10643SOL    HW232829   2.655   5.314   5.746
10644SOL     OW32830   0.298   3.531   3.007
10644SOL    HW132831   0.237   3.461   3.045
10644SOL    HW232832   0.369   3.487   2.952
10645SOL     OW32833   2.324   2.496   3.013
10645SOL    HW132834   2.260   2.422   3.037
10645SOL    HW232835   2.294   2.581   3.057
10646SOL     OW32836   4.966   0.632   3.846
10646SOL    HW132837   5.027   0.693   3.896
10646SOL    HW232838   4.898   0.594   3.909
10647SOL     OW32839   3.712   5.258   5.000
10647SOL    HW132840   3.649   5.261   4.923
10647SOL    HW232841   3.703   5.343   5.053
10648SOL     OW32842   4.961   4.147   5.347
10648SOL    HW132843   4.960   4.204   5.265
10648SOL    HW232844   4.905   4.189   5.418
10649SOL     OW32845   6.347   3.086   3.086
10649SOL    HW132846   6.265   3.030   3.078
10649SOL    HW232847   6.337   3.169   3.031
10650SOL     OW32848   0.476   6.968   2.509
10650SOL    HW132849   0.563   7.009   2.538
10650SOL    HW232850   0.474   6.872   2.537
10651SOL     OW32851   2.494   5.519   5.924
10651SOL    HW132852   2.441   5.586   5.975
10651SOL    HW232853   2.581   5.560   5.895
10652SOL     OW32854   1.938   0.533   6.752
10652SOL    HW132855   2.032   0.550   6.722
10652SOL    HW232856   1.884   0.616   6.739
10653SOL     OW32857   5.659   6.076   4.875
10653SOL    HW132858   5.687   6.027   4.957
10653SOL    HW232859   5.697   6.168   4.877
10654SOL     OW32860   6.617   1.948   3.747
10654SOL    HW132861   6.526   1.981   3.721
10654SOL    HW232862   6.665   1.915   3.666
10655SOL     OW32863   6.877   4.822   0.686
10655SOL    HW132864   6.946   4.893   0.676
10655SOL    HW232865   6.877   4.763   0.604
10656SOL     OW32866   5.625   1.648   5.445
10656SOL    HW132867   5.607   1.734   5.493
10656SOL    HW232868   5.723   1.634   5.437
10657SOL     OW32869   5.009   0.102   5.452
10657SOL    HW132870   4.940   0.160   5.494
10657SOL    HW232871   5.004   0.110   5.352
10658SOL     OW32872   0.693   1.868   5.294
10658SOL    HW132873   0.679   1.789   5.353
10658SOL    HW232874   0.665   1.951   5.343
10659SOL     OW32875   0.123   5.418   0.544
10659SOL    HW132876   0.132   5.399   0.641
10659SOL    HW232877   0.026   5.420   0.519
10660SOL     OW32878   5.935   3.087   6.377
10660SOL    HW132879   5.929   3.144   6.459
10660SOL    HW232880   6.020   3.107   6.329
10661SOL     OW32881   3.378   4.807   5.298
10661SOL    HW132882   3.284   4.773   5.304
10661SOL    HW232883   3.390   4.859   5.213
10662SOL     OW32884   2.922   1.568   0.933
10662SOL    HW132885   2.928   1.496   0.864
10662SOL    HW232886   2.938   1.530   1.024
10663SOL     OW32887   0.408   2.424   3.275
10663SOL    HW132888   0.443   2.502   3.326
10663SOL    HW232889   0.389   2.349   3.338
10664SOL     OW32890   1.224   6.026   4.693
10664SOL    HW132891   1.310   6.062   4.730
10664SOL    HW232892   1.152   6.035   4.760
10665SOL     OW32893   3.209   3.569   0.745
10665SOL    HW132894   3.266   3.487   0.754
10665SOL    HW232895   3.214   3.602   0.650
10666SOL     OW32896   3.991   3.641   1.220
10666SOL    HW132897   3.898   3.605   1.233
10666SOL    HW232898   4.018   3.632   1.125
10667SOL     OW32899   5.442   2.466   4.430
10667SOL    HW132900   5.493   2.487   4.347
10667SOL    HW232901   5.377   2.393   4.411
10668SOL     OW32902   3.306   2.708   6.143
10668SOL    HW132903   3.349   2.696   6.233
10668SOL    HW232904   3.375   2.736   6.077
10669SOL     OW32905   6.242   1.985   1.253
10669SOL    HW132906   6.261   1.978   1.155
10669SOL    HW232907   6.324   2.016   1.300
10670SOL     OW32908   4.795   4.086   4.183
10670SOL    HW132909   4.710   4.138   4.194
10670SOL    HW232910   4.818   4.041   4.270
10671SOL     OW32911   1.549   3.115   4.753
10671SOL    HW132912   1.620   3.166   4.706
10671SOL    HW232913   1.493   3.065   4.687
10672SOL     OW32914   6.462   4.070   1.693
10672SOL    HW132915   6.430   4.044   1.784
10672SOL    HW232916   6.491   4.166   1.694
10673SOL     OW32917   2.792   1.270   0.954
10673SOL    HW132918   2.828   1.306   0.868
10673SOL    HW232919   2.726   1.335   0.993
10674SOL     OW32920   3.793   3.693   4.197
10674SOL    HW132921   3.705   3.646   4.189
10674SOL    HW232922   3.850   3.669   4.118
10675SOL     OW32923   3.243   6.778   5.329
10675SOL    HW132924   3.166   6.782   5.394
10675SOL    HW232925   3.258   6.683   5.301
10676SOL     OW32926   1.244   0.473   5.729
10676SOL    HW132927   1.294   0.428   5.803
10676SOL    HW232928   1.303   0.539   5.683
10677SOL     OW32929   0.688   2.346   6.797
10677SOL    HW132930   0.606   2.289   6.790
10677SOL    HW232931   0.764   2.301   6.749
10678SOL     OW32932   3.914   5.241   2.573
10678SOL    HW132933   3.909   5.156   2.626
10678SOL    HW232934   3.907   5.319   2.634
10679SOL     OW32935   4.775   4.221   0.745
10679SOL    HW132936   4.844   4.195   0.678
10679SOL    HW232937   4.755   4.142   0.804
10680SOL     OW32938   4.289   1.483   5.866
10680SOL    HW132939   4.365   1.505   5.926
10680SOL    HW232940   4.299   1.390   5.832
10681SOL     OW32941   2.300   3.256   5.312
10681SOL    HW132942   2.361   3.271   5.391
10681SOL    HW232943   2.345   3.196   5.246
10682SOL     OW32944   5.128   3.861   6.715
10682SOL    HW132945   5.226   3.854   6.735
10682SOL    HW232946   5.094   3.771   6.687
10683SOL     OW32947   2.686   0.297   3.457
10683SOL    HW132948   2.598   0.304   3.505
10683SOL    HW232949   2.740   0.223   3.498
10684SOL     OW32950   4.439   4.693   1.673
10684SOL    HW132951   4.504   4.759   1.713
10684SOL    HW232952   4.452   4.690   1.574
10685SOL     OW32953   0.825   6.478   2.189
10685SOL    HW132954   0.741   6.530   2.206
10685SOL    HW232955   0.858   6.440   2.276
10686SOL     OW32956   2.871   0.922   6.982
10686SOL    HW132957   2.779   0.925   6.942
10686SOL    HW232958   2.923   0.847   6.941
10687SOL     OW32959   1.065   3.595   3.487
10687SOL    HW132960   1.150   3.566   3.531
10687SOL    HW232961   1.075   3.586   3.387
10688SOL     OW32962   5.169   1.075   3.232
10688SOL    HW132963   5.156   1.140   3.158
10688SOL    HW232964   5.083   1.028   3.251
10689SOL     OW32965   0.802   0.418   2.444
10689SOL    HW132966   0.830   0.397   2.350
10689SOL    HW232967   0.834   0.509   2.468
10690SOL     OW32968   1.040   6.498   4.339
10690SOL    HW132969   1.123   6.543   4.372
10690SOL    HW232970   1.059   6.401   4.325
10691SOL     OW32971   3.517   6.837   2.147
10691SOL    HW132972   3.562   6.892   2.077
10691SOL    HW232973   3.545   6.741   2.137
10692SOL     OW32974   2.369   1.474   4.479
10692SOL    HW132975   2.442   1.540   4.466
10692SOL    HW232976   2.386   1.420   4.561
10693SOL     OW32977   1.659   5.658   0.151
10693SOL    HW132978   1.620   5.567   0.162
10693SOL    HW232979   1.621   5.701   0.069
10694SOL     OW32980   4.833   0.281   5.561
10694SOL    HW132981   4.757   0.241   5.612
10694SOL    HW232982   4.799   0.356   5.504
10695SOL     OW32983   5.571   4.541   1.941
10695SOL    HW132984   5.644   4.512   1.879
10695SOL    HW232985   5.560   4.474   2.014
10696SOL     OW32986   6.328   4.638   4.030
10696SOL    HW132987   6.378   4.625   4.116
10696SOL    HW232988   6.243   4.687   4.048
10697SOL     OW32989   2.613   5.215   5.201
10697SOL    HW132990   2.589   5.196   5.106
10697SOL    HW232991   2.538   5.185   5.261
10698SOL     OW32992   3.334   3.393   0.432
10698SOL    HW132993   3.251   3.339   0.419
10698SOL    HW232994   3.403   3.365   0.364
10699SOL     OW32995   3.889   2.992   0.902
10699SOL    HW132996   3.961   2.925   0.918
10699SOL    HW232997   3.859   3.031   0.989
10700SOL     OW32998   4.540   0.690   1.533
10700SOL    HW132999   4.559   0.639   1.616
10700SOL    HW233000   4.514   0.784   1.556
10701SOL     OW33001   3.193   6.927   6.311
10701SOL    HW133002   3.211   6.887   6.402
10701SOL    HW233003   3.280   6.935   6.262
10702SOL     OW33004   5.549   2.270   1.957
10702SOL    HW133005   5.498   2.202   2.009
10702SOL    HW233006   5.589   2.227   1.876
10703SOL     OW33007   0.290   2.691   5.177
10703SOL    HW133008   0.345   2.629   5.232
10703SOL    HW233009   0.285   2.657   5.083
10704SOL     OW33010   5.054   6.796   2.378
10704SOL    HW133011   5.095   6.736   2.448
10704SOL    HW233012   4.955   6.790   2.383
10705SOL     OW33013   5.065   3.344   0.952
10705SOL    HW133014   5.063   3.246   0.929
10705SOL    HW233015   5.156   3.381   0.935
10706SOL     OW33016   3.368   0.683   1.224
10706SOL    HW133017   3.380   0.772   1.182
10706SOL    HW233018   3.441   0.667   1.291
10707SOL     OW33019   5.013   0.069   3.649
10707SOL    HW133020   5.058   0.102   3.732
10707SOL    HW233021   4.981   0.147   3.595
10708SOL     OW33022   4.245   1.083   2.276
10708SOL    HW133023   4.300   1.065   2.194
10708SOL    HW233024   4.157   1.122   2.250
10709SOL     OW33025   5.672   4.735   3.193
10709SOL    HW133026   5.656   4.810   3.129
10709SOL    HW233027   5.585   4.699   3.226
10710SOL     OW33028   4.815   1.932   3.981
10710SOL    HW133029   4.808   1.962   3.886
10710SOL    HW233030   4.901   1.882   3.994
10711SOL     OW33031   3.282   0.036   2.476
10711SOL    HW133032   3.231   0.021   2.391
10711SOL    HW233033   3.380   0.043   2.454
10712SOL     OW33034   5.307   0.192   3.546
10712SOL    HW133035   5.400   0.158   3.560
10712SOL    HW233036   5.310   0.279   3.496
10713SOL     OW33037   1.848   3.998   1.915
10713SOL    HW133038   1.821   4.092   1.895
10713SOL    HW233039   1.859   3.947   1.830
10714SOL     OW33040   2.996   3.810   5.216
10714SOL    HW133041   2.913   3.759   5.193
10714SOL    HW233042   2.972   3.905   5.235
10715SOL     OW33043   5.810   0.783   1.873
10715SOL    HW133044   5.857   0.735   1.947
10715SOL    HW233045   5.786   0.718   1.801
10716SOL     OW33046   5.417   1.022   3.387
10716SOL    HW133047   5.345   1.052   3.325
10716SOL    HW233048   5.505   1.060   3.358
10717SOL     OW33049   2.296   2.691   6.400
10717SOL    HW133050   2.386   2.710   6.441
10717SOL    HW233051   2.225   2.736   6.454
10718SOL     OW33052   1.804   5.290   5.259
10718SOL    HW133053   1.846   5.374   5.294
10718SOL    HW233054   1.838   5.212   5.312
10719SOL     OW33055   0.178   5.310   4.543
10719SOL    HW133056   0.201   5.394   4.494
10719SOL    HW233057   0.229   5.234   4.504
10720SOL     OW33058   6.822   4.720   3.381
10720SOL    HW133059   6.921   4.736   3.382
10720SOL    HW233060   6.787   4.722   3.475
10721SOL     OW33061   5.213   3.302   5.389
10721SOL    HW133062   5.134   3.241   5.381
10721SOL    HW233063   5.206   3.355   5.473
10722SOL     OW33064   6.800   4.211   5.888
10722SOL    HW133065   6.850   4.140   5.937
10722SOL    HW233066   6.809   4.196   5.790
10723SOL     OW33067   5.995   6.723   0.873
10723SOL    HW133068   5.957   6.752   0.962
10723SOL    HW233069   6.092   6.702   0.884
10724SOL     OW33070   6.482   6.459   7.010
10724SOL    HW133071   6.494   6.371   6.964
10724SOL    HW233072   6.391   6.495   6.991
10725SOL     OW33073   1.797   6.083   5.420
10725SOL    HW133074   1.777   6.013   5.489
10725SOL    HW233075   1.885   6.125   5.439
10726SOL     OW33076   5.279   1.303   4.140
10726SOL    HW133077   5.268   1.204   4.128
10726SOL    HW233078   5.237   1.330   4.226
10727SOL     OW33079   2.367   6.563   5.741
10727SOL    HW133080   2.284   6.601   5.700
10727SOL    HW233081   2.403   6.627   5.808
10728SOL     OW33082   5.165   6.358   0.830
10728SOL    HW133083   5.186   6.414   0.750
10728SOL    HW233084   5.103   6.284   0.804
10729SOL     OW33085   6.499   2.866   1.454
10729SOL    HW133086   6.576   2.917   1.492
10729SOL    HW233087   6.524   2.828   1.365
10730SOL     OW33088   4.606   0.086   2.548
10730SOL    HW133089   4.629   0.163   2.608
10730SOL    HW233090   4.592   0.119   2.455
10731SOL     OW33091   4.757   0.517   1.077
10731SOL    HW133092   4.748   0.420   1.054
10731SOL    HW233093   4.732   0.530   1.173
10732SOL     OW33094   0.596   3.919   5.796
10732SOL    HW133095   0.500   3.891   5.791
10732SOL    HW233096   0.605   3.998   5.857
10733SOL     OW33097   6.402   2.437   6.785
10733SOL    HW133098   6.464   2.406   6.713
10733SOL    HW233099   6.307   2.423   6.755
10734SOL     OW33100   6.850   2.617   2.013
10734SOL    HW133101   6.870   2.648   2.106
10734SOL    HW233102   6.927   2.642   1.953
10735SOL     OW33103   6.872   4.475   2.901
10735SOL    HW133104   6.795   4.489   2.963
10735SOL    HW233105   6.957   4.468   2.954
10736SOL     OW33106   2.657   0.757   3.552
10736SOL    HW133107   2.631   0.847   3.517
10736SOL    HW233108   2.580   0.716   3.600
10737SOL     OW33109   6.807   2.578   1.705
10737SOL    HW133110   6.765   2.502   1.754
10737SOL    HW233111   6.827   2.550   1.610
10738SOL     OW33112   4.403   0.015   3.754
10738SOL    HW133113   4.326   0.066   3.792
10738SOL    HW233114   4.410   6.949   3.799
10739SOL     OW33115   2.033   1.720   1.853
10739SOL    HW133116   1.962   1.791   1.857
10739SOL    HW233117   2.107   1.744   1.915
10740SOL     OW33118   4.791   5.091   3.122
10740SOL    HW133119   4.731   5.169   3.140
10740SOL    HW233120   4.775   5.058   3.029
10741SOL     OW33121   3.890   0.882   3.374
10741SOL    HW133122   3.928   0.935   3.299
10741SOL    HW233123   3.907   0.929   3.461
10742SOL     OW33124   6.774   5.367   0.891
10742SOL    HW133125   6.710   5.321   0.829
10742SOL    HW233126   6.817   5.299   0.951
10743SOL     OW33127   2.546   1.970   5.284
10743SOL    HW133128   2.502   2.049   5.241
10743SOL    HW233129   2.606   2.000   5.357
10744SOL     OW33130   4.636   1.549   0.580
10744SOL    HW133131   4.638   1.509   0.488
10744SOL    HW233132   4.662   1.480   0.647
10745SOL     OW33133   6.473   5.792   5.906
10745SOL    HW133134   6.418   5.716   5.941
10745SOL    HW233135   6.464   5.871   5.967
10746SOL     OW33136   0.515   4.181   5.840
10746SOL    HW133137   0.511   4.248   5.914
10746SOL    HW233138   0.424   4.168   5.801
10747SOL     OW33139   3.043   1.795   4.601
10747SOL    HW133140   2.995   1.729   4.543
10747SOL    HW233141   2.981   1.869   4.626
10748SOL     OW33142   4.959   1.514   2.167
10748SOL    HW133143   4.992   1.436   2.114
10748SOL    HW233144   4.859   1.515   2.167
10749SOL     OW33145   2.185   6.604   6.457
10749SOL    HW133146   2.091   6.613   6.424
10749SOL    HW233147   2.222   6.695   6.477
10750SOL     OW33148   4.043   0.315   6.756
10750SOL    HW133149   3.959   0.285   6.712
10750SOL    HW233150   4.048   0.414   6.755
10751SOL     OW33151   2.276   4.734   3.899
10751SOL    HW133152   2.372   4.713   3.916
10751SOL    HW233153   2.241   4.672   3.828
10752SOL     OW33154   4.752   4.800   3.762
10752SOL    HW133155   4.769   4.893   3.796
10752SOL    HW233156   4.654   4.782   3.766
10753SOL     OW33157   6.877   3.340   4.318
10753SOL    HW133158   6.893   3.433   4.351
10753SOL    HW233159   6.779   3.323   4.311
10754SOL     OW33160   1.773   0.310   2.432
10754SOL    HW133161   1.758   0.271   2.341
10754SOL    HW233162   1.841   0.255   2.480
10755SOL     OW33163   6.466   5.775   2.153
10755SOL    HW133164   6.516   5.689   2.139
10755SOL    HW233165   6.522   5.838   2.207
10756SOL     OW33166   0.176   0.243   5.113
10756SOL    HW133167   0.260   0.284   5.147
10756SOL    HW233168   0.175   0.146   5.136
10757SOL     OW33169   2.739   3.438   1.347
10757SOL    HW133170   2.697   3.522   1.313
10757SOL    HW233171   2.818   3.460   1.404
10758SOL     OW33172   0.570   5.422   4.303
10758SOL    HW133173   0.481   5.382   4.278
10758SOL    HW233174   0.614   5.365   4.372
10759SOL     OW33175   0.100   2.747   6.775
10759SOL    HW133176   0.008   2.715   6.751
10759SOL    HW233177   0.100   2.846   6.784
10760SOL     OW33178   6.082   1.112   4.011
10760SOL    HW133179   6.034   1.044   3.957
10760SOL    HW233180   6.180   1.109   3.989
10761SOL     OW33181   2.633   4.864   5.257
10761SOL    HW133182   2.683   4.779   5.271
10761SOL    HW233183   2.650   4.926   5.334
10762SOL     OW33184   3.450   0.744   4.681
10762SOL    HW133185   3.362   0.740   4.727
10762SOL    HW233186   3.521   0.707   4.741
10763SOL     OW33187   4.341   6.473   3.819
10763SOL    HW133188   4.335   6.394   3.758
10763SOL    HW233189   4.248   6.504   3.842
10764SOL     OW33190   5.346   0.384   5.107
10764SOL    HW133191   5.312   0.399   5.200
10764SOL    HW233192   5.445   0.391   5.106
10765SOL     OW33193   5.303   3.534   0.968
10765SOL    HW133194   5.396   3.510   0.940
10765SOL    HW233195   5.301   3.548   1.067
10766SOL     OW33196   4.120   3.096   1.612
10766SOL    HW133197   4.092   3.001   1.623
10766SOL    HW233198   4.040   3.155   1.612
10767SOL     OW33199   3.614   1.344   2.088
10767SOL    HW133200   3.525   1.349   2.043
10767SOL    HW233201   3.673   1.418   2.054
10768SOL     OW33202   6.414   4.574   0.663
10768SOL    HW133203   6.400   4.500   0.728
10768SOL    HW233204   6.326   4.616   0.641
10769SOL     OW33205   1.846   4.124   5.651
10769SOL    HW133206   1.764   4.070   5.669
10769SOL    HW233207   1.886   4.096   5.564
10770SOL     OW33208   4.139   5.916   3.860
10770SOL    HW133209   4.180   5.948   3.775
10770SOL    HW233210   4.130   5.817   3.858
10771SOL     OW33211   2.553   1.433   3.184
10771SOL    HW133212   2.454   1.420   3.177
10771SOL    HW233213   2.593   1.355   3.233
10772SOL     OW33214   5.412   5.101   3.885
10772SOL    HW133215   5.406   5.041   3.965
10772SOL    HW233216   5.337   5.079   3.822
10773SOL     OW33217   5.301   4.555   3.458
10773SOL    HW133218   5.365   4.541   3.383
10773SOL    HW233219   5.250   4.639   3.444
10774SOL     OW33220   0.988   0.738   3.756
10774SOL    HW133221   0.937   0.701   3.678
10774SOL    HW233222   0.996   0.668   3.827
10775SOL     OW33223   0.671   3.584   2.021
10775SOL    HW133224   0.665   3.662   2.083
10775SOL    HW233225   0.579   3.560   1.989
10776SOL     OW33226   1.783   0.038   6.710
10776SOL    HW133227   1.836   6.984   6.744
10776SOL    HW233228   1.844   0.116   6.692
10777SOL     OW33229   2.708   5.981   1.188
10777SOL    HW133230   2.625   6.036   1.199
10777SOL    HW233231   2.683   5.885   1.175
10778SOL     OW33232   5.828   5.603   2.764
10778SOL    HW133233   5.905   5.619   2.826
10778SOL    HW233234   5.853   5.629   2.671
10779SOL     OW33235   5.144   2.475   3.516
10779SOL    HW133236   5.090   2.549   3.556
10779SOL    HW233237   5.140   2.394   3.575
10780SOL     OW33238   0.174   0.488   2.775
10780SOL    HW133239   0.189   0.439   2.860
10780SOL    HW233240   0.081   0.472   2.742
10781SOL     OW33241   3.577   0.294   4.775
10781SOL    HW133242   3.524   0.368   4.736
10781SOL    HW233243   3.648   0.266   4.711
10782SOL     OW33244   6.192   5.612   4.164
10782SOL    HW133245   6.176   5.561   4.079
10782SOL    HW233246   6.288   5.640   4.168
10783SOL     OW33247   0.026   2.173   3.154
10783SOL    HW133248   0.062   2.093   3.105
10783SOL    HW233249   0.099   2.240   3.168
10784SOL     OW33250   3.101   1.489   4.532
10784SOL    HW133251   3.017   1.539   4.512
10784SOL    HW233252   3.078   1.396   4.562
10785SOL     OW33253   1.081   3.809   6.367
10785SOL    HW133254   1.135   3.878   6.416
10785SOL    HW233255   1.023   3.854   6.299
10786SOL     OW33256   0.772   5.044   3.243
10786SOL    HW133257   0.750   5.141   3.231
10786SOL    HW233258   0.692   4.988   3.222
10787SOL     OW33259   1.507   2.140   6.113
10787SOL    HW133260   1.595   2.153   6.066
10787SOL    HW233261   1.519   2.156   6.211
10788SOL     OW33262   5.774   4.068   6.248
10788SOL    HW133263   5.783   4.112   6.159
10788SOL    HW233264   5.767   3.968   6.236
10789SOL     OW33265   6.168   1.683   0.314
10789SOL    HW133266   6.202   1.735   0.235
10789SOL    HW233267   6.118   1.603   0.281
10790SOL     OW33268   0.037   6.024   2.955
10790SOL    HW133269   6.988   6.008   3.022
10790SOL    HW233270   0.014   6.103   2.899
10791SOL     OW33271   0.645   6.604   3.226
10791SOL    HW133272   0.738   6.580   3.200
10791SOL    HW233273   0.589   6.615   3.144
10792SOL     OW33274   3.890   4.041   5.078
10792SOL    HW133275   3.862   4.021   4.985
10792SOL    HW233276   3.834   4.116   5.114
10793SOL     OW33277   5.508   3.445   4.308
10793SOL    HW133278   5.536   3.383   4.234
10793SOL    HW233279   5.557   3.532   4.298
10794SOL     OW33280   2.950   3.781   3.590
10794SOL    HW133281   3.013   3.789   3.668
10794SOL    HW233282   2.865   3.739   3.621
10795SOL     OW33283   0.225   4.078   3.423
10795SOL    HW133284   0.175   4.006   3.374
10795SOL    HW233285   0.187   4.089   3.514
10796SOL     OW33286   1.538   5.823   4.809
10796SOL    HW133287   1.620   5.824   4.866
10796SOL    HW233288   1.492   5.912   4.815
10797SOL     OW33289   3.999   2.782   0.316
10797SOL    HW133290   3.974   2.862   0.371
10797SOL    HW233291   3.997   2.805   0.219
10798SOL     OW33292   6.913   1.699   0.748
10798SOL    HW133293   6.856   1.673   0.670
10798SOL    HW233294   6.858   1.698   0.832
10799SOL     OW33295   3.971   1.827   1.689
10799SOL    HW133296   4.009   1.846   1.598
10799SOL    HW233297   3.965   1.729   1.702
10800SOL     OW33298   1.389   0.174   1.418
10800SOL    HW133299   1.474   0.155   1.467
10800SOL    HW233300   1.382   0.113   1.340
10801SOL     OW33301   1.779   0.610   1.197
10801SOL    HW133302   1.710   0.669   1.238
10801SOL    HW233303   1.847   0.586   1.265
10802SOL     OW33304   6.692   0.449   3.477
10802SOL    HW133305   6.645   0.431   3.563
10802SOL    HW233306   6.743   0.535   3.485
10803SOL     OW33307   2.036   5.467   6.579
10803SOL    HW133308   1.982   5.548   6.602
10803SOL    HW233309   2.134   5.488   6.591
10804SOL     OW33310   0.153   3.296   4.355
10804SOL    HW133311   0.119   3.312   4.448
10804SOL    HW233312   0.075   3.281   4.293
10805SOL     OW33313   6.694   1.551   5.788
10805SOL    HW133314   6.677   1.566   5.886
10805SOL    HW233315   6.759   1.619   5.755
10806SOL     OW33316   1.802   4.987   7.007
10806SOL    HW133317   1.837   4.972   6.915
10806SOL    HW233318   1.705   4.962   7.011
10807SOL     OW33319   2.813   6.395   4.997
10807SOL    HW133320   2.869   6.363   5.072
10807SOL    HW233321   2.870   6.443   4.930
10808SOL     OW33322   0.596   3.091   6.040
10808SOL    HW133323   0.579   3.174   5.987
10808SOL    HW233324   0.510   3.048   6.065
10809SOL     OW33325   2.205   0.348   4.256
10809SOL    HW133326   2.188   0.411   4.331
10809SOL    HW233327   2.123   0.295   4.238
10810SOL     OW33328   6.908   0.160   4.497
10810SOL    HW133329   6.950   0.080   4.540
10810SOL    HW233330   6.827   0.187   4.548
10811SOL     OW33331   5.155   4.917   4.789
10811SOL    HW133332   5.183   4.998   4.842
10811SOL    HW233333   5.225   4.846   4.799
10812SOL     OW33334   5.935   2.655   0.286
10812SOL    HW133335   5.997   2.578   0.303
10812SOL    HW233336   5.844   2.620   0.267
10813SOL     OW33337   0.095   4.096   6.003
10813SOL    HW133338   0.026   4.031   6.035
10813SOL    HW233339   0.181   4.081   6.053
10814SOL     OW33340   2.850   1.053   1.238
10814SOL    HW133341   2.922   1.042   1.170
10814SOL    HW233342   2.818   1.148   1.238
10815SOL     OW33343   5.241   0.937   4.638
10815SOL    HW133344   5.196   0.976   4.719
10815SOL    HW233345   5.305   0.866   4.667
10816SOL     OW33346   4.105   3.398   4.378
10816SOL    HW133347   4.041   3.461   4.424
10816SOL    HW233348   4.119   3.317   4.436
10817SOL     OW33349   2.171   6.325   3.675
10817SOL    HW133350   2.247   6.380   3.641
10817SOL    HW233351   2.086   6.375   3.663
10818SOL     OW33352   3.665   4.377   6.987
10818SOL    HW133353   3.632   4.313   0.033
10818SOL    HW233354   3.725   4.329   6.923
10819SOL     OW33355   6.652   6.786   5.187
10819SOL    HW133356   6.691   6.780   5.279
10819SOL    HW233357   6.703   6.854   5.134
10820SOL     OW33358   2.161   4.313   6.278
10820SOL    HW133359   2.167   4.301   6.179
10820SOL    HW233360   2.248   4.350   6.312
10821SOL     OW33361   4.890   5.671   3.078
10821SOL    HW133362   4.848   5.584   3.103
10821SOL    HW233363   4.954   5.699   3.149
10822SOL     OW33364   5.295   1.253   2.418
10822SOL    HW133365   5.211   1.304   2.434
10822SOL    HW233366   5.364   1.313   2.377
10823SOL     OW33367   5.044   6.718   1.464
10823SOL    HW133368   5.088   6.799   1.502
10823SOL    HW233369   4.974   6.686   1.528
10824SOL     OW33370   0.903   2.811   3.457
10824SOL    HW133371   0.806   2.835   3.452
10824SOL    HW233372   0.936   2.824   3.551
10825SOL     OW33373   0.911   2.355   0.412
10825SOL    HW133374   0.926   2.380   0.316
10825SOL    HW233375   0.865   2.266   0.417
10826SOL     OW33376   0.508   3.395   2.891
10826SOL    HW133377   0.528   3.309   2.844
10826SOL    HW233378   0.561   3.469   2.850
10827SOL     OW33379   6.560   4.086   4.563
10827SOL    HW133380   6.607   4.072   4.476
10827SOL    HW233381   6.507   4.004   4.585
10828SOL     OW33382   6.334   4.560   5.261
10828SOL    HW133383   6.306   4.500   5.336
10828SOL    HW233384   6.372   4.506   5.186
10829SOL     OW33385   3.498   2.824   4.923
10829SOL    HW133386   3.468   2.784   5.010
10829SOL    HW233387   3.494   2.754   4.852
10830SOL     OW33388   3.996   2.230   3.429
10830SOL    HW133389   3.995   2.153   3.492
10830SOL    HW233390   4.085   2.275   3.432
10831SOL     OW33391   4.183   0.132   3.914
10831SOL    HW133392   4.166   0.225   3.880
10831SOL    HW233393   4.258   0.134   3.979
10832SOL     OW33394   6.476   3.410   0.500
10832SOL    HW133395   6.455   3.387   0.596
10832SOL    HW233396   6.415   3.359   0.440
10833SOL     OW33397   0.568   1.156   6.663
10833SOL    HW133398   0.565   1.107   6.575
10833SOL    HW233399   0.551   1.253   6.648
10834SOL     OW33400   6.238   6.533   1.537
10834SOL    HW133401   6.305   6.556   1.467
10834SOL    HW233402   6.147   6.523   1.495
10835SOL     OW33403   0.362   2.132   5.577
10835SOL    HW133404   0.318   2.203   5.523
10835SOL    HW233405   0.386   2.168   5.667
10836SOL     OW33406   0.091   1.171   3.872
10836SOL    HW133407   0.179   1.216   3.853
10836SOL    HW233408   0.018   1.219   3.824
10837SOL     OW33409   0.447   3.300   2.594
10837SOL    HW133410   0.407   3.251   2.672
10837SOL    HW233411   0.537   3.261   2.574
10838SOL     OW33412   0.448   5.957   1.909
10838SOL    HW133413   0.381   5.981   1.839
10838SOL    HW233414   0.506   5.883   1.876
10839SOL     OW33415   5.077   2.473   0.840
10839SOL    HW133416   5.047   2.385   0.876
10839SOL    HW233417   5.130   2.522   0.909
10840SOL     OW33418   2.372   0.159   1.913
10840SOL    HW133419   2.309   0.235   1.931
10840SOL    HW233420   2.463   0.195   1.895
10841SOL     OW33421   2.211   5.132   4.626
10841SOL    HW133422   2.131   5.181   4.663
10841SOL    HW233423   2.240   5.062   4.692
10842SOL     OW33424   5.244   4.145   1.272
10842SOL    HW133425   5.270   4.091   1.353
10842SOL    HW233426   5.256   4.242   1.291
10843SOL     OW33427   2.700   2.318   1.323
10843SOL    HW133428   2.728   2.337   1.229
10843SOL    HW233429   2.623   2.377   1.348
10844SOL     OW33430   1.413   5.206   5.101
10844SOL    HW133431   1.314   5.200   5.112
10844SOL    HW233432   1.458   5.165   5.181
10845SOL     OW33433   3.898   0.645   4.868
10845SOL    HW133434   3.968   0.645   4.796
10845SOL    HW233435   3.935   0.599   4.949
10846SOL     OW33436   5.282   0.072   6.517
10846SOL    HW133437   5.322   0.071   6.426
10846SOL    HW233438   5.237   7.008   6.535
10847SOL     OW33439   3.180   0.835   6.484
10847SOL    HW133440   3.191   0.752   6.537
10847SOL    HW233441   3.251   0.839   6.413
10848SOL     OW33442   1.768   4.967   2.218
10848SOL    HW133443   1.850   4.979   2.273
10848SOL    HW233444   1.790   4.919   2.133
10849SOL     OW33445   2.225   6.787   3.564
10849SOL    HW133446   2.149   6.797   3.628
10849SOL    HW233447   2.210   6.706   3.507
10850SOL     OW33448   3.747   4.817   0.773
10850SOL    HW133449   3.740   4.902   0.825
10850SOL    HW233450   3.690   4.824   0.691
10851SOL     OW33451   1.604   4.536   0.257
10851SOL    HW133452   1.547   4.532   0.175
10851SOL    HW233453   1.620   4.443   0.291
10852SOL     OW33454   2.407   1.835   2.679
10852SOL    HW133455   2.448   1.751   2.715
10852SOL    HW233456   2.460   1.914   2.710
10853SOL     OW33457   3.299   1.496   6.262
10853SOL    HW133458   3.361   1.426   6.296
10853SOL    HW233459   3.204   1.466   6.273
10854SOL     OW33460   3.031   6.819   5.032
10854SOL    HW133461   3.009   6.745   5.096
10854SOL    HW233462   3.098   6.787   4.965
10855SOL     OW33463   3.877   1.412   6.965
10855SOL    HW133464   3.874   1.491   6.903
10855SOL    HW233465   3.792   1.408   7.018
10856SOL     OW33466   0.388   1.319   0.762
10856SOL    HW133467   0.425   1.387   0.699
10856SOL    HW233468   0.433   1.231   0.746
10857SOL     OW33469   6.577   2.331   2.315
10857SOL    HW133470   6.492   2.300   2.358
10857SOL    HW233471   6.555   2.395   2.241
10858SOL     OW33472   2.757   6.382   2.060
10858SOL    HW133473   2.659   6.373   2.041
10858SOL    HW233474   2.799   6.291   2.060
10859SOL     OW33475   1.799   5.535   3.524
10859SOL    HW133476   1.769   5.457   3.579
10859SOL    HW233477   1.837   5.605   3.584
10860SOL     OW33478   6.746   3.412   3.227
10860SOL    HW133479   6.835   3.398   3.270
10860SOL    HW233480   6.735   3.349   3.151
10861SOL     OW33481   3.772   2.889   4.904
10861SOL    HW133482   3.831   2.808   4.905
10861SOL    HW233483   3.677   2.860   4.893
10862SOL     OW33484   0.817   0.461   4.650
10862SOL    HW133485   0.893   0.409   4.612
10862SOL    HW233486   0.738   0.454   4.589
10863SOL     OW33487   2.670   6.061   4.337
10863SOL    HW133488   2.730   5.983   4.356
10863SOL    HW233489   2.583   6.027   4.299
10864SOL     OW33490   3.829   6.272   3.525
10864SOL    HW133491   3.897   6.288   3.453
10864SOL    HW233492   3.742   6.314   3.497
10865SOL     OW33493   6.190   1.894   5.844
10865SOL    HW133494   6.244   1.891   5.760
10865SOL    HW233495   6.221   1.823   5.907
10866SOL     OW33496   5.128   4.878   0.854
10866SOL    HW133497   5.032   4.879   0.881
10866SOL    HW233498   5.181   4.825   0.920
10867SOL     OW33499   3.027   2.114   0.014
10867SOL    HW133500   3.091   2.110   0.091
10867SOL    HW233501   3.077   2.098   6.952
10868SOL     OW33502   2.643   2.166   2.976
10868SOL    HW133503   2.690   2.251   2.952
10868SOL    HW233504   2.697   2.114   3.041
10869NA      NA33505   6.203   2.442   5.852
10870NA      NA33506   4.499   4.613   5.132
10871NA      NA33507   2.277   3.510   1.633
10872NA      NA33508   4.851   3.739   5.251
10873NA      NA33509   4.309   2.431   5.296
10874NA      NA33510   3.803   4.779   1.737
10875NA      NA33511   6.670   5.957   4.553
10876NA      NA33512   3.751   3.643   5.058
10877NA      NA33513   4.465   0.120   6.788
10878NA      NA33514   3.119   0.374   5.014
10879NA      NA33515   0.291   5.149   2.747
10880NA      NA33516   2.952   0.397   2.705
10881NA      NA33517   3.770   3.940   1.461
10882NA      NA33518   3.961   3.546   2.953
   7.02297   7.02297   7.02297
