Generated by trjconv : CNT in water t= 444.00000
33518
    1C        C    1   2.845   2.766   4.749
    1C        C    2   2.896   2.713   4.869
    1C        C    3   2.842   2.775   4.983
    1C        C    4   2.854   2.774   4.260
    1C        C    5   2.901   2.724   4.384
    1C        C    6   2.847   2.772   4.505
    1C        C    7   3.013   2.638   4.626
    1C        C    8   2.898   2.720   4.626
    1C        C    9   3.076   2.602   4.747
    1C        C   10   3.004   2.622   4.867
    1C        C   11   3.185   2.494   4.982
    1C        C   12   3.065   2.566   4.980
    1C        C   13   2.849   2.765   3.774
    1C        C   14   2.902   2.717   3.896
    1C        C   15   2.849   2.769   4.016
    1C        C   16   3.015   2.636   4.140
    1C        C   17   2.903   2.722   4.138
    1C        C   18   3.078   2.601   4.262
    1C        C   19   3.015   2.641   4.382
    1C        C   20   3.209   2.559   4.506
    1C        C   21   3.076   2.605   4.504
    1C        C   22   3.277   2.529   4.626
    1C        C   23   3.208   2.548   4.748
    1C        C   24   3.412   2.481   4.864
    1C        C   25   3.271   2.505   4.868
    1C        C   26   3.489   2.474   4.981
    1C        C   27   2.849   2.761   3.284
    1C        C   28   2.904   2.718   3.406
    1C        C   29   2.853   2.768   3.528
    1C        C   30   3.016   2.637   3.652
    1C        C   31   2.905   2.723   3.652
    1C        C   32   3.078   2.597   3.772
    1C        C   33   3.016   2.634   3.894
    1C        C   34   3.209   2.551   4.018
    1C        C   35   3.077   2.603   4.018
    1C        C   36   3.277   2.532   4.140
    1C        C   37   3.210   2.553   4.263
    1C        C   38   3.418   2.510   4.384
    1C        C   39   3.279   2.535   4.385
    1C        C   40   3.489   2.499   4.506
    1C        C   41   3.415   2.502   4.626
    1C        C   42   3.632   2.484   4.746
    1C        C   43   3.490   2.480   4.744
    1C        C   44   3.705   2.489   4.866
    1C        C   45   3.628   2.481   4.983
    1C        C   46   2.836   2.751   2.795
    1C        C   47   2.894   2.709   2.917
    1C        C   48   2.836   2.753   3.039
    1C        C   49   3.008   2.626   3.162
    1C        C   50   2.894   2.709   3.160
    1C        C   51   3.074   2.599   3.283
    1C        C   52   3.019   2.636   3.408
    1C        C   53   3.210   2.547   3.529
    1C        C   54   3.078   2.597   3.531
    1C        C   55   3.278   2.521   3.650
    1C        C   56   3.207   2.540   3.771
    1C        C   57   3.413   2.503   3.893
    1C        C   58   3.274   2.527   3.894
    1C        C   59   3.484   2.494   4.014
    1C        C   60   3.415   2.504   4.137
    1C        C   61   3.626   2.497   4.260
    1C        C   62   3.485   2.503   4.260
    1C        C   63   3.700   2.508   4.380
    1C        C   64   3.630   2.500   4.503
    1C        C   65   3.836   2.546   4.623
    1C        C   66   3.700   2.507   4.625
    1C        C   67   3.906   2.567   4.744
    1C        C   68   3.841   2.528   4.863
    1C        C   69   4.054   2.580   4.977
    1C        C   70   3.924   2.528   4.976
    1C        C   71   2.825   2.732   2.308
    1C        C   72   2.883   2.688   2.429
    1C        C   73   2.834   2.744   2.549
    1C        C   74   3.004   2.623   2.673
    1C        C   75   2.886   2.701   2.673
    1C        C   76   3.069   2.591   2.794
    1C        C   77   3.010   2.629   2.917
    1C        C   78   3.204   2.544   3.040
    1C        C   79   3.072   2.594   3.039
    1C        C   80   3.272   2.524   3.162
    1C        C   81   3.205   2.545   3.284
    1C        C   82   3.414   2.499   3.403
    1C        C   83   3.275   2.526   3.405
    1C        C   84   3.484   2.490   3.525
    1C        C   85   3.417   2.496   3.650
    1C        C   86   3.628   2.501   3.770
    1C        C   87   3.487   2.494   3.773
    1C        C   88   3.695   2.510   3.893
    1C        C   89   3.625   2.504   4.016
    1C        C   90   3.831   2.550   4.135
    1C        C   91   3.696   2.510   4.138
    1C        C   92   3.897   2.579   4.257
    1C        C   93   3.834   2.552   4.380
    1C        C   94   4.029   2.639   4.502
    1C        C   95   3.903   2.573   4.502
    1C        C   96   4.094   2.670   4.623
    1C        C   97   4.038   2.619   4.742
    1C        C   98   4.195   2.761   4.859
    1C        C   99   4.104   2.651   4.863
    1C        C  100   4.216   2.838   4.974
    1C        C  101   2.819   2.729   2.071
    1C        C  102   2.986   2.585   2.192
    1C        C  103   2.874   2.675   2.188
    1C        C  104   3.062   2.565   2.311
    1C        C  105   3.002   2.612   2.430
    1C        C  106   3.197   2.530   2.551
    1C        C  107   3.066   2.584   2.552
    1C        C  108   3.269   2.517   2.672
    1C        C  109   3.199   2.537   2.793
    1C        C  110   3.406   2.495   2.915
    1C        C  111   3.267   2.519   2.916
    1C        C  112   3.481   2.498   3.035
    1C        C  113   3.412   2.505   3.158
    1C        C  114   3.624   2.499   3.281
    1C        C  115   3.483   2.498   3.280
    1C        C  116   3.696   2.504   3.402
    1C        C  117   3.625   2.499   3.524
    1C        C  118   3.833   2.545   3.646
    1C        C  119   3.695   2.514   3.646
    1C        C  120   3.898   2.572   3.768
    1C        C  121   3.832   2.548   3.890
    1C        C  122   4.024   2.637   4.012
    1C        C  123   3.897   2.576   4.013
    1C        C  124   4.085   2.673   4.135
    1C        C  125   4.024   2.641   4.258
    1C        C  126   4.195   2.766   4.374
    1C        C  127   4.089   2.672   4.379
    1C        C  128   4.243   2.819   4.496
    1C        C  129   4.198   2.766   4.619
    1C        C  130   4.330   2.933   4.739
    1C        C  131   4.251   2.815   4.740
    1C        C  132   4.357   3.002   4.860
    1C        C  133   4.288   2.957   4.973
    1C        C  134   3.170   2.461   2.084
    1C        C  135   3.037   2.506   2.084
    1C        C  136   3.259   2.468   2.191
    1C        C  137   3.195   2.516   2.307
    1C        C  138   3.406   2.489   2.427
    1C        C  139   3.266   2.506   2.429
    1C        C  140   3.479   2.489   2.548
    1C        C  141   3.408   2.496   2.670
    1C        C  142   3.619   2.496   2.792
    1C        C  143   3.478   2.488   2.793
    1C        C  144   3.692   2.510   2.912
    1C        C  145   3.622   2.504   3.034
    1C        C  146   3.830   2.538   3.155
    1C        C  147   3.692   2.506   3.157
    1C        C  148   3.898   2.565   3.276
    1C        C  149   3.833   2.542   3.399
    1C        C  150   4.022   2.632   3.521
    1C        C  151   3.897   2.567   3.522
    1C        C  152   4.084   2.672   3.642
    1C        C  153   4.023   2.639   3.765
    1C        C  154   4.193   2.762   3.888
    1C        C  155   4.081   2.675   3.889
    1C        C  156   4.246   2.810   4.009
    1C        C  157   4.197   2.760   4.132
    1C        C  158   4.340   2.920   4.252
    1C        C  159   4.250   2.811   4.252
    1C        C  160   4.375   2.984   4.373
    1C        C  161   4.328   2.932   4.496
    1C        C  162   4.440   3.114   4.616
    1C        C  163   4.369   2.992   4.617
    1C        C  164   4.470   3.183   4.736
    1C        C  165   4.431   3.122   4.858
    1C        C  166   4.509   3.321   4.973
    1C        C  167   4.480   3.185   4.973
    1C        C  168   3.476   2.434   2.073
    1C        C  169   3.400   2.454   2.189
    1C        C  170   3.618   2.467   2.307
    1C        C  171   3.476   2.462   2.308
    1C        C  172   3.693   2.489   2.425
    1C        C  173   3.620   2.492   2.546
    1C        C  174   3.826   2.533   2.665
    1C        C  175   3.688   2.504   2.669
    1C        C  176   3.896   2.557   2.786
    1C        C  177   3.829   2.544   2.909
    1C        C  178   4.021   2.629   3.032
    1C        C  179   3.895   2.566   3.033
    1C        C  180   4.086   2.663   3.152
    1C        C  181   4.024   2.629   3.274
    1C        C  182   4.193   2.753   3.398
    1C        C  183   4.080   2.669   3.398
    1C        C  184   4.247   2.804   3.518
    1C        C  185   4.198   2.755   3.642
    1C        C  186   4.339   2.913   3.763
    1C        C  187   4.247   2.805   3.765
    1C        C  188   4.380   2.972   3.884
    1C        C  189   4.339   2.917   4.008
    1C        C  190   4.450   3.099   4.126
    1C        C  191   4.381   2.975   4.129
    1C        C  192   4.472   3.168   4.247
    1C        C  193   4.444   3.107   4.372
    1C        C  194   4.504   3.313   4.492
    1C        C  195   4.467   3.177   4.492
    1C        C  196   4.521   3.385   4.612
    1C        C  197   4.513   3.318   4.736
    1C        C  198   4.544   3.537   4.853
    1C        C  199   4.523   3.395   4.855
    1C        C  200   4.581   3.622   4.962
    1C        C  201   3.614   2.411   2.074
    1C        C  202   3.826   2.509   2.185
    1C        C  203   3.691   2.460   2.185
    1C        C  204   3.900   2.537   2.303
    1C        C  205   3.831   2.521   2.425
    1C        C  206   4.023   2.619   2.544
    1C        C  207   3.898   2.553   2.545
    1C        C  208   4.080   2.659   2.666
    1C        C  209   4.021   2.623   2.789
    1C        C  210   4.196   2.748   2.906
    1C        C  211   4.083   2.664   2.910
    1C        C  212   4.248   2.796   3.028
    1C        C  213   4.195   2.753   3.152
    1C        C  214   4.339   2.906   3.271
    1C        C  215   4.247   2.798   3.275
    1C        C  216   4.377   2.967   3.392
    1C        C  217   4.336   2.913   3.516
    1C        C  218   4.430   3.101   3.638
    1C        C  219   4.375   2.971   3.640
    1C        C  220   4.458   3.166   3.760
    1C        C  221   4.441   3.100   3.884
    1C        C  222   4.498   3.305   4.002
    1C        C  223   4.471   3.167   4.004
    1C        C  224   4.511   3.375   4.124
    1C        C  225   4.499   3.307   4.248
    1C        C  226   4.519   3.521   4.366
    1C        C  227   4.512   3.380   4.368
    1C        C  228   4.517   3.597   4.485
    1C        C  229   4.520   3.527   4.607
    1C        C  230   4.504   3.741   4.727
    1C        C  231   4.528   3.601   4.727
    1C        C  232   4.497   3.819   4.844
    1C        C  233   4.539   3.756   4.962
    1C        C  234   4.014   2.615   2.061
    1C        C  235   3.898   2.538   2.069
    1C        C  236   4.081   2.651   2.179
    1C        C  237   4.026   2.603   2.300
    1C        C  238   4.198   2.734   2.421
    1C        C  239   4.088   2.644   2.421
    1C        C  240   4.253   2.783   2.541
    1C        C  241   4.198   2.738   2.663
    1C        C  242   4.338   2.902   2.780
    1C        C  243   4.250   2.791   2.782
    1C        C  244   4.378   2.960   2.902
    1C        C  245   4.340   2.904   3.026
    1C        C  246   4.435   3.093   3.148
    1C        C  247   4.377   2.965   3.148
    1C        C  248   4.453   3.163   3.270
    1C        C  249   4.430   3.098   3.393
    1C        C  250   4.491   3.302   3.511
    1C        C  251   4.454   3.166   3.515
    1C        C  252   4.500   3.372   3.634
    1C        C  253   4.490   3.304   3.757
    1C        C  254   4.512   3.515   3.877
    1C        C  255   4.506   3.373   3.879
    1C        C  256   4.508   3.585   4.000
    1C        C  257   4.513   3.516   4.123
    1C        C  258   4.488   3.730   4.241
    1C        C  259   4.510   3.591   4.243
    1C        C  260   4.471   3.800   4.363
    1C        C  261   4.488   3.735   4.487
    1C        C  262   4.427   3.942   4.602
    1C        C  263   4.477   3.810   4.606
    1C        C  264   4.395   4.008   4.723
    1C        C  265   4.432   3.945   4.843
    1C        C  266   4.317   4.133   4.957
    1C        C  267   4.394   4.017   4.957
    1C        C  268   4.261   2.777   2.062
    1C        C  269   4.197   2.731   2.178
    1C        C  270   4.347   2.886   2.297
    1C        C  271   4.254   2.778   2.299
    1C        C  272   4.383   2.953   2.416
    1C        C  273   4.344   2.891   2.537
    1C        C  274   4.445   3.083   2.660
    1C        C  275   4.376   2.959   2.657
    1C        C  276   4.470   3.150   2.781
    1C        C  277   4.446   3.083   2.904
    1C        C  278   4.502   3.290   3.024
    1C        C  279   4.471   3.152   3.025
    1C        C  280   4.513   3.365   3.143
    1C        C  281   4.491   3.299   3.267
    1C        C  282   4.511   3.511   3.388
    1C        C  283   4.505   3.370   3.388
    1C        C  284   4.511   3.582   3.511
    1C        C  285   4.513   3.513   3.634
    1C        C  286   4.488   3.725   3.753
    1C        C  287   4.510   3.586   3.755
    1C        C  288   4.471   3.792   3.876
    1C        C  289   4.487   3.725   3.999
    1C        C  290   4.424   3.931   4.115
    1C        C  291   4.469   3.798   4.119
    1C        C  292   4.401   3.999   4.237
    1C        C  293   4.425   3.934   4.360
    1C        C  294   4.330   4.129   4.479
    1C        C  295   4.398   4.005   4.479
    1C        C  296   4.284   4.189   4.598
    1C        C  297   4.322   4.130   4.720
    1C        C  298   4.199   4.314   4.840
    1C        C  299   4.285   4.200   4.838
    1C        C  300   4.169   4.403   4.948
    1C        C  301   4.355   2.879   2.058
    1C        C  302   4.468   3.065   2.171
    1C        C  303   4.396   2.942   2.176
    1C        C  304   4.480   3.141   2.291
    1C        C  305   4.446   3.079   2.413
    1C        C  306   4.509   3.280   2.537
    1C        C  307   4.477   3.142   2.535
    1C        C  308   4.517   3.355   2.656
    1C        C  309   4.504   3.287   2.779
    1C        C  310   4.524   3.499   2.900
    1C        C  311   4.516   3.358   2.901
    1C        C  312   4.515   3.573   3.019
    1C        C  313   4.513   3.506   3.144
    1C        C  314   4.484   3.718   3.262
    1C        C  315   4.510   3.579   3.264
    1C        C  316   4.472   3.787   3.385
    1C        C  317   4.491   3.721   3.508
    1C        C  318   4.420   3.924   3.626
    1C        C  319   4.470   3.792   3.629
    1C        C  320   4.387   3.986   3.748
    1C        C  321   4.417   3.923   3.871
    1C        C  322   4.320   4.114   3.993
    1C        C  323   4.391   3.992   3.992
    1C        C  324   4.281   4.174   4.115
    1C        C  325   4.325   4.118   4.237
    1C        C  326   4.190   4.287   4.355
    1C        C  327   4.282   4.180   4.356
    1C        C  328   4.139   4.344   4.474
    1C        C  329   4.191   4.296   4.596
    1C        C  330   4.027   4.437   4.711
    1C        C  331   4.139   4.350   4.716
    1C        C  332   3.970   4.490   4.829
    1C        C  333   4.054   4.483   4.941
    1C        C  334   4.556   3.264   2.062
    1C        C  335   4.539   3.125   2.061
    1C        C  336   4.540   3.348   2.173
    1C        C  337   4.512   3.279   2.293
    1C        C  338   4.515   3.491   2.411
    1C        C  339   4.518   3.350   2.415
    1C        C  340   4.513   3.565   2.531
    1C        C  341   4.518   3.497   2.655
    1C        C  342   4.488   3.706   2.772
    1C        C  343   4.515   3.568   2.777
    1C        C  344   4.470   3.777   2.893
    1C        C  345   4.488   3.712   3.017
    1C        C  346   4.425   3.918   3.137
    1C        C  347   4.464   3.782   3.138
    1C        C  348   4.394   3.983   3.258
    1C        C  349   4.425   3.920   3.380
    1C        C  350   4.324   4.108   3.501
    1C        C  351   4.396   3.987   3.502
    1C        C  352   4.281   4.165   3.623
    1C        C  353   4.318   4.109   3.748
    1C        C  354   4.185   4.275   3.866
    1C        C  355   4.277   4.168   3.870
    1C        C  356   4.128   4.320   3.987
    1C        C  357   4.182   4.274   4.110
    1C        C  358   4.018   4.409   4.229
    1C        C  359   4.134   4.328   4.232
    1C        C  360   3.958   4.455   4.348
    1C        C  361   4.021   4.422   4.470
    1C        C  362   3.827   4.514   4.590
    1C        C  363   3.960   4.466   4.590
    1C        C  364   3.762   4.547   4.711
    1C        C  365   3.839   4.543   4.829
    1C        C  366   3.629   4.591   4.948
    1C        C  367   3.766   4.569   4.945
    1C        C  368   4.509   3.563   2.053
    1C        C  369   4.523   3.488   2.170
    1C        C  370   4.503   3.704   2.284
    1C        C  371   4.515   3.563   2.290
    1C        C  372   4.488   3.775   2.405
    1C        C  373   4.499   3.706   2.527
    1C        C  374   4.429   3.907   2.650
    1C        C  375   4.477   3.774   2.649
    1C        C  376   4.397   3.975   2.770
    1C        C  377   4.425   3.911   2.893
    1C        C  378   4.324   4.101   3.013
    1C        C  379   4.398   3.980   3.013
    1C        C  380   4.282   4.163   3.133
    1C        C  381   4.321   4.104   3.256
    1C        C  382   4.185   4.266   3.378
    1C        C  383   4.281   4.162   3.378
    1C        C  384   4.129   4.311   3.500
    1C        C  385   4.183   4.267   3.623
    1C        C  386   4.011   4.395   3.741
    1C        C  387   4.130   4.318   3.743
    1C        C  388   3.950   4.430   3.863
    1C        C  389   4.010   4.397   3.987
    1C        C  390   3.819   4.489   4.107
    1C        C  391   3.952   4.440   4.108
    1C        C  392   3.751   4.508   4.230
    1C        C  393   3.825   4.502   4.350
    1C        C  394   3.616   4.548   4.473
    1C        C  395   3.756   4.532   4.470
    1C        C  396   3.545   4.561   4.595
    1C        C  397   3.622   4.566   4.713
    1C        C  398   3.409   4.549   4.836
    1C        C  399   3.549   4.570   4.834
    1C        C  400   3.343   4.520   4.956
    1C        C  401   4.503   3.702   2.047
    1C        C  402   4.457   3.915   2.167
    1C        C  403   4.489   3.778   2.164
    1C        C  404   4.419   3.978   2.287
    1C        C  405   4.443   3.909   2.408
    1C        C  406   4.324   4.090   2.524
    1C        C  407   4.398   3.970   2.527
    1C        C  408   4.282   4.150   2.645
    1C        C  409   4.325   4.097   2.769
    1C        C  410   4.178   4.251   2.887
    1C        C  411   4.280   4.153   2.890
    1C        C  412   4.129   4.301   3.010
    1C        C  413   4.181   4.261   3.135
    1C        C  414   4.006   4.381   3.253
    1C        C  415   4.126   4.307   3.257
    1C        C  416   3.946   4.416   3.376
    1C        C  417   4.007   4.383   3.499
    1C        C  418   3.811   4.469   3.618
    1C        C  419   3.944   4.423   3.620
    1C        C  420   3.749   4.500   3.741
    1C        C  421   3.818   4.481   3.862
    1C        C  422   3.611   4.527   3.985
    1C        C  423   3.750   4.503   3.984
    1C        C  424   3.541   4.537   4.107
    1C        C  425   3.613   4.536   4.229
    1C        C  426   3.402   4.545   4.355
    1C        C  427   3.543   4.547   4.352
    1C        C  428   3.331   4.545   4.476
    1C        C  429   3.404   4.554   4.597
    1C        C  430   3.192   4.520   4.721
    1C        C  431   3.332   4.545   4.718
    1C        C  432   3.125   4.493   4.844
    1C        C  433   3.207   4.492   4.957
    1C        C  434   4.383   4.119   2.052
    1C        C  435   4.448   3.994   2.052
    1C        C  436   4.298   4.155   2.161
    1C        C  437   4.338   4.096   2.283
    1C        C  438   4.186   4.251   2.402
    1C        C  439   4.284   4.149   2.402
    1C        C  440   4.131   4.301   2.522
    1C        C  441   4.185   4.252   2.643
    1C        C  442   4.008   4.374   2.764
    1C        C  443   4.126   4.296   2.764
    1C        C  444   3.947   4.410   2.886
    1C        C  445   4.011   4.380   3.008
    1C        C  446   3.813   4.460   3.127
    1C        C  447   3.946   4.412   3.129
    1C        C  448   3.748   4.485   3.250
    1C        C  449   3.816   4.471   3.374
    1C        C  450   3.607   4.518   3.495
    1C        C  451   3.746   4.490   3.495
    1C        C  452   3.540   4.528   3.619
    1C        C  453   3.610   4.528   3.742
    1C        C  454   3.398   4.535   3.864
    1C        C  455   3.539   4.538   3.864
    1C        C  456   3.328   4.528   3.987
    1C        C  457   3.400   4.537   4.108
    1C        C  458   3.196   4.495   4.234
    1C        C  459   3.334   4.528   4.232
    1C        C  460   3.130   4.477   4.357
    1C        C  461   3.194   4.510   4.479
    1C        C  462   2.996   4.434   4.602
    1C        C  463   3.125   4.491   4.601
    1C        C  464   2.928   4.406   4.722
    1C        C  465   2.990   4.443   4.844
    1C        C  466   2.796   4.341   4.958
    1C        C  467   2.905   4.430   4.958
    1C        C  468   4.123   4.284   2.043
    1C        C  469   4.191   4.251   2.160
    1C        C  470   4.009   4.370   2.278
    1C        C  471   4.128   4.293   2.281
    1C        C  472   3.944   4.398   2.400
    1C        C  473   4.007   4.368   2.522
    1C        C  474   3.813   4.462   2.641
    1C        C  475   3.944   4.407   2.642
    1C        C  476   3.744   4.483   2.763
    1C        C  477   3.815   4.462   2.883
    1C        C  478   3.607   4.506   3.009
    1C        C  479   3.745   4.478   3.005
    1C        C  480   3.537   4.521   3.131
    1C        C  481   3.610   4.513   3.252
    1C        C  482   3.395   4.521   3.374
    1C        C  483   3.536   4.520   3.373
    1C        C  484   3.326   4.524   3.497
    1C        C  485   3.399   4.533   3.618
    1C        C  486   3.191   4.500   3.744
    1C        C  487   3.329   4.529   3.741
    1C        C  488   3.125   4.476   3.867
    1C        C  489   3.191   4.495   3.990
    1C        C  490   2.996   4.418   4.116
    1C        C  491   3.124   4.477   4.114
    1C        C  492   2.937   4.386   4.240
    1C        C  493   3.000   4.421   4.361
    1C        C  494   2.826   4.299   4.481
    1C        C  495   2.934   4.390   4.483
    1C        C  496   2.776   4.251   4.604
    1C        C  497   2.818   4.315   4.723
    1C        C  498   2.663   4.167   4.845
    1C        C  499   2.754   4.275   4.842
    1C        C  500   2.595   4.117   4.957
    1C        C  501   4.005   4.358   2.041
    1C        C  502   3.814   4.462   2.157
    1C        C  503   3.940   4.399   2.158
    1C        C  504   3.745   4.481   2.278
    1C        C  505   3.813   4.452   2.399
    1C        C  506   3.606   4.509   2.521
    1C        C  507   3.745   4.480   2.519
    1C        C  508   3.534   4.510   2.642
    1C        C  509   3.605   4.505   2.764
    1C        C  510   3.395   4.518   2.885
    1C        C  511   3.536   4.516   2.887
    1C        C  512   3.324   4.515   3.007
    1C        C  513   3.396   4.521   3.129
    1C        C  514   3.186   4.492   3.255
    1C        C  515   3.325   4.518   3.251
    1C        C  516   3.121   4.470   3.378
    1C        C  517   3.189   4.491   3.500
    1C        C  518   2.994   4.414   3.625
    1C        C  519   3.120   4.479   3.623
    1C        C  520   2.939   4.372   3.748
    1C        C  521   3.001   4.410   3.869
    1C        C  522   2.835   4.282   3.994
    1C        C  523   2.941   4.374   3.993
    1C        C  524   2.784   4.238   4.119
    1C        C  525   2.827   4.298   4.239
    1C        C  526   2.686   4.138   4.364
    1C        C  527   2.771   4.250   4.361
    1C        C  528   2.645   4.080   4.486
    1C        C  529   2.685   4.143   4.606
    1C        C  530   2.582   3.960   4.730
    1C        C  531   2.639   4.090   4.729
    1C        C  532   2.542   3.901   4.854
    1C        C  533   2.532   3.993   4.963
    1C        C  534   3.615   4.551   2.041
    1C        C  535   3.750   4.511   2.042
    1C        C  536   3.535   4.531   2.158
    1C        C  537   3.606   4.511   2.279
    1C        C  538   3.392   4.522   2.399
    1C        C  539   3.533   4.519   2.400
    1C        C  540   3.321   4.516   2.521
    1C        C  541   3.392   4.509   2.642
    1C        C  542   3.183   4.478   2.765
    1C        C  543   3.322   4.504   2.765
    1C        C  544   3.118   4.460   2.890
    1C        C  545   3.186   4.483   3.011
    1C        C  546   2.992   4.402   3.134
    1C        C  547   3.119   4.464   3.134
    1C        C  548   2.934   4.366   3.258
    1C        C  549   2.996   4.405   3.379
    1C        C  550   2.826   4.283   3.505
    1C        C  551   2.938   4.370   3.504
    1C        C  552   2.769   4.240   3.627
    1C        C  553   2.825   4.289   3.748
    1C        C  554   2.693   4.126   3.874
    1C        C  555   2.781   4.237   3.872
    1C        C  556   2.656   4.067   3.997
    1C        C  557   2.695   4.128   4.118
    1C        C  558   2.599   3.943   4.245
    1C        C  559   2.657   4.072   4.242
    1C        C  560   2.571   3.879   4.367
    1C        C  561   2.590   3.951   4.488
    1C        C  562   2.536   3.748   4.615
    1C        C  563   2.563   3.887   4.611
    1C        C  564   2.523   3.680   4.738
    1C        C  565   2.518   3.760   4.855
    1C        C  566   2.529   3.547   4.978
    1C        C  567   2.530   3.686   4.973
    1C        C  568   3.321   4.484   2.041
    1C        C  569   3.395   4.509   2.158
    1C        C  570   3.182   4.473   2.281
    1C        C  571   3.320   4.506   2.279
    1C        C  572   3.113   4.456   2.403
    1C        C  573   3.183   4.484   2.522
    1C        C  574   2.988   4.398   2.647
    1C        C  575   3.114   4.461   2.643
    1C        C  576   2.929   4.357   2.770
    1C        C  577   2.993   4.395   2.890
    1C        C  578   2.823   4.273   3.017
    1C        C  579   2.932   4.362   3.013
    1C        C  580   2.774   4.224   3.140
    1C        C  581   2.824   4.277   3.261
    1C        C  582   2.694   4.114   3.388
    1C        C  583   2.781   4.225   3.385
    1C        C  584   2.657   4.059   3.512
    1C        C  585   2.690   4.123   3.634
    1C        C  586   2.592   3.934   3.756
    1C        C  587   2.649   4.064   3.755
    1C        C  588   2.571   3.870   3.880
    1C        C  589   2.596   3.939   4.001
    1C        C  590   2.538   3.738   4.127
    1C        C  591   2.571   3.875   4.125
    1C        C  592   2.526   3.669   4.250
    1C        C  593   2.540   3.741   4.371
    1C        C  594   2.521   3.533   4.498
    1C        C  595   2.527   3.674   4.495
    1C        C  596   2.521   3.463   4.620
    1C        C  597   2.522   3.538   4.740
    1C        C  598   2.533   3.327   4.862
    1C        C  599   2.527   3.468   4.863
    1C        C  600   2.537   3.246   4.977
    1C        C  601   3.195   4.428   2.046
    1C        C  602   2.978   4.396   2.158
    1C        C  603   3.114   4.440   2.160
    1C        C  604   2.917   4.368   2.283
    1C        C  605   2.983   4.401   2.404
    1C        C  606   2.814   4.273   2.528
    1C        C  607   2.926   4.359   2.526
    1C        C  608   2.762   4.225   2.650
    1C        C  609   2.816   4.274   2.772
    1C        C  610   2.683   4.112   2.897
    1C        C  611   2.769   4.224   2.895
    1C        C  612   2.645   4.055   3.020
    1C        C  613   2.686   4.114   3.142
    1C        C  614   2.590   3.928   3.267
    1C        C  615   2.651   4.056   3.266
    1C        C  616   2.570   3.865   3.392
    1C        C  617   2.596   3.931   3.514
    1C        C  618   2.532   3.729   3.636
    1C        C  619   2.568   3.866   3.635
    1C        C  620   2.526   3.660   3.759
    1C        C  621   2.540   3.732   3.880
    1C        C  622   2.517   3.527   4.009
    1C        C  623   2.529   3.668   4.005
    1C        C  624   2.521   3.457   4.132
    1C        C  625   2.522   3.528   4.254
    1C        C  626   2.544   3.320   4.377
    1C        C  627   2.523   3.460   4.378
    1C        C  628   2.554   3.250   4.499
    1C        C  629   2.538   3.322   4.620
    1C        C  630   2.599   3.120   4.744
    1C        C  631   2.554   3.255   4.743
    1C        C  632   2.615   3.046   4.865
    1C        C  633   2.563   3.109   4.983
    1C        C  634   2.781   4.303   2.054
    1C        C  635   2.891   4.389   2.045
    1C        C  636   2.744   4.233   2.169
    1C        C  637   2.807   4.278   2.288
    1C        C  638   2.670   4.113   2.412
    1C        C  639   2.758   4.224   2.408
    1C        C  640   2.633   4.050   2.533
    1C        C  641   2.681   4.109   2.652
    1C        C  642   2.581   3.925   2.777
    1C        C  643   2.644   4.051   2.775
    1C        C  644   2.560   3.861   2.901
    1C        C  645   2.584   3.927   3.023
    1C        C  646   2.533   3.723   3.149
    1C        C  647   2.562   3.861   3.146
    1C        C  648   2.514   3.656   3.272
    1C        C  649   2.531   3.729   3.392
    1C        C  650   2.518   3.518   3.518
    1C        C  651   2.521   3.659   3.514
    1C        C  652   2.515   3.449   3.642
    1C        C  653   2.515   3.520   3.764
    1C        C  654   2.537   3.313   3.886
    1C        C  655   2.515   3.453   3.889
    1C        C  656   2.556   3.247   4.010
    1C        C  657   2.544   3.318   4.131
    1C        C  658   2.607   3.118   4.257
    1C        C  659   2.563   3.252   4.255
    1C        C  660   2.636   3.054   4.380
    1C        C  661   2.604   3.119   4.502
    1C        C  662   2.708   2.934   4.628
    1C        C  663   2.635   3.055   4.624
    1C        C  664   2.752   2.873   4.747
    1C        C  665   2.693   2.926   4.865
    1C        C  666   2.741   2.870   4.984
    1C        C  667   2.680   4.026   2.058
    1C        C  668   2.684   4.106   2.173
    1C        C  669   2.582   3.914   2.291
    1C        C  670   2.643   4.042   2.293
    1C        C  671   2.554   3.849   2.413
    1C        C  672   2.577   3.921   2.533
    1C        C  673   2.527   3.717   2.660
    1C        C  674   2.557   3.855   2.656
    1C        C  675   2.522   3.648   2.783
    1C        C  676   2.534   3.722   2.903
    1C        C  677   2.514   3.513   3.029
    1C        C  678   2.528   3.653   3.027
    1C        C  679   2.513   3.443   3.152
    1C        C  680   2.509   3.515   3.274
    1C        C  681   2.538   3.306   3.399
    1C        C  682   2.515   3.445   3.397
    1C        C  683   2.553   3.238   3.522
    1C        C  684   2.537   3.309   3.643
    1C        C  685   2.608   3.111   3.770
    1C        C  686   2.558   3.243   3.766
    1C        C  687   2.641   3.049   3.893
    1C        C  688   2.609   3.116   4.013
    1C        C  689   2.718   2.936   4.142
    1C        C  690   2.639   3.053   4.136
    1C        C  691   2.761   2.879   4.264
    1C        C  692   2.713   2.936   4.384
    1C        C  693   2.750   2.876   4.506
    1C        C  694   2.633   3.895   2.061
    1C        C  695   2.530   3.702   2.173
    1C        C  696   2.570   3.837   2.173
    1C        C  697   2.514   3.636   2.297
    1C        C  698   2.524   3.711   2.416
    1C        C  699   2.499   3.504   2.543
    1C        C  700   2.508   3.645   2.540
    1C        C  701   2.509   3.434   2.665
    1C        C  702   2.515   3.507   2.786
    1C        C  703   2.534   3.298   2.911
    1C        C  704   2.513   3.438   2.909
    1C        C  705   2.551   3.232   3.035
    1C        C  706   2.533   3.304   3.155
    1C        C  707   2.599   3.102   3.279
    1C        C  708   2.552   3.235   3.277
    1C        C  709   2.634   3.043   3.402
    1C        C  710   2.602   3.105   3.525
    1C        C  711   2.714   2.928   3.650
    1C        C  712   2.634   3.044   3.648
    1C        C  713   2.758   2.874   3.772
    1C        C  714   2.716   2.930   3.895
    1C        C  715   2.759   2.878   4.019
    1C        C  716   2.448   3.499   2.061
    1C        C  717   2.483   3.634   2.060
    1C        C  718   2.470   3.421   2.179
    1C        C  719   2.491   3.496   2.298
    1C        C  720   2.520   3.290   2.424
    1C        C  721   2.496   3.430   2.423
    1C        C  722   2.545   3.223   2.545
    1C        C  723   2.529   3.294   2.666
    1C        C  724   2.600   3.096   2.790
    1C        C  725   2.548   3.228   2.790
    1C        C  726   2.629   3.034   2.913
    1C        C  727   2.601   3.100   3.035
    1C        C  728   2.705   2.916   3.161
    1C        C  729   2.628   3.035   3.158
    1C        C  730   2.755   2.867   3.283
    1C        C  731   2.714   2.926   3.405
    1C        C  732   2.754   2.869   3.528
    1C        C  733   2.482   3.193   2.073
    1C        C  734   2.491   3.279   2.183
    1C        C  735   2.584   3.085   2.306
    1C        C  736   2.528   3.216   2.305
    1C        C  737   2.613   3.017   2.426
    1C        C  738   2.589   3.088   2.545
    1C        C  739   2.697   2.908   2.668
    1C        C  740   2.623   3.028   2.669
    1C        C  741   2.738   2.852   2.791
    1C        C  742   2.696   2.909   2.914
    1C        C  743   2.744   2.860   3.037
    1C        C  744   2.549   3.071   2.071
    1C        C  745   2.682   2.895   2.185
    1C        C  746   2.608   3.015   2.186
    1C        C  747   2.729   2.837   2.305
    1C        C  748   2.685   2.895   2.426
    1C        C  749   2.733   2.843   2.548
    1C        C  750   2.734   2.839   2.067
    1C        C  751   3.658   2.291   2.001
    1C        O  752   3.670   2.176   2.052
    1C        O  753   3.702   2.298   1.868
    1C        C  754   4.647   3.048   1.996
    1C        O  755   4.631   2.996   1.882
    1C        O  756   4.760   2.999   2.062
    1C        C  757   4.458   4.230   1.989
    1C        O  758   4.508   4.328   2.050
    1C        O  759   4.462   4.244   1.850
    1C        C  760   3.586   4.676   1.966
    1C        O  761   3.582   4.791   2.016
    1C        O  762   3.604   4.682   1.827
    1C        C  763   2.882   4.484   1.931
    1C        O  764   2.882   4.431   1.817
    1C        O  765   2.792   4.591   1.925
    1C        C  766   2.339   3.464   1.967
    1C        O  767   2.364   3.453   1.843
    1C        O  768   2.205   3.500   1.983
    1C        C  769   4.680   3.588   5.067
    1C        O  770   4.635   3.547   5.177
    1C        O  771   4.801   3.659   5.076
    1C        C  772   4.262   4.454   5.051
    1C        O  773   4.252   4.418   5.171
    1C        O  774   4.344   4.567   5.042
    1C        C  775   4.157   2.507   5.054
    1C        O  776   4.178   2.387   5.024
    1C        O  777   4.204   2.550   5.179
    1C        C  778   2.877   4.547   5.045
    1C        O  779   2.778   4.624   5.033
    1C        O  780   2.952   4.555   5.163
    1C        C  781   2.467   3.034   5.068
    1C        O  782   2.347   3.014   5.036
    1C        O  783   2.499   3.018   5.202
    1C        C  784   2.422   3.989   5.062
    1C        O  785   2.302   3.983   5.022
    1C        O  786   2.434   3.929   5.188
    1C        C  787   2.955   2.458   1.971
    1C        O  788   2.996   2.464   1.852
    1C        O  789   2.883   2.340   1.983
    1C        C  790   3.185   2.372   5.066
    1C        O  791   3.146   2.264   5.015
    1C        O  792   3.162   2.383   5.203
    1C        H  793   4.253   3.032   5.041
    1C        H  794   4.185   2.804   5.071
    1C        H  795   4.480   3.135   5.068
    1C        H  796   4.476   3.369   5.063
    1C        H  797   4.554   3.817   5.049
    1C        H  798   4.427   3.993   5.056
    1C        H  799   4.252   4.139   5.042
    1C        H  800   4.055   4.572   5.000
    1C        H  801   3.808   4.533   5.037
    1C        H  802   3.586   4.639   5.033
    1C        H  803   3.390   4.542   5.050
    1C        H  804   3.163   4.467   5.051
    1C        H  805   3.879   2.520   5.073
    1C        H  806   3.672   2.437   5.070
    1C        H  807   2.997   2.532   5.056
    1C        H  808   3.443   2.437   5.070
    1C        H  809   2.860   2.726   5.077
    1C        H  810   2.694   2.889   5.078
    1C        H  811   2.490   3.282   5.066
    1C        H  812   2.524   3.494   5.072
    1C        H  813   2.525   3.733   5.069
    1C        H  814   2.632   4.145   5.054
    1C        H  815   2.754   4.312   5.051
    1C        H  816   2.748   2.908   1.986
    1C        H  817   2.869   2.704   1.980
    1C        H  818   3.214   2.431   1.991
    1C        H  819   3.425   2.427   1.979
    1C        H  820   3.849   2.521   1.975
    1C        H  821   4.073   2.595   1.974
    1C        H  822   4.251   2.718   1.974
    1C        H  823   4.337   2.948   1.978
    1C        H  824   4.620   3.304   1.986
    1C        H  825   4.478   3.511   1.964
    1C        H  826   4.568   3.740   1.971
    1C        H  827   3.802   4.513   1.949
    1C        H  828   3.990   4.414   1.950
    1C        H  829   4.177   4.285   1.950
    1C        H  830   4.527   3.984   1.981
    1C        H  831   2.664   3.833   1.979
    1C        H  832   2.665   4.074   1.963
    1C        H  833   2.700   4.310   1.984
    1C        H  834   3.359   4.516   1.946
    1C        H  835   3.162   4.360   1.970
    1C        H  836   2.550   3.014   1.981
    1C        H  837   2.389   3.184   2.022
    1C        H  838   2.446   3.695   1.979
    2V3OU   H29  839   2.805   3.546   5.092
    2V3OU   C27  840   2.781   3.498   5.190
    2V3OU   H27  841   2.718   3.570   5.248
    2V3OU   H28  842   2.722   3.404   5.176
    2V3OU   O11  843   2.906   3.470   5.255
    2V3OU   C15  844   2.919   3.396   5.370
    2V3OU   C13  845   3.048   3.373   5.423
    2V3OU   C14  846   3.073   3.270   5.513
    2V3OU   C16  847   2.967   3.187   5.548
    2V3OU    H6  848   2.984   3.109   5.624
    2V3OU   C12  849   3.213   3.226   5.532
    2V3OU    O2  850   3.242   3.117   5.588
    2V3OU   C10  851   3.329   3.307   5.493
    2V3OU    C8  852   3.459   3.262   5.514
    2V3OU   O10  853   3.490   3.152   5.587
    2V3OU   H26  854   3.404   3.120   5.618
    2V3OU    C6  855   3.562   3.347   5.462
    2V3OU    C5  856   3.540   3.464   5.391
    2V3OU    C4  857   3.700   3.292   5.453
    2V3OU    H4  858   3.718   3.221   5.539
    2V3OU    H5  859   3.716   3.225   5.363
    2V3OU    C2  860   3.813   3.395   5.462
    2V3OU    O6  861   3.808   3.471   5.583
    2V3OU   H21  862   3.766   3.554   5.556
    2V3OU    C3  863   3.784   3.495   5.350
    2V3OU    H2  864   3.864   3.573   5.343
    2V3OU    H3  865   3.776   3.435   5.256
    2V3OU   C25  866   3.950   3.326   5.456
    2V3OU    O7  867   3.999   3.297   5.348
    2V3OU   C26  868   4.022   3.288   5.585
    2V3OU   H22  869   4.075   3.378   5.625
    2V3OU   H23  870   4.113   3.228   5.559
    2V3OU    O8  871   3.959   3.208   5.683
    2V3OU   H24  872   3.930   3.261   5.758
    2V3OU    C1  873   3.649   3.564   5.369
    2V3OU    H1  874   3.623   3.618   5.273
    2V3OU    O3  875   3.657   3.653   5.480
    2V3OU   C19  876   3.620   3.790   5.462
    2V3OU    H9  877   3.522   3.800   5.407
    2V3OU    O4  878   3.716   3.845   5.374
    2V3OU   C20  879   3.848   3.878   5.418
    2V3OU   H10  880   3.892   3.776   5.435
    2V3OU   C24  881   3.610   3.859   5.599
    2V3OU   H16  882   3.542   3.797   5.662
    2V3OU   H17  883   3.570   3.960   5.575
    2V3OU   C23  884   3.753   3.875   5.651
    2V3OU   H15  885   3.799   3.771   5.659
    2V3OU    N1  886   3.743   3.951   5.774
    2V3OU   H19  887   3.809   3.923   5.844
    2V3OU   H20  888   3.649   3.936   5.806
    2V3OU   C21  889   3.850   3.949   5.553
    2V3OU   H11  890   3.950   3.931   5.602
    2V3OU    O5  891   3.824   4.089   5.558
    2V3OU   H18  892   3.772   4.102   5.639
    2V3OU   C22  893   3.914   3.950   5.301
    2V3OU   H12  894   3.861   4.047   5.281
    2V3OU   H13  895   3.904   3.889   5.208
    2V3OU   H14  896   4.023   3.966   5.319
    2V3OU   C11  897   3.158   3.469   5.402
    2V3OU    O1  898   3.138   3.588   5.368
    2V3OU    C9  899   3.298   3.429   5.428
    2V3OU    C7  900   3.403   3.504   5.377
    2V3OU    O9  901   3.384   3.610   5.291
    2V3OU   H25  902   3.289   3.628   5.290
    2V3OU   C17  903   2.813   3.313   5.414
    2V3OU    H7  904   2.716   3.335   5.369
    2V3OU   C18  905   2.837   3.211   5.504
    2V3OU    H8  906   2.752   3.145   5.525
    3SOL     OW  907   3.852   4.040   4.127
    3SOL    HW1  908   3.876   4.118   4.185
    3SOL    HW2  909   3.754   4.043   4.108
    4SOL     OW  910   6.455   0.340   0.549
    4SOL    HW1  911   6.529   0.308   0.608
    4SOL    HW2  912   6.369   0.300   0.579
    5SOL     OW  913   4.850   1.543   1.598
    5SOL    HW1  914   4.835   1.457   1.647
    5SOL    HW2  915   4.941   1.543   1.558
    6SOL     OW  916   5.820   0.370   2.513
    6SOL    HW1  917   5.734   0.354   2.561
    6SOL    HW2  918   5.896   0.357   2.576
    7SOL     OW  919   2.322   4.303   4.211
    7SOL    HW1  920   2.310   4.226   4.148
    7SOL    HW2  921   2.366   4.379   4.163
    8SOL     OW  922   1.981   3.381   5.390
    8SOL    HW1  923   1.958   3.284   5.380
    8SOL    HW2  924   2.027   3.395   5.477
    9SOL     OW  925   6.647   0.972   6.528
    9SOL    HW1  926   6.656   1.028   6.445
    9SOL    HW2  927   6.551   0.949   6.542
   10SOL     OW  928   5.088   4.524   2.849
   10SOL    HW1  929   5.016   4.483   2.903
   10SOL    HW2  930   5.105   4.469   2.767
   11SOL     OW  931   2.712   1.512   0.501
   11SOL    HW1  932   2.729   1.468   0.413
   11SOL    HW2  933   2.660   1.449   0.560
   12SOL     OW  934   2.917   4.775   2.918
   12SOL    HW1  935   3.011   4.785   2.951
   12SOL    HW2  936   2.868   4.711   2.977
   13SOL     OW  937   4.908   6.456   1.246
   13SOL    HW1  938   4.994   6.425   1.286
   13SOL    HW2  939   4.924   6.487   1.152
   14SOL     OW  940   4.382   5.205   5.036
   14SOL    HW1  941   4.475   5.209   5.071
   14SOL    HW2  942   4.319   5.178   5.109
   15SOL     OW  943   6.408   5.982   5.839
   15SOL    HW1  944   6.361   5.959   5.754
   15SOL    HW2  945   6.435   5.898   5.886
   16SOL     OW  946   1.062   3.870   5.112
   16SOL    HW1  947   0.970   3.840   5.136
   16SOL    HW2  948   1.102   3.808   5.044
   17SOL     OW  949   6.288   1.775   5.176
   17SOL    HW1  950   6.197   1.815   5.170
   17SOL    HW2  951   6.284   1.687   5.223
   18SOL     OW  952   2.800   1.064   5.685
   18SOL    HW1  953   2.821   0.985   5.743
   18SOL    HW2  954   2.862   1.140   5.709
   19SOL     OW  955   2.147   0.973   2.849
   19SOL    HW1  956   2.245   0.993   2.843
   19SOL    HW2  957   2.114   0.938   2.762
   20SOL     OW  958   6.480   1.726   5.613
   20SOL    HW1  959   6.418   1.654   5.641
   20SOL    HW2  960   6.430   1.794   5.559
   21SOL     OW  961   2.596   4.656   2.893
   21SOL    HW1  962   2.650   4.688   2.815
   21SOL    HW2  963   2.533   4.584   2.862
   22SOL     OW  964   1.829   6.746   6.631
   22SOL    HW1  965   1.925   6.720   6.622
   22SOL    HW2  966   1.775   6.703   6.558
   23SOL     OW  967   5.546   4.482   1.403
   23SOL    HW1  968   5.577   4.540   1.479
   23SOL    HW2  969   5.597   4.396   1.404
   24SOL     OW  970   4.570   1.108   1.161
   24SOL    HW1  971   4.644   1.055   1.119
   24SOL    HW2  972   4.566   1.199   1.120
   25SOL     OW  973   1.621   1.074   4.588
   25SOL    HW1  974   1.617   0.994   4.648
   25SOL    HW2  975   1.605   1.157   4.641
   26SOL     OW  976   1.280   2.911   6.907
   26SOL    HW1  977   1.289   2.876   7.001
   26SOL    HW2  978   1.247   3.005   6.910
   27SOL     OW  979   6.308   0.776   1.117
   27SOL    HW1  980   6.308   0.829   1.033
   27SOL    HW2  981   6.329   0.680   1.096
   28SOL     OW  982   2.748   0.841   5.170
   28SOL    HW1  983   2.699   0.803   5.092
   28SOL    HW2  984   2.829   0.890   5.137
   29SOL     OW  985   0.616   0.577   1.199
   29SOL    HW1  986   0.598   0.564   1.101
   29SOL    HW2  987   0.706   0.618   1.211
   30SOL     OW  988   4.369   0.389   5.130
   30SOL    HW1  989   4.366   0.481   5.168
   30SOL    HW2  990   4.399   0.394   5.034
   31SOL     OW  991   0.955   4.135   5.295
   31SOL    HW1  992   1.017   4.205   5.261
   31SOL    HW2  993   0.967   4.051   5.242
   32SOL     OW  994   3.028   0.609   1.019
   32SOL    HW1  995   2.979   0.584   0.935
   32SOL    HW2  996   3.064   0.526   1.062
   33SOL     OW  997   0.888   5.145   5.645
   33SOL    HW1  998   0.962   5.204   5.679
   33SOL    HW2  999   0.820   5.132   5.717
   34SOL     OW 1000   2.200   5.529   5.529
   34SOL    HW1 1001   2.176   5.439   5.565
   34SOL    HW2 1002   2.210   5.523   5.430
   35SOL     OW 1003   2.908   3.342   6.823
   35SOL    HW1 1004   2.907   3.353   6.724
   35SOL    HW2 1005   2.833   3.281   6.851
   36SOL     OW 1006   4.448   1.027   4.946
   36SOL    HW1 1007   4.372   0.991   4.891
   36SOL    HW2 1008   4.427   1.121   4.972
   37SOL     OW 1009   2.981   0.709   4.288
   37SOL    HW1 1010   2.971   0.698   4.386
   37SOL    HW2 1011   3.022   0.798   4.268
   38SOL     OW 1012   0.000   4.280   2.655
   38SOL    HW1 1013   0.090   4.278   2.609
   38SOL    HW2 1014   6.952   4.299   2.587
   39SOL     OW 1015   6.843   5.670   6.619
   39SOL    HW1 1016   6.925   5.690   6.565
   39SOL    HW2 1017   6.860   5.591   6.678
   40SOL     OW 1018   4.093   0.940   6.150
   40SOL    HW1 1019   4.024   0.868   6.164
   40SOL    HW2 1020   4.083   0.978   6.058
   41SOL     OW 1021   5.720   4.290   1.489
   41SOL    HW1 1022   5.800   4.229   1.495
   41SOL    HW2 1023   5.637   4.235   1.485
   42SOL     OW 1024   2.573   5.490   6.230
   42SOL    HW1 1025   2.556   5.406   6.179
   42SOL    HW2 1026   2.649   5.476   6.294
   43SOL     OW 1027   3.683   6.935   4.360
   43SOL    HW1 1028   3.643   6.893   4.279
   43SOL    HW2 1029   3.763   6.989   4.334
   44SOL     OW 1030   6.911   1.579   6.250
   44SOL    HW1 1031   6.827   1.565   6.197
   44SOL    HW2 1032   6.937   1.675   6.246
   45SOL     OW 1033   3.005   5.230   0.079
   45SOL    HW1 1034   2.974   5.296   0.010
   45SOL    HW2 1035   3.066   5.163   0.035
   46SOL     OW 1036   0.583   2.683   4.267
   46SOL    HW1 1037   0.532   2.601   4.293
   46SOL    HW2 1038   0.679   2.671   4.292
   47SOL     OW 1039   5.454   2.990   0.920
   47SOL    HW1 1040   5.541   2.972   0.964
   47SOL    HW2 1041   5.380   2.983   0.988
   48SOL     OW 1042   7.008   3.537   0.905
   48SOL    HW1 1043   0.060   3.550   0.970
   48SOL    HW2 1044   6.923   3.520   0.954
   49SOL     OW 1045   4.069   4.033   0.159
   49SOL    HW1 1046   4.090   3.944   0.200
   49SOL    HW2 1047   4.149   4.068   0.111
   50SOL     OW 1048   6.042   3.192   6.977
   50SOL    HW1 1049   5.979   3.121   6.946
   50SOL    HW2 1050   6.120   3.196   6.915
   51SOL     OW 1051   2.408   6.006   3.077
   51SOL    HW1 1052   2.432   5.922   3.125
   51SOL    HW2 1053   2.432   5.998   2.981
   52SOL     OW 1054   5.591   2.427   1.108
   52SOL    HW1 1055   5.517   2.380   1.059
   52SOL    HW2 1056   5.674   2.426   1.052
   53SOL     OW 1057   4.070   0.349   2.198
   53SOL    HW1 1058   4.092   0.317   2.106
   53SOL    HW2 1059   4.132   0.306   2.264
   54SOL     OW 1060   5.696   6.658   6.699
   54SOL    HW1 1061   5.716   6.562   6.718
   54SOL    HW2 1062   5.772   6.698   6.647
   55SOL     OW 1063   0.754   3.361   6.751
   55SOL    HW1 1064   0.823   3.360   6.678
   55SOL    HW2 1065   0.741   3.455   6.782
   56SOL     OW 1066   0.959   2.788   6.993
   56SOL    HW1 1067   1.057   2.796   7.010
   56SOL    HW2 1068   0.913   2.874   7.018
   57SOL     OW 1069   4.575   6.909   6.892
   57SOL    HW1 1070   4.511   6.846   6.849
   57SOL    HW2 1071   4.576   6.894   6.991
   58SOL     OW 1072   1.025   0.096   6.317
   58SOL    HW1 1073   1.075   0.011   6.302
   58SOL    HW2 1074   1.085   0.164   6.356
   59SOL     OW 1075   5.051   3.038   5.652
   59SOL    HW1 1076   4.970   3.092   5.674
   59SOL    HW2 1077   5.041   2.999   5.560
   60SOL     OW 1078   5.628   0.934   3.340
   60SOL    HW1 1079   5.606   0.844   3.380
   60SOL    HW2 1080   5.637   1.001   3.413
   61SOL     OW 1081   6.246   5.820   4.930
   61SOL    HW1 1082   6.268   5.730   4.892
   61SOL    HW2 1083   6.331   5.867   4.956
   62SOL     OW 1084   6.020   2.352   1.813
   62SOL    HW1 1085   6.113   2.360   1.848
   62SOL    HW2 1086   6.010   2.267   1.762
   63SOL     OW 1087   4.458   6.138   5.145
   63SOL    HW1 1088   4.506   6.217   5.106
   63SOL    HW2 1089   4.368   6.129   5.102
   64SOL     OW 1090   0.063   4.441   6.412
   64SOL    HW1 1091   7.014   4.447   6.342
   64SOL    HW2 1092   0.144   4.491   6.381
   65SOL     OW 1093   0.930   6.899   5.488
   65SOL    HW1 1094   0.871   6.885   5.568
   65SOL    HW2 1095   1.004   6.961   5.512
   66SOL     OW 1096   4.225   1.137   2.398
   66SOL    HW1 1097   4.318   1.162   2.426
   66SOL    HW2 1098   4.211   1.164   2.303
   67SOL     OW 1099   0.894   2.717   1.074
   67SOL    HW1 1100   0.815   2.656   1.064
   67SOL    HW2 1101   0.954   2.684   1.146
   68SOL     OW 1102   0.067   1.904   4.987
   68SOL    HW1 1103   0.032   1.962   5.061
   68SOL    HW2 1104   0.109   1.962   4.917
   69SOL     OW 1105   0.953   6.259   6.103
   69SOL    HW1 1106   0.871   6.317   6.101
   69SOL    HW2 1107   0.956   6.209   6.189
   70SOL     OW 1108   5.010   3.583   4.228
   70SOL    HW1 1109   5.053   3.527   4.298
   70SOL    HW2 1110   5.015   3.535   4.140
   71SOL     OW 1111   4.632   1.987   4.946
   71SOL    HW1 1112   4.672   1.957   4.859
   71SOL    HW2 1113   4.536   1.959   4.950
   72SOL     OW 1114   0.360   0.917   3.379
   72SOL    HW1 1115   0.263   0.895   3.394
   72SOL    HW2 1116   0.375   0.934   3.282
   73SOL     OW 1117   2.954   0.894   1.058
   73SOL    HW1 1118   2.940   0.800   1.092
   73SOL    HW2 1119   2.869   0.945   1.068
   74SOL     OW 1120   1.848   2.420   0.271
   74SOL    HW1 1121   1.841   2.507   0.320
   74SOL    HW2 1122   1.851   2.345   0.337
   75SOL     OW 1123   3.612   3.608   0.288
   75SOL    HW1 1124   3.665   3.684   0.251
   75SOL    HW2 1125   3.625   3.603   0.387
   76SOL     OW 1126   3.478   4.834   5.184
   76SOL    HW1 1127   3.544   4.909   5.177
   76SOL    HW2 1128   3.395   4.867   5.230
   77SOL     OW 1129   1.135   4.337   4.586
   77SOL    HW1 1130   1.200   4.380   4.523
   77SOL    HW2 1131   1.103   4.405   4.652
   78SOL     OW 1132   4.718   1.560   0.986
   78SOL    HW1 1133   4.646   1.623   1.016
   78SOL    HW2 1134   4.803   1.582   1.034
   79SOL     OW 1135   1.526   4.802   3.066
   79SOL    HW1 1136   1.572   4.714   3.051
   79SOL    HW2 1137   1.580   4.856   3.131
   80SOL     OW 1138   4.417   1.130   5.332
   80SOL    HW1 1139   4.329   1.138   5.378
   80SOL    HW2 1140   4.437   1.033   5.315
   81SOL     OW 1141   4.257   6.050   1.265
   81SOL    HW1 1142   4.190   6.118   1.294
   81SOL    HW2 1143   4.211   5.966   1.238
   82SOL     OW 1144   2.346   6.366   1.907
   82SOL    HW1 1145   2.429   6.348   1.959
   82SOL    HW2 1146   2.266   6.350   1.966
   83SOL     OW 1147   5.296   0.927   5.047
   83SOL    HW1 1148   5.367   0.958   5.109
   83SOL    HW2 1149   5.330   0.850   4.992
   84SOL     OW 1150   5.470   2.167   1.920
   84SOL    HW1 1151   5.436   2.080   1.955
   84SOL    HW2 1152   5.392   2.224   1.893
   85SOL     OW 1153   1.950   0.447   4.002
   85SOL    HW1 1154   1.942   0.369   4.064
   85SOL    HW2 1155   1.880   0.515   4.025
   86SOL     OW 1156   5.917   0.240   6.541
   86SOL    HW1 1157   6.010   0.225   6.573
   86SOL    HW2 1158   5.853   0.221   6.616
   87SOL     OW 1159   2.568   4.707   6.794
   87SOL    HW1 1160   2.491   4.710   6.730
   87SOL    HW2 1161   2.556   4.629   6.856
   88SOL     OW 1162   3.358   4.053   6.856
   88SOL    HW1 1163   3.308   4.121   6.804
   88SOL    HW2 1164   3.296   4.007   6.920
   89SOL     OW 1165   2.943   3.777   3.967
   89SOL    HW1 1166   3.008   3.800   3.896
   89SOL    HW2 1167   2.943   3.849   4.037
   90SOL     OW 1168   4.935   4.160   2.674
   90SOL    HW1 1169   4.858   4.216   2.643
   90SOL    HW2 1170   5.019   4.212   2.665
   91SOL     OW 1171   4.425   4.929   5.707
   91SOL    HW1 1172   4.517   4.964   5.721
   91SOL    HW2 1173   4.359   4.996   5.743
   92SOL     OW 1174   5.961   3.576   6.357
   92SOL    HW1 1175   5.908   3.567   6.442
   92SOL    HW2 1176   5.944   3.667   6.317
   93SOL     OW 1177   2.924   3.555   1.814
   93SOL    HW1 1178   3.001   3.493   1.831
   93SOL    HW2 1179   2.854   3.541   1.884
   94SOL     OW 1180   2.640   1.778   5.162
   94SOL    HW1 1181   2.737   1.789   5.140
   94SOL    HW2 1182   2.631   1.722   5.245
   95SOL     OW 1183   0.582   0.706   4.063
   95SOL    HW1 1184   0.681   0.716   4.054
   95SOL    HW2 1185   0.536   0.779   4.014
   96SOL     OW 1186   5.882   4.896   0.667
   96SOL    HW1 1187   5.823   4.885   0.587
   96SOL    HW2 1188   5.950   4.823   0.668
   97SOL     OW 1189   2.499   5.296   6.064
   97SOL    HW1 1190   2.507   5.319   5.967
   97SOL    HW2 1191   2.416   5.242   6.078
   98SOL     OW 1192   1.641   2.295   3.396
   98SOL    HW1 1193   1.724   2.324   3.349
   98SOL    HW2 1194   1.580   2.251   3.330
   99SOL     OW 1195   4.050   3.236   5.060
   99SOL    HW1 1196   3.973   3.174   5.042
   99SOL    HW2 1197   4.076   3.229   5.156
  100SOL     OW 1198   6.744   0.849   4.308
  100SOL    HW1 1199   6.743   0.949   4.301
  100SOL    HW2 1200   6.720   0.810   4.219
  101SOL     OW 1201   6.613   3.807   2.585
  101SOL    HW1 1202   6.606   3.723   2.639
  101SOL    HW2 1203   6.672   3.789   2.505
  102SOL     OW 1204   3.777   0.337   0.018
  102SOL    HW1 1205   3.876   0.349   0.030
  102SOL    HW2 1206   3.738   0.301   0.103
  103SOL     OW 1207   3.114   0.937   2.011
  103SOL    HW1 1208   3.100   0.956   2.109
  103SOL    HW2 1209   3.044   0.873   1.979
  104SOL     OW 1210   6.937   4.388   2.060
  104SOL    HW1 1211   6.863   4.323   2.042
  104SOL    HW2 1212   0.002   4.343   2.046
  105SOL     OW 1213   5.982   0.957   5.437
  105SOL    HW1 1214   5.913   1.024   5.410
  105SOL    HW2 1215   5.946   0.865   5.427
  106SOL     OW 1216   5.333   4.796   1.824
  106SOL    HW1 1217   5.261   4.848   1.870
  106SOL    HW2 1218   5.407   4.778   1.889
  107SOL     OW 1219   5.807   6.901   1.290
  107SOL    HW1 1220   5.885   6.920   1.350
  107SOL    HW2 1221   5.726   6.884   1.346
  108SOL     OW 1222   1.923   1.199   5.011
  108SOL    HW1 1223   2.007   1.174   5.059
  108SOL    HW2 1224   1.939   1.197   4.912
  109SOL     OW 1225   1.644   0.837   3.946
  109SOL    HW1 1226   1.641   0.932   3.915
  109SOL    HW2 1227   1.565   0.787   3.910
  110SOL     OW 1228   3.357   4.370   5.471
  110SOL    HW1 1229   3.442   4.354   5.421
  110SOL    HW2 1230   3.287   4.404   5.408
  111SOL     OW 1231   6.675   1.812   1.382
  111SOL    HW1 1232   6.595   1.841   1.331
  111SOL    HW2 1233   6.693   1.877   1.456
  112SOL     OW 1234   4.818   6.287   6.944
  112SOL    HW1 1235   4.903   6.331   6.972
  112SOL    HW2 1236   4.785   6.329   6.860
  113SOL     OW 1237   0.260   6.337   2.346
  113SOL    HW1 1238   0.222   6.365   2.434
  113SOL    HW2 1239   0.251   6.238   2.336
  114SOL     OW 1240   0.208   3.646   2.872
  114SOL    HW1 1241   0.277   3.646   2.800
  114SOL    HW2 1242   0.209   3.734   2.920
  115SOL     OW 1243   5.806   0.474   4.063
  115SOL    HW1 1244   5.732   0.524   4.018
  115SOL    HW2 1245   5.776   0.381   4.084
  116SOL     OW 1246   0.229   4.865   0.456
  116SOL    HW1 1247   0.239   4.964   0.466
  116SOL    HW2 1248   0.310   4.819   0.491
  117SOL     OW 1249   2.466   2.399   6.899
  117SOL    HW1 1250   2.509   2.459   6.831
  117SOL    HW2 1251   2.536   2.343   6.943
  118SOL     OW 1252   1.465   1.962   3.820
  118SOL    HW1 1253   1.377   1.976   3.775
  118SOL    HW2 1254   1.534   1.941   3.751
  119SOL     OW 1255   6.604   6.425   6.550
  119SOL    HW1 1256   6.647   6.339   6.576
  119SOL    HW2 1257   6.674   6.490   6.522
  120SOL     OW 1258   4.997   2.130   4.848
  120SOL    HW1 1259   4.951   2.111   4.761
  120SOL    HW2 1260   4.928   2.143   4.920
  121SOL     OW 1261   1.519   4.835   6.684
  121SOL    HW1 1262   1.449   4.763   6.684
  121SOL    HW2 1263   1.526   4.876   6.775
  122SOL     OW 1264   0.270   4.021   6.516
  122SOL    HW1 1265   0.340   4.086   6.485
  122SOL    HW2 1266   0.183   4.045   6.475
  123SOL     OW 1267   1.515   1.496   1.591
  123SOL    HW1 1268   1.431   1.444   1.571
  123SOL    HW2 1269   1.502   1.548   1.675
  124SOL     OW 1270   2.021   2.670   0.829
  124SOL    HW1 1271   2.031   2.618   0.914
  124SOL    HW2 1272   2.068   2.758   0.839
  125SOL     OW 1273   4.123   3.816   0.279
  125SOL    HW1 1274   4.095   3.779   0.368
  125SOL    HW2 1275   4.119   3.744   0.210
  126SOL     OW 1276   4.067   3.862   4.506
  126SOL    HW1 1277   4.135   3.903   4.446
  126SOL    HW2 1278   4.068   3.762   4.495
  127SOL     OW 1279   0.551   5.720   5.299
  127SOL    HW1 1280   0.584   5.814   5.307
  127SOL    HW2 1281   0.464   5.710   5.348
  128SOL     OW 1282   4.105   3.110   0.065
  128SOL    HW1 1283   4.161   3.189   0.092
  128SOL    HW2 1284   4.016   3.115   0.109
  129SOL     OW 1285   1.104   5.522   1.374
  129SOL    HW1 1286   1.028   5.587   1.381
  129SOL    HW2 1287   1.187   5.565   1.411
  130SOL     OW 1288   5.928   2.822   4.770
  130SOL    HW1 1289   5.871   2.904   4.781
  130SOL    HW2 1290   5.950   2.785   4.860
  131SOL     OW 1291   0.413   2.197   3.902
  131SOL    HW1 1292   0.346   2.268   3.882
  131SOL    HW2 1293   0.485   2.199   3.833
  132SOL     OW 1294   4.102   3.564   2.153
  132SOL    HW1 1295   4.050   3.631   2.207
  132SOL    HW2 1296   4.169   3.519   2.212
  133SOL     OW 1297   5.533   5.853   6.235
  133SOL    HW1 1298   5.616   5.799   6.222
  133SOL    HW2 1299   5.554   5.951   6.224
  134SOL     OW 1300   5.332   1.238   1.653
  134SOL    HW1 1301   5.243   1.273   1.626
  134SOL    HW2 1302   5.370   1.295   1.726
  135SOL     OW 1303   4.987   3.300   3.119
  135SOL    HW1 1304   4.919   3.230   3.139
  135SOL    HW2 1305   5.042   3.317   3.201
  136SOL     OW 1306   3.627   6.978   5.851
  136SOL    HW1 1307   3.632   7.006   5.947
  136SOL    HW2 1308   3.580   0.026   5.798
  137SOL     OW 1309   3.382   2.806   5.728
  137SOL    HW1 1310   3.392   2.897   5.768
  137SOL    HW2 1311   3.335   2.814   5.640
  138SOL     OW 1312   0.753   5.547   6.380
  138SOL    HW1 1313   0.776   5.586   6.291
  138SOL    HW2 1314   0.777   5.450   6.381
  139SOL     OW 1315   2.324   5.933   0.734
  139SOL    HW1 1316   2.372   5.980   0.808
  139SOL    HW2 1317   2.301   5.998   0.662
  140SOL     OW 1318   2.893   0.215   1.323
  140SOL    HW1 1319   2.796   0.194   1.314
  140SOL    HW2 1320   2.912   0.250   1.415
  141SOL     OW 1321   6.534   3.175   0.392
  141SOL    HW1 1322   6.540   3.089   0.443
  141SOL    HW2 1323   6.584   3.246   0.442
  142SOL     OW 1324   1.361   4.115   2.380
  142SOL    HW1 1325   1.439   4.153   2.330
  142SOL    HW2 1326   1.356   4.017   2.364
  143SOL     OW 1327   4.842   6.399   2.201
  143SOL    HW1 1328   4.887   6.423   2.287
  143SOL    HW2 1329   4.910   6.363   2.137
  144SOL     OW 1330   3.355   5.320   3.800
  144SOL    HW1 1331   3.445   5.359   3.782
  144SOL    HW2 1332   3.317   5.281   3.716
  145SOL     OW 1333   6.632   4.854   3.251
  145SOL    HW1 1334   6.724   4.842   3.287
  145SOL    HW2 1335   6.627   4.815   3.159
  146SOL     OW 1336   5.751   1.246   6.404
  146SOL    HW1 1337   5.800   1.329   6.428
  146SOL    HW2 1338   5.803   1.195   6.335
  147SOL     OW 1339   5.089   0.814   5.179
  147SOL    HW1 1340   5.158   0.880   5.148
  147SOL    HW2 1341   5.085   0.738   5.115
  148SOL     OW 1342   1.243   5.493   0.605
  148SOL    HW1 1343   1.212   5.567   0.546
  148SOL    HW2 1344   1.209   5.406   0.570
  149SOL     OW 1345   2.227   2.683   5.443
  149SOL    HW1 1346   2.175   2.599   5.429
  149SOL    HW2 1347   2.168   2.752   5.485
  150SOL     OW 1348   4.301   1.804   4.970
  150SOL    HW1 1349   4.319   1.769   4.878
  150SOL    HW2 1350   4.297   1.727   5.034
  151SOL     OW 1351   3.684   2.730   0.712
  151SOL    HW1 1352   3.649   2.819   0.739
  151SOL    HW2 1353   3.762   2.706   0.770
  152SOL     OW 1354   1.046   2.049   0.639
  152SOL    HW1 1355   1.068   2.118   0.708
  152SOL    HW2 1356   1.121   2.042   0.574
  153SOL     OW 1357   3.364   1.153   3.527
  153SOL    HW1 1358   3.360   1.071   3.470
  153SOL    HW2 1359   3.318   1.135   3.614
  154SOL     OW 1360   6.312   1.661   2.234
  154SOL    HW1 1361   6.368   1.643   2.153
  154SOL    HW2 1362   6.364   1.714   2.300
  155SOL     OW 1363   1.287   6.648   2.121
  155SOL    HW1 1364   1.370   6.693   2.154
  155SOL    HW2 1365   1.224   6.635   2.197
  156SOL     OW 1366   5.028   2.331   0.289
  156SOL    HW1 1367   4.936   2.369   0.294
  156SOL    HW2 1368   5.059   2.334   0.194
  157SOL     OW 1369   4.111   5.196   0.244
  157SOL    HW1 1370   4.033   5.254   0.222
  157SOL    HW2 1371   4.145   5.152   0.161
  158SOL     OW 1372   6.948   2.748   3.005
  158SOL    HW1 1373   7.017   2.726   2.935
  158SOL    HW2 1374   6.988   2.811   3.072
  159SOL     OW 1375   5.941   5.145   0.733
  159SOL    HW1 1376   6.008   5.179   0.667
  159SOL    HW2 1377   5.916   5.051   0.709
  160SOL     OW 1378   6.460   0.021   1.900
  160SOL    HW1 1379   6.444   6.945   1.899
  160SOL    HW2 1380   6.543   0.042   1.848
  161SOL     OW 1381   6.893   6.670   0.590
  161SOL    HW1 1382   6.911   6.629   0.679
  161SOL    HW2 1383   6.979   6.685   0.542
  162SOL     OW 1384   4.768   0.052   0.119
  162SOL    HW1 1385   4.756   0.018   0.213
  162SOL    HW2 1386   4.693   0.114   0.096
  163SOL     OW 1387   6.894   3.833   2.894
  163SOL    HW1 1388   6.832   3.789   2.959
  163SOL    HW2 1389   6.989   3.820   2.924
  164SOL     OW 1390   2.324   2.189   3.945
  164SOL    HW1 1391   2.286   2.096   3.937
  164SOL    HW2 1392   2.405   2.197   3.887
  165SOL     OW 1393   0.162   6.366   3.515
  165SOL    HW1 1394   0.147   6.270   3.494
  165SOL    HW2 1395   0.170   6.418   3.430
  166SOL     OW 1396   0.067   4.065   3.546
  166SOL    HW1 1397   0.151   4.072   3.492
  166SOL    HW2 1398   7.016   4.113   3.500
  167SOL     OW 1399   3.626   1.800   0.152
  167SOL    HW1 1400   3.591   1.882   0.198
  167SOL    HW2 1401   3.554   1.759   0.098
  168SOL     OW 1402   5.127   4.094   2.223
  168SOL    HW1 1403   5.213   4.142   2.209
  168SOL    HW2 1404   5.117   4.023   2.153
  169SOL     OW 1405   5.059   2.451   0.883
  169SOL    HW1 1406   5.151   2.461   0.921
  169SOL    HW2 1407   4.992   2.457   0.957
  170SOL     OW 1408   0.551   6.260   2.815
  170SOL    HW1 1409   0.541   6.359   2.801
  170SOL    HW2 1410   0.479   6.212   2.766
  171SOL     OW 1411   3.089   3.916   0.686
  171SOL    HW1 1412   3.163   3.976   0.658
  171SOL    HW2 1413   3.007   3.970   0.707
  172SOL     OW 1414   6.899   2.343   6.613
  172SOL    HW1 1415   6.808   2.380   6.632
  172SOL    HW2 1416   6.943   2.317   6.699
  173SOL     OW 1417   0.051   1.707   4.211
  173SOL    HW1 1418   0.071   1.784   4.273
  173SOL    HW2 1419   0.004   1.635   4.262
  174SOL     OW 1420   5.645   5.017   5.203
  174SOL    HW1 1421   5.573   5.054   5.261
  174SOL    HW2 1422   5.608   4.997   5.112
  175SOL     OW 1423   0.712   0.432   0.928
  175SOL    HW1 1424   0.707   0.488   0.845
  175SOL    HW2 1425   0.794   0.455   0.979
  176SOL     OW 1426   5.449   4.307   1.846
  176SOL    HW1 1427   5.511   4.368   1.894
  176SOL    HW2 1428   5.388   4.360   1.787
  177SOL     OW 1429   5.940   2.910   4.393
  177SOL    HW1 1430   5.949   2.824   4.443
  177SOL    HW2 1431   5.989   2.902   4.306
  178SOL     OW 1432   1.973   5.995   4.908
  178SOL    HW1 1433   2.058   5.944   4.895
  178SOL    HW2 1434   1.995   6.088   4.938
  179SOL     OW 1435   3.632   4.905   1.282
  179SOL    HW1 1436   3.558   4.863   1.335
  179SOL    HW2 1437   3.639   5.002   1.306
  180SOL     OW 1438   3.877   1.242   0.698
  180SOL    HW1 1439   3.944   1.272   0.630
  180SOL    HW2 1440   3.814   1.317   0.717
  181SOL     OW 1441   3.084   2.529   5.637
  181SOL    HW1 1442   3.052   2.510   5.544
  181SOL    HW2 1443   3.181   2.553   5.634
  182SOL     OW 1444   4.192   2.107   0.432
  182SOL    HW1 1445   4.185   2.185   0.369
  182SOL    HW2 1446   4.104   2.092   0.476
  183SOL     OW 1447   3.657   1.698   3.142
  183SOL    HW1 1448   3.567   1.739   3.131
  183SOL    HW2 1449   3.653   1.625   3.210
  184SOL     OW 1450   5.527   6.048   3.561
  184SOL    HW1 1451   5.576   6.079   3.480
  184SOL    HW2 1452   5.497   5.954   3.549
  185SOL     OW 1453   6.504   1.095   4.130
  185SOL    HW1 1454   6.476   1.028   4.062
  185SOL    HW2 1455   6.473   1.186   4.103
  186SOL     OW 1456   4.644   6.307   4.009
  186SOL    HW1 1457   4.732   6.355   4.006
  186SOL    HW2 1458   4.641   6.239   3.935
  187SOL     OW 1459   4.510   6.326   2.015
  187SOL    HW1 1460   4.515   6.418   1.976
  187SOL    HW2 1461   4.423   6.284   1.990
  188SOL     OW 1462   1.237   3.546   3.765
  188SOL    HW1 1463   1.262   3.628   3.714
  188SOL    HW2 1464   1.320   3.505   3.804
  189SOL     OW 1465   6.171   5.114   6.481
  189SOL    HW1 1466   6.189   5.021   6.514
  189SOL    HW2 1467   6.257   5.156   6.453
  190SOL     OW 1468   5.971   0.403   0.269
  190SOL    HW1 1469   5.957   0.427   0.173
  190SOL    HW2 1470   6.050   0.452   0.304
  191SOL     OW 1471   6.959   1.398   5.155
  191SOL    HW1 1472   6.909   1.436   5.233
  191SOL    HW2 1473   6.969   1.299   5.167
  192SOL     OW 1474   0.601   5.483   1.015
  192SOL    HW1 1475   0.621   5.494   0.917
  192SOL    HW2 1476   0.684   5.454   1.062
  193SOL     OW 1477   2.163   6.084   6.847
  193SOL    HW1 1478   2.072   6.067   6.885
  193SOL    HW2 1479   2.218   6.001   6.855
  194SOL     OW 1480   4.106   6.738   2.497
  194SOL    HW1 1481   4.098   6.740   2.397
  194SOL    HW2 1482   4.118   6.831   2.532
  195SOL     OW 1483   3.701   0.738   1.131
  195SOL    HW1 1484   3.661   0.749   1.041
  195SOL    HW2 1485   3.686   0.645   1.164
  196SOL     OW 1486   2.515   1.404   0.668
  196SOL    HW1 1487   2.496   1.493   0.709
  196SOL    HW2 1488   2.450   1.387   0.594
  197SOL     OW 1489   1.793   6.589   0.680
  197SOL    HW1 1490   1.796   6.498   0.723
  197SOL    HW2 1491   1.771   6.658   0.750
  198SOL     OW 1492   4.613   0.266   6.734
  198SOL    HW1 1493   4.525   0.236   6.772
  198SOL    HW2 1494   4.663   0.186   6.702
  199SOL     OW 1495   6.887   0.071   3.414
  199SOL    HW1 1496   6.848   7.005   3.390
  199SOL    HW2 1497   6.975   0.057   3.459
  200SOL     OW 1498   0.467   4.137   3.434
  200SOL    HW1 1499   0.551   4.127   3.487
  200SOL    HW2 1500   0.410   4.056   3.448
  201SOL     OW 1501   3.865   0.753   6.185
  201SOL    HW1 1502   3.838   0.778   6.092
  201SOL    HW2 1503   3.788   0.711   6.232
  202SOL     OW 1504   2.942   0.163   2.807
  202SOL    HW1 1505   2.882   0.208   2.873
  202SOL    HW2 1506   2.964   0.227   2.734
  203SOL     OW 1507   5.707   3.436   6.275
  203SOL    HW1 1508   5.692   3.499   6.352
  203SOL    HW2 1509   5.771   3.365   6.303
  204SOL     OW 1510   2.197   6.887   1.333
  204SOL    HW1 1511   2.111   6.885   1.384
  204SOL    HW2 1512   2.224   6.793   1.310
  205SOL     OW 1513   6.299   1.663   0.464
  205SOL    HW1 1514   6.325   1.757   0.442
  205SOL    HW2 1515   6.240   1.627   0.392
  206SOL     OW 1516   1.083   4.175   2.061
  206SOL    HW1 1517   1.017   4.192   1.988
  206SOL    HW2 1518   1.129   4.088   2.044
  207SOL     OW 1519   4.778   0.520   5.553
  207SOL    HW1 1520   4.822   0.472   5.477
  207SOL    HW2 1521   4.702   0.574   5.518
  208SOL     OW 1522   4.247   5.116   6.418
  208SOL    HW1 1523   4.239   5.025   6.457
  208SOL    HW2 1524   4.213   5.184   6.483
  209SOL     OW 1525   6.969   5.666   5.557
  209SOL    HW1 1526   0.038   5.635   5.585
  209SOL    HW2 1527   6.924   5.593   5.506
  210SOL     OW 1528   3.920   3.550   0.885
  210SOL    HW1 1529   3.913   3.530   0.983
  210SOL    HW2 1530   4.016   3.566   0.861
  211SOL     OW 1531   1.451   1.792   0.765
  211SOL    HW1 1532   1.548   1.806   0.749
  211SOL    HW2 1533   1.433   1.694   0.777
  212SOL     OW 1534   0.198   5.260   3.756
  212SOL    HW1 1535   0.159   5.352   3.761
  212SOL    HW2 1536   0.131   5.194   3.789
  213SOL     OW 1537   4.759   2.090   0.265
  213SOL    HW1 1538   4.662   2.104   0.287
  213SOL    HW2 1539   4.813   2.093   0.349
  214SOL     OW 1540   1.222   0.590   3.008
  214SOL    HW1 1541   1.271   0.626   2.928
  214SOL    HW2 1542   1.181   0.502   2.984
  215SOL     OW 1543   3.810   3.580   2.733
  215SOL    HW1 1544   3.882   3.530   2.685
  215SOL    HW2 1545   3.742   3.516   2.768
  216SOL     OW 1546   0.794   6.896   5.736
  216SOL    HW1 1547   0.730   6.935   5.801
  216SOL    HW2 1548   0.867   6.848   5.785
  217SOL     OW 1549   0.945   2.705   3.011
  217SOL    HW1 1550   0.979   2.747   3.095
  217SOL    HW2 1551   0.866   2.756   2.978
  218SOL     OW 1552   1.399   3.948   5.375
  218SOL    HW1 1553   1.390   4.034   5.324
  218SOL    HW2 1554   1.471   3.958   5.444
  219SOL     OW 1555   4.557   5.058   0.198
  219SOL    HW1 1556   4.542   4.971   0.244
  219SOL    HW2 1557   4.583   5.042   0.103
  220SOL     OW 1558   3.108   4.876   0.576
  220SOL    HW1 1559   3.099   4.808   0.649
  220SOL    HW2 1560   3.039   4.947   0.588
  221SOL     OW 1561   5.789   2.353   4.698
  221SOL    HW1 1562   5.788   2.408   4.614
  221SOL    HW2 1563   5.696   2.350   4.736
  222SOL     OW 1564   1.174   6.393   5.210
  222SOL    HW1 1565   1.148   6.302   5.243
  222SOL    HW2 1566   1.164   6.459   5.285
  223SOL     OW 1567   6.692   3.503   1.730
  223SOL    HW1 1568   6.712   3.580   1.789
  223SOL    HW2 1569   6.628   3.441   1.776
  224SOL     OW 1570   3.120   2.226   1.762
  224SOL    HW1 1571   3.042   2.177   1.801
  224SOL    HW2 1572   3.130   2.314   1.806
  225SOL     OW 1573   6.196   0.207   6.598
  225SOL    HW1 1574   6.270   0.172   6.655
  225SOL    HW2 1575   6.208   0.305   6.582
  226SOL     OW 1576   6.784   5.939   0.859
  226SOL    HW1 1577   6.774   5.995   0.777
  226SOL    HW2 1578   6.749   5.847   0.841
  227SOL     OW 1579   1.417   3.370   3.854
  227SOL    HW1 1580   1.402   3.342   3.949
  227SOL    HW2 1581   1.515   3.383   3.838
  228SOL     OW 1582   4.158   6.721   4.113
  228SOL    HW1 1583   4.104   6.637   4.112
  228SOL    HW2 1584   4.254   6.700   4.098
  229SOL     OW 1585   5.938   5.582   2.560
  229SOL    HW1 1586   5.893   5.638   2.629
  229SOL    HW2 1587   5.904   5.488   2.566
  230SOL     OW 1588   2.177   4.039   4.811
  230SOL    HW1 1589   2.206   3.972   4.743
  230SOL    HW2 1590   2.243   4.042   4.886
  231SOL     OW 1591   0.284   2.190   6.112
  231SOL    HW1 1592   0.238   2.109   6.147
  231SOL    HW2 1593   0.245   2.272   6.156
  232SOL     OW 1594   1.837   4.732   6.560
  232SOL    HW1 1595   1.803   4.773   6.476
  232SOL    HW2 1596   1.778   4.656   6.587
  233SOL     OW 1597   1.919   0.961   6.307
  233SOL    HW1 1598   2.011   0.965   6.348
  233SOL    HW2 1599   1.900   0.867   6.279
  234SOL     OW 1600   2.553   5.747   0.284
  234SOL    HW1 1601   2.579   5.783   0.374
  234SOL    HW2 1602   2.527   5.823   0.224
  235SOL     OW 1603   3.119   3.373   5.088
  235SOL    HW1 1604   3.100   3.444   5.156
  235SOL    HW2 1605   3.038   3.316   5.076
  236SOL     OW 1606   6.892   2.280   5.266
  236SOL    HW1 1607   6.927   2.195   5.226
  236SOL    HW2 1608   6.966   2.347   5.273
  237SOL     OW 1609   0.506   0.346   1.350
  237SOL    HW1 1610   0.532   0.283   1.276
  237SOL    HW2 1611   0.565   0.426   1.348
  238SOL     OW 1612   6.032   2.552   2.554
  238SOL    HW1 1613   5.975   2.615   2.606
  238SOL    HW2 1614   5.995   2.541   2.462
  239SOL     OW 1615   0.013   5.876   0.338
  239SOL    HW1 1616   0.069   5.955   0.363
  239SOL    HW2 1617   6.948   5.880   0.386
  240SOL     OW 1618   0.196   3.625   5.903
  240SOL    HW1 1619   0.146   3.542   5.881
  240SOL    HW2 1620   0.171   3.697   5.839
  241SOL     OW 1621   0.668   0.597   3.283
  241SOL    HW1 1622   0.758   0.558   3.265
  241SOL    HW2 1623   0.632   0.560   3.369
  242SOL     OW 1624   1.589   3.970   4.242
  242SOL    HW1 1625   1.681   3.949   4.207
  242SOL    HW2 1626   1.569   4.066   4.227
  243SOL     OW 1627   5.044   6.773   5.204
  243SOL    HW1 1628   5.045   6.865   5.165
  243SOL    HW2 1629   4.951   6.747   5.227
  244SOL     OW 1630   6.300   2.054   5.882
  244SOL    HW1 1631   6.281   2.008   5.969
  244SOL    HW2 1632   6.214   2.083   5.840
  245SOL     OW 1633   6.090   1.459   4.029
  245SOL    HW1 1634   6.076   1.441   4.126
  245SOL    HW2 1635   6.125   1.552   4.017
  246SOL     OW 1636   5.264   3.102   3.341
  246SOL    HW1 1637   5.310   3.182   3.379
  246SOL    HW2 1638   5.302   3.019   3.383
  247SOL     OW 1639   2.573   1.567   3.528
  247SOL    HW1 1640   2.525   1.619   3.458
  247SOL    HW2 1641   2.521   1.570   3.614
  248SOL     OW 1642   6.153   1.386   3.103
  248SOL    HW1 1643   6.244   1.362   3.068
  248SOL    HW2 1644   6.134   1.482   3.083
  249SOL     OW 1645   3.208   0.081   4.120
  249SOL    HW1 1646   3.238   0.112   4.211
  249SOL    HW2 1647   3.136   0.141   4.087
  250SOL     OW 1648   4.986   2.717   5.926
  250SOL    HW1 1649   5.061   2.706   5.862
  250SOL    HW2 1650   4.940   2.629   5.939
  251SOL     OW 1651   3.221   2.418   1.065
  251SOL    HW1 1652   3.217   2.349   0.993
  251SOL    HW2 1653   3.133   2.420   1.113
  252SOL     OW 1654   0.298   1.108   5.859
  252SOL    HW1 1655   0.253   1.046   5.795
  252SOL    HW2 1656   0.232   1.175   5.893
  253SOL     OW 1657   3.018   3.735   6.214
  253SOL    HW1 1658   2.940   3.679   6.241
  253SOL    HW2 1659   3.070   3.687   6.143
  254SOL     OW 1660   5.700   3.352   5.266
  254SOL    HW1 1661   5.690   3.267   5.213
  254SOL    HW2 1662   5.693   3.331   5.364
  255SOL     OW 1663   3.000   2.035   4.149
  255SOL    HW1 1664   2.963   2.078   4.232
  255SOL    HW2 1665   3.094   2.006   4.165
  256SOL     OW 1666   6.175   4.925   6.816
  256SOL    HW1 1667   6.181   4.854   6.747
  256SOL    HW2 1668   6.098   4.986   6.795
  257SOL     OW 1669   3.360   6.175   5.961
  257SOL    HW1 1670   3.423   6.193   6.036
  257SOL    HW2 1671   3.271   6.149   5.998
  258SOL     OW 1672   5.289   4.404   4.161
  258SOL    HW1 1673   5.302   4.413   4.260
  258SOL    HW2 1674   5.292   4.308   4.135
  259SOL     OW 1675   1.360   2.363   2.464
  259SOL    HW1 1676   1.395   2.327   2.550
  259SOL    HW2 1677   1.436   2.403   2.412
  260SOL     OW 1678   5.741   0.349   5.940
  260SOL    HW1 1679   5.775   0.285   5.871
  260SOL    HW2 1680   5.731   0.301   6.027
  261SOL     OW 1681   0.689   3.477   2.174
  261SOL    HW1 1682   0.609   3.537   2.178
  261SOL    HW2 1683   0.711   3.444   2.266
  262SOL     OW 1684   0.370   4.973   2.107
  262SOL    HW1 1685   0.401   5.067   2.122
  262SOL    HW2 1686   0.447   4.917   2.075
  263SOL     OW 1687   1.145   2.088   4.020
  263SOL    HW1 1688   1.060   2.139   4.010
  263SOL    HW2 1689   1.191   2.081   3.931
  264SOL     OW 1690   2.710   4.821   6.392
  264SOL    HW1 1691   2.703   4.916   6.423
  264SOL    HW2 1692   2.788   4.777   6.438
  265SOL     OW 1693   5.499   4.265   4.969
  265SOL    HW1 1694   5.432   4.211   5.020
  265SOL    HW2 1695   5.498   4.236   4.873
  266SOL     OW 1696   3.655   1.994   0.571
  266SOL    HW1 1697   3.661   2.071   0.507
  266SOL    HW2 1698   3.699   1.914   0.531
  267SOL     OW 1699   0.973   2.550   5.763
  267SOL    HW1 1700   1.006   2.588   5.677
  267SOL    HW2 1701   0.989   2.615   5.837
  268SOL     OW 1702   3.610   4.963   4.385
  268SOL    HW1 1703   3.546   4.945   4.310
  268SOL    HW2 1704   3.564   4.948   4.472
  269SOL     OW 1705   1.045   1.432   5.352
  269SOL    HW1 1706   1.061   1.336   5.376
  269SOL    HW2 1707   0.963   1.439   5.295
  270SOL     OW 1708   5.006   1.067   4.006
  270SOL    HW1 1709   5.074   1.000   3.977
  270SOL    HW2 1710   5.051   1.138   4.060
  271SOL     OW 1711   1.873   0.939   0.196
  271SOL    HW1 1712   1.931   1.020   0.183
  271SOL    HW2 1713   1.875   0.911   0.292
  272SOL     OW 1714   3.636   5.109   3.319
  272SOL    HW1 1715   3.595   5.107   3.410
  272SOL    HW2 1716   3.568   5.139   3.252
  273SOL     OW 1717   2.644   6.437   5.508
  273SOL    HW1 1718   2.644   6.369   5.434
  273SOL    HW2 1719   2.576   6.412   5.576
  274SOL     OW 1720   6.261   1.982   1.466
  274SOL    HW1 1721   6.234   2.029   1.551
  274SOL    HW2 1722   6.216   1.893   1.461
  275SOL     OW 1723   5.755   6.167   5.542
  275SOL    HW1 1724   5.833   6.151   5.603
  275SOL    HW2 1725   5.778   6.240   5.477
  276SOL     OW 1726   6.605   6.109   3.658
  276SOL    HW1 1727   6.625   6.071   3.748
  276SOL    HW2 1728   6.608   6.035   3.590
  277SOL     OW 1729   4.981   0.908   5.404
  277SOL    HW1 1730   4.963   1.006   5.403
  277SOL    HW2 1731   5.003   0.877   5.311
  278SOL     OW 1732   6.124   2.814   2.735
  278SOL    HW1 1733   6.147   2.730   2.784
  278SOL    HW2 1734   6.060   2.869   2.789
  279SOL     OW 1735   0.064   2.934   4.092
  279SOL    HW1 1736   0.028   2.878   4.018
  279SOL    HW2 1737   7.016   2.948   4.162
  280SOL     OW 1738   3.470   0.780   3.947
  280SOL    HW1 1739   3.427   0.694   3.917
  280SOL    HW2 1740   3.487   0.838   3.867
  281SOL     OW 1741   5.200   6.216   3.746
  281SOL    HW1 1742   5.299   6.229   3.750
  281SOL    HW2 1743   5.176   6.166   3.662
  282SOL     OW 1744   3.315   1.538   0.551
  282SOL    HW1 1745   3.386   1.547   0.481
  282SOL    HW2 1746   3.303   1.625   0.598
  283SOL     OW 1747   6.575   1.620   4.836
  283SOL    HW1 1748   6.643   1.552   4.862
  283SOL    HW2 1749   6.502   1.576   4.783
  284SOL     OW 1750   5.494   5.760   3.553
  284SOL    HW1 1751   5.531   5.716   3.471
  284SOL    HW2 1752   5.547   5.731   3.633
  285SOL     OW 1753   4.656   0.131   6.200
  285SOL    HW1 1754   4.688   0.204   6.140
  285SOL    HW2 1755   4.708   0.134   6.286
  286SOL     OW 1756   2.314   5.294   5.071
  286SOL    HW1 1757   2.380   5.369   5.078
  286SOL    HW2 1758   2.296   5.258   5.163
  287SOL     OW 1759   3.137   0.173   6.164
  287SOL    HW1 1760   3.114   0.076   6.155
  287SOL    HW2 1761   3.132   0.217   6.074
  288SOL     OW 1762   4.080   1.014   0.994
  288SOL    HW1 1763   3.999   1.054   1.037
  288SOL    HW2 1764   4.158   1.022   1.056
  289SOL     OW 1765   6.015   5.911   3.975
  289SOL    HW1 1766   6.075   5.982   3.938
  289SOL    HW2 1767   6.053   5.875   4.060
  290SOL     OW 1768   3.808   0.762   5.413
  290SOL    HW1 1769   3.772   0.694   5.476
  290SOL    HW2 1770   3.806   0.852   5.457
  291SOL     OW 1771   3.654   6.721   5.000
  291SOL    HW1 1772   3.615   6.652   4.940
  291SOL    HW2 1773   3.754   6.723   4.988
  292SOL     OW 1774   4.782   6.742   3.437
  292SOL    HW1 1775   4.806   6.797   3.356
  292SOL    HW2 1776   4.851   6.756   3.508
  293SOL     OW 1777   5.878   6.747   2.578
  293SOL    HW1 1778   5.922   6.669   2.533
  293SOL    HW2 1779   5.905   6.749   2.674
  294SOL     OW 1780   6.361   0.627   5.627
  294SOL    HW1 1781   6.286   0.621   5.693
  294SOL    HW2 1782   6.367   0.720   5.592
  295SOL     OW 1783   1.675   1.556   5.060
  295SOL    HW1 1784   1.750   1.505   5.102
  295SOL    HW2 1785   1.652   1.515   4.971
  296SOL     OW 1786   6.846   2.218   1.354
  296SOL    HW1 1787   6.911   2.153   1.315
  296SOL    HW2 1788   6.753   2.194   1.327
  297SOL     OW 1789   5.195   2.963   4.087
  297SOL    HW1 1790   5.174   3.018   4.007
  297SOL    HW2 1791   5.142   2.878   4.084
  298SOL     OW 1792   3.849   0.806   6.546
  298SOL    HW1 1793   3.861   0.724   6.601
  298SOL    HW2 1794   3.939   0.842   6.521
  299SOL     OW 1795   1.595   0.634   7.014
  299SOL    HW1 1796   1.673   0.580   6.982
  299SOL    HW2 1797   1.628   0.715   0.039
  300SOL     OW 1798   4.000   6.934   3.612
  300SOL    HW1 1799   4.051   6.967   3.691
  300SOL    HW2 1800   3.933   7.003   3.584
  301SOL     OW 1801   6.493   5.502   1.062
  301SOL    HW1 1802   6.529   5.580   1.114
  301SOL    HW2 1803   6.417   5.461   1.113
  302SOL     OW 1804   6.930   5.641   1.534
  302SOL    HW1 1805   6.960   5.627   1.628
  302SOL    HW2 1806   6.945   5.557   1.481
  303SOL     OW 1807   5.112   5.515   2.437
  303SOL    HW1 1808   5.178   5.555   2.373
  303SOL    HW2 1809   5.124   5.556   2.527
  304SOL     OW 1810   2.608   5.833   4.614
  304SOL    HW1 1811   2.705   5.829   4.639
  304SOL    HW2 1812   2.598   5.871   4.523
  305SOL     OW 1813   0.981   3.247   1.940
  305SOL    HW1 1814   1.003   3.182   2.013
  305SOL    HW2 1815   1.012   3.212   1.852
  306SOL     OW 1816   6.707   6.801   2.450
  306SOL    HW1 1817   6.612   6.779   2.471
  306SOL    HW2 1818   6.712   6.894   2.414
  307SOL     OW 1819   3.232   2.912   3.168
  307SOL    HW1 1820   3.255   2.845   3.097
  307SOL    HW2 1821   3.301   2.907   3.241
  308SOL     OW 1822   5.265   2.211   3.956
  308SOL    HW1 1823   5.260   2.217   3.856
  308SOL    HW2 1824   5.235   2.298   3.995
  309SOL     OW 1825   1.406   6.286   6.083
  309SOL    HW1 1826   1.327   6.300   6.142
  309SOL    HW2 1827   1.389   6.209   6.021
  310SOL     OW 1828   5.151   6.250   4.895
  310SOL    HW1 1829   5.150   6.345   4.928
  310SOL    HW2 1830   5.224   6.239   4.828
  311SOL     OW 1831   1.848   5.366   2.661
  311SOL    HW1 1832   1.846   5.289   2.597
  311SOL    HW2 1833   1.920   5.351   2.729
  312SOL     OW 1834   4.530   2.125   2.767
  312SOL    HW1 1835   4.556   2.116   2.864
  312SOL    HW2 1836   4.488   2.040   2.736
  313SOL     OW 1837   4.072   3.702   3.174
  313SOL    HW1 1838   4.055   3.786   3.226
  313SOL    HW2 1839   4.019   3.703   3.090
  314SOL     OW 1840   2.836   6.240   5.936
  314SOL    HW1 1841   2.746   6.275   5.963
  314SOL    HW2 1842   2.883   6.307   5.879
  315SOL     OW 1843   6.373   1.888   3.313
  315SOL    HW1 1844   6.392   1.821   3.385
  315SOL    HW2 1845   6.316   1.846   3.243
  316SOL     OW 1846   3.627   1.322   5.350
  316SOL    HW1 1847   3.550   1.291   5.407
  316SOL    HW2 1848   3.600   1.320   5.254
  317SOL     OW 1849   1.348   1.576   1.820
  317SOL    HW1 1850   1.345   1.667   1.778
  317SOL    HW2 1851   1.257   1.534   1.817
  318SOL     OW 1852   0.713   0.724   5.482
  318SOL    HW1 1853   0.773   0.664   5.428
  318SOL    HW2 1854   0.662   0.669   5.547
  319SOL     OW 1855   1.702   1.713   2.392
  319SOL    HW1 1856   1.738   1.657   2.317
  319SOL    HW2 1857   1.671   1.801   2.357
  320SOL     OW 1858   5.753   1.860   6.175
  320SOL    HW1 1859   5.694   1.938   6.197
  320SOL    HW2 1860   5.808   1.836   6.255
  321SOL     OW 1861   4.575   3.207   0.629
  321SOL    HW1 1862   4.486   3.250   0.644
  321SOL    HW2 1863   4.619   3.190   0.717
  322SOL     OW 1864   3.511   3.387   5.938
  322SOL    HW1 1865   3.512   3.368   6.036
  322SOL    HW2 1866   3.416   3.388   5.906
  323SOL     OW 1867   0.094   3.331   2.625
  323SOL    HW1 1868   0.121   3.264   2.694
  323SOL    HW2 1869   0.162   3.405   2.622
  324SOL     OW 1870   0.049   6.599   3.847
  324SOL    HW1 1871   0.043   6.571   3.943
  324SOL    HW2 1872   0.144   6.618   3.823
  325SOL     OW 1873   0.304   3.895   2.476
  325SOL    HW1 1874   0.383   3.908   2.417
  325SOL    HW2 1875   0.323   3.821   2.541
  326SOL     OW 1876   0.858   6.396   6.420
  326SOL    HW1 1877   0.932   6.337   6.452
  326SOL    HW2 1878   0.883   6.492   6.433
  327SOL     OW 1879   4.521   5.029   3.927
  327SOL    HW1 1880   4.545   4.985   4.014
  327SOL    HW2 1881   4.596   5.016   3.862
  328SOL     OW 1882   1.820   3.631   2.887
  328SOL    HW1 1883   1.880   3.551   2.887
  328SOL    HW2 1884   1.772   3.636   2.799
  329SOL     OW 1885   3.324   3.967   2.120
  329SOL    HW1 1886   3.392   3.899   2.148
  329SOL    HW2 1887   3.338   3.989   2.023
  330SOL     OW 1888   3.704   5.397   0.773
  330SOL    HW1 1889   3.689   5.330   0.845
  330SOL    HW2 1890   3.622   5.454   0.763
  331SOL     OW 1891   5.428   5.038   7.003
  331SOL    HW1 1892   5.455   4.941   7.001
  331SOL    HW2 1893   5.384   5.059   0.068
  332SOL     OW 1894   5.296   2.168   2.906
  332SOL    HW1 1895   5.378   2.111   2.898
  332SOL    HW2 1896   5.306   2.230   2.984
  333SOL     OW 1897   3.337   1.036   5.858
  333SOL    HW1 1898   3.258   1.034   5.797
  333SOL    HW2 1899   3.399   1.109   5.830
  334SOL     OW 1900   3.738   3.540   3.099
  334SOL    HW1 1901   3.646   3.524   3.062
  334SOL    HW2 1902   3.744   3.635   3.131
  335SOL     OW 1903   3.603   0.337   6.146
  335SOL    HW1 1904   3.547   0.279   6.205
  335SOL    HW2 1905   3.592   0.433   6.173
  336SOL     OW 1906   2.672   2.075   3.776
  336SOL    HW1 1907   2.720   1.988   3.784
  336SOL    HW2 1908   2.723   2.146   3.823
  337SOL     OW 1909   2.302   7.004   5.956
  337SOL    HW1 1910   2.304   0.033   5.870
  337SOL    HW2 1911   2.362   0.025   6.022
  338SOL     OW 1912   4.565   1.916   1.301
  338SOL    HW1 1913   4.628   1.909   1.378
  338SOL    HW2 1914   4.471   1.911   1.335
  339SOL     OW 1915   4.191   5.208   5.240
  339SOL    HW1 1916   4.149   5.120   5.216
  339SOL    HW2 1917   4.128   5.282   5.218
  340SOL     OW 1918   4.743   2.194   3.546
  340SOL    HW1 1919   4.756   2.145   3.460
  340SOL    HW2 1920   4.824   2.183   3.603
  341SOL     OW 1921   5.636   7.007   3.531
  341SOL    HW1 1922   5.538   7.009   3.549
  341SOL    HW2 1923   5.668   0.077   3.509
  342SOL     OW 1924   4.490   2.239   1.854
  342SOL    HW1 1925   4.461   2.335   1.849
  342SOL    HW2 1926   4.467   2.192   1.769
  343SOL     OW 1927   0.151   5.950   2.977
  343SOL    HW1 1928   0.153   6.016   3.053
  343SOL    HW2 1929   0.236   5.956   2.925
  344SOL     OW 1930   2.468   1.272   1.408
  344SOL    HW1 1931   2.501   1.366   1.397
  344SOL    HW2 1932   2.436   1.238   1.319
  345SOL     OW 1933   6.081   3.809   4.211
  345SOL    HW1 1934   6.076   3.864   4.294
  345SOL    HW2 1935   6.045   3.717   4.230
  346SOL     OW 1936   1.974   6.920   3.315
  346SOL    HW1 1937   2.052   6.857   3.308
  346SOL    HW2 1938   1.919   6.913   3.232
  347SOL     OW 1939   2.979   5.103   0.658
  347SOL    HW1 1940   2.950   5.173   0.723
  347SOL    HW2 1941   2.911   5.095   0.585
  348SOL     OW 1942   4.469   5.361   1.982
  348SOL    HW1 1943   4.429   5.385   1.894
  348SOL    HW2 1944   4.470   5.442   2.041
  349SOL     OW 1945   6.051   4.363   1.025
  349SOL    HW1 1946   6.010   4.329   1.110
  349SOL    HW2 1947   6.132   4.309   1.003
  350SOL     OW 1948   3.193   3.196   0.111
  350SOL    HW1 1949   3.290   3.177   0.124
  350SOL    HW2 1950   3.164   3.268   0.174
  351SOL     OW 1951   3.161   4.390   1.024
  351SOL    HW1 1952   3.133   4.468   0.968
  351SOL    HW2 1953   3.186   4.421   1.115
  352SOL     OW 1954   3.583   6.876   3.280
  352SOL    HW1 1955   3.677   6.844   3.295
  352SOL    HW2 1956   3.519   6.808   3.316
  353SOL     OW 1957   1.911   6.165   7.017
  353SOL    HW1 1958   1.953   6.152   0.084
  353SOL    HW2 1959   1.877   6.259   7.008
  354SOL     OW 1960   6.918   2.622   0.507
  354SOL    HW1 1961   6.999   2.566   0.527
  354SOL    HW2 1962   6.843   2.593   0.565
  355SOL     OW 1963   2.078   1.933   2.316
  355SOL    HW1 1964   2.090   1.891   2.406
  355SOL    HW2 1965   2.126   2.021   2.314
  356SOL     OW 1966   0.985   6.732   5.819
  356SOL    HW1 1967   1.054   6.670   5.782
  356SOL    HW2 1968   0.962   6.704   5.912
  357SOL     OW 1969   5.880   6.407   4.702
  357SOL    HW1 1970   5.806   6.446   4.647
  357SOL    HW2 1971   5.903   6.316   4.668
  358SOL     OW 1972   4.567   5.614   0.550
  358SOL    HW1 1973   4.555   5.669   0.468
  358SOL    HW2 1974   4.587   5.520   0.525
  359SOL     OW 1975   2.815   2.199   2.421
  359SOL    HW1 1976   2.898   2.150   2.395
  359SOL    HW2 1977   2.755   2.207   2.341
  360SOL     OW 1978   1.523   4.565   4.235
  360SOL    HW1 1979   1.564   4.626   4.167
  360SOL    HW2 1980   1.423   4.570   4.227
  361SOL     OW 1981   6.438   6.824   2.974
  361SOL    HW1 1982   6.515   6.832   2.911
  361SOL    HW2 1983   6.439   6.734   3.017
  362SOL     OW 1984   3.946   4.543   1.353
  362SOL    HW1 1985   3.979   4.484   1.279
  362SOL    HW2 1986   3.850   4.523   1.372
  363SOL     OW 1987   5.272   5.515   2.206
  363SOL    HW1 1988   5.252   5.459   2.126
  363SOL    HW2 1989   5.361   5.558   2.196
  364SOL     OW 1990   0.453   5.923   6.497
  364SOL    HW1 1991   0.415   5.991   6.559
  364SOL    HW2 1992   0.389   5.908   6.421
  365SOL     OW 1993   4.743   1.902   2.720
  365SOL    HW1 1994   4.809   1.857   2.660
  365SOL    HW2 1995   4.768   1.998   2.732
  366SOL     OW 1996   6.056   2.351   0.494
  366SOL    HW1 1997   6.007   2.325   0.411
  366SOL    HW2 1998   6.144   2.392   0.471
  367SOL     OW 1999   4.314   1.985   5.533
  367SOL    HW1 2000   4.262   2.070   5.524
  367SOL    HW2 2001   4.287   1.922   5.459
  368SOL     OW 2002   6.529   2.244   6.000
  368SOL    HW1 2003   6.493   2.193   5.922
  368SOL    HW2 2004   6.616   2.287   5.975
  369SOL     OW 2005   5.497   3.203   2.218
  369SOL    HW1 2006   5.582   3.247   2.247
  369SOL    HW2 2007   5.487   3.211   2.119
  370SOL     OW 2008   2.171   3.339   4.218
  370SOL    HW1 2009   2.261   3.300   4.234
  370SOL    HW2 2010   2.135   3.376   4.304
  371SOL     OW 2011   1.214   4.464   6.507
  371SOL    HW1 2012   1.199   4.397   6.580
  371SOL    HW2 2013   1.293   4.437   6.452
  372SOL     OW 2014   2.894   6.567   6.827
  372SOL    HW1 2015   2.901   6.538   6.923
  372SOL    HW2 2016   2.800   6.559   6.796
  373SOL     OW 2017   5.996   6.132   4.349
  373SOL    HW1 2018   5.967   6.045   4.310
  373SOL    HW2 2019   6.095   6.140   4.343
  374SOL     OW 2020   2.666   1.711   3.133
  374SOL    HW1 2021   2.747   1.728   3.188
  374SOL    HW2 2022   2.657   1.783   3.064
  375SOL     OW 2023   1.280   4.446   5.007
  375SOL    HW1 2024   1.290   4.428   5.105
  375SOL    HW2 2025   1.322   4.372   4.955
  376SOL     OW 2026   2.215   0.665   4.631
  376SOL    HW1 2027   2.162   0.647   4.548
  376SOL    HW2 2028   2.174   0.740   4.682
  377SOL     OW 2029   1.061   2.663   6.516
  377SOL    HW1 2030   1.143   2.676   6.462
  377SOL    HW2 2031   1.059   2.570   6.553
  378SOL     OW 2032   3.326   1.700   1.706
  378SOL    HW1 2033   3.249   1.643   1.679
  378SOL    HW2 2034   3.313   1.792   1.670
  379SOL     OW 2035   6.101   1.872   5.807
  379SOL    HW1 2036   6.139   1.814   5.735
  379SOL    HW2 2037   6.093   1.966   5.773
  380SOL     OW 2038   3.871   1.586   0.984
  380SOL    HW1 2039   3.961   1.610   0.948
  380SOL    HW2 2040   3.815   1.549   0.909
  381SOL     OW 2041   1.105   4.678   3.339
  381SOL    HW1 2042   1.195   4.648   3.370
  381SOL    HW2 2043   1.093   4.774   3.362
  382SOL     OW 2044   5.733   0.601   0.560
  382SOL    HW1 2045   5.715   0.677   0.497
  382SOL    HW2 2046   5.814   0.623   0.616
  383SOL     OW 2047   4.249   3.114   0.831
  383SOL    HW1 2048   4.206   3.149   0.747
  383SOL    HW2 2049   4.273   3.018   0.819
  384SOL     OW 2050   6.215   4.037   4.657
  384SOL    HW1 2051   6.275   4.106   4.699
  384SOL    HW2 2052   6.237   4.029   4.559
  385SOL     OW 2053   4.808   4.706   0.119
  385SOL    HW1 2054   4.798   4.773   0.192
  385SOL    HW2 2055   4.779   4.616   0.153
  386SOL     OW 2056   3.119   0.062   3.739
  386SOL    HW1 2057   3.108   0.111   3.826
  386SOL    HW2 2058   3.087   0.120   3.664
  387SOL     OW 2059   2.267   6.079   3.999
  387SOL    HW1 2060   2.299   5.984   3.994
  387SOL    HW2 2061   2.319   6.127   4.070
  388SOL     OW 2062   2.454   2.694   6.374
  388SOL    HW1 2063   2.421   2.758   6.443
  388SOL    HW2 2064   2.401   2.705   6.290
  389SOL     OW 2065   2.896   3.525   3.654
  389SOL    HW1 2066   2.916   3.589   3.580
  389SOL    HW2 2067   2.922   3.433   3.627
  390SOL     OW 2068   1.741   1.699   4.213
  390SOL    HW1 2069   1.822   1.698   4.272
  390SOL    HW2 2070   1.737   1.615   4.160
  391SOL     OW 2071   0.737   2.556   6.881
  391SOL    HW1 2072   0.795   2.637   6.893
  391SOL    HW2 2073   0.757   2.490   6.954
  392SOL     OW 2074   2.476   5.314   2.174
  392SOL    HW1 2075   2.442   5.408   2.177
  392SOL    HW2 2076   2.400   5.251   2.194
  393SOL     OW 2077   6.030   4.264   5.399
  393SOL    HW1 2078   6.064   4.191   5.339
  393SOL    HW2 2079   5.983   4.223   5.476
  394SOL     OW 2080   0.393   6.316   0.530
  394SOL    HW1 2081   0.458   6.240   0.535
  394SOL    HW2 2082   0.317   6.298   0.593
  395SOL     OW 2083   5.300   3.932   1.731
  395SOL    HW1 2084   5.276   3.895   1.820
  395SOL    HW2 2085   5.302   3.859   1.663
  396SOL     OW 2086   3.190   3.770   3.808
  396SOL    HW1 2087   3.286   3.742   3.812
  396SOL    HW2 2088   3.157   3.765   3.714
  397SOL     OW 2089   4.254   2.232   5.393
  397SOL    HW1 2090   4.174   2.287   5.368
  397SOL    HW2 2091   4.331   2.255   5.333
  398SOL     OW 2092   0.948   4.879   2.325
  398SOL    HW1 2093   0.883   4.811   2.291
  398SOL    HW2 2094   1.030   4.878   2.267
  399SOL     OW 2095   5.292   5.830   1.300
  399SOL    HW1 2096   5.220   5.893   1.272
  399SOL    HW2 2097   5.252   5.740   1.319
  400SOL     OW 2098   0.437   6.169   5.409
  400SOL    HW1 2099   0.426   6.269   5.411
  400SOL    HW2 2100   0.519   6.144   5.460
  401SOL     OW 2101   4.996   1.780   6.671
  401SOL    HW1 2102   5.001   1.801   6.574
  401SOL    HW2 2103   4.971   1.862   6.722
  402SOL     OW 2104   6.472   5.867   2.419
  402SOL    HW1 2105   6.566   5.879   2.451
  402SOL    HW2 2106   6.437   5.778   2.450
  403SOL     OW 2107   4.799   2.079   5.992
  403SOL    HW1 2108   4.857   2.061   5.913
  403SOL    HW2 2109   4.846   2.143   6.054
  404SOL     OW 2110   0.821   0.070   4.399
  404SOL    HW1 2111   0.823   7.004   4.445
  404SOL    HW2 2112   0.813   0.143   4.468
  405SOL     OW 2113   1.616   2.077   0.555
  405SOL    HW1 2114   1.674   2.006   0.594
  405SOL    HW2 2115   1.521   2.044   0.552
  406SOL     OW 2116   1.622   2.259   4.409
  406SOL    HW1 2117   1.719   2.264   4.386
  406SOL    HW2 2118   1.580   2.184   4.358
  407SOL     OW 2119   3.104   0.638   5.263
  407SOL    HW1 2120   3.044   0.559   5.253
  407SOL    HW2 2121   3.097   0.673   5.357
  408SOL     OW 2122   1.803   0.063   4.036
  408SOL    HW1 2123   1.797   0.100   3.944
  408SOL    HW2 2124   1.712   0.064   4.078
  409SOL     OW 2125   5.964   2.613   3.210
  409SOL    HW1 2126   6.053   2.656   3.195
  409SOL    HW2 2127   5.948   2.544   3.138
  410SOL     OW 2128   2.064   0.122   6.940
  410SOL    HW1 2129   2.147   0.127   6.884
  410SOL    HW2 2130   2.075   0.052   7.011
  411SOL     OW 2131   5.680   4.701   5.799
  411SOL    HW1 2132   5.664   4.602   5.804
  411SOL    HW2 2133   5.760   4.724   5.855
  412SOL     OW 2134   3.321   6.502   2.561
  412SOL    HW1 2135   3.339   6.600   2.572
  412SOL    HW2 2136   3.314   6.481   2.463
  413SOL     OW 2137   3.466   5.788   1.015
  413SOL    HW1 2138   3.447   5.787   1.113
  413SOL    HW2 2139   3.542   5.849   0.996
  414SOL     OW 2140   4.788   4.901   1.498
  414SOL    HW1 2141   4.877   4.947   1.494
  414SOL    HW2 2142   4.767   4.878   1.593
  415SOL     OW 2143   1.477   6.053   1.282
  415SOL    HW1 2144   1.448   6.135   1.231
  415SOL    HW2 2145   1.396   5.999   1.306
  416SOL     OW 2146   3.684   6.149   4.727
  416SOL    HW1 2147   3.773   6.110   4.705
  416SOL    HW2 2148   3.648   6.197   4.648
  417SOL     OW 2149   3.293   6.332   2.772
  417SOL    HW1 2150   3.311   6.377   2.860
  417SOL    HW2 2151   3.289   6.401   2.699
  418SOL     OW 2152   5.081   5.915   0.468
  418SOL    HW1 2153   5.053   5.820   0.474
  418SOL    HW2 2154   5.069   5.960   0.556
  419SOL     OW 2155   0.582   0.230   1.120
  419SOL    HW1 2156   0.515   0.185   1.061
  419SOL    HW2 2157   0.611   0.316   1.079
  420SOL     OW 2158   5.215   3.750   0.651
  420SOL    HW1 2159   5.213   3.789   0.743
  420SOL    HW2 2160   5.265   3.664   0.653
  421SOL     OW 2161   2.203   5.666   6.469
  421SOL    HW1 2162   2.280   5.701   6.415
  421SOL    HW2 2163   2.131   5.636   6.407
  422SOL     OW 2164   6.279   4.722   0.177
  422SOL    HW1 2165   6.230   4.806   0.156
  422SOL    HW2 2166   6.215   4.645   0.178
  423SOL     OW 2167   5.892   2.991   6.869
  423SOL    HW1 2168   5.805   2.962   6.831
  423SOL    HW2 2169   5.960   2.998   6.796
  424SOL     OW 2170   2.941   4.298   0.266
  424SOL    HW1 2171   2.902   4.324   0.354
  424SOL    HW2 2172   3.037   4.275   0.278
  425SOL     OW 2173   5.102   1.855   0.895
  425SOL    HW1 2174   5.132   1.866   0.990
  425SOL    HW2 2175   5.178   1.878   0.833
  426SOL     OW 2176   4.852   2.298   5.637
  426SOL    HW1 2177   4.895   2.225   5.583
  426SOL    HW2 2178   4.904   2.311   5.722
  427SOL     OW 2179   5.289   4.180   1.219
  427SOL    HW1 2180   5.230   4.202   1.297
  427SOL    HW2 2181   5.261   4.092   1.180
  428SOL     OW 2182   4.080   0.417   5.380
  428SOL    HW1 2183   4.005   0.367   5.337
  428SOL    HW2 2184   4.043   0.480   5.449
  429SOL     OW 2185   1.607   5.280   0.846
  429SOL    HW1 2186   1.651   5.283   0.756
  429SOL    HW2 2187   1.528   5.342   0.846
  430SOL     OW 2188   1.371   6.835   4.414
  430SOL    HW1 2189   1.336   6.793   4.498
  430SOL    HW2 2190   1.458   6.793   4.389
  431SOL     OW 2191   3.712   1.371   6.850
  431SOL    HW1 2192   3.639   1.355   6.784
  431SOL    HW2 2193   3.780   1.298   6.843
  432SOL     OW 2194   6.426   1.861   0.318
  432SOL    HW1 2195   6.368   1.935   0.285
  432SOL    HW2 2196   6.491   1.835   0.246
  433SOL     OW 2197   2.807   6.650   4.772
  433SOL    HW1 2198   2.776   6.699   4.853
  433SOL    HW2 2199   2.847   6.715   4.707
  434SOL     OW 2200   6.004   3.841   0.797
  434SOL    HW1 2201   6.102   3.859   0.787
  434SOL    HW2 2202   5.954   3.928   0.801
  435SOL     OW 2203   3.258   3.331   5.823
  435SOL    HW1 2204   3.171   3.338   5.872
  435SOL    HW2 2205   3.279   3.235   5.807
  436SOL     OW 2206   1.606   0.025   1.882
  436SOL    HW1 2207   1.642   6.956   1.869
  436SOL    HW2 2208   1.658   0.089   1.826
  437SOL     OW 2209   0.042   0.040   6.361
  437SOL    HW1 2210   0.092   0.041   6.448
  437SOL    HW2 2211   0.082   6.994   6.300
  438SOL     OW 2212   1.940   2.710   1.763
  438SOL    HW1 2213   1.903   2.755   1.844
  438SOL    HW2 2214   1.975   2.619   1.788
  439SOL     OW 2215   6.430   4.902   2.460
  439SOL    HW1 2216   6.397   4.854   2.378
  439SOL    HW2 2217   6.501   4.967   2.434
  440SOL     OW 2218   0.836   2.337   4.352
  440SOL    HW1 2219   0.814   2.390   4.434
  440SOL    HW2 2220   0.783   2.371   4.274
  441SOL     OW 2221   1.879   1.510   3.199
  441SOL    HW1 2222   1.922   1.559   3.123
  441SOL    HW2 2223   1.781   1.503   3.182
  442SOL     OW 2224   0.295   4.125   6.810
  442SOL    HW1 2225   0.352   4.053   6.848
  442SOL    HW2 2226   0.227   4.085   6.748
  443SOL     OW 2227   1.625   4.400   4.830
  443SOL    HW1 2228   1.529   4.374   4.832
  443SOL    HW2 2229   1.634   4.499   4.838
  444SOL     OW 2230   4.282   2.684   6.150
  444SOL    HW1 2231   4.287   2.738   6.066
  444SOL    HW2 2232   4.203   2.713   6.204
  445SOL     OW 2233   1.712   5.646   3.412
  445SOL    HW1 2234   1.662   5.562   3.433
  445SOL    HW2 2235   1.769   5.671   3.491
  446SOL     OW 2236   3.681   4.875   4.002
  446SOL    HW1 2237   3.584   4.894   3.989
  446SOL    HW2 2238   3.734   4.927   3.935
  447SOL     OW 2239   6.935   4.227   6.956
  447SOL    HW1 2240   6.836   4.235   6.944
  447SOL    HW2 2241   6.976   4.318   6.965
  448SOL     OW 2242   3.823   0.533   5.184
  448SOL    HW1 2243   3.909   0.567   5.222
  448SOL    HW2 2244   3.769   0.609   5.148
  449SOL     OW 2245   5.841   1.087   4.941
  449SOL    HW1 2246   5.809   1.000   4.903
  449SOL    HW2 2247   5.890   1.070   5.026
  450SOL     OW 2248   0.022   6.005   3.719
  450SOL    HW1 2249   0.024   6.041   3.625
  450SOL    HW2 2250   0.058   6.074   3.782
  451SOL     OW 2251   0.599   2.504   2.182
  451SOL    HW1 2252   0.542   2.579   2.217
  451SOL    HW2 2253   0.693   2.536   2.171
  452SOL     OW 2254   6.765   5.278   0.454
  452SOL    HW1 2255   6.805   5.369   0.443
  452SOL    HW2 2256   6.835   5.208   0.439
  453SOL     OW 2257   3.337   1.137   6.769
  453SOL    HW1 2258   3.406   1.192   6.721
  453SOL    HW2 2259   3.302   1.187   6.847
  454SOL     OW 2260   0.287   6.332   6.087
  454SOL    HW1 2261   0.366   6.302   6.033
  454SOL    HW2 2262   0.317   6.358   6.179
  455SOL     OW 2263   5.550   6.948   4.378
  455SOL    HW1 2264   5.513   0.018   4.384
  455SOL    HW2 2265   5.490   6.892   4.321
  456SOL     OW 2266   3.693   5.643   6.139
  456SOL    HW1 2267   3.775   5.593   6.169
  456SOL    HW2 2268   3.712   5.690   6.053
  457SOL     OW 2269   2.142   4.169   3.281
  457SOL    HW1 2270   2.186   4.258   3.265
  457SOL    HW2 2271   2.110   4.132   3.195
  458SOL     OW 2272   5.213   5.369   5.596
  458SOL    HW1 2273   5.207   5.284   5.543
  458SOL    HW2 2274   5.153   5.438   5.555
  459SOL     OW 2275   1.352   0.340   3.168
  459SOL    HW1 2276   1.310   0.398   3.099
  459SOL    HW2 2277   1.283   0.278   3.206
  460SOL     OW 2278   0.350   1.840   2.012
  460SOL    HW1 2279   0.314   1.934   2.011
  460SOL    HW2 2280   0.414   1.827   1.936
  461SOL     OW 2281   4.756   0.005   4.644
  461SOL    HW1 2282   4.748   6.928   4.650
  461SOL    HW2 2283   4.851   0.030   4.624
  462SOL     OW 2284   3.815   2.528   6.029
  462SOL    HW1 2285   3.911   2.548   6.010
  462SOL    HW2 2286   3.788   2.574   6.114
  463SOL     OW 2287   6.304   5.403   2.896
  463SOL    HW1 2288   6.390   5.453   2.886
  463SOL    HW2 2289   6.256   5.401   2.808
  464SOL     OW 2290   2.345   1.172   6.520
  464SOL    HW1 2291   2.301   1.253   6.480
  464SOL    HW2 2292   2.347   1.182   6.620
  465SOL     OW 2293   1.080   1.808   4.747
  465SOL    HW1 2294   1.164   1.811   4.802
  465SOL    HW2 2295   1.103   1.828   4.651
  466SOL     OW 2296   6.768   6.736   3.591
  466SOL    HW1 2297   6.818   6.732   3.504
  466SOL    HW2 2298   6.724   6.648   3.608
  467SOL     OW 2299   1.177   6.886   6.328
  467SOL    HW1 2300   1.131   6.813   6.378
  467SOL    HW2 2301   1.190   6.857   6.233
  468SOL     OW 2302   4.012   5.891   0.637
  468SOL    HW1 2303   4.096   5.944   0.621
  468SOL    HW2 2304   4.025   5.798   0.601
  469SOL     OW 2305   2.303   5.275   0.221
  469SOL    HW1 2306   2.319   5.206   0.292
  469SOL    HW2 2307   2.348   5.247   0.136
  470SOL     OW 2308   4.302   0.579   2.106
  470SOL    HW1 2309   4.288   0.671   2.141
  470SOL    HW2 2310   4.256   0.513   2.166
  471SOL     OW 2311   1.558   2.734   3.896
  471SOL    HW1 2312   1.629   2.666   3.914
  471SOL    HW2 2313   1.569   2.811   3.959
  472SOL     OW 2314   4.617   3.989   6.223
  472SOL    HW1 2315   4.660   3.900   6.209
  472SOL    HW2 2316   4.601   4.033   6.134
  473SOL     OW 2317   0.546   2.787   1.381
  473SOL    HW1 2318   0.476   2.769   1.451
  473SOL    HW2 2319   0.506   2.843   1.309
  474SOL     OW 2320   4.565   4.885   4.167
  474SOL    HW1 2321   4.508   4.804   4.181
  474SOL    HW2 2322   4.530   4.960   4.224
  475SOL     OW 2323   6.870   0.152   6.595
  475SOL    HW1 2324   6.793   0.170   6.655
  475SOL    HW2 2325   6.841   0.161   6.499
  476SOL     OW 2326   6.647   4.076   2.528
  476SOL    HW1 2327   6.651   3.980   2.556
  476SOL    HW2 2328   6.551   4.105   2.525
  477SOL     OW 2329   1.977   5.126   4.378
  477SOL    HW1 2330   2.022   5.048   4.421
  477SOL    HW2 2331   2.009   5.135   4.284
  478SOL     OW 2332   3.028   6.330   2.541
  478SOL    HW1 2333   2.969   6.403   2.574
  478SOL    HW2 2334   3.035   6.335   2.441
  479SOL     OW 2335   3.182   2.113   0.287
  479SOL    HW1 2336   3.149   2.195   0.334
  479SOL    HW2 2337   3.269   2.084   0.327
  480SOL     OW 2338   1.405   0.032   1.176
  480SOL    HW1 2339   1.371   0.051   1.268
  480SOL    HW2 2340   1.334   7.008   1.123
  481SOL     OW 2341   2.207   0.759   1.022
  481SOL    HW1 2342   2.124   0.799   1.059
  481SOL    HW2 2343   2.276   0.751   1.095
  482SOL     OW 2344   4.687   4.816   2.572
  482SOL    HW1 2345   4.618   4.860   2.514
  482SOL    HW2 2346   4.659   4.823   2.668
  483SOL     OW 2347   5.544   2.345   1.615
  483SOL    HW1 2348   5.565   2.337   1.712
  483SOL    HW2 2349   5.455   2.303   1.596
  484SOL     OW 2350   1.017   3.044   4.850
  484SOL    HW1 2351   1.046   2.966   4.793
  484SOL    HW2 2352   1.068   3.044   4.935
  485SOL     OW 2353   3.327   5.112   2.202
  485SOL    HW1 2354   3.243   5.122   2.254
  485SOL    HW2 2355   3.404   5.104   2.265
  486SOL     OW 2356   0.884   1.665   1.102
  486SOL    HW1 2357   0.840   1.613   1.176
  486SOL    HW2 2358   0.965   1.710   1.138
  487SOL     OW 2359   0.767   1.880   6.731
  487SOL    HW1 2360   0.727   1.789   6.739
  487SOL    HW2 2361   0.763   1.909   6.635
  488SOL     OW 2362   0.931   1.335   1.176
  488SOL    HW1 2363   0.892   1.361   1.265
  488SOL    HW2 2364   1.024   1.370   1.169
  489SOL     OW 2365   3.523   5.905   0.364
  489SOL    HW1 2366   3.546   5.862   0.276
  489SOL    HW2 2367   3.459   5.980   0.348
  490SOL     OW 2368   6.293   5.948   4.396
  490SOL    HW1 2369   6.341   5.964   4.310
  490SOL    HW2 2370   6.291   6.032   4.450
  491SOL     OW 2371   0.073   2.595   2.763
  491SOL    HW1 2372   7.019   2.614   2.702
  491SOL    HW2 2373   0.156   2.636   2.726
  492SOL     OW 2374   3.142   0.656   5.568
  492SOL    HW1 2375   3.146   0.685   5.664
  492SOL    HW2 2376   3.134   0.557   5.563
  493SOL     OW 2377   6.213   4.844   6.520
  493SOL    HW1 2378   6.290   4.845   6.456
  493SOL    HW2 2379   6.170   4.753   6.519
  494SOL     OW 2380   0.075   6.128   6.869
  494SOL    HW1 2381   0.070   6.143   6.968
  494SOL    HW2 2382   0.026   6.201   6.821
  495SOL     OW 2383   4.988   5.327   2.775
  495SOL    HW1 2384   5.024   5.317   2.682
  495SOL    HW2 2385   4.894   5.361   2.770
  496SOL     OW 2386   5.378   2.455   2.859
  496SOL    HW1 2387   5.387   2.388   2.786
  496SOL    HW2 2388   5.282   2.462   2.887
  497SOL     OW 2389   3.481   1.433   5.124
  497SOL    HW1 2390   3.383   1.432   5.143
  497SOL    HW2 2391   3.512   1.527   5.112
  498SOL     OW 2392   1.411   3.614   1.894
  498SOL    HW1 2393   1.336   3.602   1.959
  498SOL    HW2 2394   1.373   3.632   1.803
  499SOL     OW 2395   3.061   0.995   4.284
  499SOL    HW1 2396   3.069   1.083   4.330
  499SOL    HW2 2397   2.983   0.995   4.222
  500SOL     OW 2398   0.644   4.428   3.959
  500SOL    HW1 2399   0.545   4.437   3.975
  500SOL    HW2 2400   0.666   4.462   3.868
  501SOL     OW 2401   2.838   1.902   0.217
  501SOL    HW1 2402   2.775   1.831   0.249
  501SOL    HW2 2403   2.803   1.992   0.242
  502SOL     OW 2404   5.541   4.089   5.827
  502SOL    HW1 2405   5.527   4.134   5.915
  502SOL    HW2 2406   5.455   4.049   5.796
  503SOL     OW 2407   6.350   4.438   5.741
  503SOL    HW1 2408   6.310   4.347   5.731
  503SOL    HW2 2409   6.365   4.458   5.838
  504SOL     OW 2410   2.519   6.445   3.950
  504SOL    HW1 2411   2.453   6.509   3.988
  504SOL    HW2 2412   2.612   6.476   3.972
  505SOL     OW 2413   3.581   0.464   5.298
  505SOL    HW1 2414   3.673   0.467   5.260
  505SOL    HW2 2415   3.520   0.521   5.243
  506SOL     OW 2416   1.789   5.094   4.595
  506SOL    HW1 2417   1.836   5.141   4.670
  506SOL    HW2 2418   1.840   5.105   4.510
  507SOL     OW 2419   2.872   0.235   4.348
  507SOL    HW1 2420   2.801   0.179   4.391
  507SOL    HW2 2421   2.962   0.206   4.381
  508SOL     OW 2422   5.894   3.423   2.668
  508SOL    HW1 2423   5.991   3.444   2.680
  508SOL    HW2 2424   5.839   3.484   2.726
  509SOL     OW 2425   3.856   0.993   1.567
  509SOL    HW1 2426   3.779   1.026   1.511
  509SOL    HW2 2427   3.866   1.052   1.647
  510SOL     OW 2428   6.730   4.629   5.869
  510SOL    HW1 2429   6.680   4.593   5.790
  510SOL    HW2 2430   6.754   4.725   5.852
  511SOL     OW 2431   0.083   6.812   6.735
  511SOL    HW1 2432   0.043   6.842   6.649
  511SOL    HW2 2433   0.038   6.728   6.765
  512SOL     OW 2434   6.963   3.086   6.991
  512SOL    HW1 2435   6.880   3.046   0.007
  512SOL    HW2 2436   0.011   3.093   0.039
  513SOL     OW 2437   5.790   6.390   3.047
  513SOL    HW1 2438   5.863   6.322   3.053
  513SOL    HW2 2439   5.718   6.357   2.985
  514SOL     OW 2440   6.541   2.196   4.098
  514SOL    HW1 2441   6.636   2.228   4.099
  514SOL    HW2 2442   6.488   2.250   4.032
  515SOL     OW 2443   2.634   6.489   6.222
  515SOL    HW1 2444   2.600   6.427   6.292
  515SOL    HW2 2445   2.723   6.525   6.249
  516SOL     OW 2446   2.736   4.634   1.653
  516SOL    HW1 2447   2.750   4.631   1.752
  516SOL    HW2 2448   2.681   4.555   1.625
  517SOL     OW 2449   4.911   5.892   2.393
  517SOL    HW1 2450   4.957   5.855   2.473
  517SOL    HW2 2451   4.881   5.985   2.413
  518SOL     OW 2452   2.913   2.218   1.465
  518SOL    HW1 2453   2.953   2.289   1.523
  518SOL    HW2 2454   2.882   2.142   1.523
  519SOL     OW 2455   0.118   0.645   4.797
  519SOL    HW1 2456   0.148   0.621   4.889
  519SOL    HW2 2457   0.082   0.739   4.797
  520SOL     OW 2458   5.606   4.606   6.538
  520SOL    HW1 2459   5.604   4.703   6.516
  520SOL    HW2 2460   5.697   4.569   6.519
  521SOL     OW 2461   6.090   1.921   6.386
  521SOL    HW1 2462   6.002   1.874   6.388
  521SOL    HW2 2463   6.142   1.898   6.469
  522SOL     OW 2464   3.981   2.935   5.489
  522SOL    HW1 2465   4.041   2.869   5.444
  522SOL    HW2 2466   4.035   2.991   5.552
  523SOL     OW 2467   6.626   5.439   3.596
  523SOL    HW1 2468   6.656   5.532   3.619
  523SOL    HW2 2469   6.531   5.440   3.568
  524SOL     OW 2470   2.686   0.928   7.006
  524SOL    HW1 2471   2.777   0.968   6.998
  524SOL    HW2 2472   2.617   1.000   7.013
  525SOL     OW 2473   2.564   3.632   6.235
  525SOL    HW1 2474   2.519   3.626   6.146
  525SOL    HW2 2475   2.652   3.585   6.231
  526SOL     OW 2476   2.197   5.857   4.865
  526SOL    HW1 2477   2.169   5.785   4.801
  526SOL    HW2 2478   2.286   5.894   4.837
  527SOL     OW 2479   6.224   1.939   6.131
  527SOL    HW1 2480   6.321   1.948   6.152
  527SOL    HW2 2481   6.171   1.937   6.215
  528SOL     OW 2482   1.485   1.463   3.999
  528SOL    HW1 2483   1.430   1.401   3.943
  528SOL    HW2 2484   1.471   1.557   3.969
  529SOL     OW 2485   1.152   4.979   4.719
  529SOL    HW1 2486   1.062   4.952   4.753
  529SOL    HW2 2487   1.160   5.079   4.717
  530SOL     OW 2488   2.617   2.953   5.433
  530SOL    HW1 2489   2.592   2.857   5.434
  530SOL    HW2 2490   2.588   2.994   5.346
  531SOL     OW 2491   0.472   0.894   1.425
  531SOL    HW1 2492   0.564   0.878   1.462
  531SOL    HW2 2493   0.461   0.991   1.404
  532SOL     OW 2494   0.730   2.211   6.346
  532SOL    HW1 2495   0.754   2.240   6.438
  532SOL    HW2 2496   0.648   2.260   6.316
  533SOL     OW 2497   4.672   6.257   4.297
  533SOL    HW1 2498   4.732   6.229   4.222
  533SOL    HW2 2499   4.672   6.357   4.303
  534SOL     OW 2500   4.847   5.554   3.849
  534SOL    HW1 2501   4.797   5.624   3.900
  534SOL    HW2 2502   4.922   5.519   3.905
  535SOL     OW 2503   0.931   4.514   4.416
  535SOL    HW1 2504   0.942   4.544   4.511
  535SOL    HW2 2505   0.951   4.417   4.408
  536SOL     OW 2506   0.193   5.873   1.354
  536SOL    HW1 2507   0.175   5.795   1.294
  536SOL    HW2 2508   0.137   5.951   1.325
  537SOL     OW 2509   2.240   6.456   3.436
  537SOL    HW1 2510   2.191   6.499   3.511
  537SOL    HW2 2511   2.334   6.492   3.433
  538SOL     OW 2512   1.136   5.894   3.093
  538SOL    HW1 2513   1.144   5.815   3.155
  538SOL    HW2 2514   1.151   5.864   2.999
  539SOL     OW 2515   0.920   5.187   1.233
  539SOL    HW1 2516   1.013   5.225   1.236
  539SOL    HW2 2517   0.858   5.246   1.282
  540SOL     OW 2518   0.494   2.245   2.231
  540SOL    HW1 2519   0.433   2.229   2.308
  540SOL    HW2 2520   0.540   2.333   2.243
  541SOL     OW 2521   3.098   6.538   4.877
  541SOL    HW1 2522   3.064   6.607   4.940
  541SOL    HW2 2523   3.023   6.476   4.853
  542SOL     OW 2524   6.665   6.682   0.239
  542SOL    HW1 2525   6.660   6.767   0.291
  542SOL    HW2 2526   6.728   6.619   0.285
  543SOL     OW 2527   0.858   5.026   6.412
  543SOL    HW1 2528   0.782   4.967   6.385
  543SOL    HW2 2529   0.828   5.088   6.484
  544SOL     OW 2530   1.130   4.463   1.204
  544SOL    HW1 2531   1.127   4.555   1.164
  544SOL    HW2 2532   1.128   4.395   1.132
  545SOL     OW 2533   3.710   1.746   3.638
  545SOL    HW1 2534   3.699   1.769   3.735
  545SOL    HW2 2535   3.635   1.688   3.609
  546SOL     OW 2536   1.717   3.554   1.631
  546SOL    HW1 2537   1.678   3.576   1.720
  546SOL    HW2 2538   1.647   3.514   1.572
  547SOL     OW 2539   2.307   1.987   0.023
  547SOL    HW1 2540   2.406   1.974   0.026
  547SOL    HW2 2541   2.270   1.936   6.968
  548SOL     OW 2542   4.165   3.432   3.201
  548SOL    HW1 2543   4.162   3.531   3.184
  548SOL    HW2 2544   4.104   3.386   3.137
  549SOL     OW 2545   4.710   3.567   1.423
  549SOL    HW1 2546   4.687   3.470   1.414
  549SOL    HW2 2547   4.629   3.622   1.406
  550SOL     OW 2548   6.644   3.132   2.760
  550SOL    HW1 2549   6.651   3.188   2.678
  550SOL    HW2 2550   6.655   3.036   2.736
  551SOL     OW 2551   6.736   1.651   0.568
  551SOL    HW1 2552   6.704   1.741   0.537
  551SOL    HW2 2553   6.663   1.584   0.553
  552SOL     OW 2554   4.097   5.257   0.992
  552SOL    HW1 2555   4.145   5.220   0.912
  552SOL    HW2 2556   4.105   5.192   1.068
  553SOL     OW 2557   1.781   0.163   2.561
  553SOL    HW1 2558   1.705   0.221   2.531
  553SOL    HW2 2559   1.841   0.144   2.483
  554SOL     OW 2560   5.274   6.017   6.274
  554SOL    HW1 2561   5.370   6.044   6.260
  554SOL    HW2 2562   5.249   6.033   6.370
  555SOL     OW 2563   2.114   5.203   4.131
  555SOL    HW1 2564   2.135   5.108   4.107
  555SOL    HW2 2565   2.177   5.234   4.203
  556SOL     OW 2566   6.039   2.071   4.160
  556SOL    HW1 2567   6.138   2.082   4.151
  556SOL    HW2 2568   6.017   2.033   4.250
  557SOL     OW 2569   6.448   5.966   6.444
  557SOL    HW1 2570   6.459   6.049   6.498
  557SOL    HW2 2571   6.385   5.903   6.490
  558SOL     OW 2572   4.185   3.487   5.059
  558SOL    HW1 2573   4.149   3.399   5.030
  558SOL    HW2 2574   4.149   3.560   5.000
  559SOL     OW 2575   6.762   6.047   6.834
  559SOL    HW1 2576   6.772   5.991   6.752
  559SOL    HW2 2577   6.831   6.021   6.901
  560SOL     OW 2578   4.422   6.223   0.388
  560SOL    HW1 2579   4.344   6.253   0.334
  560SOL    HW2 2580   4.489   6.298   0.394
  561SOL     OW 2581   5.942   6.767   0.563
  561SOL    HW1 2582   5.999   6.794   0.485
  561SOL    HW2 2583   5.989   6.695   0.615
  562SOL     OW 2584   5.007   0.971   6.010
  562SOL    HW1 2585   5.100   0.948   6.038
  562SOL    HW2 2586   4.963   0.891   5.969
  563SOL     OW 2587   2.757   6.429   3.561
  563SOL    HW1 2588   2.797   6.493   3.626
  563SOL    HW2 2589   2.823   6.409   3.488
  564SOL     OW 2590   2.227   2.242   6.102
  564SOL    HW1 2591   2.277   2.303   6.163
  564SOL    HW2 2592   2.135   2.278   6.088
  565SOL     OW 2593   4.280   3.542   5.674
  565SOL    HW1 2594   4.190   3.564   5.637
  565SOL    HW2 2595   4.351   3.571   5.609
  566SOL     OW 2596   4.429   4.589   3.289
  566SOL    HW1 2597   4.462   4.681   3.312
  566SOL    HW2 2598   4.356   4.596   3.221
  567SOL     OW 2599   3.612   3.363   4.248
  567SOL    HW1 2600   3.575   3.399   4.334
  567SOL    HW2 2601   3.602   3.431   4.176
  568SOL     OW 2602   3.138   2.452   0.263
  568SOL    HW1 2603   3.120   2.540   0.219
  568SOL    HW2 2604   3.055   2.422   0.310
  569SOL     OW 2605   1.571   3.142   0.543
  569SOL    HW1 2606   1.650   3.086   0.567
  569SOL    HW2 2607   1.533   3.110   0.456
  570SOL     OW 2608   1.131   6.508   0.649
  570SOL    HW1 2609   1.187   6.585   0.681
  570SOL    HW2 2610   1.059   6.489   0.715
  571SOL     OW 2611   3.835   5.362   2.850
  571SOL    HW1 2612   3.817   5.459   2.836
  571SOL    HW2 2613   3.912   5.351   2.912
  572SOL     OW 2614   2.543   4.412   5.633
  572SOL    HW1 2615   2.580   4.497   5.595
  572SOL    HW2 2616   2.592   4.334   5.595
  573SOL     OW 2617   4.466   1.157   5.854
  573SOL    HW1 2618   4.556   1.169   5.812
  573SOL    HW2 2619   4.400   1.218   5.809
  574SOL     OW 2620   2.203   1.721   4.469
  574SOL    HW1 2621   2.217   1.766   4.557
  574SOL    HW2 2622   2.263   1.642   4.462
  575SOL     OW 2623   6.317   3.560   0.478
  575SOL    HW1 2624   6.239   3.553   0.539
  575SOL    HW2 2625   6.292   3.615   0.398
  576SOL     OW 2626   1.436   2.564   1.875
  576SOL    HW1 2627   1.403   2.575   1.969
  576SOL    HW2 2628   1.413   2.472   1.843
  577SOL     OW 2629   2.340   1.772   4.003
  577SOL    HW1 2630   2.292   1.852   3.967
  577SOL    HW2 2631   2.274   1.708   4.042
  578SOL     OW 2632   0.536   3.283   3.004
  578SOL    HW1 2633   0.460   3.320   2.952
  578SOL    HW2 2634   0.573   3.354   3.064
  579SOL     OW 2635   3.913   2.068   0.997
  579SOL    HW1 2636   3.841   2.089   0.931
  579SOL    HW2 2637   3.872   2.026   1.078
  580SOL     OW 2638   1.203   4.944   6.585
  580SOL    HW1 2639   1.297   4.914   6.573
  580SOL    HW2 2640   1.182   5.016   6.520
  581SOL     OW 2641   3.845   3.048   3.105
  581SOL    HW1 2642   3.801   2.961   3.127
  581SOL    HW2 2643   3.910   3.072   3.177
  582SOL     OW 2644   5.645   3.999   2.450
  582SOL    HW1 2645   5.623   3.907   2.481
  582SOL    HW2 2646   5.561   4.052   2.438
  583SOL     OW 2647   2.564   4.932   0.369
  583SOL    HW1 2648   2.469   4.960   0.378
  583SOL    HW2 2649   2.621   4.987   0.430
  584SOL     OW 2650   0.450   4.965   5.079
  584SOL    HW1 2651   0.437   4.910   5.162
  584SOL    HW2 2652   0.500   4.911   5.011
  585SOL     OW 2653   0.359   2.609   5.749
  585SOL    HW1 2654   0.384   2.600   5.846
  585SOL    HW2 2655   0.441   2.602   5.693
  586SOL     OW 2656   2.416   6.837   0.877
  586SOL    HW1 2657   2.447   6.821   0.971
  586SOL    HW2 2658   2.334   6.784   0.860
  587SOL     OW 2659   1.564   2.911   5.717
  587SOL    HW1 2660   1.517   2.998   5.700
  587SOL    HW2 2661   1.593   2.908   5.813
  588SOL     OW 2662   3.906   0.114   1.617
  588SOL    HW1 2663   3.938   0.024   1.647
  588SOL    HW2 2664   3.921   0.181   1.690
  589SOL     OW 2665   3.320   5.272   1.980
  589SOL    HW1 2666   3.306   5.214   2.060
  589SOL    HW2 2667   3.325   5.215   1.898
  590SOL     OW 2668   6.892   2.459   2.215
  590SOL    HW1 2669   6.822   2.499   2.274
  590SOL    HW2 2670   6.982   2.474   2.256
  591SOL     OW 2671   3.786   0.308   3.623
  591SOL    HW1 2672   3.770   0.362   3.541
  591SOL    HW2 2673   3.880   0.320   3.654
  592SOL     OW 2674   4.865   0.636   0.429
  592SOL    HW1 2675   4.927   0.634   0.351
  592SOL    HW2 2676   4.900   0.701   0.497
  593SOL     OW 2677   4.478   2.509   4.252
  593SOL    HW1 2678   4.569   2.547   4.232
  593SOL    HW2 2679   4.430   2.491   4.166
  594SOL     OW 2680   4.064   3.759   0.539
  594SOL    HW1 2681   3.992   3.690   0.529
  594SOL    HW2 2682   4.092   3.765   0.635
  595SOL     OW 2683   3.860   6.089   3.955
  595SOL    HW1 2684   3.862   6.097   4.055
  595SOL    HW2 2685   3.769   6.060   3.926
  596SOL     OW 2686   0.818   4.447   2.634
  596SOL    HW1 2687   0.750   4.374   2.636
  596SOL    HW2 2688   0.845   4.471   2.727
  597SOL     OW 2689   4.222   0.274   6.629
  597SOL    HW1 2690   4.139   0.230   6.665
  597SOL    HW2 2691   4.240   0.240   6.537
  598SOL     OW 2692   3.893   4.935   0.637
  598SOL    HW1 2693   3.917   4.982   0.552
  598SOL    HW2 2694   3.973   4.885   0.671
  599SOL     OW 2695   6.619   0.494   3.099
  599SOL    HW1 2696   6.576   0.465   3.014
  599SOL    HW2 2697   6.676   0.574   3.083
  600SOL     OW 2698   1.230   0.209   0.662
  600SOL    HW1 2699   1.236   0.286   0.725
  600SOL    HW2 2700   1.158   0.146   0.693
  601SOL     OW 2701   2.431   5.431   3.218
  601SOL    HW1 2702   2.339   5.425   3.256
  601SOL    HW2 2703   2.444   5.360   3.149
  602SOL     OW 2704   1.520   0.282   1.049
  602SOL    HW1 2705   1.489   0.278   0.954
  602SOL    HW2 2706   1.465   0.218   1.104
  603SOL     OW 2707   4.403   1.724   3.670
  603SOL    HW1 2708   4.400   1.801   3.733
  603SOL    HW2 2709   4.397   1.638   3.722
  604SOL     OW 2710   1.188   3.151   6.098
  604SOL    HW1 2711   1.138   3.237   6.106
  604SOL    HW2 2712   1.137   3.078   6.145
  605SOL     OW 2713   6.703   6.001   3.115
  605SOL    HW1 2714   6.693   5.902   3.106
  605SOL    HW2 2715   6.800   6.025   3.118
  606SOL     OW 2716   4.170   0.275   4.447
  606SOL    HW1 2717   4.147   0.311   4.537
  606SOL    HW2 2718   4.155   0.346   4.378
  607SOL     OW 2719   5.130   1.285   4.235
  607SOL    HW1 2720   5.071   1.231   4.295
  607SOL    HW2 2721   5.224   1.250   4.240
  608SOL     OW 2722   3.499   0.767   0.487
  608SOL    HW1 2723   3.504   0.844   0.550
  608SOL    HW2 2724   3.590   0.728   0.473
  609SOL     OW 2725   3.472   2.894   3.580
  609SOL    HW1 2726   3.382   2.912   3.620
  609SOL    HW2 2727   3.534   2.858   3.650
  610SOL     OW 2728   5.238   1.981   4.143
  610SOL    HW1 2729   5.243   2.036   4.060
  610SOL    HW2 2730   5.271   1.888   4.124
  611SOL     OW 2731   0.387   0.532   0.139
  611SOL    HW1 2732   0.316   0.570   0.200
  611SOL    HW2 2733   0.439   0.607   0.099
  612SOL     OW 2734   3.488   5.541   6.310
  612SOL    HW1 2735   3.399   5.578   6.283
  612SOL    HW2 2736   3.560   5.588   6.259
  613SOL     OW 2737   4.456   1.514   6.025
  613SOL    HW1 2738   4.477   1.424   6.064
  613SOL    HW2 2739   4.449   1.580   6.100
  614SOL     OW 2740   6.433   4.497   0.408
  614SOL    HW1 2741   6.514   4.450   0.443
  614SOL    HW2 2742   6.460   4.564   0.339
  615SOL     OW 2743   0.722   0.397   0.477
  615SOL    HW1 2744   0.813   0.355   0.487
  615SOL    HW2 2745   0.725   0.490   0.512
  616SOL     OW 2746   5.662   1.895   4.635
  616SOL    HW1 2747   5.659   1.941   4.723
  616SOL    HW2 2748   5.757   1.881   4.607
  617SOL     OW 2749   6.963   4.963   5.266
  617SOL    HW1 2750   6.972   5.015   5.181
  617SOL    HW2 2751   0.017   4.984   5.327
  618SOL     OW 2752   5.728   3.846   0.606
  618SOL    HW1 2753   5.826   3.865   0.614
  618SOL    HW2 2754   5.714   3.753   0.573
  619SOL     OW 2755   3.304   0.492   0.653
  619SOL    HW1 2756   3.329   0.542   0.570
  619SOL    HW2 2757   3.311   0.394   0.636
  620SOL     OW 2758   5.458   3.273   1.945
  620SOL    HW1 2759   5.469   3.237   1.852
  620SOL    HW2 2760   5.407   3.359   1.941
  621SOL     OW 2761   2.583   0.674   6.954
  621SOL    HW1 2762   2.605   0.771   6.965
  621SOL    HW2 2763   2.579   0.652   6.857
  622SOL     OW 2764   1.031   2.474   5.456
  622SOL    HW1 2765   1.021   2.395   5.517
  622SOL    HW2 2766   1.098   2.451   5.384
  623SOL     OW 2767   6.189   6.600   4.171
  623SOL    HW1 2768   6.093   6.627   4.170
  623SOL    HW2 2769   6.230   6.621   4.082
  624SOL     OW 2770   6.488   1.373   6.736
  624SOL    HW1 2771   6.498   1.274   6.747
  624SOL    HW2 2772   6.571   1.419   6.770
  625SOL     OW 2773   2.642   1.074   0.440
  625SOL    HW1 2774   2.717   1.075   0.507
  625SOL    HW2 2775   2.656   0.998   0.376
  626SOL     OW 2776   0.765   5.298   3.711
  626SOL    HW1 2777   0.682   5.264   3.755
  626SOL    HW2 2778   0.765   5.271   3.614
  627SOL     OW 2779   6.127   0.333   6.912
  627SOL    HW1 2780   6.172   0.387   6.841
  627SOL    HW2 2781   6.194   0.270   6.953
  628SOL     OW 2782   5.142   4.313   5.548
  628SOL    HW1 2783   5.231   4.353   5.527
  628SOL    HW2 2784   5.127   4.316   5.647
  629SOL     OW 2785   6.866   0.689   6.800
  629SOL    HW1 2786   6.935   0.740   6.748
  629SOL    HW2 2787   6.896   0.595   6.812
  630SOL     OW 2788   6.855   1.730   1.155
  630SOL    HW1 2789   6.786   1.705   1.223
  630SOL    HW2 2790   6.947   1.714   1.193
  631SOL     OW 2791   2.180   2.819   4.952
  631SOL    HW1 2792   2.089   2.835   4.990
  631SOL    HW2 2793   2.245   2.884   4.991
  632SOL     OW 2794   3.934   3.231   0.399
  632SOL    HW1 2795   3.964   3.295   0.328
  632SOL    HW2 2796   4.014   3.200   0.451
  633SOL     OW 2797   1.484   5.435   1.477
  633SOL    HW1 2798   1.533   5.399   1.398
  633SOL    HW2 2799   1.453   5.528   1.459
  634SOL     OW 2800   3.129   3.344   4.032
  634SOL    HW1 2801   3.037   3.384   4.023
  634SOL    HW2 2802   3.194   3.401   3.982
  635SOL     OW 2803   5.663   1.138   6.662
  635SOL    HW1 2804   5.666   1.179   6.571
  635SOL    HW2 2805   5.743   1.079   6.674
  636SOL     OW 2806   3.400   0.170   6.276
  636SOL    HW1 2807   3.357   0.218   6.352
  636SOL    HW2 2808   3.330   0.137   6.213
  637SOL     OW 2809   6.610   1.215   1.769
  637SOL    HW1 2810   6.657   1.128   1.783
  637SOL    HW2 2811   6.641   1.280   1.838
  638SOL     OW 2812   6.079   3.540   4.255
  638SOL    HW1 2813   5.988   3.500   4.267
  638SOL    HW2 2814   6.135   3.519   4.336
  639SOL     OW 2815   4.987   5.232   3.422
  639SOL    HW1 2816   4.889   5.237   3.441
  639SOL    HW2 2817   5.001   5.204   3.327
  640SOL     OW 2818   0.361   2.898   2.451
  640SOL    HW1 2819   0.272   2.920   2.410
  640SOL    HW2 2820   0.382   2.964   2.523
  641SOL     OW 2821   2.130   4.737   5.226
  641SOL    HW1 2822   2.174   4.647   5.230
  641SOL    HW2 2823   2.191   4.806   5.264
  642SOL     OW 2824   0.849   3.399   4.988
  642SOL    HW1 2825   0.777   3.341   4.950
  642SOL    HW2 2826   0.885   3.458   4.916
  643SOL     OW 2827   4.590   5.708   6.663
  643SOL    HW1 2828   4.669   5.653   6.689
  643SOL    HW2 2829   4.596   5.731   6.566
  644SOL     OW 2830   6.816   7.009   4.797
  644SOL    HW1 2831   6.729   0.013   4.838
  644SOL    HW2 2832   6.860   0.067   4.756
  645SOL     OW 2833   3.712   4.939   2.525
  645SOL    HW1 2834   3.676   4.869   2.465
  645SOL    HW2 2835   3.731   5.022   2.473
  646SOL     OW 2836   4.085   0.764   5.006
  646SOL    HW1 2837   4.112   0.850   5.049
  646SOL    HW2 2838   4.153   0.693   5.026
  647SOL     OW 2839   5.225   2.004   4.960
  647SOL    HW1 2840   5.207   1.912   4.926
  647SOL    HW2 2841   5.164   2.069   4.915
  648SOL     OW 2842   6.064   1.903   3.000
  648SOL    HW1 2843   5.988   1.947   3.048
  648SOL    HW2 2844   6.150   1.942   3.032
  649SOL     OW 2845   2.612   4.855   0.710
  649SOL    HW1 2846   2.564   4.869   0.624
  649SOL    HW2 2847   2.546   4.830   0.782
  650SOL     OW 2848   6.778   5.557   0.682
  650SOL    HW1 2849   6.799   5.593   0.591
  650SOL    HW2 2850   6.685   5.522   0.684
  651SOL     OW 2851   1.435   0.289   5.685
  651SOL    HW1 2852   1.411   0.347   5.763
  651SOL    HW2 2853   1.366   0.299   5.613
  652SOL     OW 2854   4.144   0.426   1.914
  652SOL    HW1 2855   4.205   0.383   1.847
  652SOL    HW2 2856   4.191   0.501   1.960
  653SOL     OW 2857   0.196   6.653   1.366
  653SOL    HW1 2858   0.258   6.694   1.433
  653SOL    HW2 2859   0.101   6.671   1.391
  654SOL     OW 2860   6.955   0.252   5.722
  654SOL    HW1 2861   6.945   0.283   5.817
  654SOL    HW2 2862   0.010   0.188   5.717
  655SOL     OW 2863   0.134   4.838   1.630
  655SOL    HW1 2864   0.088   4.825   1.718
  655SOL    HW2 2865   0.224   4.795   1.633
  656SOL     OW 2866   3.211   6.417   0.893
  656SOL    HW1 2867   3.155   6.477   0.836
  656SOL    HW2 2868   3.161   6.331   0.910
  657SOL     OW 2869   3.680   2.975   1.867
  657SOL    HW1 2870   3.715   3.060   1.828
  657SOL    HW2 2871   3.688   2.901   1.800
  658SOL     OW 2872   1.854   4.815   4.246
  658SOL    HW1 2873   1.792   4.886   4.278
  658SOL    HW2 2874   1.886   4.761   4.323
  659SOL     OW 2875   2.989   6.375   5.779
  659SOL    HW1 2876   3.063   6.312   5.758
  659SOL    HW2 2877   3.014   6.467   5.747
  660SOL     OW 2878   4.517   4.465   2.291
  660SOL    HW1 2879   4.519   4.407   2.209
  660SOL    HW2 2880   4.440   4.529   2.284
  661SOL     OW 2881   4.725   4.630   4.300
  661SOL    HW1 2882   4.667   4.598   4.225
  661SOL    HW2 2883   4.815   4.588   4.291
  662SOL     OW 2884   4.638   3.403   0.308
  662SOL    HW1 2885   4.681   3.322   0.347
  662SOL    HW2 2886   4.600   3.459   0.382
  663SOL     OW 2887   0.111   4.498   0.007
  663SOL    HW1 2888   0.014   4.474   0.013
  663SOL    HW2 2889   0.126   4.588   0.049
  664SOL     OW 2890   1.753   6.252   6.369
  664SOL    HW1 2891   1.778   6.246   6.273
  664SOL    HW2 2892   1.804   6.184   6.421
  665SOL     OW 2893   3.968   5.706   1.092
  665SOL    HW1 2894   3.937   5.782   1.035
  665SOL    HW2 2895   3.941   5.619   1.051
  666SOL     OW 2896   3.848   1.479   0.195
  666SOL    HW1 2897   3.929   1.468   0.139
  666SOL    HW2 2898   3.829   1.577   0.209
  667SOL     OW 2899   0.670   3.838   2.873
  667SOL    HW1 2900   0.602   3.902   2.837
  667SOL    HW2 2901   0.652   3.821   2.970
  668SOL     OW 2902   5.223   6.727   0.237
  668SOL    HW1 2903   5.199   6.821   0.257
  668SOL    HW2 2904   5.316   6.708   0.270
  669SOL     OW 2905   0.933   6.598   3.859
  669SOL    HW1 2906   0.970   6.668   3.921
  669SOL    HW2 2907   0.844   6.628   3.825
  670SOL     OW 2908   3.200   3.519   3.141
  670SOL    HW1 2909   3.213   3.479   3.232
  670SOL    HW2 2910   3.103   3.518   3.118
  671SOL     OW 2911   2.240   6.772   6.291
  671SOL    HW1 2912   2.159   6.738   6.244
  671SOL    HW2 2913   2.215   6.850   6.348
  672SOL     OW 2914   1.731   3.399   4.045
  672SOL    HW1 2915   1.724   3.302   4.023
  672SOL    HW2 2916   1.823   3.432   4.024
  673SOL     OW 2917   5.029   0.621   0.215
  673SOL    HW1 2918   5.072   0.532   0.198
  673SOL    HW2 2919   5.056   0.685   0.143
  674SOL     OW 2920   0.810   2.061   3.261
  674SOL    HW1 2921   0.880   2.060   3.333
  674SOL    HW2 2922   0.719   2.058   3.304
  675SOL     OW 2923   0.597   2.098   4.456
  675SOL    HW1 2924   0.570   2.042   4.535
  675SOL    HW2 2925   0.683   2.063   4.420
  676SOL     OW 2926   2.543   4.549   4.573
  676SOL    HW1 2927   2.557   4.549   4.672
  676SOL    HW2 2928   2.462   4.493   4.551
  677SOL     OW 2929   6.323   0.515   0.920
  677SOL    HW1 2930   6.336   0.598   0.866
  677SOL    HW2 2931   6.227   0.488   0.918
  678SOL     OW 2932   2.374   0.602   6.250
  678SOL    HW1 2933   2.444   0.550   6.200
  678SOL    HW2 2934   2.381   0.699   6.228
  679SOL     OW 2935   4.158   0.395   2.743
  679SOL    HW1 2936   4.115   0.355   2.825
  679SOL    HW2 2937   4.167   0.493   2.756
  680SOL     OW 2938   4.878   3.858   5.908
  680SOL    HW1 2939   4.919   3.922   5.974
  680SOL    HW2 2940   4.924   3.867   5.820
  681SOL     OW 2941   0.420   6.397   1.357
  681SOL    HW1 2942   0.328   6.358   1.360
  681SOL    HW2 2943   0.444   6.432   1.447
  682SOL     OW 2944   1.658   5.926   0.333
  682SOL    HW1 2945   1.672   5.851   0.269
  682SOL    HW2 2946   1.671   5.893   0.426
  683SOL     OW 2947   4.002   1.165   6.301
  683SOL    HW1 2948   4.063   1.105   6.250
  683SOL    HW2 2949   4.050   1.198   6.383
  684SOL     OW 2950   0.556   6.298   5.666
  684SOL    HW1 2951   0.457   6.316   5.669
  684SOL    HW2 2952   0.604   6.382   5.640
  685SOL     OW 2953   5.112   7.013   6.247
  685SOL    HW1 2954   5.120   7.006   6.148
  685SOL    HW2 2955   5.100   6.921   6.286
  686SOL     OW 2956   5.279   3.563   3.091
  686SOL    HW1 2957   5.223   3.644   3.108
  686SOL    HW2 2958   5.270   3.499   3.168
  687SOL     OW 2959   6.658   3.095   5.785
  687SOL    HW1 2960   6.638   3.193   5.790
  687SOL    HW2 2961   6.754   3.081   5.762
  688SOL     OW 2962   1.130   4.108   6.411
  688SOL    HW1 2963   1.128   4.181   6.480
  688SOL    HW2 2964   1.173   4.143   6.328
  689SOL     OW 2965   6.881   3.854   6.159
  689SOL    HW1 2966   6.980   3.857   6.177
  689SOL    HW2 2967   6.857   3.925   6.093
  690SOL     OW 2968   1.889   2.089   3.807
  690SOL    HW1 2969   1.891   2.021   3.734
  690SOL    HW2 2970   1.801   2.088   3.853
  691SOL     OW 2971   0.791   2.277   6.628
  691SOL    HW1 2972   0.814   2.374   6.635
  691SOL    HW2 2973   0.858   2.223   6.679
  692SOL     OW 2974   2.502   0.412   2.571
  692SOL    HW1 2975   2.566   0.339   2.598
  692SOL    HW2 2976   2.478   0.466   2.651
  693SOL     OW 2977   6.683   2.585   2.406
  693SOL    HW1 2978   6.630   2.500   2.417
  693SOL    HW2 2979   6.621   2.663   2.415
  694SOL     OW 2980   2.512   5.893   1.157
  694SOL    HW1 2981   2.479   5.958   1.088
  694SOL    HW2 2982   2.434   5.846   1.198
  695SOL     OW 2983   5.085   5.309   5.300
  695SOL    HW1 2984   5.057   5.220   5.337
  695SOL    HW2 2985   5.015   5.342   5.237
  696SOL     OW 2986   4.265   5.088   2.838
  696SOL    HW1 2987   4.247   5.003   2.888
  696SOL    HW2 2988   4.178   5.129   2.810
  697SOL     OW 2989   0.964   3.789   4.685
  697SOL    HW1 2990   0.889   3.767   4.623
  697SOL    HW2 2991   0.992   3.884   4.672
  698SOL     OW 2992   4.246   0.648   3.733
  698SOL    HW1 2993   4.178   0.601   3.677
  698SOL    HW2 2994   4.289   0.583   3.796
  699SOL     OW 2995   1.083   4.068   1.119
  699SOL    HW1 2996   0.993   4.025   1.124
  699SOL    HW2 2997   1.078   4.152   1.065
  700SOL     OW 2998   2.554   2.414   4.409
  700SOL    HW1 2999   2.527   2.353   4.334
  700SOL    HW2 3000   2.589   2.500   4.371
  701SOL     OW 3001   0.366   4.348   6.683
  701SOL    HW1 3002   0.283   4.404   6.686
  701SOL    HW2 3003   0.353   4.267   6.741
  702SOL     OW 3004   5.357   6.848   4.616
  702SOL    HW1 3005   5.449   6.864   4.653
  702SOL    HW2 3006   5.340   6.749   4.614
  703SOL     OW 3007   4.449   3.527   6.117
  703SOL    HW1 3008   4.419   3.464   6.188
  703SOL    HW2 3009   4.512   3.480   6.055
  704SOL     OW 3010   1.523   0.386   6.699
  704SOL    HW1 3011   1.496   0.381   6.795
  704SOL    HW2 3012   1.467   0.455   6.652
  705SOL     OW 3013   5.281   1.368   3.586
  705SOL    HW1 3014   5.221   1.441   3.552
  705SOL    HW2 3015   5.292   1.299   3.515
  706SOL     OW 3016   3.697   2.134   3.988
  706SOL    HW1 3017   3.644   2.129   3.903
  706SOL    HW2 3018   3.787   2.093   3.973
  707SOL     OW 3019   5.410   0.737   1.590
  707SOL    HW1 3020   5.442   0.828   1.616
  707SOL    HW2 3021   5.358   0.744   1.505
  708SOL     OW 3022   4.272   0.630   1.026
  708SOL    HW1 3023   4.174   0.619   1.046
  708SOL    HW2 3024   4.284   0.698   0.954
  709SOL     OW 3025   1.176   4.671   0.672
  709SOL    HW1 3026   1.109   4.715   0.732
  709SOL    HW2 3027   1.267   4.705   0.692
  710SOL     OW 3028   2.948   3.716   2.625
  710SOL    HW1 3029   2.969   3.806   2.665
  710SOL    HW2 3030   2.952   3.722   2.526
  711SOL     OW 3031   6.405   1.580   4.604
  711SOL    HW1 3032   6.335   1.512   4.582
  711SOL    HW2 3033   6.361   1.664   4.635
  712SOL     OW 3034   1.034   3.816   1.806
  712SOL    HW1 3035   1.070   3.873   1.880
  712SOL    HW2 3036   1.042   3.719   1.831
  713SOL     OW 3037   3.746   2.951   2.445
  713SOL    HW1 3038   3.789   2.958   2.354
  713SOL    HW2 3039   3.657   2.995   2.443
  714SOL     OW 3040   5.827   4.698   5.286
  714SOL    HW1 3041   5.889   4.631   5.328
  714SOL    HW2 3042   5.779   4.655   5.209
  715SOL     OW 3043   3.983   6.078   6.357
  715SOL    HW1 3044   3.960   6.108   6.265
  715SOL    HW2 3045   3.996   5.979   6.358
  716SOL     OW 3046   0.464   5.187   1.692
  716SOL    HW1 3047   0.441   5.177   1.595
  716SOL    HW2 3048   0.559   5.215   1.700
  717SOL     OW 3049   6.005   4.065   6.860
  717SOL    HW1 3050   6.065   4.051   6.939
  717SOL    HW2 3051   5.913   4.032   6.883
  718SOL     OW 3052   3.382   3.066   6.168
  718SOL    HW1 3053   3.343   2.995   6.226
  718SOL    HW2 3054   3.311   3.100   6.106
  719SOL     OW 3055   6.987   3.622   1.334
  719SOL    HW1 3056   6.906   3.679   1.320
  719SOL    HW2 3057   0.043   3.680   1.357
  720SOL     OW 3058   2.425   2.284   5.922
  720SOL    HW1 3059   2.351   2.269   5.988
  720SOL    HW2 3060   2.438   2.382   5.907
  721SOL     OW 3061   1.808   0.027   5.911
  721SOL    HW1 3062   1.790   0.002   5.816
  721SOL    HW2 3063   1.896   7.011   5.939
  722SOL     OW 3064   3.937   0.088   4.320
  722SOL    HW1 3065   4.029   0.059   4.290
  722SOL    HW2 3066   3.938   0.104   4.418
  723SOL     OW 3067   1.952   2.534   2.127
  723SOL    HW1 3068   1.973   2.497   2.037
  723SOL    HW2 3069   1.938   2.633   2.120
  724SOL     OW 3070   0.721   1.319   4.813
  724SOL    HW1 3071   0.661   1.277   4.745
  724SOL    HW2 3072   0.790   1.252   4.841
  725SOL     OW 3073   2.540   5.029   2.417
  725SOL    HW1 3074   2.636   5.053   2.422
  725SOL    HW2 3075   2.512   5.020   2.322
  726SOL     OW 3076   3.114   5.699   0.030
  726SOL    HW1 3077   3.135   5.765   0.102
  726SOL    HW2 3078   3.159   5.726   6.968
  727SOL     OW 3079   3.110   5.264   4.147
  727SOL    HW1 3080   3.119   5.209   4.065
  727SOL    HW2 3081   3.105   5.204   4.227
  728SOL     OW 3082   0.109   3.755   5.108
  728SOL    HW1 3083   0.157   3.804   5.182
  728SOL    HW2 3084   0.069   3.822   5.045
  729SOL     OW 3085   2.453   0.574   0.580
  729SOL    HW1 3086   2.530   0.636   0.562
  729SOL    HW2 3087   2.376   0.598   0.522
  730SOL     OW 3088   6.154   0.535   3.912
  730SOL    HW1 3089   6.185   0.529   4.007
  730SOL    HW2 3090   6.225   0.499   3.852
  731SOL     OW 3091   5.198   2.995   4.520
  731SOL    HW1 3092   5.214   3.032   4.428
  731SOL    HW2 3093   5.277   3.015   4.577
  732SOL     OW 3094   0.687   2.526   1.088
  732SOL    HW1 3095   0.646   2.497   1.175
  732SOL    HW2 3096   0.697   2.446   1.028
  733SOL     OW 3097   4.777   4.070   3.804
  733SOL    HW1 3098   4.680   4.095   3.806
  733SOL    HW2 3099   4.808   4.068   3.709
  734SOL     OW 3100   6.614   4.281   1.374
  734SOL    HW1 3101   6.556   4.357   1.401
  734SOL    HW2 3102   6.710   4.308   1.380
  735SOL     OW 3103   1.470   3.602   0.019
  735SOL    HW1 3104   1.414   3.684   0.025
  735SOL    HW2 3105   1.498   3.573   0.111
  736SOL     OW 3106   6.804   0.444   3.538
  736SOL    HW1 3107   6.705   0.429   3.538
  736SOL    HW2 3108   6.850   0.361   3.571
  737SOL     OW 3109   5.052   3.500   1.165
  737SOL    HW1 3110   5.053   3.443   1.247
  737SOL    HW2 3111   5.099   3.453   1.090
  738SOL     OW 3112   6.980   4.192   4.059
  738SOL    HW1 3113   6.884   4.170   4.073
  738SOL    HW2 3114   0.009   4.171   4.142
  739SOL     OW 3115   4.431   6.456   5.745
  739SOL    HW1 3116   4.340   6.498   5.744
  739SOL    HW2 3117   4.439   6.396   5.824
  740SOL     OW 3118   5.621   0.094   1.193
  740SOL    HW1 3119   5.525   0.114   1.210
  740SOL    HW2 3120   5.640   7.022   1.220
  741SOL     OW 3121   1.557   6.777   3.170
  741SOL    HW1 3122   1.475   6.772   3.227
  741SOL    HW2 3123   1.625   6.712   3.205
  742SOL     OW 3124   1.298   6.532   3.551
  742SOL    HW1 3125   1.390   6.570   3.556
  742SOL    HW2 3126   1.232   6.600   3.580
  743SOL     OW 3127   1.544   4.261   4.263
  743SOL    HW1 3128   1.560   4.359   4.250
  743SOL    HW2 3129   1.628   4.218   4.296
  744SOL     OW 3130   6.834   6.324   0.053
  744SOL    HW1 3131   6.778   6.404   0.029
  744SOL    HW2 3132   6.778   6.258   0.103
  745SOL     OW 3133   0.940   5.543   2.857
  745SOL    HW1 3134   0.974   5.452   2.833
  745SOL    HW2 3135   0.904   5.542   2.950
  746SOL     OW 3136   0.910   0.058   5.017
  746SOL    HW1 3137   0.854   0.005   4.953
  746SOL    HW2 3138   0.916   0.009   5.104
  747SOL     OW 3139   4.612   4.815   3.401
  747SOL    HW1 3140   4.706   4.780   3.401
  747SOL    HW2 3141   4.602   4.882   3.475
  748SOL     OW 3142   4.524   4.072   0.602
  748SOL    HW1 3143   4.598   4.032   0.547
  748SOL    HW2 3144   4.476   4.141   0.547
  749SOL     OW 3145   0.306   2.232   4.918
  749SOL    HW1 3146   0.261   2.149   4.884
  749SOL    HW2 3147   0.298   2.305   4.850
  750SOL     OW 3148   2.372   3.195   0.567
  750SOL    HW1 3149   2.418   3.268   0.516
  750SOL    HW2 3150   2.410   3.190   0.659
  751SOL     OW 3151   4.510   1.185   0.475
  751SOL    HW1 3152   4.573   1.246   0.427
  751SOL    HW2 3153   4.434   1.161   0.415
  752SOL     OW 3154   4.083   2.468   1.743
  752SOL    HW1 3155   3.990   2.503   1.739
  752SOL    HW2 3156   4.083   2.381   1.793
  753SOL     OW 3157   1.762   3.261   5.040
  753SOL    HW1 3158   1.791   3.356   5.041
  753SOL    HW2 3159   1.800   3.214   5.120
  754SOL     OW 3160   4.668   4.093   6.523
  754SOL    HW1 3161   4.753   4.056   6.561
  754SOL    HW2 3162   4.672   4.193   6.525
  755SOL     OW 3163   0.664   5.850   6.954
  755SOL    HW1 3164   0.634   5.867   6.861
  755SOL    HW2 3165   0.713   5.763   6.959
  756SOL     OW 3166   5.247   0.389   1.942
  756SOL    HW1 3167   5.272   0.419   1.850
  756SOL    HW2 3168   5.302   0.438   2.009
  757SOL     OW 3169   0.341   6.508   4.030
  757SOL    HW1 3170   0.435   6.493   4.059
  757SOL    HW2 3171   0.340   6.540   3.935
  758SOL     OW 3172   3.649   2.265   1.294
  758SOL    HW1 3173   3.555   2.271   1.327
  758SOL    HW2 3174   3.712   2.278   1.371
  759SOL     OW 3175   1.283   1.607   0.086
  759SOL    HW1 3176   1.265   1.587   7.013
  759SOL    HW2 3177   1.350   1.681   0.092
  760SOL     OW 3178   5.037   1.646   7.019
  760SOL    HW1 3179   4.974   1.604   6.954
  760SOL    HW2 3180   5.059   1.739   6.989
  761SOL     OW 3181   6.053   2.927   0.374
  761SOL    HW1 3182   6.109   2.988   0.429
  761SOL    HW2 3183   6.108   2.851   0.340
  762SOL     OW 3184   2.619   5.959   3.590
  762SOL    HW1 3185   2.552   5.899   3.546
  762SOL    HW2 3186   2.588   6.054   3.582
  763SOL     OW 3187   4.168   5.821   0.208
  763SOL    HW1 3188   4.215   5.751   0.154
  763SOL    HW2 3189   4.155   5.789   0.301
  764SOL     OW 3190   3.182   1.441   2.808
  764SOL    HW1 3191   3.162   1.512   2.876
  764SOL    HW2 3192   3.280   1.429   2.800
  765SOL     OW 3193   0.787   6.693   2.197
  765SOL    HW1 3194   0.794   6.660   2.103
  765SOL    HW2 3195   0.711   6.757   2.204
  766SOL     OW 3196   0.024   0.129   6.779
  766SOL    HW1 3197   6.969   0.140   6.717
  766SOL    HW2 3198   0.098   0.081   6.732
  767SOL     OW 3199   0.451   6.695   2.287
  767SOL    HW1 3200   0.353   6.677   2.297
  767SOL    HW2 3201   0.502   6.613   2.312
  768SOL     OW 3202   2.668   0.214   2.624
  768SOL    HW1 3203   2.691   0.140   2.560
  768SOL    HW2 3204   2.752   0.261   2.652
  769SOL     OW 3205   4.315   0.165   4.820
  769SOL    HW1 3206   4.258   0.083   4.817
  769SOL    HW2 3207   4.266   0.238   4.866
  770SOL     OW 3208   3.163   5.195   3.591
  770SOL    HW1 3209   3.164   5.100   3.624
  770SOL    HW2 3210   3.068   5.226   3.582
  771SOL     OW 3211   1.926   5.335   3.128
  771SOL    HW1 3212   2.014   5.321   3.084
  771SOL    HW2 3213   1.923   5.426   3.170
  772SOL     OW 3214   0.060   4.046   0.234
  772SOL    HW1 3215   6.985   4.050   0.255
  772SOL    HW2 3216   0.074   4.064   0.137
  773SOL     OW 3217   6.894   3.116   3.243
  773SOL    HW1 3218   6.957   3.039   3.234
  773SOL    HW2 3219   6.847   3.130   3.157
  774SOL     OW 3220   1.730   1.651   1.906
  774SOL    HW1 3221   1.824   1.638   1.874
  774SOL    HW2 3222   1.674   1.574   1.878
  775SOL     OW 3223   1.209   2.034   3.768
  775SOL    HW1 3224   1.130   1.988   3.728
  775SOL    HW2 3225   1.229   2.118   3.717
  776SOL     OW 3226   1.754   6.742   6.175
  776SOL    HW1 3227   1.769   6.840   6.184
  776SOL    HW2 3228   1.751   6.717   6.078
  777SOL     OW 3229   4.294   1.010   1.158
  777SOL    HW1 3230   4.393   1.022   1.163
  777SOL    HW2 3231   4.263   0.955   1.235
  778SOL     OW 3232   4.207   0.921   3.694
  778SOL    HW1 3233   4.241   0.829   3.715
  778SOL    HW2 3234   4.226   0.981   3.771
  779SOL     OW 3235   1.047   2.167   1.956
  779SOL    HW1 3236   1.098   2.137   2.036
  779SOL    HW2 3237   0.970   2.223   1.984
  780SOL     OW 3238   6.337   2.572   4.187
  780SOL    HW1 3239   6.325   2.642   4.257
  780SOL    HW2 3240   6.294   2.486   4.217
  781SOL     OW 3241   6.564   1.489   6.321
  781SOL    HW1 3242   6.599   1.506   6.229
  781SOL    HW2 3243   6.466   1.508   6.324
  782SOL     OW 3244   0.645   3.098   0.903
  782SOL    HW1 3245   0.629   3.169   0.972
  782SOL    HW2 3246   0.722   3.125   0.845
  783SOL     OW 3247   2.639   5.380   0.534
  783SOL    HW1 3248   2.629   5.429   0.447
  783SOL    HW2 3249   2.719   5.415   0.582
  784SOL     OW 3250   4.325   0.295   5.361
  784SOL    HW1 3251   4.226   0.302   5.354
  784SOL    HW2 3252   4.367   0.328   5.277
  785SOL     OW 3253   6.097   1.859   2.531
  785SOL    HW1 3254   6.136   1.855   2.623
  785SOL    HW2 3255   6.123   1.777   2.480
  786SOL     OW 3256   6.954   0.282   0.410
  786SOL    HW1 3257   6.928   0.353   0.475
  786SOL    HW2 3258   6.872   0.243   0.368
  787SOL     OW 3259   2.464   1.429   6.280
  787SOL    HW1 3260   2.533   1.401   6.347
  787SOL    HW2 3261   2.374   1.429   6.324
  788SOL     OW 3262   2.125   3.423   4.510
  788SOL    HW1 3263   2.198   3.448   4.573
  788SOL    HW2 3264   2.087   3.505   4.468
  789SOL     OW 3265   5.760   3.971   1.681
  789SOL    HW1 3266   5.751   3.878   1.715
  789SOL    HW2 3267   5.672   4.018   1.688
  790SOL     OW 3268   2.112   1.410   4.314
  790SOL    HW1 3269   2.042   1.393   4.383
  790SOL    HW2 3270   2.107   1.339   4.244
  791SOL     OW 3271   3.958   0.308   3.990
  791SOL    HW1 3272   3.889   0.373   4.023
  791SOL    HW2 3273   4.050   0.343   4.010
  792SOL     OW 3274   6.286   0.512   2.234
  792SOL    HW1 3275   6.336   0.426   2.227
  792SOL    HW2 3276   6.287   0.544   2.328
  793SOL     OW 3277   5.243   6.744   0.929
  793SOL    HW1 3278   5.244   6.725   1.027
  793SOL    HW2 3279   5.178   6.681   0.884
  794SOL     OW 3280   2.741   5.028   5.279
  794SOL    HW1 3281   2.748   5.055   5.375
  794SOL    HW2 3282   2.687   4.944   5.272
  795SOL     OW 3283   3.872   5.009   6.185
  795SOL    HW1 3284   3.793   4.972   6.136
  795SOL    HW2 3285   3.922   5.072   6.125
  796SOL     OW 3286   0.209   2.205   5.386
  796SOL    HW1 3287   0.238   2.109   5.394
  796SOL    HW2 3288   0.268   2.263   5.442
  797SOL     OW 3289   5.435   1.943   3.271
  797SOL    HW1 3290   5.456   1.902   3.182
  797SOL    HW2 3291   5.388   2.030   3.257
  798SOL     OW 3292   4.939   0.208   0.383
  798SOL    HW1 3293   4.859   0.267   0.395
  798SOL    HW2 3294   4.995   0.211   0.466
  799SOL     OW 3295   6.598   2.012   3.148
  799SOL    HW1 3296   6.597   2.105   3.111
  799SOL    HW2 3297   6.512   1.994   3.195
  800SOL     OW 3298   5.408   0.932   2.269
  800SOL    HW1 3299   5.379   1.027   2.265
  800SOL    HW2 3300   5.482   0.923   2.337
  801SOL     OW 3301   1.451   2.492   3.499
  801SOL    HW1 3302   1.539   2.445   3.493
  801SOL    HW2 3303   1.377   2.425   3.496
  802SOL     OW 3304   5.357   1.818   0.170
  802SOL    HW1 3305   5.365   1.795   0.267
  802SOL    HW2 3306   5.437   1.873   0.143
  803SOL     OW 3307   6.066   5.539   4.160
  803SOL    HW1 3308   5.971   5.553   4.132
  803SOL    HW2 3309   6.124   5.533   4.078
  804SOL     OW 3310   0.105   6.685   0.450
  804SOL    HW1 3311   0.100   6.738   0.366
  804SOL    HW2 3312   0.167   6.729   0.514
  805SOL     OW 3313   4.095   2.673   5.739
  805SOL    HW1 3314   4.011   2.628   5.707
  805SOL    HW2 3315   4.076   2.721   5.825
  806SOL     OW 3316   4.762   1.702   6.365
  806SOL    HW1 3317   4.802   1.737   6.280
  806SOL    HW2 3318   4.777   1.603   6.370
  807SOL     OW 3319   0.819   0.688   3.596
  807SOL    HW1 3320   0.756   0.617   3.567
  807SOL    HW2 3321   0.878   0.713   3.519
  808SOL     OW 3322   5.454   2.419   5.900
  808SOL    HW1 3323   5.469   2.517   5.917
  808SOL    HW2 3324   5.466   2.369   5.985
  809SOL     OW 3325   1.270   4.716   1.552
  809SOL    HW1 3326   1.220   4.632   1.533
  809SOL    HW2 3327   1.285   4.724   1.651
  810SOL     OW 3328   4.746   3.621   0.982
  810SOL    HW1 3329   4.743   3.543   1.045
  810SOL    HW2 3330   4.837   3.662   0.985
  811SOL     OW 3331   5.215   5.593   3.455
  811SOL    HW1 3332   5.225   5.645   3.539
  811SOL    HW2 3333   5.128   5.544   3.456
  812SOL     OW 3334   0.229   0.580   1.358
  812SOL    HW1 3335   0.244   0.604   1.262
  812SOL    HW2 3336   0.280   0.498   1.381
  813SOL     OW 3337   4.174   5.965   3.386
  813SOL    HW1 3338   4.240   5.914   3.331
  813SOL    HW2 3339   4.132   6.037   3.330
  814SOL     OW 3340   5.329   6.536   2.549
  814SOL    HW1 3341   5.369   6.618   2.591
  814SOL    HW2 3342   5.395   6.461   2.552
  815SOL     OW 3343   6.327   2.758   1.328
  815SOL    HW1 3344   6.286   2.750   1.418
  815SOL    HW2 3345   6.255   2.760   1.258
  816SOL     OW 3346   6.949   6.582   0.842
  816SOL    HW1 3347   0.003   6.643   0.863
  816SOL    HW2 3348   6.980   6.487   0.848
  817SOL     OW 3349   1.585   3.818   1.916
  817SOL    HW1 3350   1.515   3.747   1.925
  817SOL    HW2 3351   1.676   3.777   1.919
  818SOL     OW 3352   6.043   2.168   0.843
  818SOL    HW1 3353   6.076   2.127   0.928
  818SOL    HW2 3354   6.110   2.235   0.811
  819SOL     OW 3355   6.809   2.263   4.056
  819SOL    HW1 3356   6.860   2.212   4.126
  819SOL    HW2 3357   6.830   2.361   4.065
  820SOL     OW 3358   1.016   2.810   4.674
  820SOL    HW1 3359   0.941   2.787   4.612
  820SOL    HW2 3360   1.103   2.801   4.626
  821SOL     OW 3361   1.577   4.189   0.494
  821SOL    HW1 3362   1.666   4.190   0.539
  821SOL    HW2 3363   1.522   4.266   0.528
  822SOL     OW 3364   0.475   3.823   4.846
  822SOL    HW1 3365   0.412   3.772   4.787
  822SOL    HW2 3366   0.554   3.766   4.868
  823SOL     OW 3367   5.227   3.884   6.028
  823SOL    HW1 3368   5.171   3.967   6.023
  823SOL    HW2 3369   5.291   3.892   6.105
  824SOL     OW 3370   4.758   1.991   5.198
  824SOL    HW1 3371   4.699   2.032   5.267
  824SOL    HW2 3372   4.710   1.987   5.111
  825SOL     OW 3373   2.040   3.318   2.107
  825SOL    HW1 3374   2.110   3.374   2.063
  825SOL    HW2 3375   2.036   3.229   2.062
  826SOL     OW 3376   5.789   3.426   0.346
  826SOL    HW1 3377   5.859   3.375   0.295
  826SOL    HW2 3378   5.717   3.363   0.374
  827SOL     OW 3379   3.180   5.216   6.804
  827SOL    HW1 3380   3.101   5.159   6.780
  827SOL    HW2 3381   3.240   5.166   6.867
  828SOL     OW 3382   6.333   0.744   5.185
  828SOL    HW1 3383   6.246   0.740   5.135
  828SOL    HW2 3384   6.319   0.790   5.273
  829SOL     OW 3385   3.152   3.130   3.863
  829SOL    HW1 3386   3.207   3.056   3.903
  829SOL    HW2 3387   3.133   3.199   3.932
  830SOL     OW 3388   4.821   4.409   5.814
  830SOL    HW1 3389   4.747   4.369   5.760
  830SOL    HW2 3390   4.796   4.501   5.844
  831SOL     OW 3391   6.303   0.251   4.858
  831SOL    HW1 3392   6.258   0.265   4.946
  831SOL    HW2 3393   6.343   0.337   4.826
  832SOL     OW 3394   2.353   1.611   0.253
  832SOL    HW1 3395   2.413   1.531   0.255
  832SOL    HW2 3396   2.405   1.691   0.225
  833SOL     OW 3397   6.498   6.746   6.077
  833SOL    HW1 3398   6.561   6.685   6.124
  833SOL    HW2 3399   6.550   6.811   6.021
  834SOL     OW 3400   3.445   3.243   3.755
  834SOL    HW1 3401   3.359   3.294   3.742
  834SOL    HW2 3402   3.424   3.151   3.787
  835SOL     OW 3403   3.648   6.470   3.775
  835SOL    HW1 3404   3.726   6.447   3.833
  835SOL    HW2 3405   3.674   6.460   3.678
  836SOL     OW 3406   3.420   0.042   0.110
  836SOL    HW1 3407   3.376   7.016   0.185
  836SOL    HW2 3408   3.488   7.005   0.067
  837SOL     OW 3409   5.466   7.014   6.835
  837SOL    HW1 3410   5.401   7.018   6.760
  837SOL    HW2 3411   5.420   6.979   6.917
  838SOL     OW 3412   1.614   6.250   4.399
  838SOL    HW1 3413   1.581   6.156   4.393
  838SOL    HW2 3414   1.537   6.312   4.410
  839SOL     OW 3415   2.809   1.216   4.118
  839SOL    HW1 3416   2.749   1.294   4.100
  839SOL    HW2 3417   2.835   1.216   4.214
  840SOL     OW 3418   1.210   0.911   6.542
  840SOL    HW1 3419   1.151   0.983   6.580
  840SOL    HW2 3420   1.153   0.840   6.500
  841SOL     OW 3421   6.548   3.638   0.085
  841SOL    HW1 3422   6.569   3.541   0.074
  841SOL    HW2 3423   6.632   3.691   0.073
  842SOL     OW 3424   3.546   5.441   3.287
  842SOL    HW1 3425   3.526   5.538   3.277
  842SOL    HW2 3426   3.621   5.428   3.352
  843SOL     OW 3427   6.169   2.264   1.503
  843SOL    HW1 3428   6.163   2.191   1.572
  843SOL    HW2 3429   6.095   2.252   1.436
  844SOL     OW 3430   5.130   6.296   0.493
  844SOL    HW1 3431   5.174   6.385   0.497
  844SOL    HW2 3432   5.111   6.272   0.398
  845SOL     OW 3433   6.526   3.672   4.680
  845SOL    HW1 3434   6.543   3.766   4.652
  845SOL    HW2 3435   6.536   3.664   4.779
  846SOL     OW 3436   5.916   1.249   6.998
  846SOL    HW1 3437   5.926   1.247   0.075
  846SOL    HW2 3438   5.833   1.299   6.974
  847SOL     OW 3439   6.433   3.593   1.015
  847SOL    HW1 3440   6.352   3.636   1.054
  847SOL    HW2 3441   6.481   3.659   0.957
  848SOL     OW 3442   6.671   0.406   5.761
  848SOL    HW1 3443   6.719   0.322   5.736
  848SOL    HW2 3444   6.592   0.419   5.702
  849SOL     OW 3445   0.334   5.601   5.052
  849SOL    HW1 3446   0.382   5.689   5.051
  849SOL    HW2 3447   0.315   5.573   4.957
  850SOL     OW 3448   4.793   1.122   3.662
  850SOL    HW1 3449   4.787   1.206   3.715
  850SOL    HW2 3450   4.719   1.060   3.689
  851SOL     OW 3451   0.481   1.192   0.256
  851SOL    HW1 3452   0.519   1.262   0.196
  851SOL    HW2 3453   0.382   1.204   0.264
  852SOL     OW 3454   2.134   3.340   6.757
  852SOL    HW1 3455   2.057   3.364   6.816
  852SOL    HW2 3456   2.161   3.420   6.704
  853SOL     OW 3457   1.219   2.831   2.121
  853SOL    HW1 3458   1.291   2.838   2.190
  853SOL    HW2 3459   1.213   2.736   2.089
  854SOL     OW 3460   5.420   5.581   2.789
  854SOL    HW1 3461   5.443   5.678   2.783
  854SOL    HW2 3462   5.501   5.529   2.817
  855SOL     OW 3463   5.914   6.808   1.889
  855SOL    HW1 3464   5.937   6.755   1.971
  855SOL    HW2 3465   5.967   6.892   1.889
  856SOL     OW 3466   1.930   6.244   5.066
  856SOL    HW1 3467   1.962   6.302   5.141
  856SOL    HW2 3468   1.909   6.300   4.986
  857SOL     OW 3469   6.416   3.900   0.986
  857SOL    HW1 3470   6.375   3.884   1.076
  857SOL    HW2 3471   6.515   3.910   0.996
  858SOL     OW 3472   3.078   4.791   1.921
  858SOL    HW1 3473   3.163   4.833   1.955
  858SOL    HW2 3474   3.099   4.701   1.882
  859SOL     OW 3475   6.958   4.842   6.699
  859SOL    HW1 3476   6.958   4.908   6.774
  859SOL    HW2 3477   6.916   4.757   6.729
  860SOL     OW 3478   3.538   4.389   0.543
  860SOL    HW1 3479   3.593   4.362   0.622
  860SOL    HW2 3480   3.450   4.423   0.574
  861SOL     OW 3481   2.884   6.037   5.287
  861SOL    HW1 3482   2.792   6.002   5.270
  861SOL    HW2 3483   2.878   6.131   5.322
  862SOL     OW 3484   5.121   4.671   4.832
  862SOL    HW1 3485   5.035   4.631   4.801
  862SOL    HW2 3486   5.187   4.599   4.850
  863SOL     OW 3487   0.339   1.005   0.837
  863SOL    HW1 3488   0.435   1.031   0.827
  863SOL    HW2 3489   0.285   1.053   0.769
  864SOL     OW 3490   5.459   4.688   2.688
  864SOL    HW1 3491   5.513   4.764   2.650
  864SOL    HW2 3492   5.440   4.706   2.784
  865SOL     OW 3493   1.579   6.865   4.031
  865SOL    HW1 3494   1.511   6.928   4.068
  865SOL    HW2 3495   1.586   6.878   3.932
  866SOL     OW 3496   3.361   2.067   1.796
  866SOL    HW1 3497   3.424   2.112   1.733
  866SOL    HW2 3498   3.270   2.110   1.789
  867SOL     OW 3499   2.824   3.136   6.353
  867SOL    HW1 3500   2.758   3.076   6.309
  867SOL    HW2 3501   2.883   3.178   6.284
  868SOL     OW 3502   5.925   0.395   2.967
  868SOL    HW1 3503   6.006   0.374   3.021
  868SOL    HW2 3504   5.915   0.494   2.958
  869SOL     OW 3505   6.119   5.920   1.944
  869SOL    HW1 3506   6.103   5.835   1.893
  869SOL    HW2 3507   6.146   5.898   2.037
  870SOL     OW 3508   6.848   2.616   1.561
  870SOL    HW1 3509   6.811   2.575   1.477
  870SOL    HW2 3510   6.947   2.627   1.552
  871SOL     OW 3511   5.792   2.800   1.788
  871SOL    HW1 3512   5.826   2.889   1.756
  871SOL    HW2 3513   5.708   2.814   1.841
  872SOL     OW 3514   6.590   2.482   4.588
  872SOL    HW1 3515   6.637   2.469   4.501
  872SOL    HW2 3516   6.612   2.573   4.624
  873SOL     OW 3517   3.332   0.040   3.567
  873SOL    HW1 3518   3.332   0.139   3.559
  873SOL    HW2 3519   3.258   0.011   3.628
  874SOL     OW 3520   1.655   4.370   5.150
  874SOL    HW1 3521   1.731   4.306   5.165
  874SOL    HW2 3522   1.637   4.378   5.053
  875SOL     OW 3523   5.316   3.796   0.034
  875SOL    HW1 3524   5.353   3.878   0.077
  875SOL    HW2 3525   5.249   3.753   0.094
  876SOL     OW 3526   6.704   3.233   2.521
  876SOL    HW1 3527   6.686   3.243   2.423
  876SOL    HW2 3528   6.792   3.188   2.534
  877SOL     OW 3529   5.055   5.120   0.007
  877SOL    HW1 3530   5.137   5.133   6.974
  877SOL    HW2 3531   4.986   5.071   6.976
  878SOL     OW 3532   2.656   5.033   0.970
  878SOL    HW1 3533   2.715   4.954   0.951
  878SOL    HW2 3534   2.651   5.091   0.889
  879SOL     OW 3535   4.173   2.285   2.643
  879SOL    HW1 3536   4.076   2.288   2.619
  879SOL    HW2 3537   4.225   2.340   2.577
  880SOL     OW 3538   3.669   5.191   0.936
  880SOL    HW1 3539   3.745   5.127   0.943
  880SOL    HW2 3540   3.603   5.173   1.009
  881SOL     OW 3541   4.005   4.866   4.658
  881SOL    HW1 3542   4.100   4.859   4.629
  881SOL    HW2 3543   3.974   4.777   4.693
  882SOL     OW 3544   1.111   0.619   4.644
  882SOL    HW1 3545   1.025   0.597   4.598
  882SOL    HW2 3546   1.091   0.654   4.736
  883SOL     OW 3547   3.044   5.367   6.601
  883SOL    HW1 3548   3.004   5.310   6.528
  883SOL    HW2 3549   3.084   5.308   6.671
  884SOL     OW 3550   5.969   3.226   1.351
  884SOL    HW1 3551   5.896   3.160   1.371
  884SOL    HW2 3552   5.942   3.317   1.382
  885SOL     OW 3553   5.781   5.974   0.232
  885SOL    HW1 3554   5.808   6.049   0.292
  885SOL    HW2 3555   5.682   5.961   0.237
  886SOL     OW 3556   4.236   1.393   6.799
  886SOL    HW1 3557   4.295   1.431   6.728
  886SOL    HW2 3558   4.248   1.294   6.803
  887SOL     OW 3559   4.143   6.965   6.007
  887SOL    HW1 3560   4.219   7.014   5.964
  887SOL    HW2 3561   4.174   6.922   6.091
  888SOL     OW 3562   6.502   6.193   3.131
  888SOL    HW1 3563   6.414   6.176   3.087
  888SOL    HW2 3564   6.562   6.115   3.118
  889SOL     OW 3565   0.428   6.435   5.382
  889SOL    HW1 3566   0.352   6.501   5.383
  889SOL    HW2 3567   0.509   6.478   5.342
  890SOL     OW 3568   2.749   4.768   2.121
  890SOL    HW1 3569   2.753   4.718   2.207
  890SOL    HW2 3570   2.761   4.705   2.045
  891SOL     OW 3571   5.251   2.718   0.489
  891SOL    HW1 3572   5.286   2.625   0.498
  891SOL    HW2 3573   5.196   2.740   0.570
  892SOL     OW 3574   3.004   3.811   1.083
  892SOL    HW1 3575   2.997   3.909   1.104
  892SOL    HW2 3576   3.022   3.761   1.168
  893SOL     OW 3577   1.478   0.960   0.300
  893SOL    HW1 3578   1.498   1.040   0.356
  893SOL    HW2 3579   1.443   0.887   0.358
  894SOL     OW 3580   1.304   5.677   4.377
  894SOL    HW1 3581   1.240   5.707   4.306
  894SOL    HW2 3582   1.266   5.696   4.467
  895SOL     OW 3583   2.086   0.165   4.384
  895SOL    HW1 3584   2.034   0.105   4.444
  895SOL    HW2 3585   2.024   0.206   4.316
  896SOL     OW 3586   6.052   6.725   3.241
  896SOL    HW1 3587   6.019   6.657   3.175
  896SOL    HW2 3588   5.999   6.809   3.231
  897SOL     OW 3589   4.739   2.873   6.772
  897SOL    HW1 3590   4.688   2.869   6.685
  897SOL    HW2 3591   4.712   2.796   6.829
  898SOL     OW 3592   5.566   6.450   3.226
  898SOL    HW1 3593   5.638   6.428   3.161
  898SOL    HW2 3594   5.481   6.406   3.198
  899SOL     OW 3595   0.368   4.729   6.217
  899SOL    HW1 3596   0.361   4.727   6.317
  899SOL    HW2 3597   0.448   4.784   6.191
  900SOL     OW 3598   0.167   6.168   3.899
  900SOL    HW1 3599   0.118   6.163   3.986
  900SOL    HW2 3600   0.239   6.099   3.897
  901SOL     OW 3601   6.004   1.349   4.285
  901SOL    HW1 3602   6.065   1.329   4.361
  901SOL    HW2 3603   5.913   1.372   4.321
  902SOL     OW 3604   0.213   6.648   0.055
  902SOL    HW1 3605   0.147   6.717   0.088
  902SOL    HW2 3606   0.251   6.678   6.990
  903SOL     OW 3607   0.806   5.069   0.581
  903SOL    HW1 3608   0.874   5.112   0.639
  903SOL    HW2 3609   0.796   5.121   0.496
  904SOL     OW 3610   2.056   1.636   3.626
  904SOL    HW1 3611   2.138   1.664   3.676
  904SOL    HW2 3612   2.039   1.539   3.642
  905SOL     OW 3613   5.364   1.415   5.594
  905SOL    HW1 3614   5.293   1.464   5.543
  905SOL    HW2 3615   5.322   1.356   5.662
  906SOL     OW 3616   0.157   3.828   5.709
  906SOL    HW1 3617   0.180   3.769   5.632
  906SOL    HW2 3618   0.060   3.854   5.702
  907SOL     OW 3619   5.818   2.217   2.170
  907SOL    HW1 3620   5.914   2.190   2.167
  907SOL    HW2 3621   5.779   2.214   2.078
  908SOL     OW 3622   1.969   0.567   3.732
  908SOL    HW1 3623   1.928   0.523   3.812
  908SOL    HW2 3624   2.061   0.531   3.717
  909SOL     OW 3625   4.034   1.407   1.417
  909SOL    HW1 3626   4.108   1.356   1.375
  909SOL    HW2 3627   4.029   1.498   1.376
  910SOL     OW 3628   2.235   1.194   0.807
  910SOL    HW1 3629   2.327   1.233   0.819
  910SOL    HW2 3630   2.213   1.193   0.709
  911SOL     OW 3631   0.360   4.645   1.640
  911SOL    HW1 3632   0.423   4.665   1.565
  911SOL    HW2 3633   0.410   4.645   1.726
  912SOL     OW 3634   0.448   0.272   5.891
  912SOL    HW1 3635   0.363   0.323   5.884
  912SOL    HW2 3636   0.493   0.294   5.978
  913SOL     OW 3637   3.016   0.894   2.672
  913SOL    HW1 3638   3.061   0.948   2.600
  913SOL    HW2 3639   2.938   0.846   2.633
  914SOL     OW 3640   2.729   5.694   3.162
  914SOL    HW1 3641   2.762   5.780   3.123
  914SOL    HW2 3642   2.785   5.618   3.128
  915SOL     OW 3643   0.779   2.692   0.602
  915SOL    HW1 3644   0.759   2.753   0.680
  915SOL    HW2 3645   0.766   2.742   0.517
  916SOL     OW 3646   2.345   2.653   2.848
  916SOL    HW1 3647   2.388   2.585   2.788
  916SOL    HW2 3648   2.326   2.736   2.795
  917SOL     OW 3649   4.316   1.667   1.199
  917SOL    HW1 3650   4.381   1.668   1.274
  917SOL    HW2 3651   4.324   1.582   1.148
  918SOL     OW 3652   2.397   6.636   6.455
  918SOL    HW1 3653   2.492   6.629   6.424
  918SOL    HW2 3654   2.347   6.699   6.396
  919SOL     OW 3655   1.325   5.943   1.871
  919SOL    HW1 3656   1.304   5.845   1.862
  919SOL    HW2 3657   1.366   5.977   1.787
  920SOL     OW 3658   2.639   0.998   4.160
  920SOL    HW1 3659   2.668   0.913   4.115
  920SOL    HW2 3660   2.681   1.076   4.114
  921SOL     OW 3661   5.771   5.069   4.318
  921SOL    HW1 3662   5.868   5.078   4.340
  921SOL    HW2 3663   5.725   5.015   4.388
  922SOL     OW 3664   3.097   3.495   6.936
  922SOL    HW1 3665   3.183   3.447   6.953
  922SOL    HW2 3666   3.023   3.429   6.924
  923SOL     OW 3667   2.959   0.020   6.498
  923SOL    HW1 3668   2.962   0.046   6.402
  923SOL    HW2 3669   2.984   0.099   6.555
  924SOL     OW 3670   5.717   3.567   2.834
  924SOL    HW1 3671   5.696   3.480   2.879
  924SOL    HW2 3672   5.636   3.625   2.835
  925SOL     OW 3673   0.628   1.484   4.246
  925SOL    HW1 3674   0.718   1.504   4.207
  925SOL    HW2 3675   0.625   1.516   4.341
  926SOL     OW 3676   5.523   5.861   0.261
  926SOL    HW1 3677   5.438   5.913   0.268
  926SOL    HW2 3678   5.511   5.771   0.301
  927SOL     OW 3679   4.275   4.673   4.258
  927SOL    HW1 3680   4.176   4.684   4.259
  927SOL    HW2 3681   4.301   4.614   4.182
  928SOL     OW 3682   2.278   1.166   1.219
  928SOL    HW1 3683   2.339   1.105   1.169
  928SOL    HW2 3684   2.234   1.116   1.294
  929SOL     OW 3685   6.657   2.804   3.017
  929SOL    HW1 3686   6.623   2.763   2.932
  929SOL    HW2 3687   6.756   2.815   3.012
  930SOL     OW 3688   4.952   5.103   4.231
  930SOL    HW1 3689   4.917   5.029   4.174
  930SOL    HW2 3690   5.012   5.162   4.176
  931SOL     OW 3691   1.503   2.252   2.690
  931SOL    HW1 3692   1.515   2.156   2.664
  931SOL    HW2 3693   1.591   2.289   2.721
  932SOL     OW 3694   4.653   6.456   0.944
  932SOL    HW1 3695   4.751   6.467   0.953
  932SOL    HW2 3696   4.607   6.501   1.021
  933SOL     OW 3697   1.726   5.589   2.855
  933SOL    HW1 3698   1.720   5.489   2.851
  933SOL    HW2 3699   1.791   5.620   2.785
  934SOL     OW 3700   3.145   1.341   5.580
  934SOL    HW1 3701   3.108   1.420   5.629
  934SOL    HW2 3702   3.072   1.298   5.528
  935SOL     OW 3703   3.761   3.341   6.104
  935SOL    HW1 3704   3.669   3.327   6.140
  935SOL    HW2 3705   3.806   3.415   6.154
  936SOL     OW 3706   0.463   0.659   0.942
  936SOL    HW1 3707   0.435   0.678   0.848
  936SOL    HW2 3708   0.518   0.736   0.976
  937SOL     OW 3709   4.126   1.729   4.533
  937SOL    HW1 3710   4.081   1.706   4.447
  937SOL    HW2 3711   4.106   1.659   4.602
  938SOL     OW 3712   0.620   2.799   6.673
  938SOL    HW1 3713   0.719   2.814   6.673
  938SOL    HW2 3714   0.602   2.701   6.671
  939SOL     OW 3715   5.741   1.175   5.761
  939SOL    HW1 3716   5.710   1.216   5.675
  939SOL    HW2 3717   5.830   1.132   5.746
  940SOL     OW 3718   6.978   1.524   3.751
  940SOL    HW1 3719   7.019   1.615   3.745
  940SOL    HW2 3720   6.887   1.530   3.792
  941SOL     OW 3721   5.353   2.033   4.378
  941SOL    HW1 3722   5.426   1.979   4.418
  941SOL    HW2 3723   5.339   2.005   4.283
  942SOL     OW 3724   5.237   6.625   5.377
  942SOL    HW1 3725   5.172   6.678   5.321
  942SOL    HW2 3726   5.223   6.648   5.473
  943SOL     OW 3727   5.872   1.895   1.469
  943SOL    HW1 3728   5.911   1.830   1.534
  943SOL    HW2 3729   5.837   1.846   1.390
  944SOL     OW 3730   5.460   4.185   4.400
  944SOL    HW1 3731   5.521   4.107   4.383
  944SOL    HW2 3732   5.380   4.178   4.340
  945SOL     OW 3733   5.224   4.419   4.514
  945SOL    HW1 3734   5.235   4.517   4.497
  945SOL    HW2 3735   5.167   4.406   4.596
  946SOL     OW 3736   5.962   2.515   5.665
  946SOL    HW1 3737   6.022   2.540   5.589
  946SOL    HW2 3738   5.935   2.419   5.656
  947SOL     OW 3739   2.660   2.733   6.012
  947SOL    HW1 3740   2.729   2.797   5.981
  947SOL    HW2 3741   2.658   2.732   6.112
  948SOL     OW 3742   4.106   1.908   0.258
  948SOL    HW1 3743   4.127   1.995   0.303
  948SOL    HW2 3744   4.095   1.837   0.327
  949SOL     OW 3745   6.208   5.642   6.197
  949SOL    HW1 3746   6.223   5.543   6.203
  949SOL    HW2 3747   6.283   5.685   6.147
  950SOL     OW 3748   4.887   5.738   1.082
  950SOL    HW1 3749   4.848   5.658   1.037
  950SOL    HW2 3750   4.987   5.728   1.086
  951SOL     OW 3751   1.343   1.269   2.154
  951SOL    HW1 3752   1.246   1.288   2.171
  951SOL    HW2 3753   1.397   1.350   2.179
  952SOL     OW 3754   5.769   0.793   3.147
  952SOL    HW1 3755   5.764   0.710   3.202
  952SOL    HW2 3756   5.736   0.871   3.201
  953SOL     OW 3757   4.127   6.280   6.434
  953SOL    HW1 3758   4.114   6.292   6.532
  953SOL    HW2 3759   4.067   6.207   6.401
  954SOL     OW 3760   6.219   0.573   1.292
  954SOL    HW1 3761   6.184   0.606   1.205
  954SOL    HW2 3762   6.258   0.649   1.344
  955SOL     OW 3763   0.747   6.061   2.830
  955SOL    HW1 3764   0.681   6.136   2.825
  955SOL    HW2 3765   0.762   6.036   2.926
  956SOL     OW 3766   2.040   2.230   1.000
  956SOL    HW1 3767   2.127   2.211   0.955
  956SOL    HW2 3768   1.965   2.201   0.941
  957SOL     OW 3769   1.507   5.110   4.549
  957SOL    HW1 3770   1.467   5.038   4.606
  957SOL    HW2 3771   1.605   5.114   4.565
  958SOL     OW 3772   4.831   2.301   1.506
  958SOL    HW1 3773   4.871   2.386   1.540
  958SOL    HW2 3774   4.881   2.273   1.423
  959SOL     OW 3775   2.255   4.674   3.049
  959SOL    HW1 3776   2.201   4.636   2.973
  959SOL    HW2 3777   2.193   4.714   3.117
  960SOL     OW 3778   1.707   5.777   4.665
  960SOL    HW1 3779   1.750   5.862   4.696
  960SOL    HW2 3780   1.609   5.791   4.653
  961SOL     OW 3781   4.388   6.556   1.928
  961SOL    HW1 3782   4.368   6.570   2.025
  961SOL    HW2 3783   4.390   6.645   1.881
  962SOL     OW 3784   1.588   0.844   3.530
  962SOL    HW1 3785   1.539   0.771   3.578
  962SOL    HW2 3786   1.617   0.813   3.440
  963SOL     OW 3787   6.551   0.614   1.408
  963SOL    HW1 3788   6.592   0.619   1.499
  963SOL    HW2 3789   6.543   0.518   1.380
  964SOL     OW 3790   5.236   3.728   1.194
  964SOL    HW1 3791   5.176   3.650   1.177
  964SOL    HW2 3792   5.195   3.810   1.154
  965SOL     OW 3793   0.149   2.242   0.261
  965SOL    HW1 3794   0.202   2.300   0.199
  965SOL    HW2 3795   0.189   2.150   0.263
  966SOL     OW 3796   6.691   2.087   2.454
  966SOL    HW1 3797   6.688   2.120   2.360
  966SOL    HW2 3798   6.773   2.031   2.468
  967SOL     OW 3799   1.040   5.427   1.016
  967SOL    HW1 3800   0.978   5.413   1.094
  967SOL    HW2 3801   1.087   5.342   0.995
  968SOL     OW 3802   4.945   2.605   2.477
  968SOL    HW1 3803   5.017   2.579   2.541
  968SOL    HW2 3804   4.982   2.669   2.409
  969SOL     OW 3805   4.576   6.025   5.918
  969SOL    HW1 3806   4.658   6.032   5.862
  969SOL    HW2 3807   4.588   5.954   5.988
  970SOL     OW 3808   4.396   2.334   5.177
  970SOL    HW1 3809   4.302   2.364   5.164
  970SOL    HW2 3810   4.455   2.377   5.109
  971SOL     OW 3811   6.933   1.833   1.765
  971SOL    HW1 3812   6.948   1.874   1.855
  971SOL    HW2 3813   6.892   1.901   1.704
  972SOL     OW 3814   6.472   5.540   0.564
  972SOL    HW1 3815   6.388   5.488   0.580
  972SOL    HW2 3816   6.497   5.532   0.467
  973SOL     OW 3817   6.331   4.917   5.523
  973SOL    HW1 3818   6.383   4.833   5.507
  973SOL    HW2 3819   6.271   4.935   5.446
  974SOL     OW 3820   2.932   1.003   3.535
  974SOL    HW1 3821   2.899   0.943   3.462
  974SOL    HW2 3822   3.026   0.979   3.557
  975SOL     OW 3823   3.120   5.995   6.052
  975SOL    HW1 3824   3.152   5.978   6.145
  975SOL    HW2 3825   3.027   6.032   6.054
  976SOL     OW 3826   6.523   3.035   3.150
  976SOL    HW1 3827   6.491   3.003   3.240
  976SOL    HW2 3828   6.554   2.957   3.096
  977SOL     OW 3829   1.621   1.075   3.840
  977SOL    HW1 3830   1.524   1.074   3.816
  977SOL    HW2 3831   1.635   1.135   3.919
  978SOL     OW 3832   5.478   4.241   4.671
  978SOL    HW1 3833   5.440   4.228   4.580
  978SOL    HW2 3834   5.533   4.325   4.674
  979SOL     OW 3835   6.167   0.869   2.970
  979SOL    HW1 3836   6.118   0.944   2.926
  979SOL    HW2 3837   6.207   0.902   3.056
  980SOL     OW 3838   5.556   2.186   4.530
  980SOL    HW1 3839   5.471   2.188   4.478
  980SOL    HW2 3840   5.536   2.207   4.626
  981SOL     OW 3841   1.468   1.793   4.288
  981SOL    HW1 3842   1.553   1.744   4.267
  981SOL    HW2 3843   1.425   1.753   4.369
  982SOL     OW 3844   1.081   2.467   1.764
  982SOL    HW1 3845   0.996   2.508   1.730
  982SOL    HW2 3846   1.061   2.376   1.801
  983SOL     OW 3847   6.313   2.025   3.073
  983SOL    HW1 3848   6.313   2.085   3.153
  983SOL    HW2 3849   6.373   2.064   3.003
  984SOL     OW 3850   4.956   1.338   5.005
  984SOL    HW1 3851   5.042   1.318   5.051
  984SOL    HW2 3852   4.884   1.280   5.042
  985SOL     OW 3853   3.123   5.450   0.892
  985SOL    HW1 3854   3.120   5.527   0.828
  985SOL    HW2 3855   3.210   5.401   0.881
  986SOL     OW 3856   4.752   4.972   6.682
  986SOL    HW1 3857   4.691   5.051   6.672
  986SOL    HW2 3858   4.770   4.932   6.592
  987SOL     OW 3859   3.478   6.674   1.835
  987SOL    HW1 3860   3.488   6.705   1.929
  987SOL    HW2 3861   3.445   6.579   1.834
  988SOL     OW 3862   4.147   3.116   0.565
  988SOL    HW1 3863   4.066   3.068   0.600
  988SOL    HW2 3864   4.212   3.049   0.529
  989SOL     OW 3865   0.640   0.149   5.337
  989SOL    HW1 3866   0.552   0.191   5.360
  989SOL    HW2 3867   0.710   0.185   5.399
  990SOL     OW 3868   4.328   0.222   4.019
  990SOL    HW1 3869   4.272   0.160   3.962
  990SOL    HW2 3870   4.357   0.174   4.101
  991SOL     OW 3871   0.849   2.056   4.691
  991SOL    HW1 3872   0.851   2.149   4.726
  991SOL    HW2 3873   0.899   1.996   4.753
  992SOL     OW 3874   0.594   3.351   0.045
  992SOL    HW1 3875   0.654   3.327   0.121
  992SOL    HW2 3876   0.520   3.284   0.038
  993SOL     OW 3877   2.960   4.811   2.484
  993SOL    HW1 3878   3.027   4.832   2.555
  993SOL    HW2 3879   3.003   4.823   2.394
  994SOL     OW 3880   3.531   3.086   2.329
  994SOL    HW1 3881   3.462   3.155   2.351
  994SOL    HW2 3882   3.579   3.113   2.245
  995SOL     OW 3883   1.698   2.408   6.241
  995SOL    HW1 3884   1.797   2.419   6.248
  995SOL    HW2 3885   1.677   2.315   6.212
  996SOL     OW 3886   2.064   3.485   2.949
  996SOL    HW1 3887   2.122   3.520   3.023
  996SOL    HW2 3888   2.090   3.391   2.928
  997SOL     OW 3889   0.518   0.630   1.454
  997SOL    HW1 3890   0.458   0.710   1.455
  997SOL    HW2 3891   0.560   0.622   1.363
  998SOL     OW 3892   4.334   0.225   2.094
  998SOL    HW1 3893   4.352   0.281   2.013
  998SOL    HW2 3894   4.419   0.207   2.143
  999SOL     OW 3895   6.562   5.386   1.430
  999SOL    HW1 3896   6.597   5.332   1.507
  999SOL    HW2 3897   6.622   5.372   1.351
 1000SOL     OW 3898   2.615   2.379   3.669
 1000SOL    HW1 3899   2.646   2.415   3.757
 1000SOL    HW2 3900   2.611   2.279   3.673
 1001SOL     OW 3901   4.902   6.379   6.450
 1001SOL    HW1 3902   4.883   6.441   6.374
 1001SOL    HW2 3903   4.904   6.285   6.418
 1002SOL     OW 3904   5.870   1.543   0.363
 1002SOL    HW1 3905   5.772   1.539   0.380
 1002SOL    HW2 3906   5.913   1.604   0.430
 1003SOL     OW 3907   2.770   6.207   2.508
 1003SOL    HW1 3908   2.760   6.144   2.586
 1003SOL    HW2 3909   2.856   6.257   2.516
 1004SOL     OW 3910   0.428   0.217   6.663
 1004SOL    HW1 3911   0.375   0.227   6.747
 1004SOL    HW2 3912   0.446   0.307   6.624
 1005SOL     OW 3913   0.851   0.020   3.010
 1005SOL    HW1 3914   0.805   6.960   3.041
 1005SOL    HW2 3915   0.946   0.019   3.041
 1006SOL     OW 3916   2.399   4.947   1.078
 1006SOL    HW1 3917   2.422   4.869   1.136
 1006SOL    HW2 3918   2.382   4.916   0.984
 1007SOL     OW 3919   6.878   1.368   3.246
 1007SOL    HW1 3920   6.916   1.348   3.336
 1007SOL    HW2 3921   6.907   1.459   3.217
 1008SOL     OW 3922   1.122   3.274   4.172
 1008SOL    HW1 3923   1.107   3.373   4.176
 1008SOL    HW2 3924   1.060   3.228   4.235
 1009SOL     OW 3925   0.181   6.154   4.375
 1009SOL    HW1 3926   0.190   6.129   4.279
 1009SOL    HW2 3927   0.091   6.125   4.408
 1010SOL     OW 3928   4.140   1.690   0.456
 1010SOL    HW1 3929   4.193   1.662   0.537
 1010SOL    HW2 3930   4.130   1.612   0.395
 1011SOL     OW 3931   2.640   5.330   3.896
 1011SOL    HW1 3932   2.722   5.327   3.954
 1011SOL    HW2 3933   2.667   5.318   3.800
 1012SOL     OW 3934   6.115   5.154   0.534
 1012SOL    HW1 3935   6.042   5.160   0.466
 1012SOL    HW2 3936   6.183   5.087   0.505
 1013SOL     OW 3937   1.166   0.668   0.189
 1013SOL    HW1 3938   1.113   0.596   0.233
 1013SOL    HW2 3939   1.123   0.693   0.102
 1014SOL     OW 3940   3.937   5.908   5.978
 1014SOL    HW1 3941   3.874   5.913   6.055
 1014SOL    HW2 3942   3.936   5.995   5.928
 1015SOL     OW 3943   3.523   6.548   4.846
 1015SOL    HW1 3944   3.491   6.604   4.769
 1015SOL    HW2 3945   3.445   6.511   4.895
 1016SOL     OW 3946   3.658   2.798   1.078
 1016SOL    HW1 3947   3.711   2.838   1.152
 1016SOL    HW2 3948   3.718   2.741   1.021
 1017SOL     OW 3949   4.269   2.565   0.543
 1017SOL    HW1 3950   4.202   2.492   0.553
 1017SOL    HW2 3951   4.361   2.528   0.557
 1018SOL     OW 3952   1.365   3.169   3.656
 1018SOL    HW1 3953   1.341   3.080   3.695
 1018SOL    HW2 3954   1.370   3.238   3.728
 1019SOL     OW 3955   0.197   1.217   0.314
 1019SOL    HW1 3956   0.120   1.172   0.268
 1019SOL    HW2 3957   0.162   1.288   0.375
 1020SOL     OW 3958   2.817   0.940   0.612
 1020SOL    HW1 3959   2.772   0.928   0.700
 1020SOL    HW2 3960   2.907   0.896   0.615
 1021SOL     OW 3961   0.092   1.413   1.114
 1021SOL    HW1 3962   0.043   1.388   1.031
 1021SOL    HW2 3963   0.065   1.351   1.188
 1022SOL     OW 3964   4.463   3.013   6.254
 1022SOL    HW1 3965   4.468   2.927   6.204
 1022SOL    HW2 3966   4.424   3.084   6.195
 1023SOL     OW 3967   5.754   0.554   2.336
 1023SOL    HW1 3968   5.794   0.496   2.407
 1023SOL    HW2 3969   5.778   0.518   2.246
 1024SOL     OW 3970   6.398   1.861   4.088
 1024SOL    HW1 3971   6.497   1.859   4.100
 1024SOL    HW2 3972   6.375   1.916   4.008
 1025SOL     OW 3973   3.373   4.584   0.676
 1025SOL    HW1 3974   3.299   4.561   0.738
 1025SOL    HW2 3975   3.387   4.683   0.675
 1026SOL     OW 3976   2.342   1.911   6.656
 1026SOL    HW1 3977   2.327   1.823   6.701
 1026SOL    HW2 3978   2.434   1.944   6.676
 1027SOL     OW 3979   2.769   5.110   1.602
 1027SOL    HW1 3980   2.672   5.100   1.580
 1027SOL    HW2 3981   2.799   5.032   1.658
 1028SOL     OW 3982   1.636   6.058   0.987
 1028SOL    HW1 3983   1.665   5.997   1.060
 1028SOL    HW2 3984   1.710   6.068   0.921
 1029SOL     OW 3985   1.947   0.303   0.172
 1029SOL    HW1 3986   1.974   0.229   0.110
 1029SOL    HW2 3987   1.854   0.333   0.148
 1030SOL     OW 3988   4.091   3.682   4.868
 1030SOL    HW1 3989   4.093   3.640   4.778
 1030SOL    HW2 3990   4.062   3.778   4.860
 1031SOL     OW 3991   2.733   5.416   1.631
 1031SOL    HW1 3992   2.761   5.322   1.609
 1031SOL    HW2 3993   2.711   5.465   1.546
 1032SOL     OW 3994   1.837   1.784   4.983
 1032SOL    HW1 3995   1.919   1.777   5.040
 1032SOL    HW2 3996   1.786   1.698   4.989
 1033SOL     OW 3997   2.203   5.480   1.882
 1033SOL    HW1 3998   2.111   5.511   1.857
 1033SOL    HW2 3999   2.266   5.502   1.808
 1034SOL     OW 4000   2.569   5.649   3.844
 1034SOL    HW1 4001   2.664   5.651   3.876
 1034SOL    HW2 4002   2.558   5.573   3.780
 1035SOL     OW 4003   2.817   1.270   4.480
 1035SOL    HW1 4004   2.797   1.179   4.443
 1035SOL    HW2 4005   2.864   1.262   4.567
 1036SOL     OW 4006   4.139   2.269   0.890
 1036SOL    HW1 4007   4.208   2.271   0.962
 1036SOL    HW2 4008   4.058   2.221   0.923
 1037SOL     OW 4009   2.100   1.077   0.474
 1037SOL    HW1 4010   2.023   1.142   0.476
 1037SOL    HW2 4011   2.087   1.009   0.546
 1038SOL     OW 4012   1.499   1.157   5.420
 1038SOL    HW1 4013   1.521   1.245   5.461
 1038SOL    HW2 4014   1.450   1.171   5.334
 1039SOL     OW 4015   3.886   1.653   4.342
 1039SOL    HW1 4016   3.847   1.740   4.311
 1039SOL    HW2 4017   3.857   1.636   4.436
 1040SOL     OW 4018   5.871   3.806   2.354
 1040SOL    HW1 4019   5.782   3.852   2.354
 1040SOL    HW2 4020   5.923   3.834   2.434
 1041SOL     OW 4021   6.656   0.735   4.087
 1041SOL    HW1 4022   6.666   0.768   3.993
 1041SOL    HW2 4023   6.565   0.694   4.098
 1042SOL     OW 4024   5.358   5.288   0.600
 1042SOL    HW1 4025   5.445   5.267   0.646
 1042SOL    HW2 4026   5.325   5.205   0.554
 1043SOL     OW 4027   3.330   1.694   6.527
 1043SOL    HW1 4028   3.352   1.774   6.583
 1043SOL    HW2 4029   3.370   1.704   6.436
 1044SOL     OW 4030   3.796   3.070   1.533
 1044SOL    HW1 4031   3.721   3.073   1.466
 1044SOL    HW2 4032   3.817   2.975   1.556
 1045SOL     OW 4033   3.042   1.261   2.950
 1045SOL    HW1 4034   3.100   1.245   3.030
 1045SOL    HW2 4035   3.093   1.313   2.882
 1046SOL     OW 4036   3.188   6.915   0.619
 1046SOL    HW1 4037   3.245   6.834   0.629
 1046SOL    HW2 4038   3.208   6.979   0.692
 1047SOL     OW 4039   0.498   5.408   2.702
 1047SOL    HW1 4040   0.422   5.468   2.675
 1047SOL    HW2 4041   0.520   5.422   2.798
 1048SOL     OW 4042   5.141   5.165   4.899
 1048SOL    HW1 4043   5.115   5.210   4.814
 1048SOL    HW2 4044   5.170   5.233   4.965
 1049SOL     OW 4045   0.062   3.737   4.690
 1049SOL    HW1 4046   0.048   3.795   4.771
 1049SOL    HW2 4047   0.007   3.771   4.614
 1050SOL     OW 4048   3.870   0.418   6.332
 1050SOL    HW1 4049   3.873   0.518   6.329
 1050SOL    HW2 4050   3.858   0.388   6.427
 1051SOL     OW 4051   5.083   4.455   0.496
 1051SOL    HW1 4052   5.044   4.544   0.471
 1051SOL    HW2 4053   5.064   4.435   0.592
 1052SOL     OW 4054   4.150   0.318   4.982
 1052SOL    HW1 4055   4.203   0.343   5.062
 1052SOL    HW2 4056   4.055   0.301   5.009
 1053SOL     OW 4057   4.802   5.014   3.813
 1053SOL    HW1 4058   4.837   4.950   3.745
 1053SOL    HW2 4059   4.852   5.100   3.807
 1054SOL     OW 4060   3.486   5.169   5.341
 1054SOL    HW1 4061   3.523   5.238   5.404
 1054SOL    HW2 4062   3.455   5.090   5.393
 1055SOL     OW 4063   4.510   5.898   5.017
 1055SOL    HW1 4064   4.479   5.963   5.086
 1055SOL    HW2 4065   4.580   5.942   4.960
 1056SOL     OW 4066   1.974   6.031   5.328
 1056SOL    HW1 4067   2.012   5.945   5.363
 1056SOL    HW2 4068   1.920   6.013   5.246
 1057SOL     OW 4069   3.203   3.501   2.844
 1057SOL    HW1 4070   3.168   3.488   2.937
 1057SOL    HW2 4071   3.134   3.471   2.779
 1058SOL     OW 4072   3.352   1.283   2.485
 1058SOL    HW1 4073   3.451   1.282   2.502
 1058SOL    HW2 4074   3.321   1.378   2.479
 1059SOL     OW 4075   4.330   0.848   1.838
 1059SOL    HW1 4076   4.242   0.878   1.872
 1059SOL    HW2 4077   4.373   0.923   1.787
 1060SOL     OW 4078   0.964   2.986   5.517
 1060SOL    HW1 4079   0.955   3.086   5.514
 1060SOL    HW2 4080   0.945   2.953   5.609
 1061SOL     OW 4081   3.157   5.248   1.708
 1061SOL    HW1 4082   3.080   5.191   1.735
 1061SOL    HW2 4083   3.130   5.306   1.631
 1062SOL     OW 4084   6.446   5.632   5.665
 1062SOL    HW1 4085   6.423   5.554   5.607
 1062SOL    HW2 4086   6.509   5.692   5.618
 1063SOL     OW 4087   1.629   3.463   0.868
 1063SOL    HW1 4088   1.690   3.537   0.895
 1063SOL    HW2 4089   1.670   3.375   0.893
 1064SOL     OW 4090   0.830   3.495   1.932
 1064SOL    HW1 4091   0.771   3.502   2.013
 1064SOL    HW2 4092   0.893   3.418   1.944
 1065SOL     OW 4093   5.627   0.042   3.891
 1065SOL    HW1 4094   5.538   7.020   3.899
 1065SOL    HW2 4095   5.696   6.997   3.864
 1066SOL     OW 4096   4.938   0.225   3.448
 1066SOL    HW1 4097   4.938   0.185   3.540
 1066SOL    HW2 4098   5.014   0.289   3.440
 1067SOL     OW 4099   2.171   2.835   2.008
 1067SOL    HW1 4100   2.256   2.809   2.053
 1067SOL    HW2 4101   2.189   2.861   1.913
 1068SOL     OW 4102   0.413   3.319   2.274
 1068SOL    HW1 4103   0.475   3.296   2.199
 1068SOL    HW2 4104   0.334   3.368   2.237
 1069SOL     OW 4105   4.206   4.600   1.032
 1069SOL    HW1 4106   4.239   4.624   1.123
 1069SOL    HW2 4107   4.265   4.641   0.963
 1070SOL     OW 4108   2.229   0.768   0.241
 1070SOL    HW1 4109   2.183   0.686   0.207
 1070SOL    HW2 4110   2.213   0.777   0.339
 1071SOL     OW 4111   3.836   6.587   2.908
 1071SOL    HW1 4112   3.918   6.557   2.956
 1071SOL    HW2 4113   3.850   6.681   2.874
 1072SOL     OW 4114   2.874   6.525   2.680
 1072SOL    HW1 4115   2.795   6.586   2.687
 1072SOL    HW2 4116   2.902   6.496   2.771
 1073SOL     OW 4117   2.550   4.909   2.696
 1073SOL    HW1 4118   2.524   4.946   2.606
 1073SOL    HW2 4119   2.619   4.838   2.684
 1074SOL     OW 4120   0.761   4.805   1.925
 1074SOL    HW1 4121   0.727   4.738   1.992
 1074SOL    HW2 4122   0.684   4.849   1.880
 1075SOL     OW 4123   5.172   4.152   3.889
 1075SOL    HW1 4124   5.209   4.241   3.864
 1075SOL    HW2 4125   5.076   4.162   3.917
 1076SOL     OW 4126   0.334   4.228   4.154
 1076SOL    HW1 4127   0.428   4.198   4.138
 1076SOL    HW2 4128   0.312   4.223   4.251
 1077SOL     OW 4129   4.995   0.051   0.991
 1077SOL    HW1 4130   5.032   0.017   1.077
 1077SOL    HW2 4131   4.977   0.149   0.999
 1078SOL     OW 4132   1.712   2.076   1.336
 1078SOL    HW1 4133   1.680   1.982   1.330
 1078SOL    HW2 4134   1.678   2.128   1.258
 1079SOL     OW 4135   2.549   5.606   3.468
 1079SOL    HW1 4136   2.521   5.695   3.433
 1079SOL    HW2 4137   2.568   5.544   3.392
 1080SOL     OW 4138   2.155   5.748   3.707
 1080SOL    HW1 4139   2.131   5.766   3.802
 1080SOL    HW2 4140   2.190   5.832   3.665
 1081SOL     OW 4141   2.114   0.555   6.902
 1081SOL    HW1 4142   2.056   0.574   6.824
 1081SOL    HW2 4143   2.180   0.484   6.879
 1082SOL     OW 4144   1.713   0.281   5.871
 1082SOL    HW1 4145   1.773   0.207   5.902
 1082SOL    HW2 4146   1.626   0.275   5.920
 1083SOL     OW 4147   3.647   3.669   1.904
 1083SOL    HW1 4148   3.654   3.593   1.839
 1083SOL    HW2 4149   3.560   3.716   1.891
 1084SOL     OW 4150   5.869   4.474   0.823
 1084SOL    HW1 4151   5.842   4.568   0.842
 1084SOL    HW2 4152   5.934   4.443   0.893
 1085SOL     OW 4153   1.805   4.841   3.750
 1085SOL    HW1 4154   1.729   4.811   3.808
 1085SOL    HW2 4155   1.867   4.899   3.804
 1086SOL     OW 4156   4.739   5.250   2.576
 1086SOL    HW1 4157   4.722   5.294   2.487
 1086SOL    HW2 4158   4.763   5.154   2.562
 1087SOL     OW 4159   4.489   3.003   5.422
 1087SOL    HW1 4160   4.422   2.999   5.496
 1087SOL    HW2 4161   4.488   3.094   5.380
 1088SOL     OW 4162   4.886   4.496   4.039
 1088SOL    HW1 4163   4.903   4.409   3.994
 1088SOL    HW2 4164   4.973   4.541   4.060
 1089SOL     OW 4165   0.199   0.160   4.916
 1089SOL    HW1 4166   0.244   0.229   4.858
 1089SOL    HW2 4167   0.214   0.183   5.012
 1090SOL     OW 4168   1.943   1.519   6.019
 1090SOL    HW1 4169   1.912   1.446   5.958
 1090SOL    HW2 4170   1.888   1.518   6.103
 1091SOL     OW 4171   1.520   1.784   5.076
 1091SOL    HW1 4172   1.585   1.860   5.079
 1091SOL    HW2 4173   1.568   1.699   5.053
 1092SOL     OW 4174   2.393   4.105   1.607
 1092SOL    HW1 4175   2.365   4.027   1.663
 1092SOL    HW2 4176   2.312   4.156   1.578
 1093SOL     OW 4177   1.138   2.501   2.393
 1093SOL    HW1 4178   1.051   2.455   2.414
 1093SOL    HW2 4179   1.214   2.443   2.421
 1094SOL     OW 4180   0.491   6.984   1.710
 1094SOL    HW1 4181   0.511   7.001   1.806
 1094SOL    HW2 4182   0.568   7.013   1.653
 1095SOL     OW 4183   6.036   2.786   6.536
 1095SOL    HW1 4184   5.942   2.756   6.526
 1095SOL    HW2 4185   6.042   2.859   6.604
 1096SOL     OW 4186   3.118   4.566   1.736
 1096SOL    HW1 4187   3.023   4.534   1.734
 1096SOL    HW2 4188   3.180   4.489   1.725
 1097SOL     OW 4189   1.393   4.707   5.083
 1097SOL    HW1 4190   1.317   4.766   5.057
 1097SOL    HW2 4191   1.367   4.611   5.067
 1098SOL     OW 4192   4.686   2.383   2.090
 1098SOL    HW1 4193   4.726   2.392   1.999
 1098SOL    HW2 4194   4.754   2.408   2.159
 1099SOL     OW 4195   4.390   2.203   4.080
 1099SOL    HW1 4196   4.470   2.244   4.125
 1099SOL    HW2 4197   4.380   2.109   4.111
 1100SOL     OW 4198   1.023   0.720   6.484
 1100SOL    HW1 4199   0.990   0.626   6.499
 1100SOL    HW2 4200   0.987   0.754   6.397
 1101SOL     OW 4201   5.017   3.159   0.665
 1101SOL    HW1 4202   4.951   3.093   0.629
 1101SOL    HW2 4203   4.970   3.225   0.724
 1102SOL     OW 4204   0.270   4.275   4.449
 1102SOL    HW1 4205   0.277   4.332   4.531
 1102SOL    HW2 4206   0.175   4.274   4.417
 1103SOL     OW 4207   2.007   1.914   1.589
 1103SOL    HW1 4208   2.029   1.867   1.503
 1103SOL    HW2 4209   1.913   1.949   1.584
 1104SOL     OW 4210   3.276   4.868   6.361
 1104SOL    HW1 4211   3.211   4.891   6.289
 1104SOL    HW2 4212   3.337   4.945   6.377
 1105SOL     OW 4213   5.270   4.260   6.579
 1105SOL    HW1 4214   5.366   4.274   6.553
 1105SOL    HW2 4215   5.251   4.162   6.581
 1106SOL     OW 4216   0.049   2.558   5.495
 1106SOL    HW1 4217   0.092   2.483   5.545
 1106SOL    HW2 4218   0.116   2.630   5.478
 1107SOL     OW 4219   0.967   0.473   0.758
 1107SOL    HW1 4220   1.055   0.439   0.727
 1107SOL    HW2 4221   0.952   0.565   0.722
 1108SOL     OW 4222   1.594   0.653   5.971
 1108SOL    HW1 4223   1.533   0.656   6.050
 1108SOL    HW2 4224   1.682   0.615   5.999
 1109SOL     OW 4225   4.492   6.070   4.200
 1109SOL    HW1 4226   4.545   6.147   4.235
 1109SOL    HW2 4227   4.406   6.104   4.161
 1110SOL     OW 4228   3.116   3.400   1.877
 1110SOL    HW1 4229   3.130   3.316   1.930
 1110SOL    HW2 4230   3.153   3.478   1.928
 1111SOL     OW 4231   5.413   0.666   0.293
 1111SOL    HW1 4232   5.412   0.764   0.271
 1111SOL    HW2 4233   5.470   0.618   0.227
 1112SOL     OW 4234   6.598   1.051   2.126
 1112SOL    HW1 4235   6.521   1.001   2.085
 1112SOL    HW2 4236   6.656   1.088   2.053
 1113SOL     OW 4237   6.425   3.252   2.922
 1113SOL    HW1 4238   6.344   3.277   2.869
 1113SOL    HW2 4239   6.488   3.201   2.863
 1114SOL     OW 4240   4.880   0.792   5.795
 1114SOL    HW1 4241   4.800   0.812   5.853
 1114SOL    HW2 4242   4.856   0.806   5.699
 1115SOL     OW 4243   3.044   3.423   0.863
 1115SOL    HW1 4244   3.117   3.411   0.930
 1115SOL    HW2 4245   3.007   3.515   0.871
 1116SOL     OW 4246   4.155   6.108   4.234
 1116SOL    HW1 4247   4.228   6.109   4.302
 1116SOL    HW2 4248   4.069   6.083   4.278
 1117SOL     OW 4249   2.731   2.894   1.255
 1117SOL    HW1 4250   2.753   2.875   1.160
 1117SOL    HW2 4251   2.811   2.931   1.302
 1118SOL     OW 4252   2.073   4.378   3.040
 1118SOL    HW1 4253   2.126   4.295   3.019
 1118SOL    HW2 4254   2.098   4.451   2.977
 1119SOL     OW 4255   4.238   4.178   1.690
 1119SOL    HW1 4256   4.298   4.193   1.769
 1119SOL    HW2 4257   4.206   4.266   1.654
 1120SOL     OW 4258   4.598   6.504   6.298
 1120SOL    HW1 4259   4.528   6.433   6.313
 1120SOL    HW2 4260   4.570   6.588   6.345
 1121SOL     OW 4261   5.037   3.081   1.505
 1121SOL    HW1 4262   4.978   3.044   1.577
 1121SOL    HW2 4263   5.053   3.011   1.436
 1122SOL     OW 4264   5.286   3.000   6.350
 1122SOL    HW1 4265   5.212   2.942   6.317
 1122SOL    HW2 4266   5.276   3.015   6.449
 1123SOL     OW 4267   4.612   1.009   2.488
 1123SOL    HW1 4268   4.704   1.003   2.525
 1123SOL    HW2 4269   4.576   0.917   2.474
 1124SOL     OW 4270   6.786   3.969   4.841
 1124SOL    HW1 4271   6.768   4.047   4.901
 1124SOL    HW2 4272   6.711   3.959   4.775
 1125SOL     OW 4273   3.321   3.118   5.069
 1125SOL    HW1 4274   3.416   3.148   5.077
 1125SOL    HW2 4275   3.260   3.196   5.085
 1126SOL     OW 4276   4.762   6.688   1.244
 1126SOL    HW1 4277   4.784   6.725   1.153
 1126SOL    HW2 4278   4.806   6.599   1.255
 1127SOL     OW 4279   2.201   4.802   0.635
 1127SOL    HW1 4280   2.124   4.866   0.627
 1127SOL    HW2 4281   2.172   4.711   0.607
 1128SOL     OW 4282   3.472   1.787   4.124
 1128SOL    HW1 4283   3.456   1.773   4.026
 1128SOL    HW2 4284   3.508   1.702   4.164
 1129SOL     OW 4285   5.147   0.605   6.908
 1129SOL    HW1 4286   5.219   0.572   6.969
 1129SOL    HW2 4287   5.175   0.692   6.866
 1130SOL     OW 4288   0.573   3.967   6.886
 1130SOL    HW1 4289   0.584   3.892   6.952
 1130SOL    HW2 4290   0.607   4.052   6.926
 1131SOL     OW 4291   0.469   6.210   5.152
 1131SOL    HW1 4292   0.417   6.133   5.115
 1131SOL    HW2 4293   0.483   6.197   5.250
 1132SOL     OW 4294   4.782   6.794   5.209
 1132SOL    HW1 4295   4.726   6.780   5.127
 1132SOL    HW2 4296   4.739   6.864   5.266
 1133SOL     OW 4297   0.751   3.395   1.544
 1133SOL    HW1 4298   0.718   3.409   1.450
 1133SOL    HW2 4299   0.813   3.316   1.546
 1134SOL     OW 4300   5.187   2.546   6.922
 1134SOL    HW1 4301   5.126   2.611   6.877
 1134SOL    HW2 4302   5.276   2.590   6.939
 1135SOL     OW 4303   2.803   2.297   3.418
 1135SOL    HW1 4304   2.775   2.224   3.481
 1135SOL    HW2 4305   2.741   2.375   3.429
 1136SOL     OW 4306   2.876   5.328   3.379
 1136SOL    HW1 4307   2.777   5.328   3.365
 1136SOL    HW2 4308   2.897   5.376   3.464
 1137SOL     OW 4309   1.269   1.552   6.503
 1137SOL    HW1 4310   1.261   1.607   6.586
 1137SOL    HW2 4311   1.247   1.608   6.423
 1138SOL     OW 4312   2.025   3.649   5.567
 1138SOL    HW1 4313   2.044   3.747   5.558
 1138SOL    HW2 4314   2.026   3.607   5.476
 1139SOL     OW 4315   1.617   0.005   2.739
 1139SOL    HW1 4316   1.681   0.032   2.667
 1139SOL    HW2 4317   1.529   0.049   2.723
 1140SOL     OW 4318   3.327   1.809   3.511
 1140SOL    HW1 4319   3.237   1.843   3.484
 1140SOL    HW2 4320   3.398   1.858   3.460
 1141SOL     OW 4321   5.968   5.836   4.970
 1141SOL    HW1 4322   5.983   5.804   5.064
 1141SOL    HW2 4323   6.056   5.841   4.923
 1142SOL     OW 4324   5.041   0.073   4.027
 1142SOL    HW1 4325   5.106   0.144   4.001
 1142SOL    HW2 4326   4.954   0.115   4.053
 1143SOL     OW 4327   3.888   2.169   2.998
 1143SOL    HW1 4328   3.973   2.221   3.005
 1143SOL    HW2 4329   3.863   2.159   2.902
 1144SOL     OW 4330   0.502   4.518   4.237
 1144SOL    HW1 4331   0.534   4.443   4.296
 1144SOL    HW2 4332   0.561   4.597   4.248
 1145SOL     OW 4333   6.938   5.723   4.421
 1145SOL    HW1 4334   6.908   5.652   4.485
 1145SOL    HW2 4335   6.907   5.700   4.329
 1146SOL     OW 4336   5.927   2.139   1.362
 1146SOL    HW1 4337   5.934   2.044   1.391
 1146SOL    HW2 4338   5.838   2.176   1.388
 1147SOL     OW 4339   6.900   3.992   2.195
 1147SOL    HW1 4340   6.898   3.894   2.176
 1147SOL    HW2 4341   6.947   4.009   2.282
 1148SOL     OW 4342   3.932   6.533   6.962
 1148SOL    HW1 4343   3.944   6.533   6.862
 1148SOL    HW2 4344   3.952   6.624   6.998
 1149SOL     OW 4345   6.362   3.510   2.635
 1149SOL    HW1 4346   6.358   3.410   2.639
 1149SOL    HW2 4347   6.445   3.542   2.680
 1150SOL     OW 4348   1.732   4.884   1.072
 1150SOL    HW1 4349   1.680   4.958   1.028
 1150SOL    HW2 4350   1.814   4.922   1.114
 1151SOL     OW 4351   6.110   5.264   6.693
 1151SOL    HW1 4352   6.111   5.204   6.612
 1151SOL    HW2 4353   6.037   5.234   6.754
 1152SOL     OW 4354   1.900   0.394   4.997
 1152SOL    HW1 4355   1.819   0.441   4.962
 1152SOL    HW2 4356   1.892   0.386   5.097
 1153SOL     OW 4357   2.114   5.297   2.764
 1153SOL    HW1 4358   2.172   5.356   2.709
 1153SOL    HW2 4359   2.137   5.201   2.747
 1154SOL     OW 4360   0.214   3.693   2.138
 1154SOL    HW1 4361   0.224   3.789   2.165
 1154SOL    HW2 4362   0.180   3.640   2.215
 1155SOL     OW 4363   3.793   6.003   1.544
 1155SOL    HW1 4364   3.846   6.073   1.591
 1155SOL    HW2 4365   3.849   5.921   1.532
 1156SOL     OW 4366   1.876   0.462   4.546
 1156SOL    HW1 4367   1.901   0.373   4.584
 1156SOL    HW2 4368   1.956   0.502   4.501
 1157SOL     OW 4369   0.528   2.822   3.959
 1157SOL    HW1 4370   0.539   2.737   3.906
 1157SOL    HW2 4371   0.501   2.896   3.897
 1158SOL     OW 4372   5.801   5.217   5.614
 1158SOL    HW1 4373   5.731   5.148   5.594
 1158SOL    HW2 4374   5.775   5.304   5.574
 1159SOL     OW 4375   3.647   4.832   3.273
 1159SOL    HW1 4376   3.640   4.932   3.278
 1159SOL    HW2 4377   3.743   4.805   3.261
 1160SOL     OW 4378   4.058   3.154   2.175
 1160SOL    HW1 4379   4.005   3.080   2.217
 1160SOL    HW2 4380   4.093   3.125   2.087
 1161SOL     OW 4381   5.542   0.601   4.000
 1161SOL    HW1 4382   5.504   0.687   3.966
 1161SOL    HW2 4383   5.469   0.533   4.009
 1162SOL     OW 4384   3.564   3.855   2.181
 1162SOL    HW1 4385   3.584   3.900   2.095
 1162SOL    HW2 4386   3.589   3.915   2.257
 1163SOL     OW 4387   4.937   2.556   2.046
 1163SOL    HW1 4388   4.939   2.480   1.981
 1163SOL    HW2 4389   4.880   2.531   2.124
 1164SOL     OW 4390   5.622   2.868   3.316
 1164SOL    HW1 4391   5.639   2.813   3.234
 1164SOL    HW2 4392   5.709   2.897   3.355
 1165SOL     OW 4393   0.345   3.918   3.520
 1165SOL    HW1 4394   0.426   3.901   3.576
 1165SOL    HW2 4395   0.282   3.841   3.528
 1166SOL     OW 4396   4.141   2.442   6.277
 1166SOL    HW1 4397   4.239   2.439   6.260
 1166SOL    HW2 4398   4.093   2.458   6.190
 1167SOL     OW 4399   4.782   1.140   5.074
 1167SOL    HW1 4400   4.806   1.044   5.065
 1167SOL    HW2 4401   4.696   1.158   5.027
 1168SOL     OW 4402   6.577   6.971   3.901
 1168SOL    HW1 4403   6.530   0.028   3.938
 1168SOL    HW2 4404   6.599   6.988   3.804
 1169SOL     OW 4405   0.814   3.743   1.298
 1169SOL    HW1 4406   0.912   3.744   1.277
 1169SOL    HW2 4407   0.798   3.691   1.381
 1170SOL     OW 4408   3.315   1.235   2.004
 1170SOL    HW1 4409   3.405   1.198   1.983
 1170SOL    HW2 4410   3.324   1.328   2.039
 1171SOL     OW 4411   2.864   5.453   1.296
 1171SOL    HW1 4412   2.930   5.467   1.222
 1171SOL    HW2 4413   2.845   5.540   1.341
 1172SOL     OW 4414   2.969   3.419   4.505
 1172SOL    HW1 4415   2.969   3.381   4.412
 1172SOL    HW2 4416   2.955   3.517   4.500
 1173SOL     OW 4417   2.869   0.886   6.103
 1173SOL    HW1 4418   2.939   0.952   6.133
 1173SOL    HW2 4419   2.887   0.860   6.008
 1174SOL     OW 4420   3.031   5.915   0.825
 1174SOL    HW1 4421   2.972   5.866   0.889
 1174SOL    HW2 4422   3.106   5.856   0.795
 1175SOL     OW 4423   6.343   4.916   6.118
 1175SOL    HW1 4424   6.372   4.851   6.047
 1175SOL    HW2 4425   6.304   4.997   6.074
 1176SOL     OW 4426   5.391   4.608   0.850
 1176SOL    HW1 4427   5.374   4.572   0.942
 1176SOL    HW2 4428   5.430   4.535   0.793
 1177SOL     OW 4429   6.838   3.398   6.043
 1177SOL    HW1 4430   6.877   3.445   6.122
 1177SOL    HW2 4431   6.744   3.372   6.062
 1178SOL     OW 4432   5.307   3.748   1.524
 1178SOL    HW1 4433   5.369   3.781   1.453
 1178SOL    HW2 4434   5.218   3.727   1.484
 1179SOL     OW 4435   1.609   5.303   6.725
 1179SOL    HW1 4436   1.625   5.345   6.636
 1179SOL    HW2 4437   1.694   5.264   6.759
 1180SOL     OW 4438   1.482   2.055   4.280
 1180SOL    HW1 4439   1.479   1.955   4.284
 1180SOL    HW2 4440   1.389   2.092   4.293
 1181SOL     OW 4441   1.836   4.119   3.744
 1181SOL    HW1 4442   1.867   4.198   3.798
 1181SOL    HW2 4443   1.748   4.087   3.779
 1182SOL     OW 4444   2.236   4.146   3.734
 1182SOL    HW1 4445   2.187   4.059   3.734
 1182SOL    HW2 4446   2.204   4.203   3.659
 1183SOL     OW 4447   4.008   6.273   1.106
 1183SOL    HW1 4448   4.106   6.288   1.104
 1183SOL    HW2 4449   3.966   6.336   1.172
 1184SOL     OW 4450   3.082   3.039   5.232
 1184SOL    HW1 4451   3.024   2.966   5.268
 1184SOL    HW2 4452   3.172   3.002   5.211
 1185SOL     OW 4453   1.918   0.074   6.686
 1185SOL    HW1 4454   1.960   0.082   6.776
 1185SOL    HW2 4455   1.825   0.040   6.696
 1186SOL     OW 4456   5.785   0.281   4.803
 1186SOL    HW1 4457   5.885   0.276   4.809
 1186SOL    HW2 4458   5.745   0.230   4.879
 1187SOL     OW 4459   5.611   6.879   5.272
 1187SOL    HW1 4460   5.541   6.889   5.201
 1187SOL    HW2 4461   5.622   6.965   5.321
 1188SOL     OW 4462   2.053   6.887   5.962
 1188SOL    HW1 4463   2.135   6.938   5.989
 1188SOL    HW2 4464   2.055   6.796   6.002
 1189SOL     OW 4465   5.885   0.832   1.356
 1189SOL    HW1 4466   5.833   0.806   1.275
 1189SOL    HW2 4467   5.961   0.892   1.329
 1190SOL     OW 4468   4.426   5.213   2.594
 1190SOL    HW1 4469   4.377   5.300   2.589
 1190SOL    HW2 4470   4.405   5.167   2.680
 1191SOL     OW 4471   3.270   5.608   6.173
 1191SOL    HW1 4472   3.270   5.553   6.090
 1191SOL    HW2 4473   3.177   5.615   6.209
 1192SOL     OW 4474   5.879   5.300   3.043
 1192SOL    HW1 4475   5.815   5.228   3.067
 1192SOL    HW2 4476   5.868   5.324   2.946
 1193SOL     OW 4477   4.865   0.561   4.149
 1193SOL    HW1 4478   4.773   0.591   4.176
 1193SOL    HW2 4479   4.897   0.618   4.073
 1194SOL     OW 4480   6.382   0.782   0.800
 1194SOL    HW1 4481   6.461   0.837   0.828
 1194SOL    HW2 4482   6.401   0.738   0.713
 1195SOL     OW 4483   5.653   0.557   6.220
 1195SOL    HW1 4484   5.717   0.539   6.294
 1195SOL    HW2 4485   5.701   0.557   6.133
 1196SOL     OW 4486   0.157   5.365   2.510
 1196SOL    HW1 4487   0.087   5.383   2.441
 1196SOL    HW2 4488   0.226   5.437   2.507
 1197SOL     OW 4489   3.792   5.958   5.703
 1197SOL    HW1 4490   3.725   6.006   5.759
 1197SOL    HW2 4491   3.746   5.895   5.640
 1198SOL     OW 4492   3.255   2.142   3.392
 1198SOL    HW1 4493   3.338   2.133   3.447
 1198SOL    HW2 4494   3.176   2.155   3.452
 1199SOL     OW 4495   3.270   4.353   1.691
 1199SOL    HW1 4496   3.350   4.412   1.702
 1199SOL    HW2 4497   3.284   4.292   1.613
 1200SOL     OW 4498   4.067   4.401   6.596
 1200SOL    HW1 4499   4.032   4.332   6.660
 1200SOL    HW2 4500   4.165   4.385   6.581
 1201SOL     OW 4501   1.235   1.779   4.973
 1201SOL    HW1 4502   1.325   1.785   5.017
 1201SOL    HW2 4503   1.181   1.707   5.016
 1202SOL     OW 4504   5.526   0.010   4.852
 1202SOL    HW1 4505   5.449   6.985   4.895
 1202SOL    HW2 4506   5.582   0.053   4.923
 1203SOL     OW 4507   5.331   0.084   1.176
 1203SOL    HW1 4508   5.278   7.022   1.172
 1203SOL    HW2 4509   5.275   0.157   1.214
 1204SOL     OW 4510   3.748   0.658   0.381
 1204SOL    HW1 4511   3.842   0.666   0.414
 1204SOL    HW2 4512   3.746   0.675   0.282
 1205SOL     OW 4513   5.859   1.762   5.191
 1205SOL    HW1 4514   5.809   1.778   5.277
 1205SOL    HW2 4515   5.894   1.669   5.190
 1206SOL     OW 4516   2.157   1.423   5.239
 1206SOL    HW1 4517   2.227   1.400   5.171
 1206SOL    HW2 4518   2.192   1.403   5.330
 1207SOL     OW 4519   5.620   0.185   6.912
 1207SOL    HW1 4520   5.554   0.115   6.882
 1207SOL    HW2 4521   5.632   0.179   7.012
 1208SOL     OW 4522   3.645   4.120   2.658
 1208SOL    HW1 4523   3.739   4.139   2.627
 1208SOL    HW2 4524   3.648   4.074   2.747
 1209SOL     OW 4525   5.766   5.453   4.258
 1209SOL    HW1 4526   5.766   5.426   4.354
 1209SOL    HW2 4527   5.735   5.376   4.201
 1210SOL     OW 4528   4.148   0.001   2.551
 1210SOL    HW1 4529   4.062   0.051   2.565
 1210SOL    HW2 4530   4.221   0.046   2.601
 1211SOL     OW 4531   1.034   4.075   4.662
 1211SOL    HW1 4532   1.035   4.086   4.761
 1211SOL    HW2 4533   1.071   4.157   4.618
 1212SOL     OW 4534   1.406   4.248   4.841
 1212SOL    HW1 4535   1.370   4.157   4.861
 1212SOL    HW2 4536   1.369   4.280   4.754
 1213SOL     OW 4537   6.429   2.546   5.306
 1213SOL    HW1 4538   6.454   2.482   5.233
 1213SOL    HW2 4539   6.334   2.574   5.296
 1214SOL     OW 4540   1.958   3.486   3.933
 1214SOL    HW1 4541   1.971   3.396   3.892
 1214SOL    HW2 4542   1.915   3.547   3.866
 1215SOL     OW 4543   1.204   4.269   2.968
 1215SOL    HW1 4544   1.245   4.336   3.031
 1215SOL    HW2 4545   1.277   4.225   2.915
 1216SOL     OW 4546   1.011   0.361   1.857
 1216SOL    HW1 4547   1.111   0.363   1.857
 1216SOL    HW2 4548   0.977   0.417   1.781
 1217SOL     OW 4549   1.421   6.665   1.285
 1217SOL    HW1 4550   1.391   6.649   1.191
 1217SOL    HW2 4551   1.516   6.695   1.285
 1218SOL     OW 4552   0.080   3.409   4.361
 1218SOL    HW1 4553   0.075   3.475   4.286
 1218SOL    HW2 4554   0.011   3.338   4.348
 1219SOL     OW 4555   3.671   6.344   1.471
 1219SOL    HW1 4556   3.670   6.261   1.416
 1219SOL    HW2 4557   3.634   6.324   1.562
 1220SOL     OW 4558   5.863   2.856   2.906
 1220SOL    HW1 4559   5.788   2.792   2.920
 1220SOL    HW2 4560   5.855   2.931   2.972
 1221SOL     OW 4561   4.397   3.794   0.385
 1221SOL    HW1 4562   4.317   3.852   0.403
 1221SOL    HW2 4563   4.407   3.781   0.286
 1222SOL     OW 4564   0.153   7.017   1.147
 1222SOL    HW1 4565   0.212   6.938   1.130
 1222SOL    HW2 4566   0.197   0.055   1.213
 1223SOL     OW 4567   6.253   7.014   6.233
 1223SOL    HW1 4568   6.297   0.063   6.180
 1223SOL    HW2 4569   6.170   6.984   6.186
 1224SOL     OW 4570   4.904   5.563   1.333
 1224SOL    HW1 4571   4.836   5.565   1.405
 1224SOL    HW2 4572   4.872   5.618   1.255
 1225SOL     OW 4573   5.102   1.992   0.510
 1225SOL    HW1 4574   5.045   2.073   0.506
 1225SOL    HW2 4575   5.050   1.916   0.547
 1226SOL     OW 4576   6.451   6.307   1.170
 1226SOL    HW1 4577   6.528   6.245   1.155
 1226SOL    HW2 4578   6.423   6.347   1.082
 1227SOL     OW 4579   5.863   3.566   5.463
 1227SOL    HW1 4580   5.809   3.483   5.450
 1227SOL    HW2 4581   5.802   3.645   5.463
 1228SOL     OW 4582   3.949   3.041   2.629
 1228SOL    HW1 4583   3.871   3.042   2.566
 1228SOL    HW2 4584   4.002   2.958   2.613
 1229SOL     OW 4585   1.920   6.152   2.496
 1229SOL    HW1 4586   1.846   6.193   2.549
 1229SOL    HW2 4587   1.901   6.162   2.398
 1230SOL     OW 4588   5.121   5.243   1.642
 1230SOL    HW1 4589   5.215   5.212   1.630
 1230SOL    HW2 4590   5.120   5.342   1.656
 1231SOL     OW 4591   1.903   2.059   6.481
 1231SOL    HW1 4592   1.966   1.985   6.457
 1231SOL    HW2 4593   1.830   2.022   6.538
 1232SOL     OW 4594   3.130   0.966   5.651
 1232SOL    HW1 4595   3.051   0.916   5.615
 1232SOL    HW2 4596   3.189   0.993   5.575
 1233SOL     OW 4597   0.338   5.605   3.936
 1233SOL    HW1 4598   0.324   5.679   4.002
 1233SOL    HW2 4599   0.433   5.603   3.907
 1234SOL     OW 4600   6.358   2.924   6.799
 1234SOL    HW1 4601   6.318   2.945   6.888
 1234SOL    HW2 4602   6.446   2.877   6.812
 1235SOL     OW 4603   6.370   5.115   0.166
 1235SOL    HW1 4604   6.451   5.160   0.202
 1235SOL    HW2 4605   6.326   5.174   0.099
 1236SOL     OW 4606   2.300   1.276   1.702
 1236SOL    HW1 4607   2.336   1.193   1.661
 1236SOL    HW2 4608   2.375   1.334   1.733
 1237SOL     OW 4609   1.225   0.386   4.717
 1237SOL    HW1 4610   1.243   0.413   4.811
 1237SOL    HW2 4611   1.172   0.458   4.671
 1238SOL     OW 4612   6.714   0.223   3.930
 1238SOL    HW1 4613   6.764   0.229   3.844
 1238SOL    HW2 4614   6.617   0.243   3.914
 1239SOL     OW 4615   5.712   4.499   4.105
 1239SOL    HW1 4616   5.705   4.400   4.096
 1239SOL    HW2 4617   5.781   4.521   4.174
 1240SOL     OW 4618   5.743   4.901   3.337
 1240SOL    HW1 4619   5.739   4.838   3.259
 1240SOL    HW2 4620   5.657   4.952   3.343
 1241SOL     OW 4621   5.544   5.112   4.542
 1241SOL    HW1 4622   5.486   5.126   4.623
 1241SOL    HW2 4623   5.490   5.075   4.468
 1242SOL     OW 4624   1.543   4.669   0.016
 1242SOL    HW1 4625   1.474   4.692   6.970
 1242SOL    HW2 4626   1.629   4.717   7.016
 1243SOL     OW 4627   1.101   4.646   4.927
 1243SOL    HW1 4628   1.169   4.573   4.934
 1243SOL    HW2 4629   1.124   4.720   4.990
 1244SOL     OW 4630   5.511   6.467   4.780
 1244SOL    HW1 4631   5.489   6.520   4.862
 1244SOL    HW2 4632   5.604   6.431   4.787
 1245SOL     OW 4633   5.419   6.290   2.419
 1245SOL    HW1 4634   5.476   6.330   2.347
 1245SOL    HW2 4635   5.380   6.204   2.387
 1246SOL     OW 4636   4.680   1.490   0.654
 1246SOL    HW1 4637   4.770   1.473   0.614
 1246SOL    HW2 4638   4.685   1.570   0.715
 1247SOL     OW 4639   6.592   6.671   3.306
 1247SOL    HW1 4640   6.611   6.584   3.260
 1247SOL    HW2 4641   6.507   6.663   3.358
 1248SOL     OW 4642   1.019   6.925   4.664
 1248SOL    HW1 4643   0.993   6.874   4.583
 1248SOL    HW2 4644   1.040   7.020   4.639
 1249SOL     OW 4645   6.861   4.500   0.086
 1249SOL    HW1 4646   6.786   4.444   0.052
 1249SOL    HW2 4647   6.843   4.525   0.181
 1250SOL     OW 4648   6.307   2.998   5.060
 1250SOL    HW1 4649   6.250   2.929   5.105
 1250SOL    HW2 4650   6.403   2.983   5.085
 1251SOL     OW 4651   2.830   0.452   2.687
 1251SOL    HW1 4652   2.926   0.433   2.664
 1251SOL    HW2 4653   2.792   0.518   2.623
 1252SOL     OW 4654   1.637   5.516   0.478
 1252SOL    HW1 4655   1.733   5.511   0.450
 1252SOL    HW2 4656   1.623   5.598   0.533
 1253SOL     OW 4657   3.417   0.557   1.181
 1253SOL    HW1 4658   3.392   0.653   1.167
 1253SOL    HW2 4659   3.420   0.538   1.279
 1254SOL     OW 4660   6.895   1.531   2.328
 1254SOL    HW1 4661   6.812   1.532   2.384
 1254SOL    HW2 4662   6.877   1.481   2.243
 1255SOL     OW 4663   5.591   1.348   4.747
 1255SOL    HW1 4664   5.538   1.307   4.822
 1255SOL    HW2 4665   5.589   1.286   4.668
 1256SOL     OW 4666   0.404   6.048   4.539
 1256SOL    HW1 4667   0.481   6.111   4.532
 1256SOL    HW2 4668   0.335   6.071   4.471
 1257SOL     OW 4669   0.638   5.427   4.097
 1257SOL    HW1 4670   0.717   5.368   4.084
 1257SOL    HW2 4671   0.555   5.377   4.072
 1258SOL     OW 4672   3.290   6.189   4.432
 1258SOL    HW1 4673   3.234   6.113   4.465
 1258SOL    HW2 4674   3.253   6.222   4.345
 1259SOL     OW 4675   5.380   6.778   4.235
 1259SOL    HW1 4676   5.369   6.711   4.162
 1259SOL    HW2 4677   5.294   6.786   4.286
 1260SOL     OW 4678   1.458   0.732   1.710
 1260SOL    HW1 4679   1.551   0.743   1.745
 1260SOL    HW2 4680   1.440   0.800   1.639
 1261SOL     OW 4681   6.803   4.566   6.419
 1261SOL    HW1 4682   6.771   4.472   6.436
 1261SOL    HW2 4683   6.898   4.574   6.449
 1262SOL     OW 4684   5.791   5.408   0.671
 1262SOL    HW1 4685   5.829   5.333   0.725
 1262SOL    HW2 4686   5.692   5.409   0.680
 1263SOL     OW 4687   0.532   2.484   1.318
 1263SOL    HW1 4688   0.490   2.407   1.366
 1263SOL    HW2 4689   0.548   2.559   1.383
 1264SOL     OW 4690   0.579   3.786   3.645
 1264SOL    HW1 4691   0.521   3.711   3.613
 1264SOL    HW2 4692   0.665   3.750   3.681
 1265SOL     OW 4693   6.944   4.666   4.947
 1265SOL    HW1 4694   6.976   4.657   5.042
 1265SOL    HW2 4695   6.964   4.582   4.897
 1266SOL     OW 4696   2.981   1.809   5.732
 1266SOL    HW1 4697   3.074   1.839   5.710
 1266SOL    HW2 4698   2.924   1.890   5.750
 1267SOL     OW 4699   6.953   5.450   3.291
 1267SOL    HW1 4700   6.972   5.547   3.305
 1267SOL    HW2 4701   7.020   5.411   3.228
 1268SOL     OW 4702   5.455   2.773   6.579
 1268SOL    HW1 4703   5.478   2.855   6.527
 1268SOL    HW2 4704   5.366   2.738   6.550
 1269SOL     OW 4705   6.735   5.493   5.519
 1269SOL    HW1 4706   6.724   5.590   5.497
 1269SOL    HW2 4707   6.646   5.451   5.532
 1270SOL     OW 4708   1.980   3.917   4.459
 1270SOL    HW1 4709   2.011   3.999   4.410
 1270SOL    HW2 4710   1.892   3.936   4.504
 1271SOL     OW 4711   3.388   1.807   2.668
 1271SOL    HW1 4712   3.446   1.856   2.603
 1271SOL    HW2 4713   3.297   1.849   2.670
 1272SOL     OW 4714   6.750   5.272   1.244
 1272SOL    HW1 4715   6.704   5.184   1.245
 1272SOL    HW2 4716   6.734   5.317   1.156
 1273SOL     OW 4717   2.641   5.029   6.581
 1273SOL    HW1 4718   2.715   4.995   6.639
 1273SOL    HW2 4719   2.553   5.001   6.619
 1274SOL     OW 4720   6.851   2.841   2.344
 1274SOL    HW1 4721   6.822   2.923   2.295
 1274SOL    HW2 4722   6.778   2.772   2.339
 1275SOL     OW 4723   4.463   1.304   4.844
 1275SOL    HW1 4724   4.411   1.369   4.788
 1275SOL    HW2 4725   4.521   1.354   4.908
 1276SOL     OW 4726   0.479   0.563   2.669
 1276SOL    HW1 4727   0.384   0.578   2.697
 1276SOL    HW2 4728   0.484   0.557   2.569
 1277SOL     OW 4729   7.009   0.928   4.430
 1277SOL    HW1 4730   0.018   0.985   4.354
 1277SOL    HW2 4731   6.941   0.863   4.397
 1278SOL     OW 4732   2.050   1.694   5.104
 1278SOL    HW1 4733   2.106   1.775   5.083
 1278SOL    HW2 4734   2.080   1.655   5.191
 1279SOL     OW 4735   2.784   6.025   0.406
 1279SOL    HW1 4736   2.823   5.995   0.319
 1279SOL    HW2 4737   2.732   6.109   0.392
 1280SOL     OW 4738   2.082   0.343   3.244
 1280SOL    HW1 4739   2.173   0.358   3.206
 1280SOL    HW2 4740   2.091   0.319   3.341
 1281SOL     OW 4741   1.344   6.404   3.327
 1281SOL    HW1 4742   1.325   6.450   3.414
 1281SOL    HW2 4743   1.257   6.384   3.281
 1282SOL     OW 4744   0.650   1.316   1.033
 1282SOL    HW1 4745   0.617   1.399   0.988
 1282SOL    HW2 4746   0.748   1.326   1.054
 1283SOL     OW 4747   5.410   4.803   5.228
 1283SOL    HW1 4748   5.469   4.765   5.157
 1283SOL    HW2 4749   5.425   4.901   5.235
 1284SOL     OW 4750   3.152   2.673   1.731
 1284SOL    HW1 4751   3.111   2.756   1.694
 1284SOL    HW2 4752   3.081   2.617   1.773
 1285SOL     OW 4753   4.812   2.494   5.945
 1285SOL    HW1 4754   4.757   2.427   5.995
 1285SOL    HW2 4755   4.755   2.573   5.922
 1286SOL     OW 4756   5.515   4.085   1.711
 1286SOL    HW1 4757   5.447   4.014   1.726
 1286SOL    HW2 4758   5.500   4.159   1.776
 1287SOL     OW 4759   6.642   5.641   6.861
 1287SOL    HW1 4760   6.678   5.637   6.954
 1287SOL    HW2 4761   6.638   5.549   6.822
 1288SOL     OW 4762   0.021   3.311   6.868
 1288SOL    HW1 4763   7.009   3.244   6.934
 1288SOL    HW2 4764   6.983   3.390   6.867
 1289SOL     OW 4765   7.000   6.046   2.387
 1289SOL    HW1 4766   0.062   6.079   2.344
 1289SOL    HW2 4767   6.975   5.958   2.346
 1290SOL     OW 4768   0.943   6.296   6.976
 1290SOL    HW1 4769   1.019   6.346   6.933
 1290SOL    HW2 4770   0.965   6.277   0.049
 1291SOL     OW 4771   0.964   6.004   6.273
 1291SOL    HW1 4772   1.054   5.969   6.246
 1291SOL    HW2 4773   0.896   5.932   6.265
 1292SOL     OW 4774   0.232   4.928   1.171
 1292SOL    HW1 4775   0.245   4.969   1.080
 1292SOL    HW2 4776   0.254   4.831   1.168
 1293SOL     OW 4777   1.255   1.831   6.922
 1293SOL    HW1 4778   1.323   1.872   6.984
 1293SOL    HW2 4779   1.165   1.838   6.963
 1294SOL     OW 4780   0.754   3.413   2.407
 1294SOL    HW1 4781   0.843   3.448   2.437
 1294SOL    HW2 4782   0.743   3.318   2.438
 1295SOL     OW 4783   5.688   3.194   1.621
 1295SOL    HW1 4784   5.614   3.139   1.661
 1295SOL    HW2 4785   5.721   3.149   1.538
 1296SOL     OW 4786   3.435   2.180   6.428
 1296SOL    HW1 4787   3.454   2.277   6.445
 1296SOL    HW2 4788   3.340   2.160   6.451
 1297SOL     OW 4789   6.605   1.345   5.463
 1297SOL    HW1 4790   6.644   1.263   5.421
 1297SOL    HW2 4791   6.595   1.416   5.393
 1298SOL     OW 4792   5.547   2.759   2.473
 1298SOL    HW1 4793   5.469   2.697   2.476
 1298SOL    HW2 4794   5.530   2.832   2.407
 1299SOL     OW 4795   1.399   4.608   4.690
 1299SOL    HW1 4796   1.416   4.705   4.702
 1299SOL    HW2 4797   1.322   4.594   4.627
 1300SOL     OW 4798   2.892   3.176   1.857
 1300SOL    HW1 4799   2.976   3.124   1.840
 1300SOL    HW2 4800   2.843   3.189   1.771
 1301SOL     OW 4801   0.628   6.453   4.073
 1301SOL    HW1 4802   0.645   6.421   4.167
 1301SOL    HW2 4803   0.700   6.420   4.013
 1302SOL     OW 4804   2.908   0.075   5.239
 1302SOL    HW1 4805   2.882   0.094   5.144
 1302SOL    HW2 4806   2.904   7.000   5.256
 1303SOL     OW 4807   3.486   1.418   0.870
 1303SOL    HW1 4808   3.407   1.364   0.840
 1303SOL    HW2 4809   3.532   1.371   0.945
 1304SOL     OW 4810   1.962   0.375   6.193
 1304SOL    HW1 4811   2.006   0.461   6.219
 1304SOL    HW2 4812   2.025   0.299   6.211
 1305SOL     OW 4813   4.444   6.700   4.383
 1305SOL    HW1 4814   4.375   6.636   4.350
 1305SOL    HW2 4815   4.425   6.791   4.347
 1306SOL     OW 4816   0.458   4.039   4.490
 1306SOL    HW1 4817   0.368   4.070   4.458
 1306SOL    HW2 4818   0.513   4.119   4.514
 1307SOL     OW 4819   1.329   3.382   5.187
 1307SOL    HW1 4820   1.376   3.425   5.110
 1307SOL    HW2 4821   1.231   3.375   5.167
 1308SOL     OW 4822   4.196   5.574   4.136
 1308SOL    HW1 4823   4.218   5.554   4.040
 1308SOL    HW2 4824   4.154   5.664   4.143
 1309SOL     OW 4825   5.383   2.885   4.935
 1309SOL    HW1 4826   5.434   2.884   5.021
 1309SOL    HW2 4827   5.313   2.814   4.936
 1310SOL     OW 4828   5.693   4.220   4.137
 1310SOL    HW1 4829   5.646   4.151   4.192
 1310SOL    HW2 4830   5.791   4.207   4.146
 1311SOL     OW 4831   6.256   6.955   4.746
 1311SOL    HW1 4832   6.198   6.915   4.675
 1311SOL    HW2 4833   6.202   7.017   4.803
 1312SOL     OW 4834   0.665   6.884   6.945
 1312SOL    HW1 4835   0.711   6.819   7.006
 1312SOL    HW2 4836   0.622   6.956   7.000
 1313SOL     OW 4837   3.430   5.457   5.261
 1313SOL    HW1 4838   3.406   5.527   5.329
 1313SOL    HW2 4839   3.400   5.368   5.294
 1314SOL     OW 4840   1.337   1.527   5.602
 1314SOL    HW1 4841   1.380   1.577   5.677
 1314SOL    HW2 4842   1.241   1.552   5.595
 1315SOL     OW 4843   2.294   1.466   0.976
 1315SOL    HW1 4844   2.227   1.412   1.027
 1315SOL    HW2 4845   2.385   1.425   0.987
 1316SOL     OW 4846   2.507   0.330   3.599
 1316SOL    HW1 4847   2.442   0.258   3.573
 1316SOL    HW2 4848   2.597   0.309   3.561
 1317SOL     OW 4849   0.304   4.713   4.390
 1317SOL    HW1 4850   0.356   4.635   4.424
 1317SOL    HW2 4851   0.301   4.710   4.290
 1318SOL     OW 4852   6.803   0.697   0.434
 1318SOL    HW1 4853   6.811   0.621   0.499
 1318SOL    HW2 4854   6.709   0.701   0.399
 1319SOL     OW 4855   6.600   0.933   0.838
 1319SOL    HW1 4856   6.660   0.919   0.759
 1319SOL    HW2 4857   6.604   1.029   0.866
 1320SOL     OW 4858   5.808   4.535   6.176
 1320SOL    HW1 4859   5.831   4.555   6.271
 1320SOL    HW2 4860   5.809   4.619   6.122
 1321SOL     OW 4861   3.972   3.312   6.554
 1321SOL    HW1 4862   4.052   3.263   6.523
 1321SOL    HW2 4863   3.893   3.250   6.556
 1322SOL     OW 4864   6.121   1.075   3.502
 1322SOL    HW1 4865   6.188   1.006   3.477
 1322SOL    HW2 4866   6.143   1.112   3.592
 1323SOL     OW 4867   0.142   1.236   5.526
 1323SOL    HW1 4868   0.168   1.240   5.429
 1323SOL    HW2 4869   0.083   1.314   5.547
 1324SOL     OW 4870   1.331   3.001   1.465
 1324SOL    HW1 4871   1.407   2.951   1.425
 1324SOL    HW2 4872   1.365   3.086   1.506
 1325SOL     OW 4873   1.586   6.253   3.332
 1325SOL    HW1 4874   1.606   6.178   3.395
 1325SOL    HW2 4875   1.488   6.274   3.335
 1326SOL     OW 4876   5.340   2.706   4.539
 1326SOL    HW1 4877   5.375   2.736   4.451
 1326SOL    HW2 4878   5.244   2.678   4.529
 1327SOL     OW 4879   2.776   4.752   2.680
 1327SOL    HW1 4880   2.834   4.773   2.759
 1327SOL    HW2 4881   2.820   4.783   2.596
 1328SOL     OW 4882   2.055   1.883   6.324
 1328SOL    HW1 4883   2.074   1.801   6.270
 1328SOL    HW2 4884   2.140   1.933   6.340
 1329SOL     OW 4885   0.745   1.360   0.729
 1329SOL    HW1 4886   0.819   1.414   0.770
 1329SOL    HW2 4887   0.658   1.407   0.742
 1330SOL     OW 4888   6.874   0.847   1.262
 1330SOL    HW1 4889   6.864   0.749   1.245
 1330SOL    HW2 4890   6.860   0.865   1.359
 1331SOL     OW 4891   6.069   0.851   1.752
 1331SOL    HW1 4892   6.159   0.876   1.716
 1331SOL    HW2 4893   6.077   0.826   1.848
 1332SOL     OW 4894   4.321   1.859   1.481
 1332SOL    HW1 4895   4.235   1.820   1.446
 1332SOL    HW2 4896   4.313   1.958   1.487
 1333SOL     OW 4897   3.955   3.914   4.792
 1333SOL    HW1 4898   3.950   3.913   4.692
 1333SOL    HW2 4899   3.996   4.000   4.822
 1334SOL     OW 4900   1.727   3.869   5.064
 1334SOL    HW1 4901   1.764   3.778   5.046
 1334SOL    HW2 4902   1.802   3.931   5.090
 1335SOL     OW 4903   1.721   6.216   3.100
 1335SOL    HW1 4904   1.680   6.228   3.190
 1335SOL    HW2 4905   1.808   6.168   3.109
 1336SOL     OW 4906   1.272   1.161   6.030
 1336SOL    HW1 4907   1.372   1.156   6.028
 1336SOL    HW2 4908   1.241   1.167   6.125
 1337SOL     OW 4909   1.962   2.267   6.273
 1337SOL    HW1 4910   2.057   2.269   6.305
 1337SOL    HW2 4911   1.911   2.198   6.324
 1338SOL     OW 4912   4.032   4.635   6.765
 1338SOL    HW1 4913   4.126   4.667   6.779
 1338SOL    HW2 4914   4.033   4.554   6.706
 1339SOL     OW 4915   6.956   4.550   6.135
 1339SOL    HW1 4916   6.911   4.636   6.158
 1339SOL    HW2 4917   7.020   4.566   6.059
 1340SOL     OW 4918   1.062   2.244   0.019
 1340SOL    HW1 4919   1.126   2.321   0.015
 1340SOL    HW2 4920   1.058   2.200   6.952
 1341SOL     OW 4921   3.528   1.272   3.751
 1341SOL    HW1 4922   3.440   1.267   3.704
 1341SOL    HW2 4923   3.518   1.236   3.844
 1342SOL     OW 4924   0.762   5.897   5.896
 1342SOL    HW1 4925   0.851   5.941   5.903
 1342SOL    HW2 4926   0.693   5.965   5.872
 1343SOL     OW 4927   3.816   6.108   2.507
 1343SOL    HW1 4928   3.755   6.061   2.444
 1343SOL    HW2 4929   3.908   6.115   2.466
 1344SOL     OW 4930   6.358   1.595   3.102
 1344SOL    HW1 4931   6.434   1.531   3.117
 1344SOL    HW2 4932   6.364   1.633   3.010
 1345SOL     OW 4933   0.600   0.801   3.112
 1345SOL    HW1 4934   0.579   0.892   3.148
 1345SOL    HW2 4935   0.627   0.741   3.188
 1346SOL     OW 4936   0.051   0.024   3.789
 1346SOL    HW1 4937   7.020   6.968   3.817
 1346SOL    HW2 4938   0.086   0.071   3.869
 1347SOL     OW 4939   6.648   6.411   3.202
 1347SOL    HW1 4940   6.745   6.394   3.221
 1347SOL    HW2 4941   6.598   6.324   3.207
 1348SOL     OW 4942   5.225   4.464   3.907
 1348SOL    HW1 4943   5.308   4.481   3.853
 1348SOL    HW2 4944   5.251   4.442   4.002
 1349SOL     OW 4945   3.957   2.331   6.951
 1349SOL    HW1 4946   3.994   2.246   6.989
 1349SOL    HW2 4947   4.024   2.371   6.888
 1350SOL     OW 4948   2.680   6.280   0.340
 1350SOL    HW1 4949   2.630   6.296   0.255
 1350SOL    HW2 4950   2.737   6.359   0.360
 1351SOL     OW 4951   0.087   1.162   3.972
 1351SOL    HW1 4952   0.132   1.250   3.988
 1351SOL    HW2 4953   0.018   1.173   3.899
 1352SOL     OW 4954   6.504   1.019   2.684
 1352SOL    HW1 4955   6.581   1.061   2.636
 1352SOL    HW2 4956   6.512   1.038   2.782
 1353SOL     OW 4957   0.441   4.372   4.932
 1353SOL    HW1 4958   0.475   4.369   4.838
 1353SOL    HW2 4959   0.403   4.283   4.957
 1354SOL     OW 4960   0.209   0.635   1.662
 1354SOL    HW1 4961   0.237   0.540   1.646
 1354SOL    HW2 4962   0.170   0.673   1.578
 1355SOL     OW 4963   4.628   3.855   6.823
 1355SOL    HW1 4964   4.691   3.918   6.868
 1355SOL    HW2 4965   4.651   3.849   6.725
 1356SOL     OW 4966   3.402   3.670   2.545
 1356SOL    HW1 4967   3.318   3.664   2.492
 1356SOL    HW2 4968   3.411   3.762   2.584
 1357SOL     OW 4969   2.413   3.320   6.247
 1357SOL    HW1 4970   2.343   3.248   6.248
 1357SOL    HW2 4971   2.481   3.298   6.177
 1358SOL     OW 4972   2.227   3.124   6.360
 1358SOL    HW1 4973   2.148   3.116   6.420
 1358SOL    HW2 4974   2.309   3.144   6.415
 1359SOL     OW 4975   5.968   3.487   1.904
 1359SOL    HW1 4976   5.964   3.550   1.981
 1359SOL    HW2 4977   6.003   3.534   1.824
 1360SOL     OW 4978   3.490   3.815   2.989
 1360SOL    HW1 4979   3.419   3.818   3.060
 1360SOL    HW2 4980   3.580   3.807   3.031
 1361SOL     OW 4981   0.740   6.418   6.173
 1361SOL    HW1 4982   0.759   6.395   6.268
 1361SOL    HW2 4983   0.721   6.516   6.165
 1362SOL     OW 4984   2.937   3.737   5.891
 1362SOL    HW1 4985   3.006   3.691   5.834
 1362SOL    HW2 4986   2.847   3.698   5.872
 1363SOL     OW 4987   6.646   5.532   2.607
 1363SOL    HW1 4988   6.656   5.598   2.682
 1363SOL    HW2 4989   6.688   5.445   2.635
 1364SOL     OW 4990   6.504   3.342   0.963
 1364SOL    HW1 4991   6.466   3.282   1.033
 1364SOL    HW2 4992   6.471   3.435   0.977
 1365SOL     OW 4993   0.763   3.176   5.996
 1365SOL    HW1 4994   0.736   3.157   6.090
 1365SOL    HW2 4995   0.858   3.208   5.994
 1366SOL     OW 4996   6.729   2.749   0.925
 1366SOL    HW1 4997   6.768   2.752   1.017
 1366SOL    HW2 4998   6.782   2.686   0.869
 1367SOL     OW 4999   0.034   5.058   3.855
 1367SOL    HW1 5000   6.976   5.013   3.892
 1367SOL    HW2 5001   0.099   4.989   3.822
 1368SOL     OW 5002   6.884   0.611   4.088
 1368SOL    HW1 5003   6.861   0.521   4.127
 1368SOL    HW2 5004   6.801   0.667   4.082
 1369SOL     OW 5005   2.104   5.694   2.243
 1369SOL    HW1 5006   2.192   5.701   2.291
 1369SOL    HW2 5007   2.083   5.598   2.225
 1370SOL     OW 5008   6.771   2.136   3.796
 1370SOL    HW1 5009   6.803   2.109   3.887
 1370SOL    HW2 5010   6.701   2.071   3.765
 1371SOL     OW 5011   5.527   1.186   4.510
 1371SOL    HW1 5012   5.429   1.196   4.530
 1371SOL    HW2 5013   5.544   1.096   4.469
 1372SOL     OW 5014   6.862   2.749   0.269
 1372SOL    HW1 5015   6.899   2.712   0.355
 1372SOL    HW2 5016   6.762   2.746   0.272
 1373SOL     OW 5017   4.612   2.726   1.812
 1373SOL    HW1 5018   4.562   2.811   1.826
 1373SOL    HW2 5019   4.659   2.728   1.724
 1374SOL     OW 5020   5.037   3.852   7.011
 1374SOL    HW1 5021   5.049   3.757   0.015
 1374SOL    HW2 5022   5.112   3.880   6.952
 1375SOL     OW 5023   5.991   6.178   4.951
 1375SOL    HW1 5024   6.030   6.146   5.038
 1375SOL    HW2 5025   5.893   6.192   4.962
 1376SOL     OW 5026   2.494   5.046   6.336
 1376SOL    HW1 5027   2.562   5.055   6.408
 1376SOL    HW2 5028   2.407   5.017   6.375
 1377SOL     OW 5029   1.498   2.506   3.117
 1377SOL    HW1 5030   1.439   2.437   3.158
 1377SOL    HW2 5031   1.492   2.591   3.170
 1378SOL     OW 5032   3.830   2.133   4.492
 1378SOL    HW1 5033   3.847   2.132   4.393
 1378SOL    HW2 5034   3.882   2.059   4.535
 1379SOL     OW 5035   5.387   5.489   1.472
 1379SOL    HW1 5036   5.391   5.403   1.423
 1379SOL    HW2 5037   5.311   5.544   1.438
 1380SOL     OW 5038   6.959   5.910   1.598
 1380SOL    HW1 5039   6.897   5.952   1.531
 1380SOL    HW2 5040   6.972   5.814   1.574
 1381SOL     OW 5041   6.493   2.128   5.718
 1381SOL    HW1 5042   6.491   2.112   5.619
 1381SOL    HW2 5043   6.406   2.098   5.759
 1382SOL     OW 5044   4.216   2.400   1.519
 1382SOL    HW1 5045   4.160   2.406   1.601
 1382SOL    HW2 5046   4.295   2.460   1.528
 1383SOL     OW 5047   1.223   0.673   1.875
 1383SOL    HW1 5048   1.209   0.595   1.936
 1383SOL    HW2 5049   1.301   0.655   1.815
 1384SOL     OW 5050   5.317   0.174   0.328
 1384SOL    HW1 5051   5.268   0.245   0.277
 1384SOL    HW2 5052   5.352   0.212   0.413
 1385SOL     OW 5053   1.632   5.079   3.485
 1385SOL    HW1 5054   1.541   5.119   3.476
 1385SOL    HW2 5055   1.702   5.150   3.470
 1386SOL     OW 5056   2.668   6.034   4.418
 1386SOL    HW1 5057   2.704   6.051   4.326
 1386SOL    HW2 5058   2.722   6.085   4.485
 1387SOL     OW 5059   3.379   5.773   1.382
 1387SOL    HW1 5060   3.324   5.842   1.335
 1387SOL    HW2 5061   3.426   5.815   1.460
 1388SOL     OW 5062   6.141   0.571   1.635
 1388SOL    HW1 5063   6.161   0.649   1.576
 1388SOL    HW2 5064   6.069   0.595   1.700
 1389SOL     OW 5065   6.608   1.188   2.891
 1389SOL    HW1 5066   6.620   1.091   2.914
 1389SOL    HW2 5067   6.697   1.234   2.891
 1390SOL     OW 5068   0.985   2.994   6.213
 1390SOL    HW1 5069   0.966   2.897   6.223
 1390SOL    HW2 5070   0.900   3.046   6.223
 1391SOL     OW 5071   6.740   1.633   3.895
 1391SOL    HW1 5072   6.721   1.695   3.819
 1391SOL    HW2 5073   6.694   1.666   3.977
 1392SOL     OW 5074   5.285   4.536   5.761
 1392SOL    HW1 5075   5.186   4.529   5.767
 1392SOL    HW2 5076   5.318   4.480   5.685
 1393SOL     OW 5077   5.428   5.802   5.335
 1393SOL    HW1 5078   5.517   5.800   5.290
 1393SOL    HW2 5079   5.375   5.880   5.301
 1394SOL     OW 5080   3.120   6.012   5.401
 1394SOL    HW1 5081   3.031   6.041   5.366
 1394SOL    HW2 5082   3.179   5.987   5.324
 1395SOL     OW 5083   3.123   4.603   5.774
 1395SOL    HW1 5084   3.038   4.597   5.827
 1395SOL    HW2 5085   3.201   4.583   5.833
 1396SOL     OW 5086   0.279   0.447   3.976
 1396SOL    HW1 5087   0.181   0.463   3.979
 1396SOL    HW2 5088   0.325   0.505   4.043
 1397SOL     OW 5089   6.056   0.100   5.105
 1397SOL    HW1 5090   6.143   0.057   5.131
 1397SOL    HW2 5091   6.071   0.198   5.091
 1398SOL     OW 5092   1.525   0.891   5.150
 1398SOL    HW1 5093   1.502   0.969   5.209
 1398SOL    HW2 5094   1.620   0.901   5.118
 1399SOL     OW 5095   3.392   6.491   1.488
 1399SOL    HW1 5096   3.357   6.537   1.406
 1399SOL    HW2 5097   3.483   6.453   1.469
 1400SOL     OW 5098   6.696   1.815   2.734
 1400SOL    HW1 5099   6.742   1.862   2.659
 1400SOL    HW2 5100   6.727   1.853   2.822
 1401SOL     OW 5101   0.493   1.809   5.347
 1401SOL    HW1 5102   0.505   1.744   5.272
 1401SOL    HW2 5103   0.577   1.815   5.400
 1402SOL     OW 5104   6.656   3.381   6.575
 1402SOL    HW1 5105   6.591   3.314   6.611
 1402SOL    HW2 5106   6.742   3.335   6.552
 1403SOL     OW 5107   3.318   0.766   2.072
 1403SOL    HW1 5108   3.379   0.816   2.010
 1403SOL    HW2 5109   3.228   0.809   2.070
 1404SOL     OW 5110   5.350   0.261   0.614
 1404SOL    HW1 5111   5.378   0.206   0.692
 1404SOL    HW2 5112   5.398   0.348   0.615
 1405SOL     OW 5113   1.705   3.935   0.778
 1405SOL    HW1 5114   1.627   3.974   0.829
 1405SOL    HW2 5115   1.769   4.008   0.755
 1406SOL     OW 5116   1.290   4.710   1.812
 1406SOL    HW1 5117   1.205   4.720   1.864
 1406SOL    HW2 5118   1.326   4.618   1.824
 1407SOL     OW 5119   0.382   1.176   2.013
 1407SOL    HW1 5120   0.420   1.225   1.934
 1407SOL    HW2 5121   0.283   1.189   2.016
 1408SOL     OW 5122   5.377   0.512   6.205
 1408SOL    HW1 5123   5.356   0.449   6.130
 1408SOL    HW2 5124   5.476   0.521   6.213
 1409SOL     OW 5125   0.398   6.906   5.292
 1409SOL    HW1 5126   0.486   6.920   5.337
 1409SOL    HW2 5127   0.401   6.945   5.200
 1410SOL     OW 5128   1.911   3.371   6.376
 1410SOL    HW1 5129   1.942   3.448   6.431
 1410SOL    HW2 5130   1.815   3.383   6.351
 1411SOL     OW 5131   2.662   6.272   2.945
 1411SOL    HW1 5132   2.580   6.286   3.002
 1411SOL    HW2 5133   2.660   6.336   2.868
 1412SOL     OW 5134   1.070   2.879   0.460
 1412SOL    HW1 5135   1.168   2.880   0.442
 1412SOL    HW2 5136   1.022   2.923   0.384
 1413SOL     OW 5137   2.109   0.649   4.975
 1413SOL    HW1 5138   2.073   0.603   4.893
 1413SOL    HW2 5139   2.048   0.723   5.001
 1414SOL     OW 5140   2.826   1.390   1.830
 1414SOL    HW1 5141   2.768   1.392   1.749
 1414SOL    HW2 5142   2.882   1.308   1.829
 1415SOL     OW 5143   2.267   6.979   4.275
 1415SOL    HW1 5144   2.321   6.898   4.250
 1415SOL    HW2 5145   2.170   6.954   4.280
 1416SOL     OW 5146   4.821   4.572   2.998
 1416SOL    HW1 5147   4.765   4.654   3.011
 1416SOL    HW2 5148   4.820   4.518   3.083
 1417SOL     OW 5149   2.541   2.280   6.581
 1417SOL    HW1 5150   2.618   2.317   6.633
 1417SOL    HW2 5151   2.458   2.331   6.604
 1418SOL     OW 5152   2.960   3.485   3.040
 1418SOL    HW1 5153   2.944   3.518   2.948
 1418SOL    HW2 5154   2.967   3.385   3.039
 1419SOL     OW 5155   3.219   6.618   4.568
 1419SOL    HW1 5156   3.308   6.604   4.524
 1419SOL    HW2 5157   3.226   6.688   4.639
 1420SOL     OW 5158   1.274   6.417   1.707
 1420SOL    HW1 5159   1.277   6.333   1.763
 1420SOL    HW2 5160   1.203   6.477   1.742
 1421SOL     OW 5161   1.910   3.002   2.874
 1421SOL    HW1 5162   1.883   3.095   2.899
 1421SOL    HW2 5163   1.828   2.947   2.861
 1422SOL     OW 5164   2.520   4.542   1.981
 1422SOL    HW1 5165   2.481   4.512   1.894
 1422SOL    HW2 5166   2.617   4.563   1.968
 1423SOL     OW 5167   5.544   6.422   2.196
 1423SOL    HW1 5168   5.593   6.417   2.109
 1423SOL    HW2 5169   5.456   6.467   2.182
 1424SOL     OW 5170   5.738   4.870   4.577
 1424SOL    HW1 5171   5.744   4.941   4.647
 1424SOL    HW2 5172   5.642   4.846   4.562
 1425SOL     OW 5173   1.390   6.198   4.045
 1425SOL    HW1 5174   1.474   6.237   4.083
 1425SOL    HW2 5175   1.378   6.231   3.951
 1426SOL     OW 5176   1.286   2.832   5.719
 1426SOL    HW1 5177   1.385   2.819   5.722
 1426SOL    HW2 5178   1.262   2.889   5.641
 1427SOL     OW 5179   6.949   6.897   3.096
 1427SOL    HW1 5180   7.001   6.960   3.038
 1427SOL    HW2 5181   6.965   6.804   3.065
 1428SOL     OW 5182   5.320   2.366   0.988
 1428SOL    HW1 5183   5.337   2.382   0.891
 1428SOL    HW2 5184   5.297   2.270   1.003
 1429SOL     OW 5185   6.090   2.187   0.220
 1429SOL    HW1 5186   6.173   2.159   0.172
 1429SOL    HW2 5187   6.059   2.275   0.183
 1430SOL     OW 5188   1.393   3.880   4.425
 1430SOL    HW1 5189   1.375   3.964   4.475
 1430SOL    HW2 5190   1.453   3.899   4.347
 1431SOL     OW 5191   2.422   2.034   1.684
 1431SOL    HW1 5192   2.494   1.979   1.643
 1431SOL    HW2 5193   2.363   1.975   1.740
 1432SOL     OW 5194   2.608   1.372   3.935
 1432SOL    HW1 5195   2.610   1.464   3.974
 1432SOL    HW2 5196   2.522   1.359   3.885
 1433SOL     OW 5197   4.364   1.514   4.677
 1433SOL    HW1 5198   4.348   1.488   4.582
 1433SOL    HW2 5199   4.356   1.613   4.686
 1434SOL     OW 5200   6.946   0.991   5.387
 1434SOL    HW1 5201   6.873   1.057   5.368
 1434SOL    HW2 5202   7.009   0.988   5.310
 1435SOL     OW 5203   5.989   1.209   2.403
 1435SOL    HW1 5204   6.055   1.169   2.339
 1435SOL    HW2 5205   6.004   1.171   2.494
 1436SOL     OW 5206   4.915   4.034   6.630
 1436SOL    HW1 5207   5.012   4.013   6.616
 1436SOL    HW2 5208   4.895   4.031   6.728
 1437SOL     OW 5209   2.511   2.240   4.163
 1437SOL    HW1 5210   2.432   2.229   4.103
 1437SOL    HW2 5211   2.503   2.178   4.241
 1438SOL     OW 5212   3.423   6.303   1.237
 1438SOL    HW1 5213   3.429   6.387   1.183
 1438SOL    HW2 5214   3.512   6.283   1.278
 1439SOL     OW 5215   6.991   6.186   2.114
 1439SOL    HW1 5216   6.974   6.215   2.208
 1439SOL    HW2 5217   0.043   6.119   2.113
 1440SOL     OW 5218   3.388   3.912   1.527
 1440SOL    HW1 5219   3.474   3.872   1.558
 1440SOL    HW2 5220   3.322   3.839   1.507
 1441SOL     OW 5221   6.413   0.896   1.991
 1441SOL    HW1 5222   6.381   0.936   1.905
 1441SOL    HW2 5223   6.384   0.801   1.997
 1442SOL     OW 5224   6.524   6.233   6.877
 1442SOL    HW1 5225   6.598   6.172   6.849
 1442SOL    HW2 5226   6.522   6.313   6.817
 1443SOL     OW 5227   0.534   2.724   2.332
 1443SOL    HW1 5228   0.585   2.787   2.273
 1443SOL    HW2 5229   0.451   2.768   2.365
 1444SOL     OW 5230   5.155   7.000   0.791
 1444SOL    HW1 5231   5.239   0.021   0.825
 1444SOL    HW2 5232   5.087   6.998   0.863
 1445SOL     OW 5233   0.772   3.225   2.875
 1445SOL    HW1 5234   0.763   3.240   2.777
 1445SOL    HW2 5235   0.682   3.226   2.917
 1446SOL     OW 5236   6.668   0.394   0.022
 1446SOL    HW1 5237   6.713   0.476   0.056
 1446SOL    HW2 5238   6.591   0.420   6.987
 1447SOL     OW 5239   5.739   5.108   3.142
 1447SOL    HW1 5240   5.765   5.065   3.228
 1447SOL    HW2 5241   5.639   5.112   3.136
 1448SOL     OW 5242   6.840   2.916   4.528
 1448SOL    HW1 5243   6.902   2.843   4.558
 1448SOL    HW2 5244   6.838   2.988   4.597
 1449SOL     OW 5245   1.742   3.984   5.607
 1449SOL    HW1 5246   1.691   4.062   5.570
 1449SOL    HW2 5247   1.760   3.918   5.534
 1450SOL     OW 5248   0.791   2.521   6.154
 1450SOL    HW1 5249   0.725   2.525   6.229
 1450SOL    HW2 5250   0.777   2.437   6.102
 1451SOL     OW 5251   1.119   6.250   2.030
 1451SOL    HW1 5252   1.209   6.205   2.028
 1451SOL    HW2 5253   1.129   6.341   2.069
 1452SOL     OW 5254   4.516   2.503   5.544
 1452SOL    HW1 5255   4.437   2.554   5.578
 1452SOL    HW2 5256   4.515   2.410   5.581
 1453SOL     OW 5257   0.612   4.485   5.380
 1453SOL    HW1 5258   0.557   4.509   5.460
 1453SOL    HW2 5259   0.630   4.387   5.380
 1454SOL     OW 5260   2.242   2.119   2.892
 1454SOL    HW1 5261   2.288   2.178   2.958
 1454SOL    HW2 5262   2.302   2.105   2.813
 1455SOL     OW 5263   1.708   6.232   2.658
 1455SOL    HW1 5264   1.665   6.196   2.741
 1455SOL    HW2 5265   1.638   6.246   2.588
 1456SOL     OW 5266   6.698   6.165   6.530
 1456SOL    HW1 5267   6.715   6.072   6.563
 1456SOL    HW2 5268   6.724   6.171   6.434
 1457SOL     OW 5269   0.299   4.203   0.866
 1457SOL    HW1 5270   0.242   4.123   0.885
 1457SOL    HW2 5271   0.274   4.241   0.777
 1458SOL     OW 5272   5.582   5.050   5.534
 1458SOL    HW1 5273   5.505   5.046   5.598
 1458SOL    HW2 5274   5.593   4.962   5.488
 1459SOL     OW 5275   4.301   6.533   6.054
 1459SOL    HW1 5276   4.244   6.553   5.974
 1459SOL    HW2 5277   4.268   6.451   6.099
 1460SOL     OW 5278   1.543   6.607   4.748
 1460SOL    HW1 5279   1.527   6.551   4.829
 1460SOL    HW2 5280   1.640   6.628   4.740
 1461SOL     OW 5281   0.581   3.498   3.163
 1461SOL    HW1 5282   0.485   3.522   3.180
 1461SOL    HW2 5283   0.630   3.580   3.133
 1462SOL     OW 5284   0.788   0.999   6.700
 1462SOL    HW1 5285   0.848   0.921   6.720
 1462SOL    HW2 5286   0.756   1.039   6.786
 1463SOL     OW 5287   1.397   5.268   5.947
 1463SOL    HW1 5288   1.444   5.186   5.914
 1463SOL    HW2 5289   1.434   5.293   6.037
 1464SOL     OW 5290   6.445   3.852   3.393
 1464SOL    HW1 5291   6.428   3.906   3.311
 1464SOL    HW2 5292   6.467   3.758   3.367
 1465SOL     OW 5293   1.533   1.777   3.593
 1465SOL    HW1 5294   1.624   1.774   3.634
 1465SOL    HW2 5295   1.521   1.699   3.532
 1466SOL     OW 5296   3.781   2.485   1.702
 1466SOL    HW1 5297   3.799   2.446   1.612
 1466SOL    HW2 5298   3.745   2.414   1.763
 1467SOL     OW 5299   1.621   1.226   4.055
 1467SOL    HW1 5300   1.555   1.300   4.045
 1467SOL    HW2 5301   1.645   1.215   4.151
 1468SOL     OW 5302   1.960   5.274   1.494
 1468SOL    HW1 5303   1.926   5.286   1.401
 1468SOL    HW2 5304   2.059   5.260   1.492
 1469SOL     OW 5305   6.944   6.141   3.151
 1469SOL    HW1 5306   6.990   6.225   3.180
 1469SOL    HW2 5307   6.944   6.137   3.051
 1470SOL     OW 5308   6.618   3.045   1.059
 1470SOL    HW1 5309   6.559   3.088   1.127
 1470SOL    HW2 5310   6.712   3.078   1.070
 1471SOL     OW 5311   0.373   0.416   0.524
 1471SOL    HW1 5312   0.473   0.419   0.527
 1471SOL    HW2 5313   0.343   0.342   0.465
 1472SOL     OW 5314   2.325   6.466   6.685
 1472SOL    HW1 5315   2.344   6.519   6.602
 1472SOL    HW2 5316   2.375   6.505   6.762
 1473SOL     OW 5317   3.241   5.121   4.612
 1473SOL    HW1 5318   3.282   5.122   4.703
 1473SOL    HW2 5319   3.182   5.200   4.601
 1474SOL     OW 5320   4.036   5.103   1.675
 1474SOL    HW1 5321   4.091   5.183   1.651
 1474SOL    HW2 5322   3.949   5.133   1.715
 1475SOL     OW 5323   5.222   1.479   0.288
 1475SOL    HW1 5324   5.210   1.386   0.323
 1475SOL    HW2 5325   5.215   1.479   0.188
 1476SOL     OW 5326   3.030   1.069   1.470
 1476SOL    HW1 5327   2.979   1.137   1.522
 1476SOL    HW2 5328   3.046   1.102   1.378
 1477SOL     OW 5329   4.321   7.020   0.208
 1477SOL    HW1 5330   4.415   6.995   0.232
 1477SOL    HW2 5331   4.290   0.071   0.267
 1478SOL     OW 5332   5.749   6.556   5.559
 1478SOL    HW1 5333   5.684   6.577   5.485
 1478SOL    HW2 5334   5.700   6.556   5.646
 1479SOL     OW 5335   3.579   3.630   2.341
 1479SOL    HW1 5336   3.516   3.641   2.417
 1479SOL    HW2 5337   3.561   3.701   2.272
 1480SOL     OW 5338   2.428   0.372   6.445
 1480SOL    HW1 5339   2.370   0.413   6.375
 1480SOL    HW2 5340   2.380   0.373   6.533
 1481SOL     OW 5341   5.918   2.256   5.592
 1481SOL    HW1 5342   5.831   2.228   5.633
 1481SOL    HW2 5343   5.923   2.222   5.498
 1482SOL     OW 5344   4.210   0.394   0.937
 1482SOL    HW1 5345   4.231   0.484   0.973
 1482SOL    HW2 5346   4.174   0.336   1.011
 1483SOL     OW 5347   4.842   1.895   5.519
 1483SOL    HW1 5348   4.855   1.991   5.494
 1483SOL    HW2 5349   4.889   1.836   5.454
 1484SOL     OW 5350   3.362   4.937   4.268
 1484SOL    HW1 5351   3.373   4.981   4.179
 1484SOL    HW2 5352   3.267   4.946   4.299
 1485SOL     OW 5353   5.224   1.157   3.389
 1485SOL    HW1 5354   5.126   1.158   3.366
 1485SOL    HW2 5355   5.274   1.108   3.318
 1486SOL     OW 5356   4.664   6.446   3.695
 1486SOL    HW1 5357   4.722   6.376   3.652
 1486SOL    HW2 5358   4.570   6.413   3.702
 1487SOL     OW 5359   0.161   0.883   0.038
 1487SOL    HW1 5360   0.233   0.893   0.107
 1487SOL    HW2 5361   0.124   0.973   0.016
 1488SOL     OW 5362   5.890   0.792   2.568
 1488SOL    HW1 5363   5.934   0.711   2.607
 1488SOL    HW2 5364   5.792   0.776   2.559
 1489SOL     OW 5365   3.622   4.730   6.776
 1489SOL    HW1 5366   3.665   4.792   6.710
 1489SOL    HW2 5367   3.686   4.657   6.799
 1490SOL     OW 5368   0.359   2.760   1.609
 1490SOL    HW1 5369   0.299   2.830   1.646
 1490SOL    HW2 5370   0.377   2.691   1.680
 1491SOL     OW 5371   6.292   3.820   2.307
 1491SOL    HW1 5372   6.327   3.727   2.300
 1491SOL    HW2 5373   6.364   3.880   2.341
 1492SOL     OW 5374   6.526   0.493   2.428
 1492SOL    HW1 5375   6.430   0.475   2.453
 1492SOL    HW2 5376   6.530   0.572   2.368
 1493SOL     OW 5377   4.292   1.217   6.104
 1493SOL    HW1 5378   4.352   1.168   6.042
 1493SOL    HW2 5379   4.209   1.244   6.055
 1494SOL     OW 5380   5.584   2.309   6.558
 1494SOL    HW1 5381   5.593   2.217   6.595
 1494SOL    HW2 5382   5.674   2.344   6.533
 1495SOL     OW 5383   6.110   3.545   3.580
 1495SOL    HW1 5384   6.134   3.585   3.668
 1495SOL    HW2 5385   6.118   3.614   3.508
 1496SOL     OW 5386   6.969   0.201   0.019
 1496SOL    HW1 5387   0.006   0.270   0.059
 1496SOL    HW2 5388   7.006   0.171   6.954
 1497SOL     OW 5389   5.154   2.576   2.698
 1497SOL    HW1 5390   5.157   2.477   2.705
 1497SOL    HW2 5391   5.131   2.615   2.788
 1498SOL     OW 5392   2.690   4.461   1.092
 1498SOL    HW1 5393   2.707   4.552   1.131
 1498SOL    HW2 5394   2.669   4.397   1.165
 1499SOL     OW 5395   0.552   3.740   5.534
 1499SOL    HW1 5396   0.525   3.646   5.554
 1499SOL    HW2 5397   0.566   3.790   5.619
 1500SOL     OW 5398   1.072   5.909   6.975
 1500SOL    HW1 5399   1.033   5.944   0.037
 1500SOL    HW2 5400   1.152   5.852   6.996
 1501SOL     OW 5401   6.272   1.622   6.691
 1501SOL    HW1 5402   6.266   1.534   6.739
 1501SOL    HW2 5403   6.364   1.634   6.654
 1502SOL     OW 5404   6.302   1.366   6.006
 1502SOL    HW1 5405   6.205   1.363   6.028
 1502SOL    HW2 5406   6.316   1.336   5.911
 1503SOL     OW 5407   0.754   3.193   2.573
 1503SOL    HW1 5408   0.716   3.101   2.575
 1503SOL    HW2 5409   0.853   3.188   2.561
 1504SOL     OW 5410   0.486   0.171   3.568
 1504SOL    HW1 5411   0.403   0.202   3.522
 1504SOL    HW2 5412   0.468   0.154   3.664
 1505SOL     OW 5413   5.681   6.345   5.756
 1505SOL    HW1 5414   5.688   6.295   5.669
 1505SOL    HW2 5415   5.772   6.374   5.785
 1506SOL     OW 5416   1.107   0.642   1.011
 1506SOL    HW1 5417   1.179   0.608   1.072
 1506SOL    HW2 5418   1.133   0.732   0.976
 1507SOL     OW 5419   1.292   1.646   4.507
 1507SOL    HW1 5420   1.359   1.674   4.576
 1507SOL    HW2 5421   1.322   1.560   4.466
 1508SOL     OW 5422   0.929   1.677   0.640
 1508SOL    HW1 5423   0.915   1.695   0.737
 1508SOL    HW2 5424   0.987   1.597   0.628
 1509SOL     OW 5425   5.202   1.240   5.104
 1509SOL    HW1 5426   5.252   1.227   5.018
 1509SOL    HW2 5427   5.222   1.165   5.166
 1510SOL     OW 5428   4.070   6.550   3.812
 1510SOL    HW1 5429   4.144   6.577   3.873
 1510SOL    HW2 5430   3.997   6.506   3.865
 1511SOL     OW 5431   3.090   3.834   4.243
 1511SOL    HW1 5432   3.139   3.808   4.160
 1511SOL    HW2 5433   3.133   3.916   4.281
 1512SOL     OW 5434   5.843   5.845   0.877
 1512SOL    HW1 5435   5.927   5.848   0.932
 1512SOL    HW2 5436   5.799   5.756   0.888
 1513SOL     OW 5437   3.498   6.875   5.472
 1513SOL    HW1 5438   3.425   6.941   5.488
 1513SOL    HW2 5439   3.531   6.840   5.560
 1514SOL     OW 5440   3.359   2.473   5.615
 1514SOL    HW1 5441   3.367   2.397   5.680
 1514SOL    HW2 5442   3.412   2.551   5.648
 1515SOL     OW 5443   6.450   2.030   2.604
 1515SOL    HW1 5444   6.530   2.080   2.572
 1515SOL    HW2 5445   6.461   1.932   2.584
 1516SOL     OW 5446   5.751   5.495   5.051
 1516SOL    HW1 5447   5.829   5.440   5.022
 1516SOL    HW2 5448   5.781   5.588   5.072
 1517SOL     OW 5449   3.762   6.470   3.520
 1517SOL    HW1 5450   3.844   6.526   3.521
 1517SOL    HW2 5451   3.782   6.381   3.478
 1518SOL     OW 5452   6.328   2.798   0.273
 1518SOL    HW1 5453   6.425   2.779   0.285
 1518SOL    HW2 5454   6.318   2.880   0.216
 1519SOL     OW 5455   6.943   5.222   0.923
 1519SOL    HW1 5456   6.874   5.213   0.851
 1519SOL    HW2 5457   6.979   5.131   0.946
 1520SOL     OW 5458   0.884   4.784   1.513
 1520SOL    HW1 5459   0.901   4.789   1.415
 1520SOL    HW2 5460   0.819   4.854   1.540
 1521SOL     OW 5461   2.439   4.456   0.405
 1521SOL    HW1 5462   2.458   4.450   0.503
 1521SOL    HW2 5463   2.464   4.370   0.361
 1522SOL     OW 5464   5.192   5.735   4.865
 1522SOL    HW1 5465   5.178   5.790   4.947
 1522SOL    HW2 5466   5.286   5.744   4.834
 1523SOL     OW 5467   3.788   6.941   6.293
 1523SOL    HW1 5468   3.784   6.862   6.355
 1523SOL    HW2 5469   3.852   7.009   6.330
 1524SOL     OW 5470   2.679   2.357   2.574
 1524SOL    HW1 5471   2.744   2.422   2.614
 1524SOL    HW2 5472   2.723   2.309   2.498
 1525SOL     OW 5473   5.932   2.818   0.958
 1525SOL    HW1 5474   5.958   2.810   0.862
 1525SOL    HW2 5475   5.842   2.777   0.972
 1526SOL     OW 5476   0.559   1.383   0.082
 1526SOL    HW1 5477   0.649   1.359   0.046
 1526SOL    HW2 5478   0.541   1.480   0.067
 1527SOL     OW 5479   3.659   1.150   4.810
 1527SOL    HW1 5480   3.639   1.066   4.760
 1527SOL    HW2 5481   3.757   1.167   4.809
 1528SOL     OW 5482   4.556   4.802   1.301
 1528SOL    HW1 5483   4.598   4.776   1.214
 1528SOL    HW2 5484   4.625   4.841   1.361
 1529SOL     OW 5485   5.507   1.285   0.030
 1529SOL    HW1 5486   5.460   1.368   0.058
 1529SOL    HW2 5487   5.516   1.224   0.108
 1530SOL     OW 5488   3.244   0.501   1.815
 1530SOL    HW1 5489   3.280   0.551   1.736
 1530SOL    HW2 5490   3.223   0.567   1.888
 1531SOL     OW 5491   4.325   0.084   4.321
 1531SOL    HW1 5492   4.268   0.157   4.358
 1531SOL    HW2 5493   4.420   0.096   4.353
 1532SOL     OW 5494   3.488   4.764   6.100
 1532SOL    HW1 5495   3.516   4.762   6.196
 1532SOL    HW2 5496   3.441   4.679   6.077
 1533SOL     OW 5497   6.013   5.861   0.654
 1533SOL    HW1 5498   5.960   5.828   0.575
 1533SOL    HW2 5499   5.953   5.869   0.733
 1534SOL     OW 5500   3.718   5.869   0.080
 1534SOL    HW1 5501   3.761   5.893   0.167
 1534SOL    HW2 5502   3.640   5.809   0.097
 1535SOL     OW 5503   5.904   6.153   4.623
 1535SOL    HW1 5504   5.958   6.093   4.682
 1535SOL    HW2 5505   5.914   6.124   4.527
 1536SOL     OW 5506   4.225   4.658   0.464
 1536SOL    HW1 5507   4.266   4.603   0.537
 1536SOL    HW2 5508   4.128   4.674   0.486
 1537SOL     OW 5509   3.595   5.426   3.723
 1537SOL    HW1 5510   3.647   5.457   3.803
 1537SOL    HW2 5511   3.573   5.504   3.665
 1538SOL     OW 5512   3.220   1.213   7.008
 1538SOL    HW1 5513   3.270   1.273   0.047
 1538SOL    HW2 5514   3.204   1.125   0.030
 1539SOL     OW 5515   4.930   3.215   2.053
 1539SOL    HW1 5516   4.872   3.135   2.071
 1539SOL    HW2 5517   5.018   3.184   2.017
 1540SOL     OW 5518   1.589   6.854   5.176
 1540SOL    HW1 5519   1.607   6.951   5.163
 1540SOL    HW2 5520   1.642   6.801   5.109
 1541SOL     OW 5521   3.805   3.430   4.659
 1541SOL    HW1 5522   3.888   3.458   4.610
 1541SOL    HW2 5523   3.820   3.340   4.700
 1542SOL     OW 5524   6.669   6.776   2.020
 1542SOL    HW1 5525   6.624   6.820   2.098
 1542SOL    HW2 5526   6.602   6.760   1.948
 1543SOL     OW 5527   3.333   5.661   6.535
 1543SOL    HW1 5528   3.392   5.741   6.539
 1543SOL    HW2 5529   3.381   5.586   6.490
 1544SOL     OW 5530   3.510   3.679   3.920
 1544SOL    HW1 5531   3.564   3.614   3.974
 1544SOL    HW2 5532   3.571   3.743   3.874
 1545SOL     OW 5533   6.339   0.631   1.981
 1545SOL    HW1 5534   6.301   0.562   1.919
 1545SOL    HW2 5535   6.328   0.601   2.075
 1546SOL     OW 5536   5.037   6.124   6.173
 1546SOL    HW1 5537   5.060   6.182   6.095
 1546SOL    HW2 5538   5.113   6.062   6.192
 1547SOL     OW 5539   1.458   4.087   0.798
 1547SOL    HW1 5540   1.415   4.131   0.720
 1547SOL    HW2 5541   1.391   4.075   0.871
 1548SOL     OW 5542   6.487   3.738   0.323
 1548SOL    HW1 5543   6.510   3.715   0.228
 1548SOL    HW2 5544   6.399   3.785   0.326
 1549SOL     OW 5545   4.187   1.345   4.022
 1549SOL    HW1 5546   4.161   1.417   3.957
 1549SOL    HW2 5547   4.251   1.383   4.089
 1550SOL     OW 5548   3.400   2.998   1.808
 1550SOL    HW1 5549   3.495   2.972   1.822
 1550SOL    HW2 5550   3.340   2.932   1.854
 1551SOL     OW 5551   1.215   5.082   6.827
 1551SOL    HW1 5552   1.223   5.178   6.800
 1551SOL    HW2 5553   1.248   5.023   6.753
 1552SOL     OW 5554   2.625   4.550   0.848
 1552SOL    HW1 5555   2.699   4.617   0.846
 1552SOL    HW2 5556   2.632   4.495   0.932
 1553SOL     OW 5557   0.086   1.196   6.025
 1553SOL    HW1 5558   0.079   1.240   6.114
 1553SOL    HW2 5559   0.040   1.108   6.028
 1554SOL     OW 5560   3.099   1.959   3.779
 1554SOL    HW1 5561   3.050   1.901   3.843
 1554SOL    HW2 5562   3.160   2.020   3.829
 1555SOL     OW 5563   5.775   2.748   6.557
 1555SOL    HW1 5564   5.754   2.814   6.629
 1555SOL    HW2 5565   5.719   2.768   6.477
 1556SOL     OW 5566   1.545   0.939   5.923
 1556SOL    HW1 5567   1.526   0.841   5.923
 1556SOL    HW2 5568   1.475   0.987   5.871
 1557SOL     OW 5569   1.814   4.040   6.046
 1557SOL    HW1 5570   1.771   4.077   6.128
 1557SOL    HW2 5571   1.905   4.079   6.035
 1558SOL     OW 5572   6.129   0.402   4.521
 1558SOL    HW1 5573   6.111   0.338   4.595
 1558SOL    HW2 5574   6.213   0.375   4.473
 1559SOL     OW 5575   1.229   3.181   6.660
 1559SOL    HW1 5576   1.262   3.213   6.571
 1559SOL    HW2 5577   1.199   3.086   6.652
 1560SOL     OW 5578   0.387   1.210   6.994
 1560SOL    HW1 5579   0.475   1.241   0.009
 1560SOL    HW2 5580   0.347   1.283   6.939
 1561SOL     OW 5581   4.484   6.093   3.183
 1561SOL    HW1 5582   4.446   6.001   3.187
 1561SOL    HW2 5583   4.545   6.100   3.104
 1562SOL     OW 5584   4.628   6.211   2.230
 1562SOL    HW1 5585   4.578   6.246   2.152
 1562SOL    HW2 5586   4.714   6.261   2.240
 1563SOL     OW 5587   3.437   0.628   5.926
 1563SOL    HW1 5588   3.501   0.702   5.945
 1563SOL    HW2 5589   3.401   0.592   6.012
 1564SOL     OW 5590   1.651   0.473   2.801
 1564SOL    HW1 5591   1.607   0.463   2.712
 1564SOL    HW2 5592   1.610   0.410   2.866
 1565SOL     OW 5593   4.779   4.347   2.557
 1565SOL    HW1 5594   4.847   4.403   2.510
 1565SOL    HW2 5595   4.734   4.286   2.491
 1566SOL     OW 5596   5.363   3.316   3.543
 1566SOL    HW1 5597   5.338   3.388   3.608
 1566SOL    HW2 5598   5.454   3.335   3.506
 1567SOL     OW 5599   6.048   6.193   6.938
 1567SOL    HW1 5600   6.006   6.281   6.962
 1567SOL    HW2 5601   6.147   6.200   6.946
 1568SOL     OW 5602   1.852   0.556   0.379
 1568SOL    HW1 5603   1.784   0.516   0.318
 1568SOL    HW2 5604   1.921   0.603   0.324
 1569SOL     OW 5605   4.565   5.783   3.792
 1569SOL    HW1 5606   4.571   5.880   3.816
 1569SOL    HW2 5607   4.617   5.729   3.858
 1570SOL     OW 5608   2.708   1.159   1.540
 1570SOL    HW1 5609   2.618   1.184   1.505
 1570SOL    HW2 5610   2.775   1.229   1.514
 1571SOL     OW 5611   6.252   3.212   0.830
 1571SOL    HW1 5612   6.335   3.265   0.846
 1571SOL    HW2 5613   6.172   3.264   0.862
 1572SOL     OW 5614   6.984   0.469   2.788
 1572SOL    HW1 5615   6.959   0.373   2.800
 1572SOL    HW2 5616   6.904   0.527   2.804
 1573SOL     OW 5617   5.236   6.896   1.721
 1573SOL    HW1 5618   5.299   6.928   1.792
 1573SOL    HW2 5619   5.149   6.944   1.731
 1574SOL     OW 5620   0.579   2.000   1.095
 1574SOL    HW1 5621   0.502   1.959   1.144
 1574SOL    HW2 5622   0.627   1.928   1.044
 1575SOL     OW 5623   2.932   2.308   0.353
 1575SOL    HW1 5624   2.867   2.235   0.333
 1575SOL    HW2 5625   2.939   2.320   0.452
 1576SOL     OW 5626   5.607   5.823   3.895
 1576SOL    HW1 5627   5.544   5.747   3.911
 1576SOL    HW2 5628   5.659   5.807   3.811
 1577SOL     OW 5629   2.604   1.628   5.381
 1577SOL    HW1 5630   2.666   1.655   5.454
 1577SOL    HW2 5631   2.517   1.598   5.420
 1578SOL     OW 5632   5.963   3.162   5.095
 1578SOL    HW1 5633   6.015   3.238   5.132
 1578SOL    HW2 5634   5.888   3.139   5.158
 1579SOL     OW 5635   0.198   1.238   3.297
 1579SOL    HW1 5636   0.201   1.336   3.279
 1579SOL    HW2 5637   0.290   1.200   3.293
 1580SOL     OW 5638   2.705   4.128   5.366
 1580SOL    HW1 5639   2.707   4.035   5.328
 1580SOL    HW2 5640   2.781   4.181   5.329
 1581SOL     OW 5641   5.952   4.439   4.282
 1581SOL    HW1 5642   5.972   4.520   4.227
 1581SOL    HW2 5643   5.866   4.452   4.331
 1582SOL     OW 5644   0.813   5.006   4.614
 1582SOL    HW1 5645   0.777   4.923   4.571
 1582SOL    HW2 5646   0.840   4.985   4.708
 1583SOL     OW 5647   2.244   3.067   3.746
 1583SOL    HW1 5648   2.198   2.983   3.777
 1583SOL    HW2 5649   2.229   3.140   3.813
 1584SOL     OW 5650   2.285   6.404   5.259
 1584SOL    HW1 5651   2.319   6.425   5.351
 1584SOL    HW2 5652   2.301   6.307   5.239
 1585SOL     OW 5653   5.315   2.210   3.247
 1585SOL    HW1 5654   5.241   2.161   3.294
 1585SOL    HW2 5655   5.289   2.306   3.235
 1586SOL     OW 5656   4.109   3.931   1.952
 1586SOL    HW1 5657   4.165   3.890   1.879
 1586SOL    HW2 5658   4.163   3.997   2.003
 1587SOL     OW 5659   2.599   5.952   6.691
 1587SOL    HW1 5660   2.598   5.856   6.661
 1587SOL    HW2 5661   2.681   5.968   6.747
 1588SOL     OW 5662   5.005   1.294   3.003
 1588SOL    HW1 5663   5.074   1.236   3.047
 1588SOL    HW2 5664   4.925   1.301   3.062
 1589SOL     OW 5665   5.660   4.006   3.424
 1589SOL    HW1 5666   5.755   4.034   3.410
 1589SOL    HW2 5667   5.612   4.078   3.476
 1590SOL     OW 5668   1.743   6.561   6.952
 1590SOL    HW1 5669   1.802   6.640   6.969
 1590SOL    HW2 5670   1.776   6.511   6.871
 1591SOL     OW 5671   1.072   4.682   2.487
 1591SOL    HW1 5672   1.050   4.588   2.460
 1591SOL    HW2 5673   1.014   4.746   2.438
 1592SOL     OW 5674   3.267   3.098   1.571
 1592SOL    HW1 5675   3.306   3.069   1.659
 1592SOL    HW2 5676   3.287   3.028   1.502
 1593SOL     OW 5677   1.012   6.255   4.971
 1593SOL    HW1 5678   1.044   6.350   4.974
 1593SOL    HW2 5679   1.063   6.200   5.037
 1594SOL     OW 5680   0.040   5.304   3.071
 1594SOL    HW1 5681   0.097   5.287   2.991
 1594SOL    HW2 5682   0.058   5.234   3.141
 1595SOL     OW 5683   0.238   4.939   6.815
 1595SOL    HW1 5684   0.167   4.965   6.881
 1595SOL    HW2 5685   0.318   4.998   6.827
 1596SOL     OW 5686   1.835   4.325   5.484
 1596SOL    HW1 5687   1.833   4.287   5.391
 1596SOL    HW2 5688   1.929   4.340   5.512
 1597SOL     OW 5689   2.207   6.331   1.541
 1597SOL    HW1 5690   2.173   6.425   1.544
 1597SOL    HW2 5691   2.257   6.310   1.624
 1598SOL     OW 5692   1.032   4.194   0.293
 1598SOL    HW1 5693   0.959   4.173   0.358
 1598SOL    HW2 5694   1.008   4.157   0.203
 1599SOL     OW 5695   3.977   4.248   6.801
 1599SOL    HW1 5696   3.939   4.163   6.764
 1599SOL    HW2 5697   3.957   4.253   6.899
 1600SOL     OW 5698   5.497   1.622   5.273
 1600SOL    HW1 5699   5.444   1.702   5.244
 1600SOL    HW2 5700   5.434   1.549   5.301
 1601SOL     OW 5701   1.931   4.657   4.465
 1601SOL    HW1 5702   1.845   4.606   4.477
 1601SOL    HW2 5703   2.000   4.597   4.425
 1602SOL     OW 5704   1.381   6.008   3.201
 1602SOL    HW1 5705   1.477   6.008   3.175
 1602SOL    HW2 5706   1.334   5.931   3.156
 1603SOL     OW 5707   1.148   6.605   1.851
 1603SOL    HW1 5708   1.049   6.598   1.866
 1603SOL    HW2 5709   1.192   6.630   1.937
 1604SOL     OW 5710   6.165   5.525   6.702
 1604SOL    HW1 5711   6.181   5.545   6.799
 1604SOL    HW2 5712   6.158   5.426   6.690
 1605SOL     OW 5713   6.493   0.467   2.867
 1605SOL    HW1 5714   6.438   0.402   2.814
 1605SOL    HW2 5715   6.575   0.491   2.815
 1606SOL     OW 5716   4.700   6.892   5.891
 1606SOL    HW1 5717   4.729   6.985   5.870
 1606SOL    HW2 5718   4.618   6.870   5.837
 1607SOL     OW 5719   4.066   2.383   0.609
 1607SOL    HW1 5720   4.000   2.315   0.576
 1607SOL    HW2 5721   4.121   2.342   0.682
 1608SOL     OW 5722   1.867   6.839   6.882
 1608SOL    HW1 5723   1.952   6.794   6.910
 1608SOL    HW2 5724   1.849   6.818   6.786
 1609SOL     OW 5725   6.343   2.358   6.201
 1609SOL    HW1 5726   6.419   2.322   6.147
 1609SOL    HW2 5727   6.292   2.282   6.241
 1610SOL     OW 5728   5.260   4.907   4.962
 1610SOL    HW1 5729   5.202   4.982   4.930
 1610SOL    HW2 5730   5.218   4.820   4.939
 1611SOL     OW 5731   3.844   2.975   2.199
 1611SOL    HW1 5732   3.877   2.897   2.146
 1611SOL    HW2 5733   3.799   3.040   2.138
 1612SOL     OW 5734   2.221   1.894   5.077
 1612SOL    HW1 5735   2.167   1.974   5.049
 1612SOL    HW2 5736   2.282   1.920   5.152
 1613SOL     OW 5737   1.791   6.287   0.711
 1613SOL    HW1 5738   1.870   6.279   0.650
 1613SOL    HW2 5739   1.716   6.231   0.675
 1614SOL     OW 5740   6.629   2.809   6.893
 1614SOL    HW1 5741   6.688   2.802   6.813
 1614SOL    HW2 5742   6.616   2.719   6.933
 1615SOL     OW 5743   0.028   4.504   6.708
 1615SOL    HW1 5744   6.958   4.534   6.732
 1615SOL    HW2 5745   0.036   4.496   6.609
 1616SOL     OW 5746   4.559   2.318   6.478
 1616SOL    HW1 5747   4.531   2.386   6.545
 1616SOL    HW2 5748   4.478   2.281   6.432
 1617SOL     OW 5749   6.260   1.012   2.540
 1617SOL    HW1 5750   6.328   1.074   2.499
 1617SOL    HW2 5751   6.306   0.948   2.601
 1618SOL     OW 5752   6.913   3.419   1.592
 1618SOL    HW1 5753   6.985   3.486   1.572
 1618SOL    HW2 5754   6.835   3.465   1.636
 1619SOL     OW 5755   0.553   3.838   3.939
 1619SOL    HW1 5756   0.585   3.796   3.854
 1619SOL    HW2 5757   0.469   3.889   3.921
 1620SOL     OW 5758   1.755   6.030   1.310
 1620SOL    HW1 5759   1.658   6.045   1.291
 1620SOL    HW2 5760   1.774   6.048   1.407
 1621SOL     OW 5761   0.766   0.535   7.005
 1621SOL    HW1 5762   0.721   0.525   0.071
 1621SOL    HW2 5763   0.697   0.560   6.936
 1622SOL     OW 5764   1.858   2.251   4.336
 1622SOL    HW1 5765   1.859   2.315   4.259
 1622SOL    HW2 5766   1.911   2.289   4.412
 1623SOL     OW 5767   2.435   3.205   6.495
 1623SOL    HW1 5768   2.482   3.268   6.434
 1623SOL    HW2 5769   2.427   3.245   6.586
 1624SOL     OW 5770   3.083   0.888   6.536
 1624SOL    HW1 5771   3.000   0.925   6.494
 1624SOL    HW2 5772   3.094   0.793   6.507
 1625SOL     OW 5773   0.432   4.667   1.915
 1625SOL    HW1 5774   0.344   4.625   1.937
 1625SOL    HW2 5775   0.472   4.705   1.998
 1626SOL     OW 5776   2.555   2.905   6.773
 1626SOL    HW1 5777   2.491   2.979   6.793
 1626SOL    HW2 5778   2.635   2.942   6.726
 1627SOL     OW 5779   6.188   2.276   3.532
 1627SOL    HW1 5780   6.142   2.190   3.555
 1627SOL    HW2 5781   6.180   2.340   3.608
 1628SOL     OW 5782   3.284   5.081   1.080
 1628SOL    HW1 5783   3.186   5.068   1.094
 1628SOL    HW2 5784   3.328   4.992   1.071
 1629SOL     OW 5785   3.197   2.036   4.596
 1629SOL    HW1 5786   3.255   2.088   4.534
 1629SOL    HW2 5787   3.214   1.938   4.583
 1630SOL     OW 5788   0.556   5.190   5.314
 1630SOL    HW1 5789   0.478   5.189   5.252
 1630SOL    HW2 5790   0.578   5.284   5.339
 1631SOL     OW 5791   6.965   0.327   5.968
 1631SOL    HW1 5792   6.957   0.424   5.948
 1631SOL    HW2 5793   6.967   0.313   6.067
 1632SOL     OW 5794   0.727   1.053   6.964
 1632SOL    HW1 5795   0.739   0.998   0.024
 1632SOL    HW2 5796   0.740   1.150   6.987
 1633SOL     OW 5797   5.557   2.091   2.869
 1633SOL    HW1 5798   5.621   2.069   2.796
 1633SOL    HW2 5799   5.605   2.138   2.943
 1634SOL     OW 5800   3.329   5.433   6.734
 1634SOL    HW1 5801   3.255   5.371   6.761
 1634SOL    HW2 5802   3.290   5.512   6.685
 1635SOL     OW 5803   0.194   5.553   4.280
 1635SOL    HW1 5804   0.230   5.484   4.343
 1635SOL    HW2 5805   0.094   5.545   4.276
 1636SOL     OW 5806   2.585   5.125   1.208
 1636SOL    HW1 5807   2.552   5.063   1.279
 1636SOL    HW2 5808   2.568   5.083   1.118
 1637SOL     OW 5809   0.069   2.950   2.440
 1637SOL    HW1 5810   0.057   2.987   2.532
 1637SOL    HW2 5811   7.014   2.891   2.418
 1638SOL     OW 5812   0.123   3.499   3.591
 1638SOL    HW1 5813   0.147   3.469   3.683
 1638SOL    HW2 5814   0.106   3.418   3.534
 1639SOL     OW 5815   5.159   5.587   2.753
 1639SOL    HW1 5816   5.256   5.585   2.779
 1639SOL    HW2 5817   5.116   5.501   2.779
 1640SOL     OW 5818   6.025   1.993   0.617
 1640SOL    HW1 5819   6.011   2.063   0.687
 1640SOL    HW2 5820   5.990   2.025   0.529
 1641SOL     OW 5821   5.605   2.766   3.680
 1641SOL    HW1 5822   5.703   2.783   3.691
 1641SOL    HW2 5823   5.570   2.724   3.764
 1642SOL     OW 5824   6.744   2.948   0.080
 1642SOL    HW1 5825   6.787   2.887   0.146
 1642SOL    HW2 5826   6.722   2.897   7.019
 1643SOL     OW 5827   3.723   6.439   5.077
 1643SOL    HW1 5828   3.749   6.429   4.980
 1643SOL    HW2 5829   3.653   6.510   5.085
 1644SOL     OW 5830   3.618   1.617   1.389
 1644SOL    HW1 5831   3.565   1.688   1.434
 1644SOL    HW2 5832   3.681   1.658   1.323
 1645SOL     OW 5833   2.914   5.959   5.809
 1645SOL    HW1 5834   2.861   6.034   5.849
 1645SOL    HW2 5835   2.965   5.912   5.881
 1646SOL     OW 5836   2.207   5.100   1.190
 1646SOL    HW1 5837   2.163   5.165   1.127
 1646SOL    HW2 5838   2.295   5.072   1.153
 1647SOL     OW 5839   5.988   2.589   3.505
 1647SOL    HW1 5840   6.083   2.601   3.535
 1647SOL    HW2 5841   5.980   2.616   3.409
 1648SOL     OW 5842   5.377   6.975   1.941
 1648SOL    HW1 5843   5.392   6.916   2.020
 1648SOL    HW2 5844   5.465   7.005   1.905
 1649SOL     OW 5845   3.173   0.600   2.930
 1649SOL    HW1 5846   3.112   0.653   2.871
 1649SOL    HW2 5847   3.263   0.594   2.887
 1650SOL     OW 5848   3.018   0.414   4.185
 1650SOL    HW1 5849   2.963   0.357   4.247
 1650SOL    HW2 5850   2.994   0.510   4.199
 1651SOL     OW 5851   0.056   0.386   0.195
 1651SOL    HW1 5852   0.017   0.336   0.273
 1651SOL    HW2 5853   0.086   0.476   0.224
 1652SOL     OW 5854   2.983   2.307   0.598
 1652SOL    HW1 5855   2.913   2.258   0.650
 1652SOL    HW2 5856   3.066   2.314   0.653
 1653SOL     OW 5857   7.019   5.491   0.821
 1653SOL    HW1 5858   6.981   5.407   0.862
 1653SOL    HW2 5859   6.950   5.533   0.762
 1654SOL     OW 5860   6.733   3.145   3.017
 1654SOL    HW1 5861   6.706   3.153   2.921
 1654SOL    HW2 5862   6.656   3.111   3.071
 1655SOL     OW 5863   5.607   4.245   6.055
 1655SOL    HW1 5864   5.527   4.291   6.093
 1655SOL    HW2 5865   5.657   4.307   5.995
 1656SOL     OW 5866   0.931   4.877   3.682
 1656SOL    HW1 5867   0.832   4.865   3.685
 1656SOL    HW2 5868   0.968   4.832   3.601
 1657SOL     OW 5869   1.434   0.898   5.462
 1657SOL    HW1 5870   1.479   0.985   5.445
 1657SOL    HW2 5871   1.502   0.825   5.462
 1658SOL     OW 5872   5.982   6.213   3.087
 1658SOL    HW1 5873   6.033   6.254   3.012
 1658SOL    HW2 5874   5.988   6.113   3.081
 1659SOL     OW 5875   3.674   2.031   6.811
 1659SOL    HW1 5876   3.672   1.952   6.873
 1659SOL    HW2 5877   3.642   2.003   6.720
 1660SOL     OW 5878   0.720   5.652   3.523
 1660SOL    HW1 5879   0.759   5.732   3.476
 1660SOL    HW2 5880   0.790   5.610   3.581
 1661SOL     OW 5881   3.465   1.823   2.942
 1661SOL    HW1 5882   3.436   1.805   2.848
 1661SOL    HW2 5883   3.493   1.919   2.950
 1662SOL     OW 5884   6.504   2.322   3.293
 1662SOL    HW1 5885   6.437   2.379   3.244
 1662SOL    HW2 5886   6.566   2.280   3.227
 1663SOL     OW 5887   3.114   6.595   3.285
 1663SOL    HW1 5888   3.027   6.571   3.329
 1663SOL    HW2 5889   3.178   6.627   3.354
 1664SOL     OW 5890   1.698   0.365   4.359
 1664SOL    HW1 5891   1.779   0.395   4.410
 1664SOL    HW2 5892   1.621   0.357   4.422
 1665SOL     OW 5893   1.135   1.565   2.482
 1665SOL    HW1 5894   1.233   1.587   2.487
 1665SOL    HW2 5895   1.124   1.466   2.474
 1666SOL     OW 5896   6.060   2.176   6.040
 1666SOL    HW1 5897   6.069   2.252   6.105
 1666SOL    HW2 5898   6.106   2.095   6.076
 1667SOL     OW 5899   6.208   6.635   6.772
 1667SOL    HW1 5900   6.265   6.703   6.725
 1667SOL    HW2 5901   6.177   6.567   6.706
 1668SOL     OW 5902   4.578   0.116   4.437
 1668SOL    HW1 5903   4.644   0.157   4.374
 1668SOL    HW2 5904   4.625   0.056   4.501
 1669SOL     OW 5905   5.747   6.420   6.794
 1669SOL    HW1 5906   5.839   6.436   6.832
 1669SOL    HW2 5907   5.753   6.356   6.718
 1670SOL     OW 5908   6.156   4.992   5.738
 1670SOL    HW1 5909   6.136   4.904   5.780
 1670SOL    HW2 5910   6.217   4.978   5.660
 1671SOL     OW 5911   4.488   3.545   0.783
 1671SOL    HW1 5912   4.537   3.559   0.697
 1671SOL    HW2 5913   4.527   3.465   0.830
 1672SOL     OW 5914   2.172   4.039   2.540
 1672SOL    HW1 5915   2.119   3.956   2.527
 1672SOL    HW2 5916   2.222   4.061   2.456
 1673SOL     OW 5917   6.425   3.326   4.640
 1673SOL    HW1 5918   6.427   3.247   4.702
 1673SOL    HW2 5919   6.440   3.409   4.693
 1674SOL     OW 5920   1.015   3.957   0.711
 1674SOL    HW1 5921   0.968   3.906   0.639
 1674SOL    HW2 5922   1.061   4.036   0.671
 1675SOL     OW 5923   4.938   1.016   6.755
 1675SOL    HW1 5924   4.983   0.948   6.697
 1675SOL    HW2 5925   4.839   1.002   6.752
 1676SOL     OW 5926   2.613   1.327   2.686
 1676SOL    HW1 5927   2.611   1.419   2.647
 1676SOL    HW2 5928   2.649   1.331   2.779
 1677SOL     OW 5929   5.951   1.580   5.460
 1677SOL    HW1 5930   5.865   1.629   5.448
 1677SOL    HW2 5931   5.992   1.562   5.371
 1678SOL     OW 5932   5.264   5.799   2.513
 1678SOL    HW1 5933   5.184   5.803   2.573
 1678SOL    HW2 5934   5.312   5.712   2.526
 1679SOL     OW 5935   0.958   3.274   5.531
 1679SOL    HW1 5936   1.055   3.298   5.527
 1679SOL    HW2 5937   0.912   3.336   5.595
 1680SOL     OW 5938   0.603   1.496   3.898
 1680SOL    HW1 5939   0.610   1.428   3.825
 1680SOL    HW2 5940   0.654   1.463   3.978
 1681SOL     OW 5941   6.152   5.368   1.059
 1681SOL    HW1 5942   6.215   5.375   1.137
 1681SOL    HW2 5943   6.116   5.458   1.037
 1682SOL     OW 5944   0.059   2.930   4.702
 1682SOL    HW1 5945   0.149   2.924   4.744
 1682SOL    HW2 5946   0.037   3.025   4.682
 1683SOL     OW 5947   4.678   5.085   1.332
 1683SOL    HW1 5948   4.707   5.181   1.337
 1683SOL    HW2 5949   4.736   5.029   1.390
 1684SOL     OW 5950   0.677   6.894   4.806
 1684SOL    HW1 5951   0.640   6.987   4.813
 1684SOL    HW2 5952   0.689   6.856   4.898
 1685SOL     OW 5953   1.927   1.562   6.716
 1685SOL    HW1 5954   1.945   1.592   6.623
 1685SOL    HW2 5955   1.917   1.463   6.719
 1686SOL     OW 5956   1.439   5.503   5.017
 1686SOL    HW1 5957   1.510   5.457   4.964
 1686SOL    HW2 5958   1.437   5.465   5.109
 1687SOL     OW 5959   1.826   4.372   2.484
 1687SOL    HW1 5960   1.820   4.370   2.584
 1687SOL    HW2 5961   1.920   4.352   2.456
 1688SOL     OW 5962   1.279   1.535   3.113
 1688SOL    HW1 5963   1.268   1.552   3.015
 1688SOL    HW2 5964   1.369   1.566   3.143
 1689SOL     OW 5965   3.023   2.103   2.282
 1689SOL    HW1 5966   3.120   2.095   2.306
 1689SOL    HW2 5967   3.015   2.123   2.184
 1690SOL     OW 5968   2.034   1.671   2.255
 1690SOL    HW1 5969   1.941   1.645   2.227
 1690SOL    HW2 5970   2.035   1.767   2.281
 1691SOL     OW 5971   4.930   3.631   3.237
 1691SOL    HW1 5972   4.970   3.716   3.201
 1691SOL    HW2 5973   4.854   3.604   3.179
 1692SOL     OW 5974   0.261   0.079   1.552
 1692SOL    HW1 5975   0.359   0.065   1.566
 1692SOL    HW2 5976   0.232   0.164   1.597
 1693SOL     OW 5977   2.244   2.909   3.199
 1693SOL    HW1 5978   2.150   2.887   3.227
 1693SOL    HW2 5979   2.302   2.828   3.210
 1694SOL     OW 5980   4.161   5.512   4.872
 1694SOL    HW1 5981   4.196   5.474   4.787
 1694SOL    HW2 5982   4.238   5.537   4.932
 1695SOL     OW 5983   2.387   2.312   5.594
 1695SOL    HW1 5984   2.371   2.307   5.692
 1695SOL    HW2 5985   2.399   2.220   5.557
 1696SOL     OW 5986   4.956   5.618   0.446
 1696SOL    HW1 5987   4.908   5.587   0.363
 1696SOL    HW2 5988   5.013   5.544   0.480
 1697SOL     OW 5989   1.050   0.147   1.590
 1697SOL    HW1 5990   1.059   0.104   1.500
 1697SOL    HW2 5991   1.127   0.121   1.648
 1698SOL     OW 5992   5.043   2.144   1.864
 1698SOL    HW1 5993   5.099   2.212   1.913
 1698SOL    HW2 5994   4.955   2.135   1.911
 1699SOL     OW 5995   2.560   2.995   1.022
 1699SOL    HW1 5996   2.598   2.907   0.996
 1699SOL    HW2 5997   2.542   2.996   1.121
 1700SOL     OW 5998   6.584   2.355   2.844
 1700SOL    HW1 5999   6.662   2.338   2.783
 1700SOL    HW2 6000   6.520   2.418   2.799
 1701SOL     OW 6001   5.672   2.600   4.937
 1701SOL    HW1 6002   5.647   2.603   5.033
 1701SOL    HW2 6003   5.747   2.534   4.923
 1702SOL     OW 6004   5.937   3.576   1.225
 1702SOL    HW1 6005   5.858   3.532   1.268
 1702SOL    HW2 6006   6.014   3.577   1.289
 1703SOL     OW 6007   3.025   3.819   1.381
 1703SOL    HW1 6008   3.073   3.891   1.432
 1703SOL    HW2 6009   3.015   3.738   1.439
 1704SOL     OW 6010   0.287   1.416   0.923
 1704SOL    HW1 6011   0.221   1.410   0.998
 1704SOL    HW2 6012   0.242   1.391   0.838
 1705SOL     OW 6013   3.929   2.342   1.194
 1705SOL    HW1 6014   3.958   2.435   1.176
 1705SOL    HW2 6015   3.830   2.335   1.184
 1706SOL     OW 6016   4.150   0.583   0.727
 1706SOL    HW1 6017   4.198   0.665   0.760
 1706SOL    HW2 6018   4.175   0.505   0.785
 1707SOL     OW 6019   4.782   1.892   2.339
 1707SOL    HW1 6020   4.874   1.856   2.353
 1707SOL    HW2 6021   4.760   1.957   2.413
 1708SOL     OW 6022   6.731   5.953   2.763
 1708SOL    HW1 6023   6.703   6.002   2.681
 1708SOL    HW2 6024   6.764   6.018   2.831
 1709SOL     OW 6025   2.425   0.102   2.168
 1709SOL    HW1 6026   2.446   0.044   2.246
 1709SOL    HW2 6027   2.486   0.181   2.167
 1710SOL     OW 6028   0.273   4.372   3.701
 1710SOL    HW1 6029   0.328   4.289   3.686
 1710SOL    HW2 6030   0.309   4.446   3.644
 1711SOL     OW 6031   1.423   4.462   5.266
 1711SOL    HW1 6032   1.518   4.431   5.261
 1711SOL    HW2 6033   1.387   4.445   5.358
 1712SOL     OW 6034   0.845   4.067   0.450
 1712SOL    HW1 6035   0.859   3.983   0.504
 1712SOL    HW2 6036   0.812   4.139   0.510
 1713SOL     OW 6037   1.887   2.458   1.546
 1713SOL    HW1 6038   1.797   2.493   1.572
 1713SOL    HW2 6039   1.954   2.532   1.549
 1714SOL     OW 6040   4.100   1.845   6.531
 1714SOL    HW1 6041   4.100   1.852   6.431
 1714SOL    HW2 6042   4.166   1.775   6.559
 1715SOL     OW 6043   0.599   3.026   3.138
 1715SOL    HW1 6044   0.688   2.984   3.121
 1715SOL    HW2 6045   0.595   3.115   3.093
 1716SOL     OW 6046   6.107   0.201   1.239
 1716SOL    HW1 6047   6.183   0.260   1.268
 1716SOL    HW2 6048   6.143   0.124   1.187
 1717SOL     OW 6049   2.328   6.404   0.488
 1717SOL    HW1 6050   2.362   6.323   0.535
 1717SOL    HW2 6051   2.392   6.480   0.500
 1718SOL     OW 6052   1.985   3.971   6.927
 1718SOL    HW1 6053   1.894   4.011   6.942
 1718SOL    HW2 6054   2.055   4.041   6.939
 1719SOL     OW 6055   2.354   3.181   1.408
 1719SOL    HW1 6056   2.398   3.091   1.413
 1719SOL    HW2 6057   2.394   3.234   1.334
 1720SOL     OW 6058   6.817   1.606   0.830
 1720SOL    HW1 6059   6.799   1.628   0.734
 1720SOL    HW2 6060   6.750   1.654   0.888
 1721SOL     OW 6061   1.625   6.538   3.357
 1721SOL    HW1 6062   1.724   6.530   3.360
 1721SOL    HW2 6063   1.584   6.447   3.364
 1722SOL     OW 6064   5.844   0.422   2.115
 1722SOL    HW1 6065   5.935   0.431   2.074
 1722SOL    HW2 6066   5.774   0.436   2.045
 1723SOL     OW 6067   6.465   2.108   2.864
 1723SOL    HW1 6068   6.528   2.184   2.848
 1723SOL    HW2 6069   6.444   2.064   2.776
 1724SOL     OW 6070   5.792   0.827   0.404
 1724SOL    HW1 6071   5.735   0.869   0.474
 1724SOL    HW2 6072   5.793   0.883   0.322
 1725SOL     OW 6073   3.796   4.613   0.729
 1725SOL    HW1 6074   3.839   4.568   0.651
 1725SOL    HW2 6075   3.779   4.709   0.707
 1726SOL     OW 6076   6.560   4.409   4.583
 1726SOL    HW1 6077   6.611   4.339   4.633
 1726SOL    HW2 6078   6.547   4.489   4.642
 1727SOL     OW 6079   3.880   3.511   5.046
 1727SOL    HW1 6080   3.912   3.519   4.951
 1727SOL    HW2 6081   3.938   3.446   5.095
 1728SOL     OW 6082   5.013   4.505   4.302
 1728SOL    HW1 6083   5.042   4.479   4.394
 1728SOL    HW2 6084   5.026   4.427   4.240
 1729SOL     OW 6085   1.186   3.784   3.378
 1729SOL    HW1 6086   1.186   3.772   3.477
 1729SOL    HW2 6087   1.098   3.821   3.349
 1730SOL     OW 6088   6.613   1.332   4.769
 1730SOL    HW1 6089   6.532   1.277   4.787
 1730SOL    HW2 6090   6.675   1.281   4.708
 1731SOL     OW 6091   2.287   5.089   1.676
 1731SOL    HW1 6092   2.225   5.011   1.678
 1731SOL    HW2 6093   2.380   5.058   1.701
 1732SOL     OW 6094   1.701   5.028   0.156
 1732SOL    HW1 6095   1.789   4.987   0.129
 1732SOL    HW2 6096   1.715   5.124   0.178
 1733SOL     OW 6097   1.204   3.909   2.077
 1733SOL    HW1 6098   1.296   3.882   2.105
 1733SOL    HW2 6099   1.142   3.831   2.085
 1734SOL     OW 6100   4.510   3.291   0.894
 1734SOL    HW1 6101   4.519   3.309   0.992
 1734SOL    HW2 6102   4.437   3.225   0.879
 1735SOL     OW 6103   6.249   5.483   1.612
 1735SOL    HW1 6104   6.195   5.400   1.624
 1735SOL    HW2 6105   6.200   5.560   1.652
 1736SOL     OW 6106   3.816   3.224   6.965
 1736SOL    HW1 6107   3.770   3.311   6.987
 1736SOL    HW2 6108   3.796   3.157   0.014
 1737SOL     OW 6109   2.237   0.498   4.155
 1737SOL    HW1 6110   2.297   0.555   4.100
 1737SOL    HW2 6111   2.153   0.478   4.105
 1738SOL     OW 6112   2.036   2.746   2.495
 1738SOL    HW1 6113   1.946   2.787   2.481
 1738SOL    HW2 6114   2.099   2.781   2.426
 1739SOL     OW 6115   4.336   2.297   4.828
 1739SOL    HW1 6116   4.425   2.336   4.804
 1739SOL    HW2 6117   4.289   2.358   4.892
 1740SOL     OW 6118   0.445   0.969   6.866
 1740SOL    HW1 6119   0.540   0.978   6.895
 1740SOL    HW2 6120   0.393   1.048   6.899
 1741SOL     OW 6121   2.279   0.862   2.407
 1741SOL    HW1 6122   2.374   0.882   2.430
 1741SOL    HW2 6123   2.218   0.912   2.468
 1742SOL     OW 6124   5.314   6.909   5.315
 1742SOL    HW1 6125   5.218   6.881   5.324
 1742SOL    HW2 6126   5.322   7.007   5.332
 1743SOL     OW 6127   2.308   0.894   1.895
 1743SOL    HW1 6128   2.362   0.940   1.825
 1743SOL    HW2 6129   2.264   0.962   1.953
 1744SOL     OW 6130   2.164   0.826   1.659
 1744SOL    HW1 6131   2.188   0.831   1.756
 1744SOL    HW2 6132   2.116   0.741   1.641
 1745SOL     OW 6133   0.044   1.964   3.612
 1745SOL    HW1 6134   0.105   1.903   3.664
 1745SOL    HW2 6135   7.002   1.909   3.559
 1746SOL     OW 6136   2.919   6.624   6.563
 1746SOL    HW1 6137   3.012   6.658   6.549
 1746SOL    HW2 6138   2.910   6.588   6.656
 1747SOL     OW 6139   4.522   0.184   1.890
 1747SOL    HW1 6140   4.481   0.097   1.917
 1747SOL    HW2 6141   4.609   0.196   1.937
 1748SOL     OW 6142   6.200   1.938   3.652
 1748SOL    HW1 6143   6.190   1.841   3.631
 1748SOL    HW2 6144   6.114   1.985   3.635
 1749SOL     OW 6145   3.975   6.572   6.693
 1749SOL    HW1 6146   4.014   6.660   6.665
 1749SOL    HW2 6147   3.891   6.555   6.641
 1750SOL     OW 6148   5.641   1.172   2.945
 1750SOL    HW1 6149   5.739   1.154   2.943
 1750SOL    HW2 6150   5.593   1.105   2.888
 1751SOL     OW 6151   2.307   4.874   4.576
 1751SOL    HW1 6152   2.313   4.878   4.676
 1751SOL    HW2 6153   2.211   4.871   4.549
 1752SOL     OW 6154   6.539   2.135   0.624
 1752SOL    HW1 6155   6.511   2.172   0.535
 1752SOL    HW2 6156   6.457   2.110   0.677
 1753SOL     OW 6157   0.798   0.152   6.757
 1753SOL    HW1 6158   0.860   0.075   6.769
 1753SOL    HW2 6159   0.780   0.164   6.659
 1754SOL     OW 6160   3.810   3.762   0.768
 1754SOL    HW1 6161   3.862   3.687   0.807
 1754SOL    HW2 6162   3.766   3.814   0.842
 1755SOL     OW 6163   5.337   4.554   1.697
 1755SOL    HW1 6164   5.321   4.642   1.743
 1755SOL    HW2 6165   5.250   4.509   1.680
 1756SOL     OW 6166   6.023   4.696   4.150
 1756SOL    HW1 6167   5.968   4.697   4.067
 1756SOL    HW2 6168   6.117   4.722   4.129
 1757SOL     OW 6169   2.394   6.468   4.577
 1757SOL    HW1 6170   2.475   6.413   4.599
 1757SOL    HW2 6171   2.359   6.440   4.488
 1758SOL     OW 6172   3.481   1.609   3.596
 1758SOL    HW1 6173   3.443   1.521   3.568
 1758SOL    HW2 6174   3.412   1.680   3.582
 1759SOL     OW 6175   0.601   4.891   6.022
 1759SOL    HW1 6176   0.691   4.917   5.990
 1759SOL    HW2 6177   0.540   4.970   6.019
 1760SOL     OW 6178   6.329   1.593   1.549
 1760SOL    HW1 6179   6.286   1.671   1.504
 1760SOL    HW2 6180   6.303   1.509   1.502
 1761SOL     OW 6181   5.901   0.942   0.725
 1761SOL    HW1 6182   5.815   0.984   0.696
 1761SOL    HW2 6183   5.886   0.845   0.743
 1762SOL     OW 6184   6.448   2.106   4.996
 1762SOL    HW1 6185   6.465   2.008   4.992
 1762SOL    HW2 6186   6.530   2.153   5.030
 1763SOL     OW 6187   2.054   3.675   4.367
 1763SOL    HW1 6188   2.051   3.772   4.394
 1763SOL    HW2 6189   2.081   3.669   4.271
 1764SOL     OW 6190   1.815   3.614   3.200
 1764SOL    HW1 6191   1.761   3.687   3.241
 1764SOL    HW2 6192   1.851   3.645   3.112
 1765SOL     OW 6193   2.698   1.430   0.233
 1765SOL    HW1 6194   2.773   1.366   0.217
 1765SOL    HW2 6195   2.695   1.497   0.158
 1766SOL     OW 6196   5.254   3.125   4.901
 1766SOL    HW1 6197   5.295   3.183   4.831
 1766SOL    HW2 6198   5.311   3.043   4.913
 1767SOL     OW 6199   5.304   3.731   2.170
 1767SOL    HW1 6200   5.222   3.705   2.221
 1767SOL    HW2 6201   5.371   3.657   2.175
 1768SOL     OW 6202   4.526   6.920   3.847
 1768SOL    HW1 6203   4.514   6.911   3.946
 1768SOL    HW2 6204   4.461   6.860   3.801
 1769SOL     OW 6205   4.086   2.235   4.098
 1769SOL    HW1 6206   4.176   2.209   4.132
 1769SOL    HW2 6207   4.088   2.329   4.065
 1770SOL     OW 6208   1.881   5.586   4.770
 1770SOL    HW1 6209   1.819   5.642   4.715
 1770SOL    HW2 6210   1.975   5.601   4.739
 1771SOL     OW 6211   2.483   5.945   0.100
 1771SOL    HW1 6212   2.444   5.936   0.008
 1771SOL    HW2 6213   2.546   6.022   0.102
 1772SOL     OW 6214   3.772   0.055   3.668
 1772SOL    HW1 6215   3.682   0.017   3.645
 1772SOL    HW2 6216   3.776   0.151   3.639
 1773SOL     OW 6217   2.194   5.350   5.754
 1773SOL    HW1 6218   2.159   5.399   5.833
 1773SOL    HW2 6219   2.202   5.252   5.776
 1774SOL     OW 6220   4.056   5.548   1.731
 1774SOL    HW1 6221   4.121   5.589   1.667
 1774SOL    HW2 6222   4.105   5.491   1.797
 1775SOL     OW 6223   0.725   4.001   2.548
 1775SOL    HW1 6224   0.771   3.919   2.583
 1775SOL    HW2 6225   0.778   4.039   2.473
 1776SOL     OW 6226   3.903   6.043   4.340
 1776SOL    HW1 6227   3.912   6.032   4.439
 1776SOL    HW2 6228   3.812   6.079   4.319
 1777SOL     OW 6229   3.507   5.585   6.916
 1777SOL    HW1 6230   3.485   5.521   6.842
 1777SOL    HW2 6231   3.605   5.583   6.934
 1778SOL     OW 6232   4.653   3.373   5.657
 1778SOL    HW1 6233   4.688   3.282   5.677
 1778SOL    HW2 6234   4.652   3.388   5.558
 1779SOL     OW 6235   3.801   0.337   4.246
 1779SOL    HW1 6236   3.816   0.398   4.168
 1779SOL    HW2 6237   3.849   0.251   4.230
 1780SOL     OW 6238   3.639   2.908   0.045
 1780SOL    HW1 6239   3.590   2.956   6.996
 1780SOL    HW2 6240   3.729   2.881   0.012
 1781SOL     OW 6241   3.769   6.329   2.651
 1781SOL    HW1 6242   3.792   6.421   2.618
 1781SOL    HW2 6243   3.802   6.262   2.585
 1782SOL     OW 6244   2.847   1.795   3.303
 1782SOL    HW1 6245   2.769   1.855   3.322
 1782SOL    HW2 6246   2.927   1.829   3.352
 1783SOL     OW 6247   2.808   5.658   6.034
 1783SOL    HW1 6248   2.746   5.736   6.028
 1783SOL    HW2 6249   2.797   5.600   5.954
 1784SOL     OW 6250   4.607   0.687   6.371
 1784SOL    HW1 6251   4.541   0.612   6.364
 1784SOL    HW2 6252   4.698   0.653   6.346
 1785SOL     OW 6253   6.075   3.629   2.975
 1785SOL    HW1 6254   6.161   3.672   3.001
 1785SOL    HW2 6255   5.999   3.671   3.025
 1786SOL     OW 6256   1.996   2.885   7.022
 1786SOL    HW1 6257   2.018   2.836   6.938
 1786SOL    HW2 6258   1.904   2.859   0.029
 1787SOL     OW 6259   2.619   1.343   5.180
 1787SOL    HW1 6260   2.634   1.392   5.265
 1787SOL    HW2 6261   2.624   1.244   5.197
 1788SOL     OW 6262   2.547   4.352   6.122
 1788SOL    HW1 6263   2.476   4.350   6.052
 1788SOL    HW2 6264   2.507   4.371   6.211
 1789SOL     OW 6265   5.529   2.063   1.542
 1789SOL    HW1 6266   5.557   1.972   1.573
 1789SOL    HW2 6267   5.600   2.130   1.565
 1790SOL     OW 6268   3.866   6.220   3.450
 1790SOL    HW1 6269   3.817   6.136   3.430
 1790SOL    HW2 6270   3.944   6.200   3.509
 1791SOL     OW 6271   6.775   0.934   3.245
 1791SOL    HW1 6272   6.721   0.909   3.326
 1791SOL    HW2 6273   6.733   1.013   3.201
 1792SOL     OW 6274   6.761   3.433   4.717
 1792SOL    HW1 6275   6.698   3.482   4.657
 1792SOL    HW2 6276   6.854   3.466   4.701
 1793SOL     OW 6277   6.294   7.003   4.070
 1793SOL    HW1 6278   6.335   6.913   4.083
 1793SOL    HW2 6279   6.246   7.005   3.982
 1794SOL     OW 6280   5.413   5.986   5.712
 1794SOL    HW1 6281   5.348   6.018   5.643
 1794SOL    HW2 6282   5.478   5.923   5.669
 1795SOL     OW 6283   1.189   2.454   1.051
 1795SOL    HW1 6284   1.156   2.511   1.126
 1795SOL    HW2 6285   1.242   2.509   0.987
 1796SOL     OW 6286   2.558   0.756   5.813
 1796SOL    HW1 6287   2.466   0.728   5.842
 1796SOL    HW2 6288   2.581   0.844   5.855
 1797SOL     OW 6289   1.454   6.970   0.319
 1797SOL    HW1 6290   1.530   6.967   0.384
 1797SOL    HW2 6291   1.481   7.022   0.238
 1798SOL     OW 6292   4.588   2.528   3.768
 1798SOL    HW1 6293   4.526   2.502   3.842
 1798SOL    HW2 6294   4.555   2.613   3.726
 1799SOL     OW 6295   6.981   2.684   4.675
 1799SOL    HW1 6296   7.011   2.779   4.682
 1799SOL    HW2 6297   7.002   2.636   4.760
 1800SOL     OW 6298   4.325   4.327   1.313
 1800SOL    HW1 6299   4.414   4.372   1.298
 1800SOL    HW2 6300   4.322   4.242   1.261
 1801SOL     OW 6301   0.067   0.207   2.210
 1801SOL    HW1 6302   0.018   0.129   2.171
 1801SOL    HW2 6303   0.131   0.175   2.280
 1802SOL     OW 6304   5.189   5.927   4.467
 1802SOL    HW1 6305   5.267   5.889   4.417
 1802SOL    HW2 6306   5.120   5.958   4.402
 1803SOL     OW 6307   0.089   5.582   6.979
 1803SOL    HW1 6308   0.124   5.637   6.903
 1803SOL    HW2 6309   0.133   5.612   0.042
 1804SOL     OW 6310   2.342   4.076   5.407
 1804SOL    HW1 6311   2.418   4.107   5.464
 1804SOL    HW2 6312   2.377   4.027   5.328
 1805SOL     OW 6313   5.417   3.513   5.883
 1805SOL    HW1 6314   5.327   3.523   5.923
 1805SOL    HW2 6315   5.472   3.451   5.940
 1806SOL     OW 6316   0.475   6.965   6.398
 1806SOL    HW1 6317   0.538   6.936   6.470
 1806SOL    HW2 6318   0.394   6.905   6.399
 1807SOL     OW 6319   5.499   2.955   4.656
 1807SOL    HW1 6320   5.495   2.928   4.752
 1807SOL    HW2 6321   5.509   2.874   4.598
 1808SOL     OW 6322   0.316   3.996   5.036
 1808SOL    HW1 6323   0.373   3.932   4.985
 1808SOL    HW2 6324   0.315   3.969   5.133
 1809SOL     OW 6325   2.341   2.478   5.135
 1809SOL    HW1 6326   2.367   2.574   5.146
 1809SOL    HW2 6327   2.330   2.458   5.037
 1810SOL     OW 6328   2.811   0.181   3.855
 1810SOL    HW1 6329   2.814   0.126   3.938
 1810SOL    HW2 6330   2.716   0.189   3.825
 1811SOL     OW 6331   6.099   6.015   3.507
 1811SOL    HW1 6332   6.101   5.916   3.517
 1811SOL    HW2 6333   6.014   6.051   3.546
 1812SOL     OW 6334   4.065   5.721   4.698
 1812SOL    HW1 6335   3.972   5.737   4.665
 1812SOL    HW2 6336   4.063   5.656   4.774
 1813SOL     OW 6337   6.061   4.353   0.372
 1813SOL    HW1 6338   6.103   4.443   0.385
 1813SOL    HW2 6339   6.129   4.282   0.386
 1814SOL     OW 6340   5.128   0.098   1.939
 1814SOL    HW1 6341   5.161   0.192   1.936
 1814SOL    HW2 6342   5.205   0.035   1.945
 1815SOL     OW 6343   0.824   2.356   1.974
 1815SOL    HW1 6344   0.748   2.406   2.016
 1815SOL    HW2 6345   0.795   2.318   1.886
 1816SOL     OW 6346   2.574   2.951   0.672
 1816SOL    HW1 6347   2.551   3.036   0.720
 1816SOL    HW2 6348   2.673   2.946   0.659
 1817SOL     OW 6349   2.547   6.704   2.264
 1817SOL    HW1 6350   2.590   6.705   2.174
 1817SOL    HW2 6351   2.448   6.696   2.254
 1818SOL     OW 6352   1.561   0.266   2.962
 1818SOL    HW1 6353   1.517   0.294   3.047
 1818SOL    HW2 6354   1.590   0.170   2.969
 1819SOL     OW 6355   0.982   4.517   2.111
 1819SOL    HW1 6356   1.074   4.496   2.143
 1819SOL    HW2 6357   0.964   4.467   2.026
 1820SOL     OW 6358   4.130   1.030   2.728
 1820SOL    HW1 6359   4.225   1.063   2.724
 1820SOL    HW2 6360   4.068   1.108   2.739
 1821SOL     OW 6361   2.059   1.484   2.443
 1821SOL    HW1 6362   2.056   1.549   2.367
 1821SOL    HW2 6363   2.148   1.492   2.489
 1822SOL     OW 6364   3.539   2.553   1.245
 1822SOL    HW1 6365   3.622   2.605   1.265
 1822SOL    HW2 6366   3.545   2.463   1.289
 1823SOL     OW 6367   3.732   6.033   3.345
 1823SOL    HW1 6368   3.745   5.998   3.252
 1823SOL    HW2 6369   3.635   6.031   3.369
 1824SOL     OW 6370   4.007   2.712   0.640
 1824SOL    HW1 6371   3.958   2.635   0.599
 1824SOL    HW2 6372   4.105   2.702   0.624
 1825SOL     OW 6373   0.926   0.824   2.065
 1825SOL    HW1 6374   0.978   0.897   2.020
 1825SOL    HW2 6375   0.962   0.735   2.037
 1826SOL     OW 6376   2.877   1.378   1.511
 1826SOL    HW1 6377   2.794   1.433   1.519
 1826SOL    HW2 6378   2.946   1.410   1.576
 1827SOL     OW 6379   0.100   5.014   2.174
 1827SOL    HW1 6380   0.075   4.938   2.234
 1827SOL    HW2 6381   0.195   5.002   2.143
 1828SOL     OW 6382   0.535   2.837   0.234
 1828SOL    HW1 6383   0.492   2.768   0.175
 1828SOL    HW2 6384   0.469   2.909   0.254
 1829SOL     OW 6385   4.930   6.991   3.353
 1829SOL    HW1 6386   4.874   6.962   3.275
 1829SOL    HW2 6387   4.904   0.060   3.380
 1830SOL     OW 6388   5.016   6.390   3.677
 1830SOL    HW1 6389   5.064   6.311   3.713
 1830SOL    HW2 6390   5.067   6.427   3.599
 1831SOL     OW 6391   5.939   6.787   2.842
 1831SOL    HW1 6392   5.951   6.705   2.897
 1831SOL    HW2 6393   6.027   6.834   2.831
 1832SOL     OW 6394   5.190   1.901   1.191
 1832SOL    HW1 6395   5.157   1.982   1.238
 1832SOL    HW2 6396   5.150   1.819   1.233
 1833SOL     OW 6397   5.479   0.190   4.432
 1833SOL    HW1 6398   5.498   0.215   4.527
 1833SOL    HW2 6399   5.392   0.142   4.426
 1834SOL     OW 6400   3.616   3.876   0.532
 1834SOL    HW1 6401   3.551   3.892   0.606
 1834SOL    HW2 6402   3.690   3.817   0.564
 1835SOL     OW 6403   1.195   4.076   1.789
 1835SOL    HW1 6404   1.271   4.045   1.846
 1835SOL    HW2 6405   1.224   4.156   1.736
 1836SOL     OW 6406   6.806   2.183   0.734
 1836SOL    HW1 6407   6.792   2.231   0.820
 1836SOL    HW2 6408   6.717   2.169   0.689
 1837SOL     OW 6409   0.650   1.763   3.940
 1837SOL    HW1 6410   0.712   1.765   4.018
 1837SOL    HW2 6411   0.624   1.669   3.919
 1838SOL     OW 6412   0.416   2.003   3.654
 1838SOL    HW1 6413   0.469   2.018   3.570
 1838SOL    HW2 6414   0.367   2.088   3.678
 1839SOL     OW 6415   5.236   2.652   4.916
 1839SOL    HW1 6416   5.195   2.616   5.000
 1839SOL    HW2 6417   5.307   2.590   4.885
 1840SOL     OW 6418   2.498   5.952   1.536
 1840SOL    HW1 6419   2.543   5.925   1.451
 1840SOL    HW2 6420   2.537   5.900   1.612
 1841SOL     OW 6421   1.806   3.451   4.333
 1841SOL    HW1 6422   1.763   3.423   4.247
 1841SOL    HW2 6423   1.761   3.533   4.367
 1842SOL     OW 6424   0.375   5.473   1.163
 1842SOL    HW1 6425   0.440   5.463   1.086
 1842SOL    HW2 6426   0.282   5.479   1.127
 1843SOL     OW 6427   1.711   2.281   5.280
 1843SOL    HW1 6428   1.787   2.329   5.237
 1843SOL    HW2 6429   1.725   2.182   5.273
 1844SOL     OW 6430   3.929   1.750   4.883
 1844SOL    HW1 6431   3.980   1.690   4.821
 1844SOL    HW2 6432   3.976   1.838   4.890
 1845SOL     OW 6433   2.726   0.273   6.911
 1845SOL    HW1 6434   2.703   0.201   6.845
 1845SOL    HW2 6435   2.800   0.329   6.873
 1846SOL     OW 6436   4.283   2.169   6.647
 1846SOL    HW1 6437   4.363   2.126   6.689
 1846SOL    HW2 6438   4.290   2.162   6.548
 1847SOL     OW 6439   0.963   0.464   6.559
 1847SOL    HW1 6440   1.033   0.406   6.518
 1847SOL    HW2 6441   0.965   0.454   6.659
 1848SOL     OW 6442   1.857   5.899   2.641
 1848SOL    HW1 6443   1.908   5.815   2.624
 1848SOL    HW2 6444   1.881   5.967   2.572
 1849SOL     OW 6445   4.067   0.601   0.453
 1849SOL    HW1 6446   4.088   0.641   0.542
 1849SOL    HW2 6447   4.120   0.647   0.383
 1850SOL     OW 6448   5.844   1.777   2.845
 1850SOL    HW1 6449   5.749   1.765   2.872
 1850SOL    HW2 6450   5.877   1.865   2.878
 1851SOL     OW 6451   0.372   1.642   1.258
 1851SOL    HW1 6452   0.395   1.573   1.326
 1851SOL    HW2 6453   0.345   1.598   1.172
 1852SOL     OW 6454   4.635   3.859   0.862
 1852SOL    HW1 6455   4.547   3.872   0.907
 1852SOL    HW2 6456   4.684   3.783   0.906
 1853SOL     OW 6457   0.806   3.918   1.690
 1853SOL    HW1 6458   0.886   3.861   1.711
 1853SOL    HW2 6459   0.815   3.955   1.597
 1854SOL     OW 6460   2.848   5.333   4.081
 1854SOL    HW1 6461   2.945   5.317   4.096
 1854SOL    HW2 6462   2.795   5.289   4.153
 1855SOL     OW 6463   4.794   4.884   0.335
 1855SOL    HW1 6464   4.857   4.957   0.307
 1855SOL    HW2 6465   4.770   4.896   0.431
 1856SOL     OW 6466   6.396   2.439   5.646
 1856SOL    HW1 6467   6.320   2.422   5.708
 1856SOL    HW2 6468   6.480   2.400   5.684
 1857SOL     OW 6469   4.852   0.891   5.002
 1857SOL    HW1 6470   4.819   0.807   4.959
 1857SOL    HW2 6471   4.914   0.867   5.076
 1858SOL     OW 6472   5.423   2.938   3.482
 1858SOL    HW1 6473   5.456   2.947   3.576
 1858SOL    HW2 6474   5.501   2.920   3.421
 1859SOL     OW 6475   4.159   2.046   3.736
 1859SOL    HW1 6476   4.221   1.987   3.789
 1859SOL    HW2 6477   4.211   2.098   3.668
 1860SOL     OW 6478   6.472   1.357   4.051
 1860SOL    HW1 6479   6.479   1.422   4.126
 1860SOL    HW2 6480   6.530   1.387   3.975
 1861SOL     OW 6481   4.741   6.652   2.112
 1861SOL    HW1 6482   4.679   6.686   2.182
 1861SOL    HW2 6483   4.780   6.565   2.140
 1862SOL     OW 6484   1.751   6.993   0.080
 1862SOL    HW1 6485   1.690   0.025   0.022
 1862SOL    HW2 6486   1.808   6.935   0.022
 1863SOL     OW 6487   2.597   2.692   0.598
 1863SOL    HW1 6488   2.560   2.631   0.668
 1863SOL    HW2 6489   2.575   2.787   0.622
 1864SOL     OW 6490   1.076   6.668   5.464
 1864SOL    HW1 6491   1.028   6.747   5.501
 1864SOL    HW2 6492   1.173   6.688   5.456
 1865SOL     OW 6493   4.178   1.098   5.464
 1865SOL    HW1 6494   4.193   1.008   5.505
 1865SOL    HW2 6495   4.106   1.146   5.514
 1866SOL     OW 6496   4.369   4.899   2.269
 1866SOL    HW1 6497   4.357   4.806   2.304
 1866SOL    HW2 6498   4.418   4.954   2.336
 1867SOL     OW 6499   0.488   3.899   0.303
 1867SOL    HW1 6500   0.466   3.810   0.342
 1867SOL    HW2 6501   0.425   3.968   0.340
 1868SOL     OW 6502   5.708   4.466   6.796
 1868SOL    HW1 6503   5.787   4.435   6.744
 1868SOL    HW2 6504   5.630   4.478   6.734
 1869SOL     OW 6505   6.687   1.996   5.137
 1869SOL    HW1 6506   6.617   1.928   5.159
 1869SOL    HW2 6507   6.698   2.000   5.037
 1870SOL     OW 6508   2.283   4.403   5.680
 1870SOL    HW1 6509   2.375   4.390   5.644
 1870SOL    HW2 6510   2.254   4.320   5.729
 1871SOL     OW 6511   1.472   0.071   0.765
 1871SOL    HW1 6512   1.408   0.099   0.693
 1871SOL    HW2 6513   1.554   0.032   0.722
 1872SOL     OW 6514   3.049   4.170   6.906
 1872SOL    HW1 6515   3.021   4.078   6.879
 1872SOL    HW2 6516   3.083   4.219   6.826
 1873SOL     OW 6517   4.071   1.025   5.158
 1873SOL    HW1 6518   4.123   1.031   5.243
 1873SOL    HW2 6519   3.998   1.093   5.159
 1874SOL     OW 6520   2.832   1.767   1.448
 1874SOL    HW1 6521   2.928   1.738   1.454
 1874SOL    HW2 6522   2.796   1.744   1.357
 1875SOL     OW 6523   0.912   0.408   6.825
 1875SOL    HW1 6524   0.867   0.320   6.807
 1875SOL    HW2 6525   0.856   0.462   6.887
 1876SOL     OW 6526   3.447   0.366   5.527
 1876SOL    HW1 6527   3.471   0.418   5.445
 1876SOL    HW2 6528   3.512   0.387   5.600
 1877SOL     OW 6529   0.486   0.634   3.763
 1877SOL    HW1 6530   0.457   0.609   3.856
 1877SOL    HW2 6531   0.413   0.686   3.718
 1878SOL     OW 6532   6.987   2.250   3.632
 1878SOL    HW1 6533   0.002   2.180   3.572
 1878SOL    HW2 6534   6.909   2.213   3.683
 1879SOL     OW 6535   1.267   3.423   4.545
 1879SOL    HW1 6536   1.233   3.330   4.554
 1879SOL    HW2 6537   1.192   3.483   4.517
 1880SOL     OW 6538   0.303   0.986   4.693
 1880SOL    HW1 6539   0.306   1.048   4.615
 1880SOL    HW2 6540   0.336   1.034   4.775
 1881SOL     OW 6541   6.164   2.079   1.721
 1881SOL    HW1 6542   6.224   2.059   1.798
 1881SOL    HW2 6543   6.071   2.046   1.742
 1882SOL     OW 6544   1.224   4.734   6.327
 1882SOL    HW1 6545   1.224   4.831   6.353
 1882SOL    HW2 6546   1.224   4.677   6.409
 1883SOL     OW 6547   6.271   2.253   2.631
 1883SOL    HW1 6548   6.314   2.170   2.596
 1883SOL    HW2 6549   6.172   2.242   2.632
 1884SOL     OW 6550   1.203   1.821   0.902
 1884SOL    HW1 6551   1.240   1.862   0.819
 1884SOL    HW2 6552   1.111   1.856   0.919
 1885SOL     OW 6553   1.877   1.553   5.601
 1885SOL    HW1 6554   1.895   1.612   5.522
 1885SOL    HW2 6555   1.860   1.609   5.682
 1886SOL     OW 6556   2.173   0.343   1.948
 1886SOL    HW1 6557   2.270   0.325   1.929
 1886SOL    HW2 6558   2.161   0.441   1.965
 1887SOL     OW 6559   0.716   5.554   5.540
 1887SOL    HW1 6560   0.684   5.510   5.457
 1887SOL    HW2 6561   0.816   5.555   5.541
 1888SOL     OW 6562   3.104   1.859   0.255
 1888SOL    HW1 6563   3.153   1.946   0.252
 1888SOL    HW2 6564   3.006   1.875   0.240
 1889SOL     OW 6565   0.250   3.753   3.797
 1889SOL    HW1 6566   0.279   3.662   3.767
 1889SOL    HW2 6567   0.172   3.784   3.742
 1890SOL     OW 6568   0.589   5.516   4.342
 1890SOL    HW1 6569   0.588   5.486   4.247
 1890SOL    HW2 6570   0.574   5.437   4.402
 1891SOL     OW 6571   4.511   3.044   1.634
 1891SOL    HW1 6572   4.454   3.126   1.643
 1891SOL    HW2 6573   4.566   3.032   1.717
 1892SOL     OW 6574   0.254   0.877   2.418
 1892SOL    HW1 6575   0.261   0.956   2.478
 1892SOL    HW2 6576   0.160   0.871   2.382
 1893SOL     OW 6577   4.109   3.067   1.922
 1893SOL    HW1 6578   4.106   2.983   1.868
 1893SOL    HW2 6579   4.141   3.143   1.865
 1894SOL     OW 6580   3.319   4.023   4.016
 1894SOL    HW1 6581   3.278   4.056   4.101
 1894SOL    HW2 6582   3.318   3.923   4.016
 1895SOL     OW 6583   4.086   0.210   1.102
 1895SOL    HW1 6584   4.076   0.259   1.189
 1895SOL    HW2 6585   3.996   0.179   1.071
 1896SOL     OW 6586   6.309   1.727   0.741
 1896SOL    HW1 6587   6.403   1.757   0.760
 1896SOL    HW2 6588   6.311   1.657   0.670
 1897SOL     OW 6589   1.680   4.832   2.225
 1897SOL    HW1 6590   1.734   4.753   2.255
 1897SOL    HW2 6591   1.612   4.801   2.158
 1898SOL     OW 6592   2.094   4.335   2.400
 1898SOL    HW1 6593   2.129   4.409   2.342
 1898SOL    HW2 6594   2.130   4.248   2.368
 1899SOL     OW 6595   0.949   0.921   0.455
 1899SOL    HW1 6596   1.046   0.935   0.473
 1899SOL    HW2 6597   0.932   0.932   0.357
 1900SOL     OW 6598   2.921   0.681   6.999
 1900SOL    HW1 6599   2.888   0.737   6.923
 1900SOL    HW2 6600   2.869   0.596   7.003
 1901SOL     OW 6601   2.634   2.736   0.969
 1901SOL    HW1 6602   2.590   2.646   0.971
 1901SOL    HW2 6603   2.728   2.726   0.938
 1902SOL     OW 6604   2.470   0.280   4.794
 1902SOL    HW1 6605   2.468   0.197   4.851
 1902SOL    HW2 6606   2.378   0.302   4.763
 1903SOL     OW 6607   0.935   3.049   3.295
 1903SOL    HW1 6608   0.987   3.026   3.377
 1903SOL    HW2 6609   0.843   3.080   3.322
 1904SOL     OW 6610   5.796   5.217   2.574
 1904SOL    HW1 6611   5.697   5.220   2.561
 1904SOL    HW2 6612   5.826   5.122   2.578
 1905SOL     OW 6613   0.816   0.250   3.989
 1905SOL    HW1 6614   0.744   0.182   3.978
 1905SOL    HW2 6615   0.779   0.341   3.969
 1906SOL     OW 6616   2.840   0.348   6.448
 1906SOL    HW1 6617   2.792   0.278   6.500
 1906SOL    HW2 6618   2.774   0.403   6.396
 1907SOL     OW 6619   4.620   2.589   0.868
 1907SOL    HW1 6620   4.522   2.605   0.869
 1907SOL    HW2 6621   4.638   2.499   0.829
 1908SOL     OW 6622   4.227   6.856   6.394
 1908SOL    HW1 6623   4.306   6.820   6.442
 1908SOL    HW2 6624   4.232   6.830   6.298
 1909SOL     OW 6625   0.733   3.173   3.418
 1909SOL    HW1 6626   0.810   3.206   3.474
 1909SOL    HW2 6627   0.654   3.232   3.434
 1910SOL     OW 6628   6.802   6.551   5.596
 1910SOL    HW1 6629   6.715   6.573   5.550
 1910SOL    HW2 6630   6.868   6.519   5.528
 1911SOL     OW 6631   6.757   4.285   4.727
 1911SOL    HW1 6632   6.724   4.338   4.805
 1911SOL    HW2 6633   6.835   4.330   4.685
 1912SOL     OW 6634   2.647   5.369   2.399
 1912SOL    HW1 6635   2.603   5.377   2.309
 1912SOL    HW2 6636   2.577   5.350   2.468
 1913SOL     OW 6637   2.160   6.640   4.528
 1913SOL    HW1 6638   2.143   6.732   4.562
 1913SOL    HW2 6639   2.249   6.608   4.560
 1914SOL     OW 6640   3.827   4.370   6.457
 1914SOL    HW1 6641   3.907   4.395   6.512
 1914SOL    HW2 6642   3.745   4.409   6.499
 1915SOL     OW 6643   4.442   2.897   5.739
 1915SOL    HW1 6644   4.405   2.822   5.684
 1915SOL    HW2 6645   4.388   2.905   5.824
 1916SOL     OW 6646   4.199   7.012   0.955
 1916SOL    HW1 6647   4.165   0.071   1.001
 1916SOL    HW2 6648   4.245   6.953   1.022
 1917SOL     OW 6649   2.578   3.941   6.934
 1917SOL    HW1 6650   2.606   4.033   6.909
 1917SOL    HW2 6651   2.644   3.875   6.898
 1918SOL     OW 6652   1.099   0.987   4.994
 1918SOL    HW1 6653   1.130   0.920   5.061
 1918SOL    HW2 6654   1.135   0.963   4.904
 1919SOL     OW 6655   1.878   1.729   1.001
 1919SOL    HW1 6656   1.842   1.822   0.991
 1919SOL    HW2 6657   1.957   1.718   0.941
 1920SOL     OW 6658   5.824   2.411   2.360
 1920SOL    HW1 6659   5.827   2.382   2.264
 1920SOL    HW2 6660   5.820   2.330   2.419
 1921SOL     OW 6661   1.532   3.051   0.253
 1921SOL    HW1 6662   1.625   3.044   0.217
 1921SOL    HW2 6663   1.489   3.135   0.219
 1922SOL     OW 6664   3.237   3.615   2.006
 1922SOL    HW1 6665   3.271   3.565   2.085
 1922SOL    HW2 6666   3.160   3.673   2.033
 1923SOL     OW 6667   5.287   0.308   6.820
 1923SOL    HW1 6668   5.195   0.334   6.847
 1923SOL    HW2 6669   5.339   0.390   6.795
 1924SOL     OW 6670   4.669   0.408   0.939
 1924SOL    HW1 6671   4.653   0.396   1.037
 1924SOL    HW2 6672   4.587   0.382   0.888
 1925SOL     OW 6673   0.869   4.443   1.843
 1925SOL    HW1 6674   0.776   4.453   1.877
 1925SOL    HW2 6675   0.886   4.348   1.819
 1926SOL     OW 6676   3.587   0.164   1.712
 1926SOL    HW1 6677   3.552   0.105   1.639
 1926SOL    HW2 6678   3.687   0.165   1.709
 1927SOL     OW 6679   2.429   4.235   0.921
 1927SOL    HW1 6680   2.386   4.155   0.879
 1927SOL    HW2 6681   2.361   4.284   0.976
 1928SOL     OW 6682   4.763   4.488   4.527
 1928SOL    HW1 6683   4.679   4.483   4.580
 1928SOL    HW2 6684   4.761   4.568   4.467
 1929SOL     OW 6685   3.234   0.627   2.619
 1929SOL    HW1 6686   3.246   0.726   2.610
 1929SOL    HW2 6687   3.215   0.588   2.529
 1930SOL     OW 6688   4.927   2.948   6.413
 1930SOL    HW1 6689   4.833   2.974   6.391
 1930SOL    HW2 6690   4.979   3.031   6.437
 1931SOL     OW 6691   1.210   1.824   6.451
 1931SOL    HW1 6692   1.121   1.795   6.418
 1931SOL    HW2 6693   1.265   1.856   6.373
 1932SOL     OW 6694   4.897   2.627   3.009
 1932SOL    HW1 6695   4.819   2.605   3.067
 1932SOL    HW2 6696   4.891   2.574   2.924
 1933SOL     OW 6697   0.031   1.917   0.054
 1933SOL    HW1 6698   0.058   2.008   0.025
 1933SOL    HW2 6699   0.041   1.909   0.153
 1934SOL     OW 6700   0.539   0.587   5.642
 1934SOL    HW1 6701   0.534   0.628   5.733
 1934SOL    HW2 6702   0.446   0.573   5.607
 1935SOL     OW 6703   4.785   4.364   3.605
 1935SOL    HW1 6704   4.781   4.264   3.616
 1935SOL    HW2 6705   4.698   4.397   3.569
 1936SOL     OW 6706   5.111   3.370   4.359
 1936SOL    HW1 6707   5.177   3.298   4.337
 1936SOL    HW2 6708   5.143   3.420   4.440
 1937SOL     OW 6709   5.087   5.581   6.783
 1937SOL    HW1 6710   5.117   5.499   6.735
 1937SOL    HW2 6711   5.104   5.570   6.881
 1938SOL     OW 6712   1.072   2.426   6.637
 1938SOL    HW1 6713   1.073   2.326   6.644
 1938SOL    HW2 6714   1.135   2.464   6.703
 1939SOL     OW 6715   0.565   5.517   4.708
 1939SOL    HW1 6716   0.591   5.579   4.635
 1939SOL    HW2 6717   0.641   5.509   4.773
 1940SOL     OW 6718   6.110   4.823   1.643
 1940SOL    HW1 6719   6.105   4.729   1.608
 1940SOL    HW2 6720   6.186   4.829   1.709
 1941SOL     OW 6721   0.181   2.971   3.446
 1941SOL    HW1 6722   0.142   3.021   3.524
 1941SOL    HW2 6723   0.279   2.957   3.462
 1942SOL     OW 6724   5.616   3.322   2.897
 1942SOL    HW1 6725   5.689   3.256   2.879
 1942SOL    HW2 6726   5.545   3.279   2.952
 1943SOL     OW 6727   1.816   1.298   2.172
 1943SOL    HW1 6728   1.843   1.249   2.255
 1943SOL    HW2 6729   1.752   1.241   2.119
 1944SOL     OW 6730   6.681   3.339   0.559
 1944SOL    HW1 6731   6.632   3.423   0.581
 1944SOL    HW2 6732   6.729   3.306   0.640
 1945SOL     OW 6733   3.751   6.915   0.809
 1945SOL    HW1 6734   3.842   6.881   0.783
 1945SOL    HW2 6735   3.760   6.993   0.870
 1946SOL     OW 6736   6.754   6.362   1.101
 1946SOL    HW1 6737   6.828   6.341   1.164
 1946SOL    HW2 6738   6.712   6.277   1.069
 1947SOL     OW 6739   5.714   4.409   3.592
 1947SOL    HW1 6740   5.779   4.364   3.652
 1947SOL    HW2 6741   5.748   4.500   3.568
 1948SOL     OW 6742   5.818   3.584   3.088
 1948SOL    HW1 6743   5.799   3.592   2.990
 1948SOL    HW2 6744   5.732   3.588   3.139
 1949SOL     OW 6745   4.068   4.222   0.879
 1949SOL    HW1 6746   4.034   4.316   0.876
 1949SOL    HW2 6747   3.991   4.158   0.869
 1950SOL     OW 6748   3.617   4.142   3.803
 1950SOL    HW1 6749   3.653   4.050   3.816
 1950SOL    HW2 6750   3.567   4.147   3.716
 1951SOL     OW 6751   6.662   4.164   5.631
 1951SOL    HW1 6752   6.581   4.156   5.573
 1951SOL    HW2 6753   6.634   4.175   5.726
 1952SOL     OW 6754   5.256   4.045   0.834
 1952SOL    HW1 6755   5.178   4.078   0.781
 1952SOL    HW2 6756   5.332   4.110   0.825
 1953SOL     OW 6757   0.417   1.281   6.611
 1953SOL    HW1 6758   0.389   1.187   6.631
 1953SOL    HW2 6759   0.516   1.285   6.598
 1954SOL     OW 6760   4.324   0.267   1.752
 1954SOL    HW1 6761   4.394   0.229   1.812
 1954SOL    HW2 6762   4.307   0.203   1.676
 1955SOL     OW 6763   1.124   1.443   1.755
 1955SOL    HW1 6764   1.040   1.440   1.808
 1955SOL    HW2 6765   1.102   1.462   1.659
 1956SOL     OW 6766   5.666   0.791   2.150
 1956SOL    HW1 6767   5.741   0.796   2.085
 1956SOL    HW2 6768   5.696   0.744   2.233
 1957SOL     OW 6769   5.421   2.692   3.885
 1957SOL    HW1 6770   5.463   2.616   3.933
 1957SOL    HW2 6771   5.351   2.658   3.822
 1958SOL     OW 6772   4.298   1.569   0.635
 1958SOL    HW1 6773   4.333   1.637   0.700
 1958SOL    HW2 6774   4.370   1.546   0.570
 1959SOL     OW 6775   6.866   6.813   4.104
 1959SOL    HW1 6776   6.877   6.819   4.005
 1959SOL    HW2 6777   6.809   6.889   4.136
 1960SOL     OW 6778   6.019   3.398   3.165
 1960SOL    HW1 6779   5.956   3.476   3.161
 1960SOL    HW2 6780   6.012   3.354   3.255
 1961SOL     OW 6781   6.005   4.382   4.823
 1961SOL    HW1 6782   5.974   4.447   4.754
 1961SOL    HW2 6783   6.009   4.427   4.912
 1962SOL     OW 6784   1.320   6.603   2.912
 1962SOL    HW1 6785   1.272   6.632   2.829
 1962SOL    HW2 6786   1.343   6.506   2.904
 1963SOL     OW 6787   1.064   1.551   1.462
 1963SOL    HW1 6788   1.016   1.638   1.448
 1963SOL    HW2 6789   1.159   1.560   1.431
 1964SOL     OW 6790   5.625   4.603   1.645
 1964SOL    HW1 6791   5.537   4.566   1.676
 1964SOL    HW2 6792   5.640   4.692   1.689
 1965SOL     OW 6793   0.671   4.300   4.296
 1965SOL    HW1 6794   0.629   4.241   4.227
 1965SOL    HW2 6795   0.771   4.299   4.284
 1966SOL     OW 6796   1.400   4.629   1.350
 1966SOL    HW1 6797   1.468   4.570   1.393
 1966SOL    HW2 6798   1.358   4.687   1.420
 1967SOL     OW 6799   6.661   2.380   3.634
 1967SOL    HW1 6800   6.722   2.333   3.699
 1967SOL    HW2 6801   6.591   2.317   3.602
 1968SOL     OW 6802   2.210   1.067   5.783
 1968SOL    HW1 6803   2.270   1.140   5.748
 1968SOL    HW2 6804   2.119   1.077   5.744
 1969SOL     OW 6805   3.260   0.666   0.834
 1969SOL    HW1 6806   3.172   0.668   0.881
 1969SOL    HW2 6807   3.253   0.609   0.752
 1970SOL     OW 6808   6.267   5.593   4.811
 1970SOL    HW1 6809   6.328   5.514   4.818
 1970SOL    HW2 6810   6.238   5.605   4.717
 1971SOL     OW 6811   1.393   0.016   5.805
 1971SOL    HW1 6812   1.479   6.988   5.804
 1971SOL    HW2 6813   1.390   0.077   5.726
 1972SOL     OW 6814   5.894   2.544   1.356
 1972SOL    HW1 6815   5.836   2.463   1.367
 1972SOL    HW2 6816   5.927   2.572   1.446
 1973SOL     OW 6817   2.694   3.400   1.166
 1973SOL    HW1 6818   2.596   3.417   1.164
 1973SOL    HW2 6819   2.740   3.477   1.210
 1974SOL     OW 6820   3.981   6.518   4.609
 1974SOL    HW1 6821   4.069   6.561   4.592
 1974SOL    HW2 6822   3.988   6.419   4.596
 1975SOL     OW 6823   2.049   3.537   3.318
 1975SOL    HW1 6824   1.956   3.561   3.289
 1975SOL    HW2 6825   2.045   3.489   3.406
 1976SOL     OW 6826   6.711   0.033   6.375
 1976SOL    HW1 6827   6.769   0.039   6.293
 1976SOL    HW2 6828   6.635   6.993   6.358
 1977SOL     OW 6829   2.511   4.354   6.701
 1977SOL    HW1 6830   2.441   4.415   6.740
 1977SOL    HW2 6831   2.502   4.354   6.601
 1978SOL     OW 6832   2.348   6.617   2.721
 1978SOL    HW1 6833   2.295   6.533   2.715
 1978SOL    HW2 6834   2.425   6.614   2.657
 1979SOL     OW 6835   6.248   5.369   6.168
 1979SOL    HW1 6836   6.300   5.333   6.246
 1979SOL    HW2 6837   6.216   5.293   6.112
 1980SOL     OW 6838   3.032   1.195   1.786
 1980SOL    HW1 6839   3.039   1.095   1.790
 1980SOL    HW2 6840   3.124   1.234   1.791
 1981SOL     OW 6841   4.744   2.708   3.380
 1981SOL    HW1 6842   4.765   2.614   3.408
 1981SOL    HW2 6843   4.670   2.707   3.313
 1982SOL     OW 6844   6.540   3.702   3.758
 1982SOL    HW1 6845   6.591   3.725   3.841
 1982SOL    HW2 6846   6.535   3.782   3.698
 1983SOL     OW 6847   0.358   0.414   0.844
 1983SOL    HW1 6848   0.376   0.512   0.856
 1983SOL    HW2 6849   0.385   0.386   0.751
 1984SOL     OW 6850   5.592   2.322   5.391
 1984SOL    HW1 6851   5.597   2.229   5.354
 1984SOL    HW2 6852   5.497   2.350   5.400
 1985SOL     OW 6853   6.431   5.026   1.715
 1985SOL    HW1 6854   6.346   4.976   1.732
 1985SOL    HW2 6855   6.451   5.085   1.793
 1986SOL     OW 6856   3.166   1.392   6.779
 1986SOL    HW1 6857   3.212   1.349   6.701
 1986SOL    HW2 6858   3.198   1.350   6.864
 1987SOL     OW 6859   1.398   0.734   3.854
 1987SOL    HW1 6860   1.384   0.822   3.808
 1987SOL    HW2 6861   1.333   0.725   3.930
 1988SOL     OW 6862   0.065   2.490   0.999
 1988SOL    HW1 6863   0.136   2.537   1.052
 1988SOL    HW2 6864   0.105   2.409   0.956
 1989SOL     OW 6865   2.885   5.192   5.632
 1989SOL    HW1 6866   2.934   5.110   5.603
 1989SOL    HW2 6867   2.944   5.248   5.689
 1990SOL     OW 6868   3.898   0.834   0.207
 1990SOL    HW1 6869   3.889   0.913   0.269
 1990SOL    HW2 6870   3.984   0.841   0.156
 1991SOL     OW 6871   2.887   5.531   0.295
 1991SOL    HW1 6872   2.951   5.460   0.327
 1991SOL    HW2 6873   2.796   5.512   0.331
 1992SOL     OW 6874   0.083   6.381   0.004
 1992SOL    HW1 6875   0.098   6.473   0.040
 1992SOL    HW2 6876   7.009   6.356   0.014
 1993SOL     OW 6877   1.883   2.887   4.919
 1993SOL    HW1 6878   1.828   2.968   4.897
 1993SOL    HW2 6879   1.837   2.832   4.988
 1994SOL     OW 6880   3.698   3.326   0.301
 1994SOL    HW1 6881   3.770   3.301   0.366
 1994SOL    HW2 6882   3.612   3.340   0.350
 1995SOL     OW 6883   5.369   1.850   5.224
 1995SOL    HW1 6884   5.309   1.892   5.292
 1995SOL    HW2 6885   5.327   1.857   5.134
 1996SOL     OW 6886   3.837   1.398   1.201
 1996SOL    HW1 6887   3.889   1.389   1.286
 1996SOL    HW2 6888   3.878   1.469   1.144
 1997SOL     OW 6889   3.469   1.562   3.902
 1997SOL    HW1 6890   3.567   1.567   3.918
 1997SOL    HW2 6891   3.448   1.481   3.848
 1998SOL     OW 6892   1.471   3.341   1.807
 1998SOL    HW1 6893   1.491   3.281   1.884
 1998SOL    HW2 6894   1.446   3.432   1.841
 1999SOL     OW 6895   0.851   0.252   5.511
 1999SOL    HW1 6896   0.848   0.345   5.546
 1999SOL    HW2 6897   0.943   0.215   5.523
 2000SOL     OW 6898   3.840   3.542   6.270
 2000SOL    HW1 6899   3.833   3.547   6.369
 2000SOL    HW2 6900   3.932   3.512   6.244
 2001SOL     OW 6901   1.916   1.667   6.462
 2001SOL    HW1 6902   1.914   1.700   6.367
 2001SOL    HW2 6903   1.839   1.704   6.513
 2002SOL     OW 6904   0.089   5.669   1.187
 2002SOL    HW1 6905   0.114   5.671   1.090
 2002SOL    HW2 6906   0.050   5.579   1.209
 2003SOL     OW 6907   5.778   4.796   2.221
 2003SOL    HW1 6908   5.741   4.882   2.187
 2003SOL    HW2 6909   5.703   4.740   2.258
 2004SOL     OW 6910   3.493   0.529   3.548
 2004SOL    HW1 6911   3.582   0.501   3.512
 2004SOL    HW2 6912   3.501   0.548   3.646
 2005SOL     OW 6913   0.504   6.053   0.350
 2005SOL    HW1 6914   0.555   6.127   0.307
 2005SOL    HW2 6915   0.525   5.967   0.303
 2006SOL     OW 6916   5.227   0.241   3.266
 2006SOL    HW1 6917   5.193   0.147   3.268
 2006SOL    HW2 6918   5.184   0.290   3.191
 2007SOL     OW 6919   5.343   4.368   0.382
 2007SOL    HW1 6920   5.261   4.402   0.426
 2007SOL    HW2 6921   5.338   4.384   0.284
 2008SOL     OW 6922   2.034   3.925   3.764
 2008SOL    HW1 6923   1.968   4.000   3.769
 2008SOL    HW2 6924   2.017   3.861   3.839
 2009SOL     OW 6925   6.420   6.145   1.562
 2009SOL    HW1 6926   6.398   6.144   1.659
 2009SOL    HW2 6927   6.512   6.182   1.549
 2010SOL     OW 6928   1.901   2.216   2.002
 2010SOL    HW1 6929   1.819   2.233   1.948
 2010SOL    HW2 6930   1.981   2.216   1.942
 2011SOL     OW 6931   6.915   6.128   5.660
 2011SOL    HW1 6932   6.936   6.129   5.758
 2011SOL    HW2 6933   6.995   6.157   5.608
 2012SOL     OW 6934   1.541   3.454   2.673
 2012SOL    HW1 6935   1.463   3.439   2.734
 2012SOL    HW2 6936   1.529   3.540   2.624
 2013SOL     OW 6937   0.476   2.817   2.988
 2013SOL    HW1 6938   0.433   2.759   3.058
 2013SOL    HW2 6939   0.500   2.905   3.028
 2014SOL     OW 6940   3.101   0.713   4.007
 2014SOL    HW1 6941   3.045   0.664   4.073
 2014SOL    HW2 6942   3.041   0.756   3.939
 2015SOL     OW 6943   3.728   0.743   1.855
 2015SOL    HW1 6944   3.759   0.671   1.917
 2015SOL    HW2 6945   3.769   0.731   1.765
 2016SOL     OW 6946   1.865   6.471   5.641
 2016SOL    HW1 6947   1.868   6.374   5.615
 2016SOL    HW2 6948   1.789   6.486   5.704
 2017SOL     OW 6949   4.237   6.727   3.015
 2017SOL    HW1 6950   4.305   6.730   2.942
 2017SOL    HW2 6951   4.209   6.633   3.032
 2018SOL     OW 6952   0.247   2.164   2.863
 2018SOL    HW1 6953   0.177   2.120   2.920
 2018SOL    HW2 6954   0.302   2.094   2.818
 2019SOL     OW 6955   6.444   4.868   6.350
 2019SOL    HW1 6956   6.413   4.886   6.257
 2019SOL    HW2 6957   6.502   4.787   6.351
 2020SOL     OW 6958   1.869   6.301   6.110
 2020SOL    HW1 6959   1.939   6.230   6.104
 2020SOL    HW2 6960   1.846   6.333   6.018
 2021SOL     OW 6961   6.214   6.444   3.201
 2021SOL    HW1 6962   6.279   6.425   3.274
 2021SOL    HW2 6963   6.174   6.535   3.214
 2022SOL     OW 6964   2.112   4.029   5.199
 2022SOL    HW1 6965   2.175   4.027   5.276
 2022SOL    HW2 6966   2.162   4.011   5.114
 2023SOL     OW 6967   6.761   0.143   0.181
 2023SOL    HW1 6968   6.686   0.199   0.145
 2023SOL    HW2 6969   6.839   0.150   0.120
 2024SOL     OW 6970   0.354   5.759   4.398
 2024SOL    HW1 6971   0.318   5.669   4.376
 2024SOL    HW2 6972   0.400   5.798   4.318
 2025SOL     OW 6973   2.655   0.410   4.665
 2025SOL    HW1 6974   2.585   0.355   4.711
 2025SOL    HW2 6975   2.623   0.505   4.657
 2026SOL     OW 6976   6.157   0.513   6.416
 2026SOL    HW1 6977   6.139   0.611   6.422
 2026SOL    HW2 6978   6.253   0.498   6.393
 2027SOL     OW 6979   0.895   5.837   2.169
 2027SOL    HW1 6980   0.950   5.766   2.213
 2027SOL    HW2 6981   0.833   5.877   2.237
 2028SOL     OW 6982   3.746   5.924   2.787
 2028SOL    HW1 6983   3.786   5.888   2.703
 2028SOL    HW2 6984   3.647   5.933   2.776
 2029SOL     OW 6985   6.965   2.565   6.443
 2029SOL    HW1 6986   6.929   2.510   6.518
 2029SOL    HW2 6987   6.930   2.529   6.356
 2030SOL     OW 6988   3.033   5.730   3.303
 2030SOL    HW1 6989   2.998   5.660   3.241
 2030SOL    HW2 6990   2.956   5.783   3.340
 2031SOL     OW 6991   6.571   5.454   3.101
 2031SOL    HW1 6992   6.650   5.394   3.110
 2031SOL    HW2 6993   6.489   5.399   3.083
 2032SOL     OW 6994   3.023   1.613   6.357
 2032SOL    HW1 6995   2.992   1.699   6.398
 2032SOL    HW2 6996   2.996   1.610   6.261
 2033SOL     OW 6997   1.843   0.927   0.876
 2033SOL    HW1 6998   1.908   0.984   0.926
 2033SOL    HW2 6999   1.867   0.831   0.886
 2034SOL     OW 7000   0.608   5.332   5.685
 2034SOL    HW1 7001   0.634   5.414   5.634
 2034SOL    HW2 7002   0.632   5.343   5.781
 2035SOL     OW 7003   5.722   0.242   2.310
 2035SOL    HW1 7004   5.782   0.288   2.375
 2035SOL    HW2 7005   5.726   0.289   2.222
 2036SOL     OW 7006   1.088   3.781   2.379
 2036SOL    HW1 7007   1.083   3.744   2.286
 2036SOL    HW2 7008   1.042   3.870   2.382
 2037SOL     OW 7009   0.525   2.920   6.363
 2037SOL    HW1 7010   0.491   2.952   6.275
 2037SOL    HW2 7011   0.476   2.966   6.437
 2038SOL     OW 7012   2.301   1.641   6.779
 2038SOL    HW1 7013   2.248   1.627   6.695
 2038SOL    HW2 7014   2.247   1.609   6.857
 2039SOL     OW 7015   6.718   6.065   2.505
 2039SOL    HW1 7016   6.795   6.054   2.442
 2039SOL    HW2 7017   6.676   6.154   2.490
 2040SOL     OW 7018   2.162   3.055   0.173
 2040SOL    HW1 7019   2.142   2.979   0.111
 2040SOL    HW2 7020   2.227   3.025   0.243
 2041SOL     OW 7021   2.054   0.066   6.257
 2041SOL    HW1 7022   2.136   0.113   6.224
 2041SOL    HW2 7023   2.071   0.031   6.350
 2042SOL     OW 7024   4.603   0.545   6.076
 2042SOL    HW1 7025   4.637   0.457   6.043
 2042SOL    HW2 7026   4.529   0.529   6.141
 2043SOL     OW 7027   6.786   3.411   1.238
 2043SOL    HW1 7028   6.808   3.314   1.223
 2043SOL    HW2 7029   6.867   3.458   1.274
 2044SOL     OW 7030   5.372   0.904   0.573
 2044SOL    HW1 7031   5.390   0.856   0.659
 2044SOL    HW2 7032   5.304   0.853   0.520
 2045SOL     OW 7033   1.907   5.977   5.914
 2045SOL    HW1 7034   1.820   6.024   5.927
 2045SOL    HW2 7035   1.970   6.037   5.865
 2046SOL     OW 7036   0.909   2.069   5.132
 2046SOL    HW1 7037   0.877   2.163   5.123
 2046SOL    HW2 7038   0.976   2.049   5.060
 2047SOL     OW 7039   6.429   1.990   6.888
 2047SOL    HW1 7040   6.339   2.026   6.864
 2047SOL    HW2 7041   6.500   2.052   6.855
 2048SOL     OW 7042   1.083   1.357   4.525
 2048SOL    HW1 7043   1.034   1.270   4.526
 2048SOL    HW2 7044   1.110   1.380   4.432
 2049SOL     OW 7045   4.922   1.403   4.749
 2049SOL    HW1 7046   4.828   1.416   4.719
 2049SOL    HW2 7047   4.927   1.413   4.849
 2050SOL     OW 7048   0.432   1.255   4.014
 2050SOL    HW1 7049   0.445   1.340   3.962
 2050SOL    HW2 7050   0.364   1.197   3.968
 2051SOL     OW 7051   3.010   6.674   1.220
 2051SOL    HW1 7052   2.988   6.652   1.315
 2051SOL    HW2 7053   3.074   6.751   1.217
 2052SOL     OW 7054   1.547   4.305   6.982
 2052SOL    HW1 7055   1.577   4.246   6.907
 2052SOL    HW2 7056   1.626   4.337   0.011
 2053SOL     OW 7057   0.815   5.223   4.016
 2053SOL    HW1 7058   0.904   5.181   4.035
 2053SOL    HW2 7059   0.810   5.250   3.920
 2054SOL     OW 7060   3.397   3.607   3.667
 2054SOL    HW1 7061   3.441   3.540   3.606
 2054SOL    HW2 7062   3.459   3.628   3.742
 2055SOL     OW 7063   1.612   2.255   5.558
 2055SOL    HW1 7064   1.556   2.337   5.568
 2055SOL    HW2 7065   1.642   2.246   5.464
 2056SOL     OW 7066   4.107   4.350   1.509
 2056SOL    HW1 7067   4.182   4.328   1.446
 2056SOL    HW2 7068   4.050   4.421   1.469
 2057SOL     OW 7069   5.646   2.672   4.675
 2057SOL    HW1 7070   5.547   2.688   4.668
 2057SOL    HW2 7071   5.669   2.653   4.770
 2058SOL     OW 7072   0.636   6.394   3.695
 2058SOL    HW1 7073   0.536   6.382   3.695
 2058SOL    HW2 7074   0.680   6.304   3.694
 2059SOL     OW 7075   2.516   0.128   5.461
 2059SOL    HW1 7076   2.613   0.145   5.475
 2059SOL    HW2 7077   2.463   0.197   5.510
 2060SOL     OW 7078   1.244   3.509   6.912
 2060SOL    HW1 7079   1.343   3.515   6.928
 2060SOL    HW2 7080   1.227   3.499   6.814
 2061SOL     OW 7081   2.368   1.910   2.360
 2061SOL    HW1 7082   2.296   1.854   2.320
 2061SOL    HW2 7083   2.332   2.001   2.382
 2062SOL     OW 7084   6.402   5.190   4.828
 2062SOL    HW1 7085   6.352   5.229   4.751
 2062SOL    HW2 7086   6.374   5.095   4.843
 2063SOL     OW 7087   1.880   0.792   5.065
 2063SOL    HW1 7088   1.818   0.724   5.104
 2063SOL    HW2 7089   1.888   0.869   5.128
 2064SOL     OW 7090   0.406   3.588   3.615
 2064SOL    HW1 7091   0.400   3.513   3.681
 2064SOL    HW2 7092   0.368   3.558   3.528
 2065SOL     OW 7093   4.720   2.675   5.639
 2065SOL    HW1 7094   4.729   2.665   5.738
 2065SOL    HW2 7095   4.635   2.632   5.608
 2066SOL     OW 7096   5.731   2.523   5.473
 2066SOL    HW1 7097   5.812   2.488   5.519
 2066SOL    HW2 7098   5.671   2.447   5.447
 2067SOL     OW 7099   6.638   4.691   0.951
 2067SOL    HW1 7100   6.647   4.790   0.935
 2067SOL    HW2 7101   6.566   4.655   0.891
 2068SOL     OW 7102   4.136   0.587   4.024
 2068SOL    HW1 7103   4.209   0.528   3.990
 2068SOL    HW2 7104   4.144   0.677   3.983
 2069SOL     OW 7105   0.399   2.158   4.270
 2069SOL    HW1 7106   0.459   2.149   4.349
 2069SOL    HW2 7107   0.429   2.095   4.198
 2070SOL     OW 7108   0.633   3.895   2.042
 2070SOL    HW1 7109   0.576   3.977   2.052
 2070SOL    HW2 7110   0.615   3.852   1.954
 2071SOL     OW 7111   6.354   1.725   6.410
 2071SOL    HW1 7112   6.431   1.717   6.473
 2071SOL    HW2 7113   6.388   1.740   6.317
 2072SOL     OW 7114   4.127   4.472   5.678
 2072SOL    HW1 7115   4.150   4.516   5.765
 2072SOL    HW2 7116   4.130   4.373   5.688
 2073SOL     OW 7117   3.584   5.981   0.628
 2073SOL    HW1 7118   3.636   5.908   0.673
 2073SOL    HW2 7119   3.548   5.948   0.541
 2074SOL     OW 7120   1.560   3.344   5.460
 2074SOL    HW1 7121   1.634   3.406   5.434
 2074SOL    HW2 7122   1.473   3.382   5.429
 2075SOL     OW 7123   0.114   2.205   2.059
 2075SOL    HW1 7124   0.092   2.159   2.145
 2075SOL    HW2 7125   0.182   2.277   2.076
 2076SOL     OW 7126   4.889   6.129   4.873
 2076SOL    HW1 7127   4.892   6.148   4.775
 2076SOL    HW2 7128   4.968   6.171   4.918
 2077SOL     OW 7129   0.196   3.594   1.086
 2077SOL    HW1 7130   0.167   3.665   1.151
 2077SOL    HW2 7131   0.250   3.526   1.135
 2078SOL     OW 7132   2.123   3.849   6.136
 2078SOL    HW1 7133   2.115   3.913   6.212
 2078SOL    HW2 7134   2.214   3.857   6.095
 2079SOL     OW 7135   5.279   1.772   1.807
 2079SOL    HW1 7136   5.356   1.713   1.829
 2079SOL    HW2 7137   5.266   1.776   1.708
 2080SOL     OW 7138   2.461   3.002   5.679
 2080SOL    HW1 7139   2.493   2.975   5.588
 2080SOL    HW2 7140   2.388   3.070   5.670
 2081SOL     OW 7141   6.939   0.245   3.170
 2081SOL    HW1 7142   6.868   0.219   3.103
 2081SOL    HW2 7143   6.922   0.197   3.256
 2082SOL     OW 7144   0.517   6.512   2.761
 2082SOL    HW1 7145   0.437   6.558   2.722
 2082SOL    HW2 7146   0.548   6.562   2.842
 2083SOL     OW 7147   6.502   6.096   4.564
 2083SOL    HW1 7148   6.503   6.038   4.645
 2083SOL    HW2 7149   6.578   6.071   4.504
 2084SOL     OW 7150   0.797   2.312   1.704
 2084SOL    HW1 7151   0.818   2.409   1.689
 2084SOL    HW2 7152   0.812   2.261   1.619
 2085SOL     OW 7153   5.134   5.247   0.379
 2085SOL    HW1 7154   5.087   5.289   0.456
 2085SOL    HW2 7155   5.173   5.318   0.321
 2086SOL     OW 7156   4.241   6.808   0.081
 2086SOL    HW1 7157   4.264   6.869   0.157
 2086SOL    HW2 7158   4.142   6.811   0.064
 2087SOL     OW 7159   4.180   2.407   6.811
 2087SOL    HW1 7160   4.196   2.368   6.721
 2087SOL    HW2 7161   4.149   2.502   6.802
 2088SOL     OW 7162   6.700   5.724   4.958
 2088SOL    HW1 7163   6.684   5.732   5.057
 2088SOL    HW2 7164   6.798   5.735   4.939
 2089SOL     OW 7165   3.024   3.367   5.961
 2089SOL    HW1 7166   3.018   3.302   6.037
 2089SOL    HW2 7167   2.949   3.351   5.897
 2090SOL     OW 7168   4.365   3.514   5.267
 2090SOL    HW1 7169   4.316   3.479   5.186
 2090SOL    HW2 7170   4.458   3.539   5.240
 2091SOL     OW 7171   6.192   5.753   2.190
 2091SOL    HW1 7172   6.190   5.658   2.157
 2091SOL    HW2 7173   6.278   5.796   2.163
 2092SOL     OW 7174   4.528   3.778   1.210
 2092SOL    HW1 7175   4.615   3.826   1.208
 2092SOL    HW2 7176   4.475   3.803   1.129
 2093SOL     OW 7177   3.799   2.170   2.739
 2093SOL    HW1 7178   3.853   2.153   2.657
 2093SOL    HW2 7179   3.702   2.165   2.717
 2094SOL     OW 7180   4.907   2.683   0.076
 2094SOL    HW1 7181   4.897   2.676   6.999
 2094SOL    HW2 7182   4.935   2.776   0.100
 2095SOL     OW 7183   5.474   6.249   3.736
 2095SOL    HW1 7184   5.513   6.325   3.683
 2095SOL    HW2 7185   5.485   6.164   3.685
 2096SOL     OW 7186   4.531   6.717   2.291
 2096SOL    HW1 7187   4.446   6.676   2.257
 2096SOL    HW2 7188   4.514   6.758   2.380
 2097SOL     OW 7189   1.271   5.369   6.466
 2097SOL    HW1 7190   1.367   5.392   6.449
 2097SOL    HW2 7191   1.247   5.288   6.413
 2098SOL     OW 7192   3.217   6.485   3.077
 2098SOL    HW1 7193   3.280   6.407   3.069
 2098SOL    HW2 7194   3.195   6.499   3.173
 2099SOL     OW 7195   5.179   1.217   0.347
 2099SOL    HW1 7196   5.166   1.192   0.443
 2099SOL    HW2 7197   5.143   1.144   0.289
 2100SOL     OW 7198   5.655   0.993   0.559
 2100SOL    HW1 7199   5.644   1.092   0.568
 2100SOL    HW2 7200   5.565   0.949   0.564
 2101SOL     OW 7201   0.156   6.670   2.383
 2101SOL    HW1 7202   0.090   6.620   2.328
 2101SOL    HW2 7203   0.137   6.768   2.378
 2102SOL     OW 7204   3.641   3.576   0.563
 2102SOL    HW1 7205   3.586   3.588   0.645
 2102SOL    HW2 7206   3.736   3.558   0.588
 2103SOL     OW 7207   3.280   6.155   0.608
 2103SOL    HW1 7208   3.308   6.128   0.700
 2103SOL    HW2 7209   3.194   6.110   0.585
 2104SOL     OW 7210   0.953   4.868   3.100
 2104SOL    HW1 7211   0.932   4.965   3.098
 2104SOL    HW2 7212   1.047   4.853   3.128
 2105SOL     OW 7213   5.210   3.963   6.588
 2105SOL    HW1 7214   5.305   3.985   6.611
 2105SOL    HW2 7215   5.205   3.930   6.494
 2106SOL     OW 7216   5.166   3.912   1.993
 2106SOL    HW1 7217   5.220   3.872   2.066
 2106SOL    HW2 7218   5.083   3.858   1.979
 2107SOL     OW 7219   5.662   3.571   5.125
 2107SOL    HW1 7220   5.758   3.598   5.110
 2107SOL    HW2 7221   5.659   3.492   5.185
 2108SOL     OW 7222   5.569   6.728   5.744
 2108SOL    HW1 7223   5.565   6.782   5.660
 2108SOL    HW2 7224   5.659   6.738   5.786
 2109SOL     OW 7225   2.632   5.204   2.718
 2109SOL    HW1 7226   2.660   5.112   2.690
 2109SOL    HW2 7227   2.713   5.256   2.747
 2110SOL     OW 7228   4.099   0.846   6.783
 2110SOL    HW1 7229   4.038   0.769   6.762
 2110SOL    HW2 7230   4.194   0.816   6.773
 2111SOL     OW 7231   0.995   2.734   5.980
 2111SOL    HW1 7232   1.079   2.771   6.020
 2111SOL    HW2 7233   0.946   2.680   6.049
 2112SOL     OW 7234   0.470   1.735   0.672
 2112SOL    HW1 7235   0.534   1.736   0.750
 2112SOL    HW2 7236   0.379   1.709   0.704
 2113SOL     OW 7237   1.471   6.955   4.767
 2113SOL    HW1 7238   1.413   6.874   4.767
 2113SOL    HW2 7239   1.414   0.014   4.759
 2114SOL     OW 7240   2.063   2.453   6.770
 2114SOL    HW1 7241   2.003   2.416   6.698
 2114SOL    HW2 7242   2.035   2.418   6.859
 2115SOL     OW 7243   6.959   5.789   3.573
 2115SOL    HW1 7244   0.017   5.730   3.559
 2115SOL    HW2 7245   6.980   5.858   3.641
 2116SOL     OW 7246   0.398   2.713   0.038
 2116SOL    HW1 7247   0.418   2.633   7.003
 2116SOL    HW2 7248   0.320   2.763   7.022
 2117SOL     OW 7249   5.929   1.514   2.056
 2117SOL    HW1 7250   5.898   1.429   2.012
 2117SOL    HW2 7251   5.923   1.505   2.155
 2118SOL     OW 7252   6.165   2.821   1.847
 2118SOL    HW1 7253   6.175   2.907   1.898
 2118SOL    HW2 7254   6.086   2.827   1.787
 2119SOL     OW 7255   3.348   0.468   0.327
 2119SOL    HW1 7256   3.303   0.557   0.338
 2119SOL    HW2 7257   3.355   0.447   0.229
 2120SOL     OW 7258   5.832   1.959   0.827
 2120SOL    HW1 7259   5.784   1.957   0.914
 2120SOL    HW2 7260   5.889   2.041   0.822
 2121SOL     OW 7261   1.615   0.755   6.663
 2121SOL    HW1 7262   1.523   0.719   6.680
 2121SOL    HW2 7263   1.618   0.852   6.687
 2122SOL     OW 7264   6.129   0.700   5.032
 2122SOL    HW1 7265   6.095   0.733   4.945
 2122SOL    HW2 7266   6.058   0.710   5.102
 2123SOL     OW 7267   1.199   6.117   3.368
 2123SOL    HW1 7268   1.119   6.125   3.309
 2123SOL    HW2 7269   1.264   6.052   3.327
 2124SOL     OW 7270   3.661   3.197   5.795
 2124SOL    HW1 7271   3.596   3.182   5.721
 2124SOL    HW2 7272   3.617   3.253   5.866
 2125SOL     OW 7273   1.533   6.381   2.913
 2125SOL    HW1 7274   1.550   6.478   2.899
 2125SOL    HW2 7275   1.618   6.335   2.937
 2126SOL     OW 7276   3.480   4.299   6.942
 2126SOL    HW1 7277   3.420   4.219   6.939
 2126SOL    HW2 7278   3.442   4.366   7.007
 2127SOL     OW 7279   0.517   2.372   5.092
 2127SOL    HW1 7280   0.477   2.287   5.126
 2127SOL    HW2 7281   0.476   2.450   5.140
 2128SOL     OW 7282   5.389   2.846   1.561
 2128SOL    HW1 7283   5.291   2.843   1.542
 2128SOL    HW2 7284   5.417   2.760   1.604
 2129SOL     OW 7285   5.022   4.449   3.510
 2129SOL    HW1 7286   5.082   4.375   3.539
 2129SOL    HW2 7287   4.931   4.435   3.549
 2130SOL     OW 7288   2.067   0.902   2.597
 2130SOL    HW1 7289   2.038   0.808   2.613
 2130SOL    HW2 7290   2.010   0.943   2.526
 2131SOL     OW 7291   5.802   1.842   5.908
 2131SOL    HW1 7292   5.897   1.853   5.879
 2131SOL    HW2 7293   5.794   1.863   6.005
 2132SOL     OW 7294   2.891   2.026   6.700
 2132SOL    HW1 7295   2.978   2.075   6.710
 2132SOL    HW2 7296   2.877   1.967   6.779
 2133SOL     OW 7297   2.714   2.317   1.786
 2133SOL    HW1 7298   2.721   2.376   1.705
 2133SOL    HW2 7299   2.779   2.348   1.855
 2134SOL     OW 7300   0.905   6.150   4.726
 2134SOL    HW1 7301   0.931   6.181   4.818
 2134SOL    HW2 7302   0.899   6.229   4.665
 2135SOL     OW 7303   0.474   1.291   3.269
 2135SOL    HW1 7304   0.551   1.328   3.322
 2135SOL    HW2 7305   0.454   1.351   3.192
 2136SOL     OW 7306   0.313   3.574   3.337
 2136SOL    HW1 7307   0.250   3.629   3.392
 2136SOL    HW2 7308   0.274   3.483   3.322
 2137SOL     OW 7309   1.208   0.178   5.034
 2137SOL    HW1 7310   1.274   0.202   4.962
 2137SOL    HW2 7311   1.117   0.169   4.994
 2138SOL     OW 7312   0.203   2.867   0.348
 2138SOL    HW1 7313   0.120   2.899   0.394
 2138SOL    HW2 7314   0.280   2.924   0.376
 2139SOL     OW 7315   2.876   0.470   5.308
 2139SOL    HW1 7316   2.821   0.546   5.340
 2139SOL    HW2 7317   2.875   0.396   5.375
 2140SOL     OW 7318   2.405   5.865   3.427
 2140SOL    HW1 7319   2.321   5.907   3.460
 2140SOL    HW2 7320   2.392   5.830   3.334
 2141SOL     OW 7321   5.348   2.094   1.002
 2141SOL    HW1 7322   5.343   2.049   1.091
 2141SOL    HW2 7323   5.310   2.034   0.932
 2142SOL     OW 7324   2.147   2.386   3.525
 2142SOL    HW1 7325   2.126   2.366   3.621
 2142SOL    HW2 7326   2.069   2.432   3.483
 2143SOL     OW 7327   3.233   6.697   1.639
 2143SOL    HW1 7328   3.321   6.689   1.685
 2143SOL    HW2 7329   3.239   6.651   1.550
 2144SOL     OW 7330   0.798   1.060   3.533
 2144SOL    HW1 7331   0.723   0.993   3.539
 2144SOL    HW2 7332   0.818   1.079   3.438
 2145SOL     OW 7333   3.420   4.868   3.067
 2145SOL    HW1 7334   3.497   4.902   3.013
 2145SOL    HW2 7335   3.453   4.836   3.156
 2146SOL     OW 7336   3.796   3.152   2.855
 2146SOL    HW1 7337   3.814   3.089   2.931
 2146SOL    HW2 7338   3.850   3.125   2.776
 2147SOL     OW 7339   1.245   1.209   5.698
 2147SOL    HW1 7340   1.193   1.225   5.782
 2147SOL    HW2 7341   1.298   1.291   5.676
 2148SOL     OW 7342   4.930   3.378   2.724
 2148SOL    HW1 7343   5.004   3.373   2.657
 2148SOL    HW2 7344   4.900   3.286   2.747
 2149SOL     OW 7345   3.702   1.101   2.691
 2149SOL    HW1 7346   3.792   1.139   2.669
 2149SOL    HW2 7347   3.703   1.064   2.784
 2150SOL     OW 7348   3.035   2.202   3.558
 2150SOL    HW1 7349   2.965   2.263   3.519
 2150SOL    HW2 7350   3.021   2.196   3.657
 2151SOL     OW 7351   3.728   2.840   5.503
 2151SOL    HW1 7352   3.688   2.846   5.594
 2151SOL    HW2 7353   3.820   2.880   5.504
 2152SOL     OW 7354   6.122   6.190   2.320
 2152SOL    HW1 7355   6.024   6.172   2.315
 2152SOL    HW2 7356   6.164   6.126   2.386
 2153SOL     OW 7357   4.525   2.365   3.520
 2153SOL    HW1 7358   4.548   2.450   3.567
 2153SOL    HW2 7359   4.603   2.301   3.525
 2154SOL     OW 7360   3.281   5.691   4.729
 2154SOL    HW1 7361   3.349   5.650   4.790
 2154SOL    HW2 7362   3.264   5.786   4.757
 2155SOL     OW 7363   0.365   4.277   0.273
 2155SOL    HW1 7364   0.450   4.308   0.316
 2155SOL    HW2 7365   0.380   4.261   0.176
 2156SOL     OW 7366   1.864   0.505   1.843
 2156SOL    HW1 7367   1.927   0.550   1.906
 2156SOL    HW2 7368   1.783   0.562   1.830
 2157SOL     OW 7369   0.548   1.490   5.203
 2157SOL    HW1 7370   0.515   1.480   5.297
 2157SOL    HW2 7371   0.640   1.529   5.205
 2158SOL     OW 7372   3.634   6.681   1.606
 2158SOL    HW1 7373   3.576   6.686   1.687
 2158SOL    HW2 7374   3.597   6.740   1.535
 2159SOL     OW 7375   1.318   6.717   5.315
 2159SOL    HW1 7376   1.385   6.717   5.241
 2159SOL    HW2 7377   1.341   6.645   5.380
 2160SOL     OW 7378   3.275   4.115   1.095
 2160SOL    HW1 7379   3.273   4.134   0.997
 2160SOL    HW2 7380   3.181   4.099   1.128
 2161SOL     OW 7381   5.093   2.521   3.498
 2161SOL    HW1 7382   5.162   2.498   3.430
 2161SOL    HW2 7383   5.063   2.615   3.484
 2162SOL     OW 7384   1.378   0.616   6.604
 2162SOL    HW1 7385   1.340   0.621   6.512
 2162SOL    HW2 7386   1.323   0.672   6.666
 2163SOL     OW 7387   1.972   1.327   0.532
 2163SOL    HW1 7388   1.891   1.343   0.588
 2163SOL    HW2 7389   1.963   1.376   0.445
 2164SOL     OW 7390   1.406   1.296   0.181
 2164SOL    HW1 7391   1.416   1.301   0.280
 2164SOL    HW2 7392   1.486   1.336   0.137
 2165SOL     OW 7393   2.081   6.711   2.902
 2165SOL    HW1 7394   2.020   6.784   2.930
 2165SOL    HW2 7395   2.157   6.749   2.849
 2166SOL     OW 7396   0.319   2.750   6.504
 2166SOL    HW1 7397   0.399   2.808   6.489
 2166SOL    HW2 7398   0.236   2.800   6.481
 2167SOL     OW 7399   3.593   0.642   2.655
 2167SOL    HW1 7400   3.596   0.724   2.598
 2167SOL    HW2 7401   3.670   0.643   2.719
 2168SOL     OW 7402   5.695   4.452   4.773
 2168SOL    HW1 7403   5.735   4.543   4.784
 2168SOL    HW2 7404   5.683   4.409   4.862
 2169SOL     OW 7405   5.265   2.145   6.066
 2169SOL    HW1 7406   5.290   2.051   6.042
 2169SOL    HW2 7407   5.347   2.197   6.087
 2170SOL     OW 7408   4.191   5.109   4.510
 2170SOL    HW1 7409   4.223   5.019   4.539
 2170SOL    HW2 7410   4.193   5.114   4.410
 2171SOL     OW 7411   0.161   3.140   0.159
 2171SOL    HW1 7412   0.213   3.058   0.182
 2171SOL    HW2 7413   0.101   3.164   0.235
 2172SOL     OW 7414   2.987   0.561   0.764
 2172SOL    HW1 7415   3.042   0.641   0.742
 2172SOL    HW2 7416   3.001   0.491   0.694
 2173SOL     OW 7417   5.611   1.282   5.536
 2173SOL    HW1 7418   5.547   1.206   5.528
 2173SOL    HW2 7419   5.561   1.365   5.561
 2174SOL     OW 7420   0.170   5.315   4.744
 2174SOL    HW1 7421   0.225   5.396   4.763
 2174SOL    HW2 7422   0.212   5.236   4.789
 2175SOL     OW 7423   2.017   0.260   4.719
 2175SOL    HW1 7424   2.049   0.199   4.791
 2175SOL    HW2 7425   1.918   0.274   4.727
 2176SOL     OW 7426   1.887   2.763   3.117
 2176SOL    HW1 7427   1.926   2.852   3.143
 2176SOL    HW2 7428   1.960   2.701   3.089
 2177SOL     OW 7429   0.402   2.602   1.016
 2177SOL    HW1 7430   0.436   2.563   0.931
 2177SOL    HW2 7431   0.478   2.615   1.080
 2178SOL     OW 7432   0.420   4.708   0.155
 2178SOL    HW1 7433   0.431   4.652   0.073
 2178SOL    HW2 7434   0.322   4.718   0.175
 2179SOL     OW 7435   1.874   5.370   4.427
 2179SOL    HW1 7436   1.784   5.329   4.417
 2179SOL    HW2 7437   1.944   5.298   4.426
 2180SOL     OW 7438   3.420   3.347   2.621
 2180SOL    HW1 7439   3.516   3.341   2.648
 2180SOL    HW2 7440   3.378   3.428   2.662
 2181SOL     OW 7441   4.951   5.422   6.356
 2181SOL    HW1 7442   4.950   5.489   6.281
 2181SOL    HW2 7443   5.002   5.341   6.328
 2182SOL     OW 7444   0.437   2.975   6.105
 2182SOL    HW1 7445   0.350   2.935   6.074
 2182SOL    HW2 7446   0.449   3.064   6.061
 2183SOL     OW 7447   3.572   3.220   0.974
 2183SOL    HW1 7448   3.632   3.250   0.900
 2183SOL    HW2 7449   3.614   3.240   1.062
 2184SOL     OW 7450   3.573   2.595   6.459
 2184SOL    HW1 7451   3.480   2.591   6.495
 2184SOL    HW2 7452   3.635   2.549   6.523
 2185SOL     OW 7453   1.948   0.977   1.516
 2185SOL    HW1 7454   2.048   0.965   1.515
 2185SOL    HW2 7455   1.921   1.032   1.436
 2186SOL     OW 7456   0.525   6.153   3.183
 2186SOL    HW1 7457   0.520   6.176   3.281
 2186SOL    HW2 7458   0.433   6.155   3.144
 2187SOL     OW 7459   0.288   1.445   6.878
 2187SOL    HW1 7460   0.289   1.430   6.779
 2187SOL    HW2 7461   0.220   1.514   6.901
 2188SOL     OW 7462   5.813   7.016   2.884
 2188SOL    HW1 7463   5.772   7.008   2.974
 2188SOL    HW2 7464   5.873   6.938   2.867
 2189SOL     OW 7465   2.027   6.664   6.195
 2189SOL    HW1 7466   1.934   6.690   6.169
 2189SOL    HW2 7467   2.023   6.592   6.265
 2190SOL     OW 7468   5.357   1.921   2.029
 2190SOL    HW1 7469   5.340   1.876   1.941
 2190SOL    HW2 7470   5.281   1.902   2.091
 2191SOL     OW 7471   3.267   2.857   6.299
 2191SOL    HW1 7472   3.222   2.819   6.219
 2191SOL    HW2 7473   3.267   2.790   6.373
 2192SOL     OW 7474   4.383   5.618   5.002
 2192SOL    HW1 7475   4.429   5.553   5.064
 2192SOL    HW2 7476   4.439   5.701   4.994
 2193SOL     OW 7477   1.126   4.993   5.626
 2193SOL    HW1 7478   1.031   5.017   5.604
 2193SOL    HW2 7479   1.131   4.960   5.720
 2194SOL     OW 7480   2.244   0.353   1.250
 2194SOL    HW1 7481   2.272   0.433   1.303
 2194SOL    HW2 7482   2.190   0.291   1.307
 2195SOL     OW 7483   1.710   5.557   2.518
 2195SOL    HW1 7484   1.727   5.538   2.421
 2195SOL    HW2 7485   1.762   5.494   2.574
 2196SOL     OW 7486   3.367   1.749   6.232
 2196SOL    HW1 7487   3.272   1.749   6.201
 2196SOL    HW2 7488   3.415   1.672   6.190
 2197SOL     OW 7489   5.051   5.033   1.469
 2197SOL    HW1 7490   5.071   5.117   1.519
 2197SOL    HW2 7491   5.108   5.030   1.387
 2198SOL     OW 7492   6.727   3.836   0.773
 2198SOL    HW1 7493   6.717   3.910   0.839
 2198SOL    HW2 7494   6.749   3.751   0.821
 2199SOL     OW 7495   4.610   0.433   1.644
 2199SOL    HW1 7496   4.548   0.380   1.703
 2199SOL    HW2 7497   4.700   0.439   1.687
 2200SOL     OW 7498   3.373   0.335   4.468
 2200SOL    HW1 7499   3.446   0.318   4.403
 2200SOL    HW2 7500   3.410   0.333   4.561
 2201SOL     OW 7501   5.751   3.488   2.185
 2201SOL    HW1 7502   5.783   3.443   2.269
 2201SOL    HW2 7503   5.829   3.527   2.136
 2202SOL     OW 7504   4.728   5.744   4.017
 2202SOL    HW1 7505   4.802   5.744   4.083
 2202SOL    HW2 7506   4.643   5.773   4.061
 2203SOL     OW 7507   3.576   2.019   3.467
 2203SOL    HW1 7508   3.648   1.951   3.478
 2203SOL    HW2 7509   3.584   2.062   3.376
 2204SOL     OW 7510   3.486   2.576   0.408
 2204SOL    HW1 7511   3.466   2.553   0.313
 2204SOL    HW2 7512   3.560   2.517   0.442
 2205SOL     OW 7513   2.984   7.009   0.987
 2205SOL    HW1 7514   2.888   0.001   1.009
 2205SOL    HW2 7515   3.035   6.988   1.071
 2206SOL     OW 7516   1.981   3.186   6.549
 2206SOL    HW1 7517   2.019   3.214   6.637
 2206SOL    HW2 7518   1.954   3.266   6.497
 2207SOL     OW 7519   0.982   4.393   6.033
 2207SOL    HW1 7520   0.889   4.388   5.996
 2207SOL    HW2 7521   1.006   4.489   6.050
 2208SOL     OW 7522   0.147   3.973   1.909
 2208SOL    HW1 7523   0.128   4.009   1.818
 2208SOL    HW2 7524   0.201   3.889   1.900
 2209SOL     OW 7525   0.652   5.942   6.689
 2209SOL    HW1 7526   0.721   5.997   6.643
 2209SOL    HW2 7527   0.566   5.946   6.638
 2210SOL     OW 7528   0.609   5.847   4.217
 2210SOL    HW1 7529   0.524   5.891   4.190
 2210SOL    HW2 7530   0.642   5.887   4.303
 2211SOL     OW 7531   6.230   1.333   5.456
 2211SOL    HW1 7532   6.201   1.360   5.548
 2211SOL    HW2 7533   6.150   1.304   5.403
 2212SOL     OW 7534   1.799   0.332   6.739
 2212SOL    HW1 7535   1.701   0.334   6.719
 2212SOL    HW2 7536   1.836   0.242   6.714
 2213SOL     OW 7537   4.029   1.854   3.613
 2213SOL    HW1 7538   4.077   1.929   3.659
 2213SOL    HW2 7539   4.012   1.880   3.517
 2214SOL     OW 7540   4.771   0.167   4.244
 2214SOL    HW1 7541   4.789   0.214   4.157
 2214SOL    HW2 7542   4.772   0.068   4.229
 2215SOL     OW 7543   6.532   2.176   5.337
 2215SOL    HW1 7544   6.604   2.188   5.269
 2215SOL    HW2 7545   6.516   2.079   5.352
 2216SOL     OW 7546   1.676   6.782   1.847
 2216SOL    HW1 7547   1.714   6.736   1.927
 2216SOL    HW2 7548   1.578   6.767   1.843
 2217SOL     OW 7549   4.007   0.626   1.114
 2217SOL    HW1 7550   3.943   0.563   1.070
 2217SOL    HW2 7551   3.975   0.647   1.206
 2218SOL     OW 7552   0.733   5.848   0.603
 2218SOL    HW1 7553   0.808   5.875   0.664
 2218SOL    HW2 7554   0.771   5.824   0.514
 2219SOL     OW 7555   1.417   4.372   3.623
 2219SOL    HW1 7556   1.498   4.423   3.654
 2219SOL    HW2 7557   1.359   4.432   3.567
 2220SOL     OW 7558   0.308   0.987   6.611
 2220SOL    HW1 7559   0.322   0.961   6.707
 2220SOL    HW2 7560   0.361   0.926   6.552
 2221SOL     OW 7561   6.484   2.496   1.372
 2221SOL    HW1 7562   6.407   2.483   1.435
 2221SOL    HW2 7563   6.494   2.594   1.353
 2222SOL     OW 7564   4.874   6.614   2.707
 2222SOL    HW1 7565   4.959   6.566   2.682
 2222SOL    HW2 7566   4.893   6.711   2.719
 2223SOL     OW 7567   5.407   5.554   2.522
 2223SOL    HW1 7568   5.388   5.548   2.620
 2223SOL    HW2 7569   5.437   5.465   2.489
 2224SOL     OW 7570   1.668   4.421   1.318
 2224SOL    HW1 7571   1.579   4.402   1.277
 2224SOL    HW2 7572   1.702   4.509   1.286
 2225SOL     OW 7573   5.935   4.871   1.846
 2225SOL    HW1 7574   5.982   4.867   1.758
 2225SOL    HW2 7575   5.965   4.794   1.903
 2226SOL     OW 7576   4.171   4.120   1.130
 2226SOL    HW1 7577   4.268   4.098   1.123
 2226SOL    HW2 7578   4.135   4.144   1.040
 2227SOL     OW 7579   0.007   4.132   4.675
 2227SOL    HW1 7580   0.060   4.069   4.618
 2227SOL    HW2 7581   6.954   4.082   4.718
 2228SOL     OW 7582   3.160   5.115   5.823
 2228SOL    HW1 7583   3.078   5.064   5.796
 2228SOL    HW2 7584   3.207   5.066   5.896
 2229SOL     OW 7585   5.091   1.099   3.684
 2229SOL    HW1 7586   5.103   1.132   3.590
 2229SOL    HW2 7587   4.993   1.085   3.701
 2230SOL     OW 7588   1.233   6.209   6.882
 2230SOL    HW1 7589   1.327   6.178   6.898
 2230SOL    HW2 7590   1.196   6.164   6.801
 2231SOL     OW 7591   2.519   6.832   1.355
 2231SOL    HW1 7592   2.460   6.765   1.400
 2231SOL    HW2 7593   2.487   6.924   1.377
 2232SOL     OW 7594   6.387   2.406   3.041
 2232SOL    HW1 7595   6.457   2.371   2.980
 2232SOL    HW2 7596   6.299   2.411   2.993
 2233SOL     OW 7597   4.032   0.368   0.108
 2233SOL    HW1 7598   4.076   0.280   0.089
 2233SOL    HW2 7599   4.044   0.391   0.205
 2234SOL     OW 7600   3.465   1.708   0.890
 2234SOL    HW1 7601   3.495   1.617   0.862
 2234SOL    HW2 7602   3.422   1.754   0.813
 2235SOL     OW 7603   1.575   6.949   1.013
 2235SOL    HW1 7604   1.571   7.016   0.939
 2235SOL    HW2 7605   1.512   6.976   1.085
 2236SOL     OW 7606   0.378   4.053   1.278
 2236SOL    HW1 7607   0.411   3.990   1.348
 2236SOL    HW2 7608   0.366   4.144   1.317
 2237SOL     OW 7609   6.304   2.282   3.910
 2237SOL    HW1 7610   6.310   2.333   3.824
 2237SOL    HW2 7611   6.217   2.301   3.955
 2238SOL     OW 7612   1.550   5.506   2.195
 2238SOL    HW1 7613   1.536   5.605   2.199
 2238SOL    HW2 7614   1.514   5.471   2.108
 2239SOL     OW 7615   4.405   5.169   3.244
 2239SOL    HW1 7616   4.321   5.117   3.228
 2239SOL    HW2 7617   4.469   5.154   3.169
 2240SOL     OW 7618   5.380   4.187   2.087
 2240SOL    HW1 7619   5.387   4.259   2.156
 2240SOL    HW2 7620   5.390   4.228   1.996
 2241SOL     OW 7621   0.632   0.138   2.567
 2241SOL    HW1 7622   0.709   0.171   2.514
 2241SOL    HW2 7623   0.592   0.057   2.523
 2242SOL     OW 7624   4.997   1.774   2.610
 2242SOL    HW1 7625   5.050   1.729   2.682
 2242SOL    HW2 7626   4.941   1.706   2.563
 2243SOL     OW 7627   2.206   6.185   5.420
 2243SOL    HW1 7628   2.182   6.264   5.476
 2243SOL    HW2 7629   2.125   6.152   5.372
 2244SOL     OW 7630   2.929   0.528   4.767
 2244SOL    HW1 7631   2.952   0.487   4.855
 2244SOL    HW2 7632   2.832   0.515   4.749
 2245SOL     OW 7633   1.573   1.431   1.857
 2245SOL    HW1 7634   1.581   1.351   1.917
 2245SOL    HW2 7635   1.479   1.464   1.858
 2246SOL     OW 7636   1.157   3.904   5.642
 2246SOL    HW1 7637   1.204   3.910   5.554
 2246SOL    HW2 7638   1.224   3.895   5.716
 2247SOL     OW 7639   1.989   1.945   5.918
 2247SOL    HW1 7640   2.069   2.003   5.933
 2247SOL    HW2 7641   1.917   1.970   5.983
 2248SOL     OW 7642   4.832   3.214   5.269
 2248SOL    HW1 7643   4.758   3.270   5.305
 2248SOL    HW2 7644   4.865   3.153   5.341
 2249SOL     OW 7645   5.039   5.510   4.030
 2249SOL    HW1 7646   5.062   5.558   4.115
 2249SOL    HW2 7647   5.061   5.413   4.039
 2250SOL     OW 7648   6.559   4.514   0.056
 2250SOL    HW1 7649   6.547   4.569   0.139
 2250SOL    HW2 7650   6.499   4.435   0.059
 2251SOL     OW 7651   6.150   0.894   6.894
 2251SOL    HW1 7652   6.211   0.961   6.852
 2251SOL    HW2 7653   6.124   0.825   6.827
 2252SOL     OW 7654   4.240   2.335   5.659
 2252SOL    HW1 7655   4.142   2.319   5.668
 2252SOL    HW2 7656   4.275   2.288   5.578
 2253SOL     OW 7657   2.251   3.919   6.756
 2253SOL    HW1 7658   2.175   3.878   6.705
 2253SOL    HW2 7659   2.224   3.934   6.851
 2254SOL     OW 7660   2.045   4.061   6.314
 2254SOL    HW1 7661   1.973   4.129   6.329
 2254SOL    HW2 7662   2.127   4.089   6.363
 2255SOL     OW 7663   5.895   2.820   1.324
 2255SOL    HW1 7664   5.975   2.863   1.365
 2255SOL    HW2 7665   5.911   2.721   1.315
 2256SOL     OW 7666   4.198   4.830   1.803
 2256SOL    HW1 7667   4.142   4.764   1.753
 2256SOL    HW2 7668   4.152   4.919   1.803
 2257SOL     OW 7669   2.239   4.126   4.026
 2257SOL    HW1 7670   2.251   4.027   4.017
 2257SOL    HW2 7671   2.245   4.169   3.936
 2258SOL     OW 7672   1.409   5.566   4.130
 2258SOL    HW1 7673   1.490   5.592   4.078
 2258SOL    HW2 7674   1.386   5.638   4.195
 2259SOL     OW 7675   5.634   3.174   6.592
 2259SOL    HW1 7676   5.713   3.234   6.577
 2259SOL    HW2 7677   5.600   3.142   6.503
 2260SOL     OW 7678   5.580   5.336   0.895
 2260SOL    HW1 7679   5.525   5.253   0.908
 2260SOL    HW2 7680   5.667   5.326   0.945
 2261SOL     OW 7681   4.946   6.067   6.751
 2261SOL    HW1 7682   5.016   6.005   6.784
 2261SOL    HW2 7683   4.987   6.156   6.731
 2262SOL     OW 7684   4.617   2.140   3.100
 2262SOL    HW1 7685   4.535   2.193   3.123
 2262SOL    HW2 7686   4.681   2.143   3.177
 2263SOL     OW 7687   0.300   5.496   6.345
 2263SOL    HW1 7688   0.323   5.416   6.289
 2263SOL    HW2 7689   0.201   5.498   6.360
 2264SOL     OW 7690   3.592   4.078   4.064
 2264SOL    HW1 7691   3.636   4.129   3.990
 2264SOL    HW2 7692   3.500   4.052   4.037
 2265SOL     OW 7693   6.944   0.659   1.985
 2265SOL    HW1 7694   0.009   0.705   1.993
 2265SOL    HW2 7695   6.934   0.593   2.060
 2266SOL     OW 7696   5.974   6.866   1.022
 2266SOL    HW1 7697   5.908   6.842   1.093
 2266SOL    HW2 7698   5.989   6.965   1.022
 2267SOL     OW 7699   6.189   2.393   5.815
 2267SOL    HW1 7700   6.130   2.472   5.830
 2267SOL    HW2 7701   6.169   2.323   5.883
 2268SOL     OW 7702   6.976   5.427   0.144
 2268SOL    HW1 7703   6.883   5.428   0.108
 2268SOL    HW2 7704   0.013   5.478   0.082
 2269SOL     OW 7705   6.796   5.083   5.596
 2269SOL    HW1 7706   6.868   5.143   5.631
 2269SOL    HW2 7707   6.770   5.114   5.504
 2270SOL     OW 7708   3.881   3.580   1.752
 2270SOL    HW1 7709   3.943   3.592   1.829
 2270SOL    HW2 7710   3.917   3.510   1.690
 2271SOL     OW 7711   6.395   4.578   2.373
 2271SOL    HW1 7712   6.357   4.496   2.330
 2271SOL    HW2 7713   6.474   4.553   2.428
 2272SOL     OW 7714   5.865   1.738   6.415
 2272SOL    HW1 7715   5.880   1.639   6.411
 2272SOL    HW2 7716   5.807   1.760   6.493
 2273SOL     OW 7717   1.153   1.596   3.346
 2273SOL    HW1 7718   1.201   1.684   3.355
 2273SOL    HW2 7719   1.132   1.579   3.250
 2274SOL     OW 7720   1.466   3.026   3.972
 2274SOL    HW1 7721   1.380   3.016   3.921
 2274SOL    HW2 7722   1.452   3.088   4.049
 2275SOL     OW 7723   5.328   6.672   3.683
 2275SOL    HW1 7724   5.276   6.752   3.714
 2275SOL    HW2 7725   5.273   6.618   3.620
 2276SOL     OW 7726   5.003   4.711   1.821
 2276SOL    HW1 7727   5.010   4.630   1.880
 2276SOL    HW2 7728   5.063   4.782   1.856
 2277SOL     OW 7729   3.126   3.839   0.244
 2277SOL    HW1 7730   3.057   3.908   0.265
 2277SOL    HW2 7731   3.087   3.770   0.185
 2278SOL     OW 7732   5.610   6.478   1.390
 2278SOL    HW1 7733   5.672   6.407   1.357
 2278SOL    HW2 7734   5.659   6.539   1.452
 2279SOL     OW 7735   5.892   3.720   5.098
 2279SOL    HW1 7736   5.833   3.800   5.112
 2279SOL    HW2 7737   5.981   3.750   5.064
 2280SOL     OW 7738   6.275   6.544   6.459
 2280SOL    HW1 7739   6.295   6.450   6.431
 2280SOL    HW2 7740   6.309   6.607   6.390
 2281SOL     OW 7741   3.687   2.969   0.855
 2281SOL    HW1 7742   3.654   3.061   0.875
 2281SOL    HW2 7743   3.662   2.908   0.930
 2282SOL     OW 7744   3.881   5.154   3.223
 2282SOL    HW1 7745   3.784   5.162   3.246
 2282SOL    HW2 7746   3.902   5.060   3.197
 2283SOL     OW 7747   6.683   3.239   3.567
 2283SOL    HW1 7748   6.702   3.142   3.553
 2283SOL    HW2 7749   6.600   3.264   3.518
 2284SOL     OW 7750   1.886   2.795   2.074
 2284SOL    HW1 7751   1.982   2.811   2.054
 2284SOL    HW2 7752   1.859   2.849   2.155
 2285SOL     OW 7753   1.888   4.582   0.232
 2285SOL    HW1 7754   1.904   4.664   0.287
 2285SOL    HW2 7755   1.793   4.553   0.242
 2286SOL     OW 7756   6.292   6.561   4.419
 2286SOL    HW1 7757   6.227   6.522   4.483
 2286SOL    HW2 7758   6.243   6.598   4.339
 2287SOL     OW 7759   2.205   2.807   1.711
 2287SOL    HW1 7760   2.270   2.753   1.764
 2287SOL    HW2 7761   2.119   2.758   1.702
 2288SOL     OW 7762   0.158   6.422   4.395
 2288SOL    HW1 7763   0.154   6.322   4.397
 2288SOL    HW2 7764   0.070   6.460   4.421
 2289SOL     OW 7765   5.107   2.392   1.581
 2289SOL    HW1 7766   5.180   2.325   1.598
 2289SOL    HW2 7767   5.075   2.429   1.668
 2290SOL     OW 7768   3.371   3.138   3.032
 2290SOL    HW1 7769   3.285   3.105   3.070
 2290SOL    HW2 7770   3.355   3.176   2.941
 2291SOL     OW 7771   1.836   2.669   0.471
 2291SOL    HW1 7772   1.889   2.603   0.525
 2291SOL    HW2 7773   1.892   2.701   0.394
 2292SOL     OW 7774   4.408   2.384   2.757
 2292SOL    HW1 7775   4.331   2.327   2.729
 2292SOL    HW2 7776   4.488   2.326   2.773
 2293SOL     OW 7777   6.200   1.226   0.198
 2293SOL    HW1 7778   6.181   1.324   0.191
 2293SOL    HW2 7779   6.258   1.198   0.122
 2294SOL     OW 7780   0.695   2.332   6.001
 2294SOL    HW1 7781   0.764   2.282   6.054
 2294SOL    HW2 7782   0.728   2.343   5.907
 2295SOL     OW 7783   5.935   6.254   1.431
 2295SOL    HW1 7784   5.983   6.173   1.466
 2295SOL    HW2 7785   5.984   6.290   1.351
 2296SOL     OW 7786   2.909   5.143   3.781
 2296SOL    HW1 7787   2.850   5.111   3.854
 2296SOL    HW2 7788   3.004   5.142   3.812
 2297SOL     OW 7789   4.264   4.232   5.373
 2297SOL    HW1 7790   4.275   4.291   5.293
 2297SOL    HW2 7791   4.166   4.224   5.395
 2298SOL     OW 7792   4.017   3.577   4.405
 2298SOL    HW1 7793   3.922   3.606   4.414
 2298SOL    HW2 7794   4.020   3.486   4.362
 2299SOL     OW 7795   5.375   3.201   4.672
 2299SOL    HW1 7796   5.425   3.115   4.664
 2299SOL    HW2 7797   5.403   3.263   4.599
 2300SOL     OW 7798   4.313   6.539   2.208
 2300SOL    HW1 7799   4.221   6.579   2.199
 2300SOL    HW2 7800   4.305   6.445   2.240
 2301SOL     OW 7801   4.046   3.343   4.237
 2301SOL    HW1 7802   3.966   3.285   4.223
 2301SOL    HW2 7803   4.087   3.366   4.148
 2302SOL     OW 7804   3.963   2.190   0.234
 2302SOL    HW1 7805   3.964   2.117   0.165
 2302SOL    HW2 7806   4.046   2.245   0.225
 2303SOL     OW 7807   3.563   2.259   0.175
 2303SOL    HW1 7808   3.628   2.260   0.099
 2303SOL    HW2 7809   3.514   2.347   0.177
 2304SOL     OW 7810   6.141   5.709   1.731
 2304SOL    HW1 7811   6.219   5.764   1.701
 2304SOL    HW2 7812   6.059   5.737   1.681
 2305SOL     OW 7813   2.361   0.834   5.261
 2305SOL    HW1 7814   2.364   0.837   5.161
 2305SOL    HW2 7815   2.348   0.927   5.297
 2306SOL     OW 7816   1.645   5.602   3.993
 2306SOL    HW1 7817   1.632   5.514   3.947
 2306SOL    HW2 7818   1.622   5.676   3.930
 2307SOL     OW 7819   0.179   2.835   6.075
 2307SOL    HW1 7820   0.159   2.840   5.978
 2307SOL    HW2 7821   0.181   2.739   6.104
 2308SOL     OW 7822   2.507   4.803   1.570
 2308SOL    HW1 7823   2.428   4.742   1.578
 2308SOL    HW2 7824   2.579   4.773   1.633
 2309SOL     OW 7825   1.634   6.218   5.114
 2309SOL    HW1 7826   1.732   6.200   5.123
 2309SOL    HW2 7827   1.584   6.131   5.114
 2310SOL     OW 7828   4.596   6.539   1.588
 2310SOL    HW1 7829   4.647   6.482   1.523
 2310SOL    HW2 7830   4.636   6.530   1.679
 2311SOL     OW 7831   2.278   6.103   1.400
 2311SOL    HW1 7832   2.320   6.042   1.468
 2311SOL    HW2 7833   2.235   6.180   1.447
 2312SOL     OW 7834   3.383   4.950   2.430
 2312SOL    HW1 7835   3.331   4.871   2.399
 2312SOL    HW2 7836   3.429   4.929   2.516
 2313SOL     OW 7837   4.163   5.332   1.867
 2313SOL    HW1 7838   4.195   5.261   1.930
 2313SOL    HW2 7839   4.230   5.346   1.795
 2314SOL     OW 7840   2.805   5.616   3.982
 2314SOL    HW1 7841   2.898   5.635   3.950
 2314SOL    HW2 7842   2.802   5.527   4.027
 2315SOL     OW 7843   4.491   2.979   6.570
 2315SOL    HW1 7844   4.543   3.059   6.598
 2315SOL    HW2 7845   4.482   2.978   6.470
 2316SOL     OW 7846   5.498   2.942   2.674
 2316SOL    HW1 7847   5.438   2.986   2.606
 2316SOL    HW2 7848   5.562   2.881   2.627
 2317SOL     OW 7849   1.024   5.110   3.659
 2317SOL    HW1 7850   0.986   5.017   3.663
 2317SOL    HW2 7851   1.023   5.150   3.750
 2318SOL     OW 7852   7.023   1.389   3.494
 2318SOL    HW1 7853   7.011   1.423   3.587
 2318SOL    HW2 7854   0.073   1.321   3.492
 2319SOL     OW 7855   0.941   3.990   4.403
 2319SOL    HW1 7856   0.994   4.010   4.485
 2319SOL    HW2 7857   0.844   3.982   4.426
 2320SOL     OW 7858   6.537   3.932   4.704
 2320SOL    HW1 7859   6.556   3.995   4.629
 2320SOL    HW2 7860   6.446   3.951   4.741
 2321SOL     OW 7861   3.260   6.652   5.482
 2321SOL    HW1 7862   3.303   6.568   5.515
 2321SOL    HW2 7863   3.283   6.665   5.385
 2322SOL     OW 7864   2.524   0.112   6.042
 2322SOL    HW1 7865   2.571   0.180   5.986
 2322SOL    HW2 7866   2.583   0.085   6.118
 2323SOL     OW 7867   4.864   5.010   1.963
 2323SOL    HW1 7868   4.840   4.956   2.044
 2323SOL    HW2 7869   4.819   4.971   1.883
 2324SOL     OW 7870   6.686   5.723   3.627
 2324SOL    HW1 7871   6.782   5.749   3.623
 2324SOL    HW2 7872   6.639   5.779   3.695
 2325SOL     OW 7873   6.973   3.670   0.356
 2325SOL    HW1 7874   6.979   3.648   0.258
 2325SOL    HW2 7875   6.894   3.623   0.395
 2326SOL     OW 7876   1.413   5.347   6.943
 2326SOL    HW1 7877   1.341   5.415   6.931
 2326SOL    HW2 7878   1.480   5.357   6.870
 2327SOL     OW 7879   5.045   2.390   4.757
 2327SOL    HW1 7880   5.014   2.454   4.827
 2327SOL    HW2 7881   5.025   2.297   4.786
 2328SOL     OW 7882   4.662   6.459   3.318
 2328SOL    HW1 7883   4.689   6.525   3.388
 2328SOL    HW2 7884   4.636   6.507   3.234
 2329SOL     OW 7885   0.383   5.978   4.125
 2329SOL    HW1 7886   0.401   5.985   4.027
 2329SOL    HW2 7887   0.321   5.902   4.142
 2330SOL     OW 7888   0.148   3.940   2.962
 2330SOL    HW1 7889   0.177   3.922   3.056
 2330SOL    HW2 7890   0.102   4.029   2.958
 2331SOL     OW 7891   0.829   4.267   5.031
 2331SOL    HW1 7892   0.734   4.237   5.035
 2331SOL    HW2 7893   0.841   4.346   5.091
 2332SOL     OW 7894   5.612   2.011   5.467
 2332SOL    HW1 7895   5.530   1.954   5.459
 2332SOL    HW2 7896   5.689   1.963   5.425
 2333SOL     OW 7897   1.073   5.605   4.011
 2333SOL    HW1 7898   0.989   5.659   4.020
 2333SOL    HW2 7899   1.147   5.652   4.059
 2334SOL     OW 7900   2.822   0.111   0.233
 2334SOL    HW1 7901   2.842   0.097   0.136
 2334SOL    HW2 7902   2.902   0.088   0.288
 2335SOL     OW 7903   5.573   6.652   3.757
 2335SOL    HW1 7904   5.613   6.561   3.749
 2335SOL    HW2 7905   5.477   6.649   3.729
 2336SOL     OW 7906   4.925   1.609   6.013
 2336SOL    HW1 7907   4.845   1.577   5.963
 2336SOL    HW2 7908   4.934   1.558   6.098
 2337SOL     OW 7909   5.362   0.168   2.571
 2337SOL    HW1 7910   5.392   0.142   2.480
 2337SOL    HW2 7911   5.348   0.086   2.627
 2338SOL     OW 7912   0.823   6.694   6.538
 2338SOL    HW1 7913   0.902   6.715   6.595
 2338SOL    HW2 7914   0.746   6.668   6.595
 2339SOL     OW 7915   3.834   4.441   0.485
 2339SOL    HW1 7916   3.871   4.351   0.460
 2339SOL    HW2 7917   3.734   4.438   0.481
 2340SOL     OW 7918   3.469   5.171   5.075
 2340SOL    HW1 7919   3.464   5.175   5.175
 2340SOL    HW2 7920   3.517   5.252   5.041
 2341SOL     OW 7921   6.008   5.224   0.226
 2341SOL    HW1 7922   6.008   5.318   0.260
 2341SOL    HW2 7923   6.069   5.168   0.283
 2342SOL     OW 7924   6.512   0.425   5.527
 2342SOL    HW1 7925   6.449   0.494   5.561
 2342SOL    HW2 7926   6.564   0.461   5.450
 2343SOL     OW 7927   1.217   6.953   1.014
 2343SOL    HW1 7928   1.259   6.935   0.925
 2343SOL    HW2 7929   1.154   0.008   1.006
 2344SOL     OW 7930   2.033   2.356   2.663
 2344SOL    HW1 7931   1.938   2.367   2.634
 2344SOL    HW2 7932   2.062   2.439   2.711
 2345SOL     OW 7933   1.889   1.352   4.491
 2345SOL    HW1 7934   1.877   1.450   4.512
 2345SOL    HW2 7935   1.893   1.301   4.577
 2346SOL     OW 7936   4.967   3.471   5.920
 2346SOL    HW1 7937   5.042   3.492   5.984
 2346SOL    HW2 7938   4.894   3.538   5.932
 2347SOL     OW 7939   1.687   3.065   1.777
 2347SOL    HW1 7940   1.696   3.088   1.874
 2347SOL    HW2 7941   1.623   2.989   1.766
 2348SOL     OW 7942   2.617   6.765   1.980
 2348SOL    HW1 7943   2.559   6.846   1.990
 2348SOL    HW2 7944   2.569   6.695   1.927
 2349SOL     OW 7945   4.878   5.399   5.866
 2349SOL    HW1 7946   4.867   5.497   5.857
 2349SOL    HW2 7947   4.974   5.378   5.884
 2350SOL     OW 7948   2.144   6.400   5.567
 2350SOL    HW1 7949   2.205   6.473   5.597
 2350SOL    HW2 7950   2.055   6.410   5.611
 2351SOL     OW 7951   2.084   5.512   4.302
 2351SOL    HW1 7952   2.040   5.577   4.240
 2351SOL    HW2 7953   2.021   5.489   4.376
 2352SOL     OW 7954   0.603   3.635   2.481
 2352SOL    HW1 7955   0.649   3.547   2.471
 2352SOL    HW2 7956   0.581   3.672   2.391
 2353SOL     OW 7957   3.189   4.315   6.058
 2353SOL    HW1 7958   3.222   4.347   6.147
 2353SOL    HW2 7959   3.157   4.220   6.067
 2354SOL     OW 7960   3.961   2.058   0.557
 2354SOL    HW1 7961   3.864   2.079   0.542
 2354SOL    HW2 7962   3.969   1.974   0.611
 2355SOL     OW 7963   0.562   6.682   0.701
 2355SOL    HW1 7964   0.501   6.633   0.639
 2355SOL    HW2 7965   0.552   6.781   0.686
 2356SOL     OW 7966   2.811   4.951   3.221
 2356SOL    HW1 7967   2.817   4.853   3.200
 2356SOL    HW2 7968   2.902   4.992   3.213
 2357SOL     OW 7969   6.475   4.474   1.536
 2357SOL    HW1 7970   6.420   4.461   1.618
 2357SOL    HW2 7971   6.569   4.498   1.562
 2358SOL     OW 7972   3.963   1.868   5.883
 2358SOL    HW1 7973   4.000   1.803   5.949
 2358SOL    HW2 7974   3.878   1.907   5.918
 2359SOL     OW 7975   1.660   1.380   5.854
 2359SOL    HW1 7976   1.644   1.341   5.945
 2359SOL    HW2 7977   1.750   1.353   5.822
 2360SOL     OW 7978   4.409   4.134   0.844
 2360SOL    HW1 7979   4.399   4.232   0.860
 2360SOL    HW2 7980   4.463   4.119   0.761
 2361SOL     OW 7981   3.972   6.178   1.700
 2361SOL    HW1 7982   3.958   6.110   1.772
 2361SOL    HW2 7983   3.979   6.269   1.740
 2362SOL     OW 7984   4.098   6.019   3.831
 2362SOL    HW1 7985   4.020   6.019   3.894
 2362SOL    HW2 7986   4.074   6.069   3.748
 2363SOL     OW 7987   2.935   3.652   0.880
 2363SOL    HW1 7988   2.887   3.708   0.813
 2363SOL    HW2 7989   2.959   3.709   0.960
 2364SOL     OW 7990   4.416   1.356   2.221
 2364SOL    HW1 7991   4.348   1.352   2.147
 2364SOL    HW2 7992   4.389   1.426   2.287
 2365SOL     OW 7993   5.038   3.626   3.483
 2365SOL    HW1 7994   4.986   3.598   3.402
 2365SOL    HW2 7995   5.036   3.552   3.551
 2366SOL     OW 7996   2.639   4.769   5.253
 2366SOL    HW1 7997   2.668   4.715   5.332
 2366SOL    HW2 7998   2.667   4.723   5.169
 2367SOL     OW 7999   0.024   4.541   5.606
 2367SOL    HW1 8000   7.021   4.632   5.638
 2367SOL    HW2 8001   6.976   4.475   5.633
 2368SOL     OW 8002   5.634   6.021   4.411
 2368SOL    HW1 8003   5.709   5.965   4.376
 2368SOL    HW2 8004   5.557   5.963   4.436
 2369SOL     OW 8005   3.215   1.838   4.189
 2369SOL    HW1 8006   3.237   1.830   4.287
 2369SOL    HW2 8007   3.300   1.836   4.136
 2370SOL     OW 8008   5.461   2.593   1.301
 2370SOL    HW1 8009   5.522   2.548   1.235
 2370SOL    HW2 8010   5.512   2.614   1.384
 2371SOL     OW 8011   0.970   6.599   3.029
 2371SOL    HW1 8012   0.990   6.527   3.095
 2371SOL    HW2 8013   1.009   6.575   2.940
 2372SOL     OW 8014   6.186   0.820   6.124
 2372SOL    HW1 8015   6.098   0.774   6.118
 2372SOL    HW2 8016   6.178   0.903   6.179
 2373SOL     OW 8017   5.906   6.067   6.056
 2373SOL    HW1 8018   5.816   6.043   6.021
 2373SOL    HW2 8019   5.976   6.034   5.992
 2374SOL     OW 8020   5.759   5.950   2.440
 2374SOL    HW1 8021   5.710   5.863   2.446
 2374SOL    HW2 8022   5.857   5.933   2.430
 2375SOL     OW 8023   1.043   0.520   4.005
 2375SOL    HW1 8024   1.016   0.424   3.994
 2375SOL    HW2 8025   1.134   0.524   4.045
 2376SOL     OW 8026   5.692   1.463   3.080
 2376SOL    HW1 8027   5.698   1.368   3.050
 2376SOL    HW2 8028   5.606   1.476   3.130
 2377SOL     OW 8029   4.388   5.170   5.941
 2377SOL    HW1 8030   4.304   5.167   5.888
 2377SOL    HW2 8031   4.430   5.260   5.930
 2378SOL     OW 8032   6.972   1.015   0.275
 2378SOL    HW1 8033   6.979   1.003   0.374
 2378SOL    HW2 8034   6.961   0.925   0.231
 2379SOL     OW 8035   6.885   4.927   0.952
 2379SOL    HW1 8036   6.883   4.860   1.026
 2379SOL    HW2 8037   6.793   4.965   0.940
 2380SOL     OW 8038   4.813   4.765   5.154
 2380SOL    HW1 8039   4.800   4.720   5.066
 2380SOL    HW2 8040   4.871   4.846   5.142
 2381SOL     OW 8041   2.580   4.843   4.649
 2381SOL    HW1 8042   2.501   4.852   4.588
 2381SOL    HW2 8043   2.584   4.750   4.685
 2382SOL     OW 8044   0.948   5.592   1.781
 2382SOL    HW1 8045   0.901   5.599   1.869
 2382SOL    HW2 8046   0.993   5.503   1.775
 2383SOL     OW 8047   4.839   5.692   5.348
 2383SOL    HW1 8048   4.806   5.786   5.355
 2383SOL    HW2 8049   4.822   5.657   5.256
 2384SOL     OW 8050   0.514   2.125   1.988
 2384SOL    HW1 8051   0.565   2.039   1.987
 2384SOL    HW2 8052   0.511   2.161   2.081
 2385SOL     OW 8053   0.908   2.273   1.155
 2385SOL    HW1 8054   0.978   2.209   1.124
 2385SOL    HW2 8055   0.906   2.353   1.095
 2386SOL     OW 8056   4.683   5.695   4.358
 2386SOL    HW1 8057   4.592   5.725   4.328
 2386SOL    HW2 8058   4.750   5.718   4.288
 2387SOL     OW 8059   1.395   1.707   3.900
 2387SOL    HW1 8060   1.443   1.780   3.851
 2387SOL    HW2 8061   1.353   1.744   3.982
 2388SOL     OW 8062   6.774   1.722   5.525
 2388SOL    HW1 8063   6.800   1.781   5.602
 2388SOL    HW2 8064   6.674   1.718   5.519
 2389SOL     OW 8065   5.679   4.900   3.949
 2389SOL    HW1 8066   5.753   4.947   3.996
 2389SOL    HW2 8067   5.593   4.949   3.962
 2390SOL     OW 8068   4.127   4.218   5.688
 2390SOL    HW1 8069   4.119   4.180   5.595
 2390SOL    HW2 8070   4.044   4.198   5.739
 2391SOL     OW 8071   3.625   3.955   6.130
 2391SOL    HW1 8072   3.564   3.944   6.051
 2391SOL    HW2 8073   3.719   3.937   6.102
 2392SOL     OW 8074   3.902   5.129   5.506
 2392SOL    HW1 8075   3.899   5.207   5.444
 2392SOL    HW2 8076   3.828   5.066   5.483
 2393SOL     OW 8077   3.002   5.961   1.443
 2393SOL    HW1 8078   3.013   6.006   1.531
 2393SOL    HW2 8079   2.993   5.862   1.457
 2394SOL     OW 8080   0.886   2.715   3.356
 2394SOL    HW1 8081   0.976   2.759   3.352
 2394SOL    HW2 8082   0.893   2.630   3.409
 2395SOL     OW 8083   0.193   2.033   4.788
 2395SOL    HW1 8084   0.133   2.098   4.742
 2395SOL    HW2 8085   0.216   1.959   4.725
 2396SOL     OW 8086   6.644   0.974   5.046
 2396SOL    HW1 8087   6.548   0.960   5.022
 2396SOL    HW2 8088   6.703   0.926   4.980
 2397SOL     OW 8089   0.322   4.889   5.343
 2397SOL    HW1 8090   0.262   4.966   5.365
 2397SOL    HW2 8091   0.305   4.814   5.407
 2398SOL     OW 8092   2.838   5.871   3.431
 2398SOL    HW1 8093   2.819   5.929   3.352
 2398SOL    HW2 8094   2.753   5.840   3.472
 2399SOL     OW 8095   2.777   2.234   4.500
 2399SOL    HW1 8096   2.693   2.287   4.485
 2399SOL    HW2 8097   2.809   2.249   4.594
 2400SOL     OW 8098   0.708   4.275   0.629
 2400SOL    HW1 8099   0.613   4.247   0.631
 2400SOL    HW2 8100   0.753   4.252   0.715
 2401SOL     OW 8101   3.814   6.912   5.658
 2401SOL    HW1 8102   3.826   7.008   5.632
 2401SOL    HW2 8103   3.760   6.907   5.742
 2402SOL     OW 8104   1.112   4.194   2.354
 2402SOL    HW1 8105   1.187   4.149   2.402
 2402SOL    HW2 8106   1.139   4.211   2.259
 2403SOL     OW 8107   3.460   4.043   2.860
 2403SOL    HW1 8108   3.475   3.956   2.906
 2403SOL    HW2 8109   3.448   4.028   2.762
 2404SOL     OW 8110   6.542   1.992   0.977
 2404SOL    HW1 8111   6.568   1.896   0.971
 2404SOL    HW2 8112   6.625   2.049   0.983
 2405SOL     OW 8113   2.148   3.778   0.684
 2405SOL    HW1 8114   2.098   3.864   0.677
 2405SOL    HW2 8115   2.156   3.737   0.593
 2406SOL     OW 8116   2.706   6.427   4.938
 2406SOL    HW1 8117   2.765   6.431   5.019
 2406SOL    HW2 8118   2.743   6.487   4.867
 2407SOL     OW 8119   3.848   1.362   3.710
 2407SOL    HW1 8120   3.766   1.347   3.655
 2407SOL    HW2 8121   3.874   1.277   3.756
 2408SOL     OW 8122   3.059   5.342   4.597
 2408SOL    HW1 8123   2.972   5.320   4.552
 2408SOL    HW2 8124   3.060   5.439   4.622
 2409SOL     OW 8125   2.435   2.472   1.557
 2409SOL    HW1 8126   2.505   2.447   1.490
 2409SOL    HW2 8127   2.348   2.430   1.532
 2410SOL     OW 8128   0.424   3.692   5.262
 2410SOL    HW1 8129   0.445   3.649   5.349
 2410SOL    HW2 8130   0.441   3.628   5.187
 2411SOL     OW 8131   2.733   3.719   6.835
 2411SOL    HW1 8132   2.807   3.654   6.822
 2411SOL    HW2 8133   2.665   3.707   6.763
 2412SOL     OW 8134   3.684   1.742   6.390
 2412SOL    HW1 8135   3.657   1.838   6.382
 2412SOL    HW2 8136   3.735   1.728   6.475
 2413SOL     OW 8137   6.657   2.988   6.541
 2413SOL    HW1 8138   6.559   2.964   6.540
 2413SOL    HW2 8139   6.669   3.077   6.495
 2414SOL     OW 8140   6.224   2.348   4.317
 2414SOL    HW1 8141   6.238   2.249   4.313
 2414SOL    HW2 8142   6.135   2.367   4.359
 2415SOL     OW 8143   2.901   5.751   0.995
 2415SOL    HW1 8144   2.810   5.717   1.016
 2415SOL    HW2 8145   2.969   5.703   1.051
 2416SOL     OW 8146   6.596   3.605   2.758
 2416SOL    HW1 8147   6.547   3.605   2.845
 2416SOL    HW2 8148   6.689   3.571   2.772
 2417SOL     OW 8149   3.617   3.548   1.097
 2417SOL    HW1 8150   3.694   3.588   1.049
 2417SOL    HW2 8151   3.533   3.598   1.074
 2418SOL     OW 8152   4.479   3.803   5.977
 2418SOL    HW1 8153   4.527   3.812   5.890
 2418SOL    HW2 8154   4.491   3.710   6.012
 2419SOL     OW 8155   2.011   6.296   4.301
 2419SOL    HW1 8156   1.993   6.213   4.355
 2419SOL    HW2 8157   1.937   6.311   4.236
 2420SOL     OW 8158   1.843   4.413   2.758
 2420SOL    HW1 8159   1.797   4.389   2.843
 2420SOL    HW2 8160   1.914   4.481   2.775
 2421SOL     OW 8161   2.956   6.518   4.548
 2421SOL    HW1 8162   2.897   6.584   4.501
 2421SOL    HW2 8163   3.051   6.547   4.540
 2422SOL     OW 8164   4.276   6.376   0.659
 2422SOL    HW1 8165   4.343   6.410   0.593
 2422SOL    HW2 8166   4.323   6.322   0.728
 2423SOL     OW 8167   2.015   4.960   2.267
 2423SOL    HW1 8168   2.086   4.955   2.196
 2423SOL    HW2 8169   2.045   4.908   2.347
 2424SOL     OW 8170   5.344   1.020   5.846
 2424SOL    HW1 8171   5.267   1.016   5.909
 2424SOL    HW2 8172   5.422   1.063   5.891
 2425SOL     OW 8173   4.804   5.454   5.585
 2425SOL    HW1 8174   4.809   5.534   5.526
 2425SOL    HW2 8175   4.889   5.444   5.636
 2426SOL     OW 8176   1.365   4.755   5.685
 2426SOL    HW1 8177   1.386   4.780   5.591
 2426SOL    HW2 8178   1.315   4.831   5.729
 2427SOL     OW 8179   5.245   0.828   6.819
 2427SOL    HW1 8180   5.339   0.805   6.795
 2427SOL    HW2 8181   5.238   0.926   6.838
 2428SOL     OW 8182   0.182   0.926   3.138
 2428SOL    HW1 8183   0.243   0.940   3.060
 2428SOL    HW2 8184   0.087   0.939   3.108
 2429SOL     OW 8185   5.169   5.553   1.701
 2429SOL    HW1 8186   5.112   5.556   1.782
 2429SOL    HW2 8187   5.265   5.539   1.728
 2430SOL     OW 8188   6.029   2.393   6.810
 2430SOL    HW1 8189   6.043   2.396   6.711
 2430SOL    HW2 8190   5.941   2.435   6.833
 2431SOL     OW 8191   6.744   2.283   1.605
 2431SOL    HW1 8192   6.774   2.352   1.671
 2431SOL    HW2 8193   6.804   2.283   1.526
 2432SOL     OW 8194   3.392   5.579   2.378
 2432SOL    HW1 8195   3.293   5.585   2.377
 2432SOL    HW2 8196   3.425   5.585   2.472
 2433SOL     OW 8197   6.815   3.997   0.299
 2433SOL    HW1 8198   6.820   3.956   0.390
 2433SOL    HW2 8199   6.792   3.927   0.232
 2434SOL     OW 8200   4.379   1.822   3.021
 2434SOL    HW1 8201   4.357   1.872   2.938
 2434SOL    HW2 8202   4.306   1.834   3.088
 2435SOL     OW 8203   5.366   6.400   6.918
 2435SOL    HW1 8204   5.346   6.492   6.885
 2435SOL    HW2 8205   5.464   6.382   6.911
 2436SOL     OW 8206   2.390   1.720   1.210
 2436SOL    HW1 8207   2.336   1.691   1.131
 2436SOL    HW2 8208   2.378   1.819   1.223
 2437SOL     OW 8209   6.801   5.448   2.166
 2437SOL    HW1 8210   6.813   5.513   2.090
 2437SOL    HW2 8211   6.891   5.419   2.199
 2438SOL     OW 8212   3.137   1.395   5.006
 2438SOL    HW1 8213   3.042   1.375   5.030
 2438SOL    HW2 8214   3.138   1.449   4.921
 2439SOL     OW 8215   0.683   5.615   0.778
 2439SOL    HW1 8216   0.637   5.616   0.690
 2439SOL    HW2 8217   0.746   5.693   0.784
 2440SOL     OW 8218   5.030   0.577   5.018
 2440SOL    HW1 8219   4.936   0.547   5.000
 2440SOL    HW2 8220   5.080   0.583   4.932
 2441SOL     OW 8221   5.941   0.096   0.281
 2441SOL    HW1 8222   5.858   0.109   0.336
 2441SOL    HW2 8223   5.981   0.185   0.260
 2442SOL     OW 8224   4.924   3.754   2.020
 2442SOL    HW1 8225   4.854   3.758   1.948
 2442SOL    HW2 8226   4.926   3.663   2.060
 2443SOL     OW 8227   2.212   2.113   0.814
 2443SOL    HW1 8228   2.130   2.080   0.767
 2443SOL    HW2 8229   2.269   2.036   0.841
 2444SOL     OW 8230   3.700   5.962   1.063
 2444SOL    HW1 8231   3.791   5.944   1.024
 2444SOL    HW2 8232   3.654   6.032   1.008
 2445SOL     OW 8233   0.241   2.674   0.776
 2445SOL    HW1 8234   0.196   2.761   0.796
 2445SOL    HW2 8235   0.267   2.629   0.862
 2446SOL     OW 8236   1.886   3.628   1.428
 2446SOL    HW1 8237   1.833   3.625   1.343
 2446SOL    HW2 8238   1.825   3.612   1.505
 2447SOL     OW 8239   3.512   0.060   0.710
 2447SOL    HW1 8240   3.584   7.019   0.735
 2447SOL    HW2 8241   3.456   0.082   0.790
 2448SOL     OW 8242   5.910   1.851   3.700
 2448SOL    HW1 8243   5.911   1.936   3.647
 2448SOL    HW2 8244   5.937   1.869   3.794
 2449SOL     OW 8245   1.966   4.233   2.121
 2449SOL    HW1 8246   1.928   4.325   2.134
 2449SOL    HW2 8247   1.892   4.166   2.124
 2450SOL     OW 8248   1.907   5.945   6.389
 2450SOL    HW1 8249   1.954   5.958   6.477
 2450SOL    HW2 8250   1.972   5.911   6.321
 2451SOL     OW 8251   0.815   0.249   4.654
 2451SOL    HW1 8252   0.803   0.334   4.704
 2451SOL    HW2 8253   0.912   0.222   4.657
 2452SOL     OW 8254   2.775   1.909   4.005
 2452SOL    HW1 8255   2.691   1.886   4.053
 2452SOL    HW2 8256   2.843   1.944   4.070
 2453SOL     OW 8257   0.907   1.571   6.905
 2453SOL    HW1 8258   0.833   1.636   6.924
 2453SOL    HW2 8259   0.992   1.621   6.890
 2454SOL     OW 8260   4.272   5.778   0.960
 2454SOL    HW1 8261   4.235   5.707   0.900
 2454SOL    HW2 8262   4.200   5.843   0.982
 2455SOL     OW 8263   4.299   1.119   0.299
 2455SOL    HW1 8264   4.257   1.038   0.338
 2455SOL    HW2 8265   4.274   1.126   0.202
 2456SOL     OW 8266   0.881   4.639   6.936
 2456SOL    HW1 8267   0.960   4.583   6.957
 2456SOL    HW2 8268   0.910   4.719   6.882
 2457SOL     OW 8269   5.696   1.743   5.413
 2457SOL    HW1 8270   5.637   1.679   5.364
 2457SOL    HW2 8271   5.676   1.737   5.511
 2458SOL     OW 8272   1.102   6.784   2.605
 2458SOL    HW1 8273   1.121   6.756   2.511
 2458SOL    HW2 8274   1.112   6.884   2.612
 2459SOL     OW 8275   2.707   6.142   0.727
 2459SOL    HW1 8276   2.704   6.054   0.775
 2459SOL    HW2 8277   2.769   6.204   0.774
 2460SOL     OW 8278   1.467   0.816   6.349
 2460SOL    HW1 8279   1.377   0.775   6.368
 2460SOL    HW2 8280   1.538   0.748   6.365
 2461SOL     OW 8281   4.269   0.886   3.993
 2461SOL    HW1 8282   4.285   0.971   3.942
 2461SOL    HW2 8283   4.202   0.902   4.065
 2462SOL     OW 8284   0.537   5.009   1.126
 2462SOL    HW1 8285   0.456   4.957   1.101
 2462SOL    HW2 8286   0.557   5.075   1.053
 2463SOL     OW 8287   6.905   1.081   6.251
 2463SOL    HW1 8288   6.959   1.163   6.267
 2463SOL    HW2 8289   6.808   1.105   6.247
 2464SOL     OW 8290   0.992   2.061   3.074
 2464SOL    HW1 8291   1.002   1.963   3.058
 2464SOL    HW2 8292   0.910   2.077   3.130
 2465SOL     OW 8293   0.768   4.702   5.736
 2465SOL    HW1 8294   0.735   4.755   5.659
 2465SOL    HW2 8295   0.820   4.623   5.703
 2466SOL     OW 8296   1.536   1.947   1.665
 2466SOL    HW1 8297   1.603   1.976   1.734
 2466SOL    HW2 8298   1.521   1.848   1.673
 2467SOL     OW 8299   4.932   1.229   5.960
 2467SOL    HW1 8300   4.943   1.132   5.982
 2467SOL    HW2 8301   4.990   1.284   6.021
 2468SOL     OW 8302   3.966   0.127   5.509
 2468SOL    HW1 8303   3.978   0.226   5.509
 2468SOL    HW2 8304   4.055   0.083   5.516
 2469SOL     OW 8305   3.578   2.727   5.307
 2469SOL    HW1 8306   3.508   2.798   5.318
 2469SOL    HW2 8307   3.630   2.719   5.393
 2470SOL     OW 8308   3.539   5.182   0.547
 2470SOL    HW1 8309   3.508   5.133   0.629
 2470SOL    HW2 8310   3.468   5.244   0.516
 2471SOL     OW 8311   3.601   6.709   0.918
 2471SOL    HW1 8312   3.653   6.790   0.890
 2471SOL    HW2 8313   3.635   6.629   0.870
 2472SOL     OW 8314   5.000   2.284   3.839
 2472SOL    HW1 8315   4.930   2.355   3.825
 2472SOL    HW2 8316   5.016   2.272   3.937
 2473SOL     OW 8317   0.593   4.445   4.723
 2473SOL    HW1 8318   0.688   4.477   4.725
 2473SOL    HW2 8319   0.534   4.517   4.688
 2474SOL     OW 8320   1.035   6.098   0.959
 2474SOL    HW1 8321   1.023   6.043   0.876
 2474SOL    HW2 8322   0.950   6.147   0.979
 2475SOL     OW 8323   5.154   0.590   0.765
 2475SOL    HW1 8324   5.244   0.611   0.725
 2475SOL    HW2 8325   5.162   0.507   0.821
 2476SOL     OW 8326   5.824   0.816   1.614
 2476SOL    HW1 8327   5.839   0.820   1.515
 2476SOL    HW2 8328   5.911   0.827   1.661
 2477SOL     OW 8329   3.543   0.747   3.180
 2477SOL    HW1 8330   3.469   0.793   3.132
 2477SOL    HW2 8331   3.512   0.657   3.211
 2478SOL     OW 8332   4.428   1.292   3.311
 2478SOL    HW1 8333   4.477   1.347   3.379
 2478SOL    HW2 8334   4.366   1.352   3.258
 2479SOL     OW 8335   0.960   3.062   1.032
 2479SOL    HW1 8336   0.927   3.094   1.120
 2479SOL    HW2 8337   0.887   3.015   0.983
 2480SOL     OW 8338   3.861   2.677   0.928
 2480SOL    HW1 8339   3.847   2.580   0.910
 2480SOL    HW2 8340   3.939   2.688   0.990
 2481SOL     OW 8341   3.781   0.728   1.568
 2481SOL    HW1 8342   3.773   0.827   1.580
 2481SOL    HW2 8343   3.774   0.706   1.470
 2482SOL     OW 8344   5.751   3.682   0.100
 2482SOL    HW1 8345   5.652   3.687   0.118
 2482SOL    HW2 8346   5.771   3.598   0.051
 2483SOL     OW 8347   0.816   2.474   0.367
 2483SOL    HW1 8348   0.807   2.573   0.367
 2483SOL    HW2 8349   0.906   2.448   0.401
 2484SOL     OW 8350   4.730   1.283   1.985
 2484SOL    HW1 8351   4.673   1.226   2.044
 2484SOL    HW2 8352   4.673   1.354   1.942
 2485SOL     OW 8353   5.430   2.045   6.389
 2485SOL    HW1 8354   5.381   1.977   6.334
 2485SOL    HW2 8355   5.382   2.132   6.386
 2486SOL     OW 8356   0.413   4.709   5.838
 2486SOL    HW1 8357   0.359   4.628   5.859
 2486SOL    HW2 8358   0.501   4.704   5.885
 2487SOL     OW 8359   4.738   6.137   0.596
 2487SOL    HW1 8360   4.822   6.125   0.649
 2487SOL    HW2 8361   4.713   6.234   0.594
 2488SOL     OW 8362   6.827   4.004   1.888
 2488SOL    HW1 8363   6.849   3.972   1.796
 2488SOL    HW2 8364   6.911   4.026   1.937
 2489SOL     OW 8365   0.447   6.239   4.255
 2489SOL    HW1 8366   0.352   6.248   4.284
 2489SOL    HW2 8367   0.469   6.142   4.243
 2490SOL     OW 8368   1.031   6.213   1.471
 2490SOL    HW1 8369   1.098   6.228   1.399
 2490SOL    HW2 8370   1.072   6.157   1.544
 2491SOL     OW 8371   4.053   4.620   1.721
 2491SOL    HW1 8372   3.960   4.601   1.689
 2491SOL    HW2 8373   4.118   4.564   1.669
 2492SOL     OW 8374   5.216   3.564   0.903
 2492SOL    HW1 8375   5.127   3.609   0.889
 2492SOL    HW2 8376   5.249   3.530   0.815
 2493SOL     OW 8377   6.838   0.147   1.342
 2493SOL    HW1 8378   6.918   0.204   1.327
 2493SOL    HW2 8379   6.807   0.157   1.436
 2494SOL     OW 8380   6.065   3.162   2.251
 2494SOL    HW1 8381   6.104   3.087   2.198
 2494SOL    HW2 8382   6.050   3.131   2.345
 2495SOL     OW 8383   5.254   5.839   3.660
 2495SOL    HW1 8384   5.246   5.806   3.754
 2495SOL    HW2 8385   5.347   5.826   3.627
 2496SOL     OW 8386   0.012   3.636   6.724
 2496SOL    HW1 8387   0.036   3.564   6.659
 2496SOL    HW2 8388   6.999   3.595   6.808
 2497SOL     OW 8389   0.376   0.636   0.669
 2497SOL    HW1 8390   0.364   0.557   0.610
 2497SOL    HW2 8391   0.338   0.717   0.625
 2498SOL     OW 8392   3.277   2.794   5.487
 2498SOL    HW1 8393   3.220   2.740   5.425
 2498SOL    HW2 8394   3.312   2.875   5.439
 2499SOL     OW 8395   6.118   3.113   1.159
 2499SOL    HW1 8396   6.199   3.170   1.173
 2499SOL    HW2 8397   6.041   3.150   1.211
 2500SOL     OW 8398   3.371   3.719   6.112
 2500SOL    HW1 8399   3.299   3.651   6.105
 2500SOL    HW2 8400   3.439   3.690   6.179
 2501SOL     OW 8401   6.090   5.879   0.076
 2501SOL    HW1 8402   6.019   5.900   0.009
 2501SOL    HW2 8403   6.057   5.810   0.140
 2502SOL     OW 8404   2.248   6.484   4.808
 2502SOL    HW1 8405   2.282   6.473   4.715
 2502SOL    HW2 8406   2.325   6.486   4.872
 2503SOL     OW 8407   3.373   6.629   5.205
 2503SOL    HW1 8408   3.362   6.547   5.149
 2503SOL    HW2 8409   3.349   6.710   5.150
 2504SOL     OW 8410   3.221   5.301   2.470
 2504SOL    HW1 8411   3.194   5.322   2.376
 2504SOL    HW2 8412   3.252   5.384   2.516
 2505SOL     OW 8413   0.424   5.977   3.474
 2505SOL    HW1 8414   0.451   5.926   3.554
 2505SOL    HW2 8415   0.502   6.030   3.439
 2506SOL     OW 8416   6.239   3.634   6.294
 2506SOL    HW1 8417   6.150   3.601   6.326
 2506SOL    HW2 8418   6.284   3.685   6.367
 2507SOL     OW 8419   6.837   3.488   6.893
 2507SOL    HW1 8420   6.783   3.437   6.961
 2507SOL    HW2 8421   6.799   3.580   6.882
 2508SOL     OW 8422   2.698   1.861   4.849
 2508SOL    HW1 8423   2.627   1.796   4.821
 2508SOL    HW2 8424   2.662   1.954   4.841
 2509SOL     OW 8425   6.492   4.171   0.589
 2509SOL    HW1 8426   6.499   4.075   0.563
 2509SOL    HW2 8427   6.569   4.222   0.550
 2510SOL     OW 8428   3.598   4.479   1.122
 2510SOL    HW1 8429   3.680   4.423   1.139
 2510SOL    HW2 8430   3.596   4.505   1.026
 2511SOL     OW 8431   2.289   0.977   4.840
 2511SOL    HW1 8432   2.209   0.952   4.787
 2511SOL    HW2 8433   2.324   1.065   4.808
 2512SOL     OW 8434   3.997   4.258   5.429
 2512SOL    HW1 8435   3.969   4.349   5.399
 2512SOL    HW2 8436   3.917   4.207   5.461
 2513SOL     OW 8437   2.041   5.760   5.368
 2513SOL    HW1 8438   2.031   5.763   5.467
 2513SOL    HW2 8439   2.137   5.744   5.345
 2514SOL     OW 8440   0.508   3.165   4.137
 2514SOL    HW1 8441   0.517   3.082   4.193
 2514SOL    HW2 8442   0.415   3.169   4.099
 2515SOL     OW 8443   1.575   0.231   1.401
 2515SOL    HW1 8444   1.570   0.327   1.374
 2515SOL    HW2 8445   1.653   0.188   1.356
 2516SOL     OW 8446   5.239   0.988   2.637
 2516SOL    HW1 8447   5.249   0.889   2.626
 2516SOL    HW2 8448   5.160   1.007   2.695
 2517SOL     OW 8449   2.101   6.806   5.698
 2517SOL    HW1 8450   2.070   6.851   5.614
 2517SOL    HW2 8451   2.091   6.869   5.775
 2518SOL     OW 8452   1.641   5.341   1.283
 2518SOL    HW1 8453   1.570   5.296   1.228
 2518SOL    HW2 8454   1.717   5.278   1.299
 2519SOL     OW 8455   3.461   0.848   1.470
 2519SOL    HW1 8456   3.549   0.846   1.421
 2519SOL    HW2 8457   3.421   0.939   1.463
 2520SOL     OW 8458   3.475   1.780   6.914
 2520SOL    HW1 8459   3.386   1.772   6.870
 2520SOL    HW2 8460   3.541   1.722   6.866
 2521SOL     OW 8461   3.474   2.001   5.809
 2521SOL    HW1 8462   3.458   2.081   5.866
 2521SOL    HW2 8463   3.503   2.030   5.718
 2522SOL     OW 8464   1.098   1.602   5.551
 2522SOL    HW1 8465   1.131   1.682   5.502
 2522SOL    HW2 8466   1.070   1.532   5.485
 2523SOL     OW 8467   1.681   3.628   1.191
 2523SOL    HW1 8468   1.713   3.534   1.203
 2523SOL    HW2 8469   1.688   3.654   1.095
 2524SOL     OW 8470   0.496   6.649   4.799
 2524SOL    HW1 8471   0.550   6.728   4.770
 2524SOL    HW2 8472   0.454   6.607   4.719
 2525SOL     OW 8473   1.454   3.319   4.841
 2525SOL    HW1 8474   1.473   3.368   4.926
 2525SOL    HW2 8475   1.369   3.352   4.801
 2526SOL     OW 8476   1.541   4.900   6.413
 2526SOL    HW1 8477   1.553   4.818   6.355
 2526SOL    HW2 8478   1.537   4.872   6.509
 2527SOL     OW 8479   4.874   5.653   5.784
 2527SOL    HW1 8480   4.917   5.732   5.828
 2527SOL    HW2 8481   4.810   5.684   5.714
 2528SOL     OW 8482   5.546   4.012   5.236
 2528SOL    HW1 8483   5.537   4.026   5.335
 2528SOL    HW2 8484   5.635   3.969   5.217
 2529SOL     OW 8485   0.594   0.149   6.948
 2529SOL    HW1 8486   0.678   0.155   6.894
 2529SOL    HW2 8487   0.523   0.206   6.907
 2530SOL     OW 8488   2.635   6.006   5.579
 2530SOL    HW1 8489   2.643   5.997   5.480
 2530SOL    HW2 8490   2.726   6.009   5.620
 2531SOL     OW 8491   5.949   5.870   5.584
 2531SOL    HW1 8492   5.877   5.844   5.649
 2531SOL    HW2 8493   5.972   5.966   5.596
 2532SOL     OW 8494   0.287   6.801   0.607
 2532SOL    HW1 8495   0.337   6.720   0.574
 2532SOL    HW2 8496   0.352   6.875   0.625
 2533SOL     OW 8497   4.472   0.718   3.939
 2533SOL    HW1 8498   4.456   0.621   3.958
 2533SOL    HW2 8499   4.390   0.771   3.963
 2534SOL     OW 8500   4.117   1.319   1.659
 2534SOL    HW1 8501   4.201   1.372   1.671
 2534SOL    HW2 8502   4.071   1.348   1.575
 2535SOL     OW 8503   3.110   2.165   6.765
 2535SOL    HW1 8504   3.157   2.119   6.840
 2535SOL    HW2 8505   3.108   2.264   6.782
 2536SOL     OW 8506   1.649   0.623   6.411
 2536SOL    HW1 8507   1.597   0.538   6.406
 2536SOL    HW2 8508   1.641   0.662   6.503
 2537SOL     OW 8509   3.443   6.933   6.351
 2537SOL    HW1 8510   3.448   0.006   6.322
 2537SOL    HW2 8511   3.356   6.916   6.398
 2538SOL     OW 8512   0.218   3.962   4.095
 2538SOL    HW1 8513   0.263   4.050   4.106
 2538SOL    HW2 8514   0.154   3.967   4.018
 2539SOL     OW 8515   5.142   0.746   4.099
 2539SOL    HW1 8516   5.159   0.780   4.006
 2539SOL    HW2 8517   5.218   0.688   4.128
 2540SOL     OW 8518   4.228   2.069   2.436
 2540SOL    HW1 8519   4.272   2.047   2.349
 2540SOL    HW2 8520   4.247   2.164   2.460
 2541SOL     OW 8521   2.474   6.645   5.400
 2541SOL    HW1 8522   2.462   6.643   5.499
 2541SOL    HW2 8523   2.535   6.570   5.373
 2542SOL     OW 8524   3.327   3.727   6.787
 2542SOL    HW1 8525   3.372   3.801   6.738
 2542SOL    HW2 8526   3.321   3.750   6.884
 2543SOL     OW 8527   0.589   1.076   4.142
 2543SOL    HW1 8528   0.537   1.141   4.086
 2543SOL    HW2 8529   0.622   1.002   4.084
 2544SOL     OW 8530   0.571   6.076   0.609
 2544SOL    HW1 8531   0.549   6.085   0.512
 2544SOL    HW2 8532   0.661   6.032   0.619
 2545SOL     OW 8533   1.556   6.681   2.239
 2545SOL    HW1 8534   1.505   6.649   2.318
 2545SOL    HW2 8535   1.636   6.623   2.225
 2546SOL     OW 8536   6.963   1.983   1.251
 2546SOL    HW1 8537   6.898   1.908   1.242
 2546SOL    HW2 8538   0.025   1.959   1.205
 2547SOL     OW 8539   0.240   3.593   6.974
 2547SOL    HW1 8540   0.206   3.532   6.902
 2547SOL    HW2 8541   0.340   3.591   6.976
 2548SOL     OW 8542   0.348   6.965   4.543
 2548SOL    HW1 8543   0.345   0.040   4.523
 2548SOL    HW2 8544   0.269   6.940   4.599
 2549SOL     OW 8545   0.893   0.873   1.691
 2549SOL    HW1 8546   0.907   0.776   1.710
 2549SOL    HW2 8547   0.981   0.920   1.689
 2550SOL     OW 8548   6.352   6.701   0.596
 2550SOL    HW1 8549   6.420   6.774   0.604
 2550SOL    HW2 8550   6.272   6.735   0.547
 2551SOL     OW 8551   2.910   4.645   0.471
 2551SOL    HW1 8552   2.912   4.689   0.561
 2551SOL    HW2 8553   2.875   4.552   0.479
 2552SOL     OW 8554   2.506   5.614   4.902
 2552SOL    HW1 8555   2.471   5.708   4.905
 2552SOL    HW2 8556   2.441   5.556   4.853
 2553SOL     OW 8557   3.889   3.470   5.850
 2553SOL    HW1 8558   3.876   3.508   5.758
 2553SOL    HW2 8559   3.800   3.445   5.888
 2554SOL     OW 8560   2.531   1.148   0.035
 2554SOL    HW1 8561   2.483   1.099   0.108
 2554SOL    HW2 8562   2.521   1.247   0.048
 2555SOL     OW 8563   5.707   1.751   4.142
 2555SOL    HW1 8564   5.759   1.826   4.100
 2555SOL    HW2 8565   5.757   1.665   4.129
 2556SOL     OW 8566   4.500   5.763   0.324
 2556SOL    HW1 8567   4.403   5.743   0.308
 2556SOL    HW2 8568   4.508   5.847   0.378
 2557SOL     OW 8569   1.833   3.507   0.162
 2557SOL    HW1 8570   1.911   3.539   0.109
 2557SOL    HW2 8571   1.863   3.438   0.228
 2558SOL     OW 8572   5.238   0.840   5.544
 2558SOL    HW1 8573   5.221   0.929   5.502
 2558SOL    HW2 8574   5.160   0.780   5.527
 2559SOL     OW 8575   1.369   4.324   5.539
 2559SOL    HW1 8576   1.269   4.324   5.528
 2559SOL    HW2 8577   1.396   4.403   5.593
 2560SOL     OW 8578   6.775   2.042   5.728
 2560SOL    HW1 8579   6.689   2.093   5.727
 2560SOL    HW2 8580   6.827   2.064   5.645
 2561SOL     OW 8581   2.341   4.910   5.279
 2561SOL    HW1 8582   2.409   4.838   5.297
 2561SOL    HW2 8583   2.361   4.990   5.335
 2562SOL     OW 8584   2.316   4.525   1.204
 2562SOL    HW1 8585   2.271   4.458   1.144
 2562SOL    HW2 8586   2.400   4.486   1.240
 2563SOL     OW 8587   3.310   1.257   0.708
 2563SOL    HW1 8588   3.229   1.241   0.652
 2563SOL    HW2 8589   3.392   1.238   0.653
 2564SOL     OW 8590   1.257   5.563   0.246
 2564SOL    HW1 8591   1.353   5.540   0.261
 2564SOL    HW2 8592   1.209   5.483   0.210
 2565SOL     OW 8593   0.980   0.706   7.011
 2565SOL    HW1 8594   0.985   0.717   6.911
 2565SOL    HW2 8595   0.905   0.645   0.011
 2566SOL     OW 8596   2.356   6.621   1.427
 2566SOL    HW1 8597   2.285   6.633   1.358
 2566SOL    HW2 8598   2.409   6.539   1.407
 2567SOL     OW 8599   1.252   0.406   0.857
 2567SOL    HW1 8600   1.212   0.487   0.899
 2567SOL    HW2 8601   1.243   0.328   0.920
 2568SOL     OW 8602   4.278   2.244   6.993
 2568SOL    HW1 8603   4.352   2.194   6.948
 2568SOL    HW2 8604   4.229   2.299   6.925
 2569SOL     OW 8605   3.435   1.270   3.134
 2569SOL    HW1 8606   3.467   1.195   3.076
 2569SOL    HW2 8607   3.356   1.240   3.187
 2570SOL     OW 8608   5.649   0.611   5.566
 2570SOL    HW1 8609   5.610   0.587   5.654
 2570SOL    HW2 8610   5.664   0.528   5.512
 2571SOL     OW 8611   1.425   4.823   3.603
 2571SOL    HW1 8612   1.439   4.769   3.686
 2571SOL    HW2 8613   1.487   4.902   3.604
 2572SOL     OW 8614   2.797   5.148   2.404
 2572SOL    HW1 8615   2.752   5.234   2.426
 2572SOL    HW2 8616   2.873   5.133   2.467
 2573SOL     OW 8617   1.101   2.053   1.071
 2573SOL    HW1 8618   1.112   1.959   1.106
 2573SOL    HW2 8619   1.040   2.052   0.992
 2574SOL     OW 8620   4.988   3.727   0.900
 2574SOL    HW1 8621   5.008   3.800   0.965
 2574SOL    HW2 8622   4.958   3.767   0.813
 2575SOL     OW 8623   5.982   5.693   6.785
 2575SOL    HW1 8624   6.058   5.648   6.739
 2575SOL    HW2 8625   5.973   5.787   6.750
 2576SOL     OW 8626   4.031   6.204   4.588
 2576SOL    HW1 8627   4.105   6.144   4.556
 2576SOL    HW2 8628   4.019   6.191   4.687
 2577SOL     OW 8629   2.619   5.250   1.958
 2577SOL    HW1 8630   2.568   5.270   2.041
 2577SOL    HW2 8631   2.711   5.217   1.982
 2578SOL     OW 8632   4.109   1.515   3.821
 2578SOL    HW1 8633   4.041   1.454   3.781
 2578SOL    HW2 8634   4.076   1.609   3.819
 2579SOL     OW 8635   0.664   6.127   3.933
 2579SOL    HW1 8636   0.718   6.211   3.939
 2579SOL    HW2 8637   0.581   6.137   3.988
 2580SOL     OW 8638   2.089   4.701   6.997
 2580SOL    HW1 8639   2.170   4.692   0.032
 2580SOL    HW2 8640   2.095   4.786   6.945
 2581SOL     OW 8641   2.066   5.608   0.655
 2581SOL    HW1 8642   2.166   5.614   0.653
 2581SOL    HW2 8643   2.030   5.680   0.714
 2582SOL     OW 8644   0.241   4.279   1.697
 2582SOL    HW1 8645   0.261   4.350   1.630
 2582SOL    HW2 8646   0.198   4.201   1.651
 2583SOL     OW 8647   0.512   0.765   0.024
 2583SOL    HW1 8648   0.560   0.814   0.096
 2583SOL    HW2 8649   0.450   0.828   7.000
 2584SOL     OW 8650   4.243   5.145   5.712
 2584SOL    HW1 8651   4.269   5.204   5.635
 2584SOL    HW2 8652   4.148   5.114   5.699
 2585SOL     OW 8653   2.585   4.471   6.982
 2585SOL    HW1 8654   2.552   4.530   0.033
 2585SOL    HW2 8655   2.663   4.417   7.014
 2586SOL     OW 8656   2.934   0.852   5.837
 2586SOL    HW1 8657   2.887   0.795   5.770
 2586SOL    HW2 8658   3.018   0.806   5.867
 2587SOL     OW 8659   0.288   1.462   3.126
 2587SOL    HW1 8660   0.322   1.465   3.032
 2587SOL    HW2 8661   0.271   1.555   3.158
 2588SOL     OW 8662   4.033   2.376   5.289
 2588SOL    HW1 8663   3.964   2.439   5.325
 2588SOL    HW2 8664   4.106   2.428   5.244
 2589SOL     OW 8665   1.224   6.361   6.409
 2589SOL    HW1 8666   1.312   6.332   6.444
 2589SOL    HW2 8667   1.158   6.286   6.416
 2590SOL     OW 8668   2.735   5.105   0.499
 2590SOL    HW1 8669   2.696   5.195   0.518
 2590SOL    HW2 8670   2.781   5.107   0.410
 2591SOL     OW 8671   6.379   5.470   3.451
 2591SOL    HW1 8672   6.396   5.568   3.448
 2591SOL    HW2 8673   6.407   5.428   3.365
 2592SOL     OW 8674   2.801   4.036   6.616
 2592SOL    HW1 8675   2.823   3.942   6.590
 2592SOL    HW2 8676   2.735   4.035   6.692
 2593SOL     OW 8677   3.278   5.813   0.764
 2593SOL    HW1 8678   3.349   5.842   0.828
 2593SOL    HW2 8679   3.319   5.790   0.676
 2594SOL     OW 8680   2.499   4.293   6.421
 2594SOL    HW1 8681   2.516   4.392   6.423
 2594SOL    HW2 8682   2.586   4.246   6.405
 2595SOL     OW 8683   0.977   1.565   4.680
 2595SOL    HW1 8684   1.040   1.637   4.711
 2595SOL    HW2 8685   1.029   1.485   4.650
 2596SOL     OW 8686   2.034   3.074   1.226
 2596SOL    HW1 8687   2.108   3.007   1.239
 2596SOL    HW2 8688   2.015   3.120   1.312
 2597SOL     OW 8689   6.782   5.303   6.411
 2597SOL    HW1 8690   6.868   5.256   6.389
 2597SOL    HW2 8691   6.706   5.238   6.405
 2598SOL     OW 8692   6.249   1.590   1.834
 2598SOL    HW1 8693   6.283   1.573   1.742
 2598SOL    HW2 8694   6.317   1.641   1.886
 2599SOL     OW 8695   1.703   6.709   1.310
 2599SOL    HW1 8696   1.713   6.710   1.409
 2599SOL    HW2 8697   1.752   6.631   1.271
 2600SOL     OW 8698   5.762   3.654   4.362
 2600SOL    HW1 8699   5.794   3.569   4.319
 2600SOL    HW2 8700   5.710   3.707   4.296
 2601SOL     OW 8701   1.862   2.029   2.173
 2601SOL    HW1 8702   1.948   1.994   2.210
 2601SOL    HW2 8703   1.881   2.097   2.102
 2602SOL     OW 8704   1.584   5.323   3.910
 2602SOL    HW1 8705   1.665   5.296   3.963
 2602SOL    HW2 8706   1.505   5.273   3.945
 2603SOL     OW 8707   2.949   1.197   2.077
 2603SOL    HW1 8708   2.989   1.163   1.992
 2603SOL    HW2 8709   2.937   1.122   2.141
 2604SOL     OW 8710   5.061   1.683   1.953
 2604SOL    HW1 8711   5.031   1.758   2.011
 2604SOL    HW2 8712   5.146   1.707   1.906
 2605SOL     OW 8713   1.206   4.031   2.615
 2605SOL    HW1 8714   1.225   4.098   2.686
 2605SOL    HW2 8715   1.264   4.048   2.536
 2606SOL     OW 8716   5.308   5.015   1.253
 2606SOL    HW1 8717   5.375   5.004   1.180
 2606SOL    HW2 8718   5.258   4.929   1.265
 2607SOL     OW 8719   1.775   2.529   1.256
 2607SOL    HW1 8720   1.687   2.498   1.292
 2607SOL    HW2 8721   1.765   2.553   1.159
 2608SOL     OW 8722   1.969   5.908   6.683
 2608SOL    HW1 8723   2.041   5.839   6.689
 2608SOL    HW2 8724   1.910   5.901   6.764
 2609SOL     OW 8725   0.517   1.200   1.275
 2609SOL    HW1 8726   0.546   1.235   1.186
 2609SOL    HW2 8727   0.597   1.167   1.326
 2610SOL     OW 8728   1.225   5.131   4.354
 2610SOL    HW1 8729   1.300   5.099   4.412
 2610SOL    HW2 8730   1.229   5.231   4.347
 2611SOL     OW 8731   4.674   6.180   0.198
 2611SOL    HW1 8732   4.747   6.248   0.195
 2611SOL    HW2 8733   4.668   6.142   0.291
 2612SOL     OW 8734   5.041   6.700   4.648
 2612SOL    HW1 8735   4.978   6.645   4.703
 2612SOL    HW2 8736   5.125   6.648   4.632
 2613SOL     OW 8737   1.007   5.594   5.972
 2613SOL    HW1 8738   0.988   5.667   6.037
 2613SOL    HW2 8739   0.968   5.617   5.883
 2614SOL     OW 8740   5.921   0.706   6.154
 2614SOL    HW1 8741   5.888   0.753   6.236
 2614SOL    HW2 8742   5.860   0.726   6.077
 2615SOL     OW 8743   1.192   3.404   1.478
 2615SOL    HW1 8744   1.135   3.424   1.558
 2615SOL    HW2 8745   1.134   3.391   1.398
 2616SOL     OW 8746   1.123   1.158   5.417
 2616SOL    HW1 8747   1.162   1.164   5.509
 2616SOL    HW2 8748   1.197   1.152   5.350
 2617SOL     OW 8749   5.355   0.154   0.900
 2617SOL    HW1 8750   5.392   0.106   0.980
 2617SOL    HW2 8751   5.282   0.216   0.930
 2618SOL     OW 8752   1.818   5.689   5.211
 2618SOL    HW1 8753   1.902   5.705   5.263
 2618SOL    HW2 8754   1.825   5.602   5.162
 2619SOL     OW 8755   3.902   1.870   1.988
 2619SOL    HW1 8756   3.810   1.834   2.003
 2619SOL    HW2 8757   3.938   1.836   1.902
 2620SOL     OW 8758   6.344   6.051   1.832
 2620SOL    HW1 8759   6.256   6.018   1.864
 2620SOL    HW2 8760   6.405   5.973   1.817
 2621SOL     OW 8761   0.356   6.100   2.523
 2621SOL    HW1 8762   0.331   6.009   2.558
 2621SOL    HW2 8763   0.335   6.169   2.591
 2622SOL     OW 8764   3.374   3.032   5.872
 2622SOL    HW1 8765   3.276   3.043   5.884
 2622SOL    HW2 8766   3.419   3.027   5.962
 2623SOL     OW 8767   0.316   6.608   3.775
 2623SOL    HW1 8768   0.291   6.668   3.698
 2623SOL    HW2 8769   0.332   6.515   3.741
 2624SOL     OW 8770   6.547   1.796   4.422
 2624SOL    HW1 8771   6.591   1.788   4.511
 2624SOL    HW2 8772   6.472   1.862   4.428
 2625SOL     OW 8773   1.909   5.385   5.357
 2625SOL    HW1 8774   1.988   5.324   5.358
 2625SOL    HW2 8775   1.918   5.450   5.281
 2626SOL     OW 8776   6.796   6.509   5.289
 2626SOL    HW1 8777   6.890   6.540   5.277
 2626SOL    HW2 8778   6.739   6.586   5.320
 2627SOL     OW 8779   1.167   6.936   5.968
 2627SOL    HW1 8780   1.259   6.958   5.936
 2627SOL    HW2 8781   1.123   6.873   5.904
 2628SOL     OW 8782   1.544   3.682   3.904
 2628SOL    HW1 8783   1.468   3.722   3.854
 2628SOL    HW2 8784   1.589   3.613   3.847
 2629SOL     OW 8785   3.098   3.719   3.507
 2629SOL    HW1 8786   3.108   3.818   3.491
 2629SOL    HW2 8787   3.038   3.681   3.437
 2630SOL     OW 8788   3.977   1.465   3.272
 2630SOL    HW1 8789   4.018   1.503   3.355
 2630SOL    HW2 8790   3.976   1.366   3.277
 2631SOL     OW 8791   5.869   0.477   6.707
 2631SOL    HW1 8792   5.890   0.393   6.657
 2631SOL    HW2 8793   5.770   0.489   6.711
 2632SOL     OW 8794   5.610   4.999   1.404
 2632SOL    HW1 8795   5.530   4.956   1.445
 2632SOL    HW2 8796   5.688   4.989   1.465
 2633SOL     OW 8797   6.718   2.687   5.421
 2633SOL    HW1 8798   6.765   2.628   5.356
 2633SOL    HW2 8799   6.702   2.777   5.380
 2634SOL     OW 8800   6.523   6.575   4.597
 2634SOL    HW1 8801   6.430   6.572   4.560
 2634SOL    HW2 8802   6.534   6.503   4.665
 2635SOL     OW 8803   5.363   5.369   3.889
 2635SOL    HW1 8804   5.344   5.341   3.983
 2635SOL    HW2 8805   5.445   5.427   3.888
 2636SOL     OW 8806   4.253   0.489   5.830
 2636SOL    HW1 8807   4.254   0.452   5.923
 2636SOL    HW2 8808   4.167   0.538   5.815
 2637SOL     OW 8809   0.613   1.746   2.880
 2637SOL    HW1 8810   0.649   1.711   2.793
 2637SOL    HW2 8811   0.636   1.843   2.889
 2638SOL     OW 8812   0.816   0.395   4.290
 2638SOL    HW1 8813   0.754   0.446   4.231
 2638SOL    HW2 8814   0.831   0.303   4.251
 2639SOL     OW 8815   4.497   4.945   4.976
 2639SOL    HW1 8816   4.431   5.019   4.973
 2639SOL    HW2 8817   4.580   4.971   4.926
 2640SOL     OW 8818   1.073   0.177   4.615
 2640SOL    HW1 8819   1.067   0.209   4.520
 2640SOL    HW2 8820   1.105   0.252   4.673
 2641SOL     OW 8821   5.207   2.595   0.177
 2641SOL    HW1 8822   5.158   2.665   0.230
 2641SOL    HW2 8823   5.165   2.588   0.086
 2642SOL     OW 8824   6.763   1.167   4.541
 2642SOL    HW1 8825   6.856   1.132   4.546
 2642SOL    HW2 8826   6.739   1.185   4.445
 2643SOL     OW 8827   1.054   3.531   4.197
 2643SOL    HW1 8828   0.982   3.601   4.201
 2643SOL    HW2 8829   1.142   3.576   4.183
 2644SOL     OW 8830   4.979   5.495   4.496
 2644SOL    HW1 8831   4.886   5.472   4.468
 2644SOL    HW2 8832   4.978   5.576   4.555
 2645SOL     OW 8833   4.967   5.501   3.586
 2645SOL    HW1 8834   5.007   5.414   3.615
 2645SOL    HW2 8835   4.901   5.532   3.654
 2646SOL     OW 8836   0.601   3.942   5.994
 2646SOL    HW1 8837   0.690   3.902   6.019
 2646SOL    HW2 8838   0.529   3.873   6.006
 2647SOL     OW 8839   5.602   0.067   1.750
 2647SOL    HW1 8840   5.645   0.102   1.667
 2647SOL    HW2 8841   5.625   0.126   1.828
 2648SOL     OW 8842   0.598   0.171   4.233
 2648SOL    HW1 8843   0.645   0.130   4.311
 2648SOL    HW2 8844   0.614   0.116   4.151
 2649SOL     OW 8845   5.176   2.837   1.955
 2649SOL    HW1 8846   5.080   2.848   1.929
 2649SOL    HW2 8847   5.217   2.927   1.970
 2650SOL     OW 8848   3.240   5.962   4.807
 2650SOL    HW1 8849   3.168   5.981   4.874
 2650SOL    HW2 8850   3.299   6.043   4.799
 2651SOL     OW 8851   3.867   1.776   5.402
 2651SOL    HW1 8852   3.774   1.754   5.372
 2651SOL    HW2 8853   3.863   1.841   5.478
 2652SOL     OW 8854   4.919   3.464   5.496
 2652SOL    HW1 8855   4.986   3.440   5.567
 2652SOL    HW2 8856   4.951   3.430   5.408
 2653SOL     OW 8857   3.326   6.331   6.670
 2653SOL    HW1 8858   3.422   6.361   6.669
 2653SOL    HW2 8859   3.294   6.322   6.576
 2654SOL     OW 8860   5.167   6.983   0.289
 2654SOL    HW1 8861   5.222   0.043   0.301
 2654SOL    HW2 8862   5.123   6.985   0.199
 2655SOL     OW 8863   5.128   6.343   3.188
 2655SOL    HW1 8864   5.077   6.426   3.213
 2655SOL    HW2 8865   5.071   6.263   3.204
 2656SOL     OW 8866   3.743   5.898   3.715
 2656SOL    HW1 8867   3.781   5.866   3.628
 2656SOL    HW2 8868   3.652   5.859   3.728
 2657SOL     OW 8869   2.139   3.476   0.247
 2657SOL    HW1 8870   2.174   3.424   0.168
 2657SOL    HW2 8871   2.216   3.500   0.307
 2658SOL     OW 8872   4.118   4.491   6.291
 2658SOL    HW1 8873   4.091   4.412   6.347
 2658SOL    HW2 8874   4.053   4.502   6.216
 2659SOL     OW 8875   5.496   2.330   5.071
 2659SOL    HW1 8876   5.497   2.430   5.076
 2659SOL    HW2 8877   5.428   2.295   5.135
 2660SOL     OW 8878   0.913   1.515   0.880
 2660SOL    HW1 8879   0.904   1.570   0.963
 2660SOL    HW2 8880   0.953   1.426   0.903
 2661SOL     OW 8881   1.439   0.488   1.565
 2661SOL    HW1 8882   1.496   0.507   1.485
 2661SOL    HW2 8883   1.439   0.568   1.625
 2662SOL     OW 8884   3.383   0.861   2.983
 2662SOL    HW1 8885   3.402   0.940   2.925
 2662SOL    HW2 8886   3.386   0.778   2.928
 2663SOL     OW 8887   3.164   6.916   6.124
 2663SOL    HW1 8888   3.240   6.938   6.062
 2663SOL    HW2 8889   3.111   6.840   6.086
 2664SOL     OW 8890   3.798   2.961   5.243
 2664SOL    HW1 8891   3.847   2.952   5.329
 2664SOL    HW2 8892   3.748   2.877   5.223
 2665SOL     OW 8893   2.275   3.760   5.276
 2665SOL    HW1 8894   2.325   3.677   5.302
 2665SOL    HW2 8895   2.338   3.822   5.228
 2666SOL     OW 8896   2.013   3.809   2.556
 2666SOL    HW1 8897   1.934   3.772   2.604
 2666SOL    HW2 8898   2.064   3.735   2.512
 2667SOL     OW 8899   5.847   4.188   3.733
 2667SOL    HW1 8900   5.893   4.136   3.806
 2667SOL    HW2 8901   5.848   4.134   3.649
 2668SOL     OW 8902   5.877   1.655   4.773
 2668SOL    HW1 8903   5.778   1.669   4.775
 2668SOL    HW2 8904   5.901   1.599   4.693
 2669SOL     OW 8905   2.007   0.030   0.400
 2669SOL    HW1 8906   2.027   6.997   0.480
 2669SOL    HW2 8907   2.027   0.126   0.420
 2670SOL     OW 8908   6.838   1.290   5.639
 2670SOL    HW1 8909   6.792   1.355   5.578
 2670SOL    HW2 8910   6.816   1.311   5.734
 2671SOL     OW 8911   3.773   5.392   5.915
 2671SOL    HW1 8912   3.785   5.402   5.816
 2671SOL    HW2 8913   3.757   5.482   5.956
 2672SOL     OW 8914   3.866   1.088   1.827
 2672SOL    HW1 8915   3.776   1.063   1.862
 2672SOL    HW2 8916   3.908   1.156   1.886
 2673SOL     OW 8917   4.666   0.274   2.581
 2673SOL    HW1 8918   4.631   0.251   2.672
 2673SOL    HW2 8919   4.750   0.223   2.563
 2674SOL     OW 8920   0.805   5.588   3.079
 2674SOL    HW1 8921   0.727   5.649   3.095
 2674SOL    HW2 8922   0.837   5.552   3.167
 2675SOL     OW 8923   6.992   6.339   3.780
 2675SOL    HW1 8924   0.042   6.281   3.816
 2675SOL    HW2 8925   0.003   6.433   3.770
 2676SOL     OW 8926   3.343   3.948   2.623
 2676SOL    HW1 8927   3.292   4.018   2.574
 2676SOL    HW2 8928   3.280   3.889   2.673
 2677SOL     OW 8929   1.963   4.785   1.470
 2677SOL    HW1 8930   2.008   4.714   1.524
 2677SOL    HW2 8931   1.865   4.785   1.491
 2678SOL     OW 8932   5.694   2.582   2.702
 2678SOL    HW1 8933   5.614   2.570   2.644
 2678SOL    HW2 8934   5.672   2.556   2.795
 2679SOL     OW 8935   1.530   5.246   2.597
 2679SOL    HW1 8936   1.476   5.197   2.529
 2679SOL    HW2 8937   1.626   5.246   2.570
 2680SOL     OW 8938   1.019   2.149   6.709
 2680SOL    HW1 8939   0.964   2.067   6.728
 2680SOL    HW2 8940   1.092   2.126   6.645
 2681SOL     OW 8941   1.405   3.053   4.926
 2681SOL    HW1 8942   1.404   2.973   4.866
 2681SOL    HW2 8943   1.428   3.135   4.872
 2682SOL     OW 8944   4.723   4.354   2.182
 2682SOL    HW1 8945   4.698   4.442   2.221
 2682SOL    HW2 8946   4.657   4.329   2.111
 2683SOL     OW 8947   2.018   3.816   2.872
 2683SOL    HW1 8948   1.970   3.729   2.869
 2683SOL    HW2 8949   2.051   3.838   2.780
 2684SOL     OW 8950   5.725   5.846   2.151
 2684SOL    HW1 8951   5.724   5.881   2.244
 2684SOL    HW2 8952   5.779   5.907   2.093
 2685SOL     OW 8953   6.965   5.743   4.980
 2685SOL    HW1 8954   7.008   5.820   4.932
 2685SOL    HW2 8955   7.023   5.715   5.057
 2686SOL     OW 8956   1.250   1.135   4.644
 2686SOL    HW1 8957   1.348   1.151   4.642
 2686SOL    HW2 8958   1.202   1.223   4.643
 2687SOL     OW 8959   4.105   1.439   2.296
 2687SOL    HW1 8960   4.015   1.470   2.325
 2687SOL    HW2 8961   4.096   1.361   2.233
 2688SOL     OW 8962   3.827   2.461   6.548
 2688SOL    HW1 8963   3.884   2.537   6.578
 2688SOL    HW2 8964   3.829   2.389   6.618
 2689SOL     OW 8965   0.553   4.264   3.143
 2689SOL    HW1 8966   0.515   4.314   3.221
 2689SOL    HW2 8967   0.614   4.324   3.091
 2690SOL     OW 8968   3.710   1.676   6.022
 2690SOL    HW1 8969   3.706   1.775   6.042
 2690SOL    HW2 8970   3.751   1.629   6.100
 2691SOL     OW 8971   7.007   4.328   4.358
 2691SOL    HW1 8972   7.001   4.386   4.439
 2691SOL    HW2 8973   6.915   4.297   4.333
 2692SOL     OW 8974   2.944   5.691   2.565
 2692SOL    HW1 8975   2.989   5.680   2.654
 2692SOL    HW2 8976   2.845   5.680   2.576
 2693SOL     OW 8977   1.423   5.873   4.008
 2693SOL    HW1 8978   1.477   5.884   4.092
 2693SOL    HW2 8979   1.469   5.808   3.948
 2694SOL     OW 8980   2.984   6.803   3.703
 2694SOL    HW1 8981   3.064   6.759   3.743
 2694SOL    HW2 8982   3.000   6.901   3.694
 2695SOL     OW 8983   6.461   6.534   2.726
 2695SOL    HW1 8984   6.456   6.520   2.825
 2695SOL    HW2 8985   6.442   6.448   2.679
 2696SOL     OW 8986   5.323   3.954   6.280
 2696SOL    HW1 8987   5.419   3.957   6.309
 2696SOL    HW2 8988   5.291   4.047   6.260
 2697SOL     OW 8989   4.107   1.677   0.864
 2697SOL    HW1 8990   4.150   1.646   0.779
 2697SOL    HW2 8991   4.172   1.730   0.918
 2698SOL     OW 8992   1.414   4.629   6.077
 2698SOL    HW1 8993   1.448   4.646   6.169
 2698SOL    HW2 8994   1.423   4.532   6.055
 2699SOL     OW 8995   3.308   6.149   2.460
 2699SOL    HW1 8996   3.375   6.173   2.530
 2699SOL    HW2 8997   3.217   6.144   2.500
 2700SOL     OW 8998   3.125   2.085   1.373
 2700SOL    HW1 8999   3.051   2.143   1.405
 2700SOL    HW2 9000   3.090   2.022   1.304
 2701SOL     OW 9001   5.045   2.799   4.760
 2701SOL    HW1 9002   5.084   2.766   4.845
 2701SOL    HW2 9003   5.010   2.892   4.772
 2702SOL     OW 9004   2.639   1.628   4.626
 2702SOL    HW1 9005   2.618   1.591   4.536
 2702SOL    HW2 9006   2.737   1.617   4.644
 2703SOL     OW 9007   1.644   6.146   1.928
 2703SOL    HW1 9008   1.583   6.109   1.858
 2703SOL    HW2 9009   1.647   6.083   2.006
 2704SOL     OW 9010   6.582   5.970   3.393
 2704SOL    HW1 9011   6.506   6.035   3.387
 2704SOL    HW2 9012   6.611   5.945   3.300
 2705SOL     OW 9013   0.557   0.612   4.866
 2705SOL    HW1 9014   0.574   0.692   4.924
 2705SOL    HW2 9015   0.508   0.641   4.783
 2706SOL     OW 9016   6.544   4.420   4.315
 2706SOL    HW1 9017   6.601   4.500   4.295
 2706SOL    HW2 9018   6.532   4.412   4.413
 2707SOL     OW 9019   4.022   6.932   2.950
 2707SOL    HW1 9020   3.956   6.882   2.893
 2707SOL    HW2 9021   4.096   6.871   2.977
 2708SOL     OW 9022   5.707   2.598   0.092
 2708SOL    HW1 9023   5.771   2.674   0.093
 2708SOL    HW2 9024   5.718   2.543   0.175
 2709SOL     OW 9025   5.088   6.913   5.964
 2709SOL    HW1 9026   5.035   6.828   5.966
 2709SOL    HW2 9027   5.180   6.895   5.928
 2710SOL     OW 9028   1.459   3.358   4.361
 2710SOL    HW1 9029   1.520   3.405   4.424
 2710SOL    HW2 9030   1.373   3.336   4.407
 2711SOL     OW 9031   3.536   2.068   3.759
 2711SOL    HW1 9032   3.578   2.060   3.669
 2711SOL    HW2 9033   3.477   1.989   3.775
 2712SOL     OW 9034   3.831   5.463   2.511
 2712SOL    HW1 9035   3.828   5.524   2.589
 2712SOL    HW2 9036   3.742   5.419   2.499
 2713SOL     OW 9037   4.449   4.537   6.378
 2713SOL    HW1 9038   4.399   4.472   6.434
 2713SOL    HW2 9039   4.471   4.496   6.289
 2714SOL     OW 9040   3.342   3.967   6.443
 2714SOL    HW1 9041   3.387   4.049   6.407
 2714SOL    HW2 9042   3.258   3.994   6.490
 2715SOL     OW 9043   5.333   1.156   1.411
 2715SOL    HW1 9044   5.420   1.164   1.363
 2715SOL    HW2 9045   5.344   1.184   1.506
 2716SOL     OW 9046   4.246   1.972   2.824
 2716SOL    HW1 9047   4.170   1.958   2.888
 2716SOL    HW2 9048   4.240   2.064   2.786
 2717SOL     OW 9049   1.449   1.212   2.448
 2717SOL    HW1 9050   1.443   1.270   2.529
 2717SOL    HW2 9051   1.484   1.265   2.371
 2718SOL     OW 9052   0.326   0.288   6.169
 2718SOL    HW1 9053   0.374   0.268   6.255
 2718SOL    HW2 9054   0.353   0.378   6.136
 2719SOL     OW 9055   1.792   3.986   2.486
 2719SOL    HW1 9056   1.854   3.954   2.414
 2719SOL    HW2 9057   1.844   4.019   2.564
 2720SOL     OW 9058   1.470   0.362   5.170
 2720SOL    HW1 9059   1.396   0.370   5.238
 2720SOL    HW2 9060   1.497   0.267   5.160
 2721SOL     OW 9061   2.876   5.897   1.896
 2721SOL    HW1 9062   2.903   5.926   1.804
 2721SOL    HW2 9063   2.950   5.842   1.935
 2722SOL     OW 9064   3.973   5.418   0.137
 2722SOL    HW1 9065   3.976   5.505   0.087
 2722SOL    HW2 9066   3.932   5.348   0.078
 2723SOL     OW 9067   3.240   6.650   0.355
 2723SOL    HW1 9068   3.326   6.636   0.307
 2723SOL    HW2 9069   3.259   6.685   0.447
 2724SOL     OW 9070   1.009   6.001   0.206
 2724SOL    HW1 9071   0.992   6.099   0.220
 2724SOL    HW2 9072   0.924   5.950   0.217
 2725SOL     OW 9073   5.206   3.476   4.585
 2725SOL    HW1 9074   5.226   3.570   4.613
 2725SOL    HW2 9075   5.155   3.430   4.658
 2726SOL     OW 9076   0.901   1.786   1.452
 2726SOL    HW1 9077   0.824   1.823   1.400
 2726SOL    HW2 9078   0.867   1.736   1.532
 2727SOL     OW 9079   2.106   4.128   4.319
 2727SOL    HW1 9080   2.139   4.121   4.225
 2727SOL    HW2 9081   2.183   4.117   4.382
 2728SOL     OW 9082   5.573   5.181   6.751
 2728SOL    HW1 9083   5.624   5.224   6.825
 2728SOL    HW2 9084   5.528   5.098   6.784
 2729SOL     OW 9085   5.378   6.426   5.907
 2729SOL    HW1 9086   5.405   6.332   5.927
 2729SOL    HW2 9087   5.443   6.466   5.842
 2730SOL     OW 9088   0.652   5.907   2.041
 2730SOL    HW1 9089   0.624   5.980   1.978
 2730SOL    HW2 9090   0.737   5.934   2.087
 2731SOL     OW 9091   2.979   3.196   3.606
 2731SOL    HW1 9092   2.995   3.178   3.703
 2731SOL    HW2 9093   3.022   3.124   3.551
 2732SOL     OW 9094   4.566   1.484   1.349
 2732SOL    HW1 9095   4.575   1.536   1.434
 2732SOL    HW2 9096   4.538   1.390   1.370
 2733SOL     OW 9097   0.214   0.388   5.844
 2733SOL    HW1 9098   0.205   0.479   5.802
 2733SOL    HW2 9099   0.129   0.364   5.890
 2734SOL     OW 9100   3.526   5.907   1.581
 2734SOL    HW1 9101   3.604   5.970   1.583
 2734SOL    HW2 9102   3.441   5.959   1.572
 2735SOL     OW 9103   1.360   2.023   0.667
 2735SOL    HW1 9104   1.398   1.936   0.699
 2735SOL    HW2 9105   1.296   2.059   0.735
 2736SOL     OW 9106   5.226   6.063   3.484
 2736SOL    HW1 9107   5.173   6.044   3.401
 2736SOL    HW2 9108   5.214   5.989   3.549
 2737SOL     OW 9109   2.691   1.850   6.169
 2737SOL    HW1 9110   2.764   1.887   6.226
 2737SOL    HW2 9111   2.625   1.801   6.226
 2738SOL     OW 9112   5.726   0.421   1.306
 2738SOL    HW1 9113   5.819   0.440   1.339
 2738SOL    HW2 9114   5.661   0.440   1.380
 2739SOL     OW 9115   1.084   5.149   1.986
 2739SOL    HW1 9116   1.144   5.070   1.972
 2739SOL    HW2 9117   1.138   5.225   2.022
 2740SOL     OW 9118   0.274   6.551   2.661
 2740SOL    HW1 9119   0.204   6.516   2.599
 2740SOL    HW2 9120   0.263   6.650   2.671
 2741SOL     OW 9121   1.155   2.293   4.441
 2741SOL    HW1 9122   1.197   2.383   4.437
 2741SOL    HW2 9123   1.061   2.299   4.406
 2742SOL     OW 9124   3.484   4.753   1.453
 2742SOL    HW1 9125   3.470   4.658   1.426
 2742SOL    HW2 9126   3.504   4.757   1.551
 2743SOL     OW 9127   6.656   4.762   2.320
 2743SOL    HW1 9128   6.732   4.696   2.316
 2743SOL    HW2 9129   6.569   4.713   2.317
 2744SOL     OW 9130   3.262   2.953   2.477
 2744SOL    HW1 9131   3.346   3.001   2.453
 2744SOL    HW2 9132   3.238   2.973   2.572
 2745SOL     OW 9133   6.658   1.187   5.951
 2745SOL    HW1 9134   6.670   1.177   6.050
 2745SOL    HW2 9135   6.571   1.147   5.924
 2746SOL     OW 9136   0.660   1.269   3.740
 2746SOL    HW1 9137   0.633   1.233   3.651
 2746SOL    HW2 9138   0.654   1.196   3.808
 2747SOL     OW 9139   3.482   5.572   0.801
 2747SOL    HW1 9140   3.412   5.626   0.754
 2747SOL    HW2 9141   3.528   5.629   0.869
 2748SOL     OW 9142   4.754   0.314   1.425
 2748SOL    HW1 9143   4.745   0.360   1.514
 2748SOL    HW2 9144   4.716   0.371   1.353
 2749SOL     OW 9145   1.853   3.358   0.398
 2749SOL    HW1 9146   1.949   3.379   0.416
 2749SOL    HW2 9147   1.800   3.369   0.483
 2750SOL     OW 9148   2.443   5.294   2.568
 2750SOL    HW1 9149   2.391   5.219   2.527
 2750SOL    HW2 9150   2.502   5.258   2.641
 2751SOL     OW 9151   1.568   2.639   1.424
 2751SOL    HW1 9152   1.571   2.730   1.383
 2751SOL    HW2 9153   1.494   2.586   1.384
 2752SOL     OW 9154   4.443   4.597   5.773
 2752SOL    HW1 9155   4.456   4.680   5.828
 2752SOL    HW2 9156   4.468   4.616   5.678
 2753SOL     OW 9157   6.351   6.628   5.191
 2753SOL    HW1 9158   6.337   6.646   5.094
 2753SOL    HW2 9159   6.266   6.647   5.241
 2754SOL     OW 9160   0.344   6.515   6.575
 2754SOL    HW1 9161   0.257   6.481   6.610
 2754SOL    HW2 9162   0.407   6.531   6.651
 2755SOL     OW 9163   2.707   6.736   2.683
 2755SOL    HW1 9164   2.778   6.800   2.712
 2755SOL    HW2 9165   2.662   6.771   2.601
 2756SOL     OW 9166   5.250   6.549   0.492
 2756SOL    HW1 9167   5.328   6.534   0.430
 2756SOL    HW2 9168   5.248   6.645   0.519
 2757SOL     OW 9169   1.188   5.194   0.940
 2757SOL    HW1 9170   1.251   5.183   1.018
 2757SOL    HW2 9171   1.241   5.197   0.855
 2758SOL     OW 9172   5.499   0.108   5.407
 2758SOL    HW1 9173   5.555   0.191   5.410
 2758SOL    HW2 9174   5.429   0.117   5.336
 2759SOL     OW 9175   5.784   6.481   3.834
 2759SOL    HW1 9176   5.838   6.554   3.874
 2759SOL    HW2 9177   5.740   6.428   3.906
 2760SOL     OW 9178   2.107   5.402   2.176
 2760SOL    HW1 9179   2.141   5.334   2.241
 2760SOL    HW2 9180   2.131   5.375   2.083
 2761SOL     OW 9181   1.068   5.725   3.390
 2761SOL    HW1 9182   1.158   5.714   3.347
 2761SOL    HW2 9183   1.011   5.646   3.368
 2762SOL     OW 9184   1.590   6.796   5.444
 2762SOL    HW1 9185   1.552   6.833   5.360
 2762SOL    HW2 9186   1.686   6.772   5.430
 2763SOL     OW 9187   5.748   2.215   3.565
 2763SOL    HW1 9188   5.740   2.239   3.662
 2763SOL    HW2 9189   5.745   2.298   3.509
 2764SOL     OW 9190   5.587   6.884   1.448
 2764SOL    HW1 9191   5.635   6.871   1.535
 2764SOL    HW2 9192   5.509   6.944   1.462
 2765SOL     OW 9193   5.324   1.519   2.063
 2765SOL    HW1 9194   5.303   1.432   2.017
 2765SOL    HW2 9195   5.274   1.525   2.149
 2766SOL     OW 9196   5.752   1.651   1.286
 2766SOL    HW1 9197   5.663   1.675   1.247
 2766SOL    HW2 9198   5.817   1.632   1.212
 2767SOL     OW 9199   6.394   4.100   6.289
 2767SOL    HW1 9200   6.378   4.014   6.337
 2767SOL    HW2 9201   6.492   4.115   6.277
 2768SOL     OW 9202   5.597   1.139   0.247
 2768SOL    HW1 9203   5.547   1.205   0.302
 2768SOL    HW2 9204   5.694   1.142   0.270
 2769SOL     OW 9205   6.747   4.228   3.094
 2769SOL    HW1 9206   6.669   4.280   3.059
 2769SOL    HW2 9207   6.716   4.139   3.128
 2770SOL     OW 9208   1.422   5.312   1.127
 2770SOL    HW1 9209   1.417   5.377   1.052
 2770SOL    HW2 9210   1.363   5.342   1.202
 2771SOL     OW 9211   5.149   1.428   1.258
 2771SOL    HW1 9212   5.070   1.415   1.199
 2771SOL    HW2 9213   5.119   1.449   1.351
 2772SOL     OW 9214   4.458   2.648   0.175
 2772SOL    HW1 9215   4.487   2.557   0.144
 2772SOL    HW2 9216   4.358   2.651   0.179
 2773SOL     OW 9217   4.144   3.565   5.920
 2773SOL    HW1 9218   4.210   3.531   5.853
 2773SOL    HW2 9219   4.051   3.552   5.885
 2774SOL     OW 9220   5.569   2.544   1.901
 2774SOL    HW1 9221   5.663   2.558   1.932
 2774SOL    HW2 9222   5.507   2.596   1.959
 2775SOL     OW 9223   6.970   6.022   1.290
 2775SOL    HW1 9224   6.922   5.935   1.297
 2775SOL    HW2 9225   6.973   6.051   1.194
 2776SOL     OW 9226   4.055   5.778   5.370
 2776SOL    HW1 9227   4.066   5.844   5.444
 2776SOL    HW2 9228   4.127   5.790   5.302
 2777SOL     OW 9229   3.307   1.046   2.627
 2777SOL    HW1 9230   3.322   1.132   2.576
 2777SOL    HW2 9231   3.351   1.053   2.716
 2778SOL     OW 9232   2.201   1.297   5.527
 2778SOL    HW1 9233   2.282   1.265   5.578
 2778SOL    HW2 9234   2.157   1.371   5.578
 2779SOL     OW 9235   5.380   6.958   0.079
 2779SOL    HW1 9236   5.327   6.874   0.092
 2779SOL    HW2 9237   5.441   6.971   0.157
 2780SOL     OW 9238   5.278   5.282   6.141
 2780SOL    HW1 9239   5.367   5.240   6.157
 2780SOL    HW2 9240   5.285   5.381   6.147
 2781SOL     OW 9241   5.666   4.870   1.759
 2781SOL    HW1 9242   5.609   4.950   1.775
 2781SOL    HW2 9243   5.761   4.893   1.781
 2782SOL     OW 9244   2.893   2.752   6.430
 2782SOL    HW1 9245   2.952   2.687   6.477
 2782SOL    HW2 9246   2.834   2.703   6.366
 2783SOL     OW 9247   6.372   3.800   5.089
 2783SOL    HW1 9248   6.458   3.773   5.044
 2783SOL    HW2 9249   6.374   3.770   5.184
 2784SOL     OW 9250   2.239   2.890   1.233
 2784SOL    HW1 9251   2.251   2.791   1.230
 2784SOL    HW2 9252   2.316   2.932   1.282
 2785SOL     OW 9253   6.739   1.396   6.796
 2785SOL    HW1 9254   6.786   1.426   6.879
 2785SOL    HW2 9255   6.778   1.443   6.717
 2786SOL     OW 9256   3.879   6.533   0.764
 2786SOL    HW1 9257   3.933   6.466   0.713
 2786SOL    HW2 9258   3.813   6.486   0.823
 2787SOL     OW 9259   2.147   4.446   6.580
 2787SOL    HW1 9260   2.171   4.459   6.676
 2787SOL    HW2 9261   2.140   4.534   6.534
 2788SOL     OW 9262   2.464   4.200   0.310
 2788SOL    HW1 9263   2.525   4.148   0.251
 2788SOL    HW2 9264   2.389   4.140   0.341
 2789SOL     OW 9265   1.212   1.717   3.678
 2789SOL    HW1 9266   1.272   1.729   3.757
 2789SOL    HW2 9267   1.138   1.655   3.702
 2790SOL     OW 9268   3.353   4.942   3.410
 2790SOL    HW1 9269   3.410   4.918   3.489
 2790SOL    HW2 9270   3.404   5.004   3.351
 2791SOL     OW 9271   2.075   4.585   5.015
 2791SOL    HW1 9272   2.070   4.488   5.039
 2791SOL    HW2 9273   2.077   4.640   5.098
 2792SOL     OW 9274   1.311   0.483   4.969
 2792SOL    HW1 9275   1.285   0.579   4.977
 2792SOL    HW2 9276   1.342   0.449   5.058
 2793SOL     OW 9277   5.326   1.562   2.531
 2793SOL    HW1 9278   5.415   1.515   2.533
 2793SOL    HW2 9279   5.333   1.648   2.581
 2794SOL     OW 9280   0.325   2.380   0.400
 2794SOL    HW1 9281   0.296   2.470   0.433
 2794SOL    HW2 9282   0.246   2.331   0.363
 2795SOL     OW 9283   3.094   4.115   1.418
 2795SOL    HW1 9284   3.078   4.113   1.517
 2795SOL    HW2 9285   3.189   4.137   1.400
 2796SOL     OW 9286   6.308   4.328   2.331
 2796SOL    HW1 9287   6.212   4.303   2.325
 2796SOL    HW2 9288   6.350   4.321   2.240
 2797SOL     OW 9289   5.219   5.381   4.584
 2797SOL    HW1 9290   5.137   5.417   4.541
 2797SOL    HW2 9291   5.206   5.283   4.603
 2798SOL     OW 9292   0.733   4.077   3.131
 2798SOL    HW1 9293   0.805   4.096   3.065
 2798SOL    HW2 9294   0.672   4.157   3.138
 2799SOL     OW 9295   0.059   5.746   6.560
 2799SOL    HW1 9296   0.078   5.839   6.591
 2799SOL    HW2 9297   0.128   5.684   6.597
 2800SOL     OW 9298   4.290   4.758   6.792
 2800SOL    HW1 9299   4.307   4.857   6.792
 2800SOL    HW2 9300   4.342   4.716   6.717
 2801SOL     OW 9301   4.208   5.600   2.831
 2801SOL    HW1 9302   4.275   5.638   2.895
 2801SOL    HW2 9303   4.175   5.672   2.771
 2802SOL     OW 9304   3.786   2.303   6.320
 2802SOL    HW1 9305   3.813   2.351   6.403
 2802SOL    HW2 9306   3.858   2.239   6.293
 2803SOL     OW 9307   1.962   5.886   5.600
 2803SOL    HW1 9308   2.037   5.941   5.635
 2803SOL    HW2 9309   1.881   5.943   5.587
 2804SOL     OW 9310   0.021   4.377   3.523
 2804SOL    HW1 9311   6.996   4.405   3.606
 2804SOL    HW2 9312   0.119   4.365   3.542
 2805SOL     OW 9313   4.727   3.265   1.380
 2805SOL    HW1 9314   4.656   3.197   1.362
 2805SOL    HW2 9315   4.757   3.257   1.475
 2806SOL     OW 9316   5.893   5.365   2.761
 2806SOL    HW1 9317   5.987   5.400   2.751
 2806SOL    HW2 9318   5.873   5.301   2.687
 2807SOL     OW 9319   5.061   4.696   3.843
 2807SOL    HW1 9320   5.075   4.601   3.816
 2807SOL    HW2 9321   5.136   4.725   3.903
 2808SOL     OW 9322   5.133   1.576   3.441
 2808SOL    HW1 9323   5.060   1.636   3.475
 2808SOL    HW2 9324   5.210   1.632   3.409
 2809SOL     OW 9325   6.087   2.543   1.034
 2809SOL    HW1 9326   6.151   2.620   1.031
 2809SOL    HW2 9327   6.049   2.534   1.126
 2810SOL     OW 9328   3.347   6.423   4.999
 2810SOL    HW1 9329   3.269   6.467   4.956
 2810SOL    HW2 9330   3.335   6.324   4.997
 2811SOL     OW 9331   1.174   1.281   2.433
 2811SOL    HW1 9332   1.266   1.245   2.450
 2811SOL    HW2 9333   1.106   1.214   2.464
 2812SOL     OW 9334   4.945   3.485   2.057
 2812SOL    HW1 9335   5.043   3.482   2.075
 2812SOL    HW2 9336   4.913   3.392   2.037
 2813SOL     OW 9337   6.064   6.553   6.220
 2813SOL    HW1 9338   6.135   6.576   6.286
 2813SOL    HW2 9339   6.061   6.453   6.207
 2814SOL     OW 9340   4.120   4.069   6.086
 2814SOL    HW1 9341   4.037   4.080   6.032
 2814SOL    HW2 9342   4.153   3.976   6.077
 2815SOL     OW 9343   6.427   0.931   4.726
 2815SOL    HW1 9344   6.472   0.894   4.645
 2815SOL    HW2 9345   6.392   0.856   4.782
 2816SOL     OW 9346   6.190   6.805   3.864
 2816SOL    HW1 9347   6.196   6.706   3.852
 2816SOL    HW2 9348   6.146   6.846   3.784
 2817SOL     OW 9349   1.820   0.731   1.503
 2817SOL    HW1 9350   1.885   0.664   1.539
 2817SOL    HW2 9351   1.861   0.822   1.506
 2818SOL     OW 9352   6.870   5.471   6.847
 2818SOL    HW1 9353   6.905   5.415   6.771
 2818SOL    HW2 9354   6.947   5.515   6.893
 2819SOL     OW 9355   0.340   2.025   0.828
 2819SOL    HW1 9356   0.282   2.047   0.750
 2819SOL    HW2 9357   0.436   2.035   0.802
 2820SOL     OW 9358   0.226   2.689   2.195
 2820SOL    HW1 9359   0.150   2.753   2.183
 2820SOL    HW2 9360   0.206   2.627   2.271
 2821SOL     OW 9361   2.800   4.368   6.017
 2821SOL    HW1 9362   2.797   4.268   6.023
 2821SOL    HW2 9363   2.717   4.406   6.057
 2822SOL     OW 9364   4.198   2.620   0.134
 2822SOL    HW1 9365   4.180   2.678   0.054
 2822SOL    HW2 9366   4.132   2.640   0.206
 2823SOL     OW 9367   2.418   6.977   1.938
 2823SOL    HW1 9368   2.336   6.921   1.924
 2823SOL    HW2 9369   2.415   7.020   2.028
 2824SOL     OW 9370   2.192   1.153   5.042
 2824SOL    HW1 9371   2.254   1.231   5.038
 2824SOL    HW2 9372   2.225   1.082   4.979
 2825SOL     OW 9373   0.132   6.768   0.865
 2825SOL    HW1 9374   0.161   6.807   0.952
 2825SOL    HW2 9375   0.192   6.801   0.791
 2826SOL     OW 9376   5.658   1.752   5.690
 2826SOL    HW1 9377   5.595   1.700   5.747
 2826SOL    HW2 9378   5.739   1.776   5.743
 2827SOL     OW 9379   6.774   1.462   4.970
 2827SOL    HW1 9380   6.750   1.378   4.921
 2827SOL    HW2 9381   6.839   1.441   5.042
 2828SOL     OW 9382   3.785   0.869   5.940
 2828SOL    HW1 9383   3.685   0.874   5.947
 2828SOL    HW2 9384   3.811   0.840   5.848
 2829SOL     OW 9385   3.847   4.850   6.385
 2829SOL    HW1 9386   3.754   4.815   6.372
 2829SOL    HW2 9387   3.869   4.915   6.313
 2830SOL     OW 9388   6.126   3.906   5.972
 2830SOL    HW1 9389   6.158   3.812   5.987
 2830SOL    HW2 9390   6.121   3.954   6.060
 2831SOL     OW 9391   6.143   5.984   4.700
 2831SOL    HW1 9392   6.173   6.079   4.707
 2831SOL    HW2 9393   6.201   5.927   4.759
 2832SOL     OW 9394   0.452   1.446   1.448
 2832SOL    HW1 9395   0.423   1.362   1.401
 2832SOL    HW2 9396   0.413   1.447   1.540
 2833SOL     OW 9397   6.032   1.900   2.209
 2833SOL    HW1 9398   6.114   1.854   2.240
 2833SOL    HW2 9399   5.954   1.837   2.213
 2834SOL     OW 9400   3.061   1.355   6.403
 2834SOL    HW1 9401   3.053   1.455   6.393
 2834SOL    HW2 9402   2.974   1.313   6.378
 2835SOL     OW 9403   0.309   6.817   1.901
 2835SOL    HW1 9404   0.235   6.861   1.850
 2835SOL    HW2 9405   0.336   6.732   1.855
 2836SOL     OW 9406   6.974   0.069   1.881
 2836SOL    HW1 9407   6.969   0.168   1.881
 2836SOL    HW2 9408   0.026   0.038   1.823
 2837SOL     OW 9409   5.228   3.301   2.952
 2837SOL    HW1 9410   5.257   3.397   2.947
 2837SOL    HW2 9411   5.139   3.296   2.996
 2838SOL     OW 9412   2.110   4.617   1.946
 2838SOL    HW1 9413   2.152   4.532   1.978
 2838SOL    HW2 9414   2.181   4.686   1.932
 2839SOL     OW 9415   5.689   1.064   2.180
 2839SOL    HW1 9416   5.660   0.975   2.144
 2839SOL    HW2 9417   5.712   1.054   2.277
 2840SOL     OW 9418   0.369   1.213   4.894
 2840SOL    HW1 9419   0.370   1.287   4.961
 2840SOL    HW2 9420   0.441   1.229   4.826
 2841SOL     OW 9421   0.722   6.463   6.951
 2841SOL    HW1 9422   0.776   6.380   6.934
 2841SOL    HW2 9423   0.759   6.510   0.008
 2842SOL     OW 9424   0.050   3.092   3.757
 2842SOL    HW1 9425   6.994   3.110   3.816
 2842SOL    HW2 9426   0.109   3.024   3.800
 2843SOL     OW 9427   3.628   1.365   4.398
 2843SOL    HW1 9428   3.614   1.267   4.407
 2843SOL    HW2 9429   3.664   1.402   4.484
 2844SOL     OW 9430   0.981   4.061   0.064
 2844SOL    HW1 9431   1.058   4.047   0.001
 2844SOL    HW2 9432   0.900   4.086   0.011
 2845SOL     OW 9433   0.862   3.800   0.554
 2845SOL    HW1 9434   0.910   3.716   0.531
 2845SOL    HW2 9435   0.769   3.778   0.586
 2846SOL     OW 9436   5.172   1.368   6.984
 2846SOL    HW1 9437   5.096   1.306   6.964
 2846SOL    HW2 9438   5.140   1.463   6.980
 2847SOL     OW 9439   5.493   3.841   3.291
 2847SOL    HW1 9440   5.558   3.875   3.359
 2847SOL    HW2 9441   5.404   3.884   3.306
 2848SOL     OW 9442   0.225   4.608   5.440
 2848SOL    HW1 9443   0.220   4.565   5.350
 2848SOL    HW2 9444   0.151   4.573   5.497
 2849SOL     OW 9445   3.603   1.054   0.977
 2849SOL    HW1 9446   3.526   0.994   1.002
 2849SOL    HW2 9447   3.631   1.033   0.883
 2850SOL     OW 9448   3.422   0.492   1.443
 2850SOL    HW1 9449   3.425   0.550   1.524
 2850SOL    HW2 9450   3.333   0.448   1.436
 2851SOL     OW 9451   0.872   4.471   5.187
 2851SOL    HW1 9452   0.921   4.556   5.170
 2851SOL    HW2 9453   0.803   4.485   5.258
 2852SOL     OW 9454   5.736   3.973   6.683
 2852SOL    HW1 9455   5.766   3.951   6.776
 2852SOL    HW2 9456   5.752   3.894   6.623
 2853SOL     OW 9457   3.289   2.595   0.624
 2853SOL    HW1 9458   3.213   2.641   0.577
 2853SOL    HW2 9459   3.367   2.589   0.562
 2854SOL     OW 9460   2.774   1.030   4.377
 2854SOL    HW1 9461   2.776   0.951   4.439
 2854SOL    HW2 9462   2.723   1.006   4.294
 2855SOL     OW 9463   2.231   0.382   5.998
 2855SOL    HW1 9464   2.228   0.301   5.940
 2855SOL    HW2 9465   2.144   0.432   5.991
 2856SOL     OW 9466   2.552   3.088   6.088
 2856SOL    HW1 9467   2.611   3.134   6.023
 2856SOL    HW2 9468   2.463   3.070   6.047
 2857SOL     OW 9469   3.107   1.698   1.482
 2857SOL    HW1 9470   3.131   1.619   1.537
 2857SOL    HW2 9471   3.105   1.780   1.540
 2858SOL     OW 9472   6.003   2.764   2.261
 2858SOL    HW1 9473   5.916   2.736   2.302
 2858SOL    HW2 9474   5.985   2.832   2.190
 2859SOL     OW 9475   4.644   1.213   0.743
 2859SOL    HW1 9476   4.586   1.174   0.671
 2859SOL    HW2 9477   4.660   1.310   0.725
 2860SOL     OW 9478   4.559   1.599   1.601
 2860SOL    HW1 9479   4.534   1.687   1.642
 2860SOL    HW2 9480   4.652   1.575   1.628
 2861SOL     OW 9481   4.279   5.569   5.680
 2861SOL    HW1 9482   4.231   5.631   5.742
 2861SOL    HW2 9483   4.336   5.507   5.732
 2862SOL     OW 9484   5.826   1.679   3.455
 2862SOL    HW1 9485   5.884   1.607   3.418
 2862SOL    HW2 9486   5.868   1.717   3.537
 2863SOL     OW 9487   6.137   1.483   0.276
 2863SOL    HW1 9488   6.152   1.505   0.180
 2863SOL    HW2 9489   6.039   1.485   0.296
 2864SOL     OW 9490   3.556   0.425   1.008
 2864SOL    HW1 9491   3.540   0.331   1.040
 2864SOL    HW2 9492   3.503   0.489   1.064
 2865SOL     OW 9493   4.631   4.539   5.265
 2865SOL    HW1 9494   4.683   4.531   5.180
 2865SOL    HW2 9495   4.693   4.569   5.339
 2866SOL     OW 9496   6.823   6.947   6.926
 2866SOL    HW1 9497   6.805   6.917   7.020
 2866SOL    HW2 9498   6.922   6.960   6.914
 2867SOL     OW 9499   6.050   4.249   2.321
 2867SOL    HW1 9500   6.001   4.332   2.348
 2867SOL    HW2 9501   6.034   4.178   2.390
 2868SOL     OW 9502   0.811   3.534   5.360
 2868SOL    HW1 9503   0.799   3.554   5.458
 2868SOL    HW2 9504   0.763   3.449   5.338
 2869SOL     OW 9505   6.075   0.919   2.372
 2869SOL    HW1 9506   6.019   0.865   2.434
 2869SOL    HW2 9507   6.162   0.940   2.415
 2870SOL     OW 9508   6.519   1.478   3.674
 2870SOL    HW1 9509   6.593   1.422   3.637
 2870SOL    HW2 9510   6.558   1.558   3.719
 2871SOL     OW 9511   2.262   2.039   6.408
 2871SOL    HW1 9512   2.281   1.977   6.485
 2871SOL    HW2 9513   2.273   2.134   6.438
 2872SOL     OW 9514   3.076   1.434   4.134
 2872SOL    HW1 9515   3.090   1.521   4.086
 2872SOL    HW2 9516   3.022   1.450   4.216
 2873SOL     OW 9517   0.765   5.999   3.125
 2873SOL    HW1 9518   0.709   5.916   3.129
 2873SOL    HW2 9519   0.709   6.079   3.147
 2874SOL     OW 9520   5.306   4.646   2.260
 2874SOL    HW1 9521   5.263   4.557   2.242
 2874SOL    HW2 9522   5.266   4.685   2.343
 2875SOL     OW 9523   3.777   6.272   6.434
 2875SOL    HW1 9524   3.827   6.247   6.351
 2875SOL    HW2 9525   3.818   6.228   6.513
 2876SOL     OW 9526   0.734   1.058   2.027
 2876SOL    HW1 9527   0.828   1.025   2.014
 2876SOL    HW2 9528   0.699   1.093   1.941
 2877SOL     OW 9529   3.430   2.979   5.357
 2877SOL    HW1 9530   3.394   3.029   5.279
 2877SOL    HW2 9531   3.517   3.021   5.385
 2878SOL     OW 9532   2.827   5.049   4.805
 2878SOL    HW1 9533   2.775   5.133   4.821
 2878SOL    HW2 9534   2.840   5.001   4.891
 2879SOL     OW 9535   5.021   5.020   0.273
 2879SOL    HW1 9536   5.064   5.104   0.304
 2879SOL    HW2 9537   5.000   5.026   0.175
 2880SOL     OW 9538   6.757   6.462   0.403
 2880SOL    HW1 9539   6.842   6.415   0.378
 2880SOL    HW2 9540   6.773   6.519   0.483
 2881SOL     OW 9541   6.659   6.253   1.489
 2881SOL    HW1 9542   6.743   6.234   1.437
 2881SOL    HW2 9543   6.680   6.250   1.587
 2882SOL     OW 9544   1.236   3.594   2.937
 2882SOL    HW1 9545   1.288   3.532   2.879
 2882SOL    HW2 9546   1.192   3.664   2.880
 2883SOL     OW 9547   3.547   6.897   3.566
 2883SOL    HW1 9548   3.597   6.898   3.479
 2883SOL    HW2 9549   3.466   6.956   3.559
 2884SOL     OW 9550   0.280   6.769   3.548
 2884SOL    HW1 9551   0.376   6.784   3.526
 2884SOL    HW2 9552   0.225   6.845   3.512
 2885SOL     OW 9553   0.319   2.605   3.117
 2885SOL    HW1 9554   0.309   2.625   3.214
 2885SOL    HW2 9555   0.236   2.561   3.083
 2886SOL     OW 9556   2.425   2.924   6.524
 2886SOL    HW1 9557   2.423   3.024   6.533
 2886SOL    HW2 9558   2.472   2.885   6.603
 2887SOL     OW 9559   2.591   6.293   5.263
 2887SOL    HW1 9560   2.537   6.248   5.192
 2887SOL    HW2 9561   2.683   6.309   5.229
 2888SOL     OW 9562   6.964   5.392   6.623
 2888SOL    HW1 9563   0.037   5.363   6.627
 2888SOL    HW2 9564   6.917   5.340   6.552
 2889SOL     OW 9565   1.645   1.079   1.726
 2889SOL    HW1 9566   1.691   1.167   1.720
 2889SOL    HW2 9567   1.710   1.009   1.757
 2890SOL     OW 9568   3.150   0.576   1.353
 2890SOL    HW1 9569   3.202   0.639   1.295
 2890SOL    HW2 9570   3.127   0.621   1.439
 2891SOL     OW 9571   1.929   4.817   3.521
 2891SOL    HW1 9572   1.885   4.825   3.611
 2891SOL    HW2 9573   1.969   4.904   3.495
 2892SOL     OW 9574   4.435   4.116   6.667
 2892SOL    HW1 9575   4.512   4.088   6.610
 2892SOL    HW2 9576   4.361   4.050   6.657
 2893SOL     OW 9577   2.245   6.286   5.958
 2893SOL    HW1 9578   2.262   6.380   5.989
 2893SOL    HW2 9579   2.196   6.236   6.030
 2894SOL     OW 9580   2.724   2.591   6.813
 2894SOL    HW1 9581   2.768   2.613   6.900
 2894SOL    HW2 9582   2.689   2.675   6.771
 2895SOL     OW 9583   3.800   3.098   6.502
 2895SOL    HW1 9584   3.802   3.095   6.402
 2895SOL    HW2 9585   3.725   3.042   6.536
 2896SOL     OW 9586   2.604   5.683   6.631
 2896SOL    HW1 9587   2.597   5.668   6.730
 2896SOL    HW2 9588   2.567   5.604   6.583
 2897SOL     OW 9589   2.230   6.513   3.719
 2897SOL    HW1 9590   2.264   6.545   3.808
 2897SOL    HW2 9591   2.300   6.456   3.676
 2898SOL     OW 9592   4.523   5.159   2.925
 2898SOL    HW1 9593   4.530   5.258   2.914
 2898SOL    HW2 9594   4.441   5.126   2.878
 2899SOL     OW 9595   0.558   0.810   6.620
 2899SOL    HW1 9596   0.570   0.730   6.562
 2899SOL    HW2 9597   0.641   0.865   6.621
 2900SOL     OW 9598   1.154   4.607   5.826
 2900SOL    HW1 9599   1.151   4.647   5.918
 2900SOL    HW2 9600   1.238   4.634   5.780
 2901SOL     OW 9601   2.270   0.468   2.380
 2901SOL    HW1 9602   2.172   0.457   2.397
 2901SOL    HW2 9603   2.320   0.406   2.440
 2902SOL     OW 9604   5.688   6.694   0.443
 2902SOL    HW1 9605   5.692   6.622   0.512
 2902SOL    HW2 9606   5.767   6.754   0.453
 2903SOL     OW 9607   3.451   0.533   2.164
 2903SOL    HW1 9608   3.406   0.613   2.125
 2903SOL    HW2 9609   3.546   0.530   2.135
 2904SOL     OW 9610   2.350   3.179   5.380
 2904SOL    HW1 9611   2.400   3.103   5.337
 2904SOL    HW2 9612   2.286   3.219   5.314
 2905SOL     OW 9613   1.864   1.090   2.487
 2905SOL    HW1 9614   1.910   1.148   2.555
 2905SOL    HW2 9615   1.776   1.060   2.524
 2906SOL     OW 9616   5.368   5.143   1.578
 2906SOL    HW1 9617   5.417   5.168   1.494
 2906SOL    HW2 9618   5.360   5.043   1.582
 2907SOL     OW 9619   6.623   1.550   5.241
 2907SOL    HW1 9620   6.524   1.561   5.246
 2907SOL    HW2 9621   6.656   1.580   5.152
 2908SOL     OW 9622   3.684   6.577   4.148
 2908SOL    HW1 9623   3.675   6.623   4.060
 2908SOL    HW2 9624   3.601   6.523   4.166
 2909SOL     OW 9625   0.293   4.974   4.479
 2909SOL    HW1 9626   0.360   4.976   4.552
 2909SOL    HW2 9627   0.272   4.879   4.456
 2910SOL     OW 9628   3.436   6.182   4.857
 2910SOL    HW1 9629   3.515   6.154   4.804
 2910SOL    HW2 9630   3.392   6.260   4.813
 2911SOL     OW 9631   2.307   5.068   3.341
 2911SOL    HW1 9632   2.389   5.015   3.367
 2911SOL    HW2 9633   2.244   5.071   3.418
 2912SOL     OW 9634   2.523   6.170   0.535
 2912SOL    HW1 9635   2.573   6.216   0.462
 2912SOL    HW2 9636   2.587   6.145   0.608
 2913SOL     OW 9637   1.933   4.118   2.713
 2913SOL    HW1 9638   2.020   4.092   2.669
 2913SOL    HW2 9639   1.928   4.218   2.719
 2914SOL     OW 9640   6.078   4.706   6.260
 2914SOL    HW1 9641   6.101   4.609   6.271
 2914SOL    HW2 9642   6.139   4.746   6.192
 2915SOL     OW 9643   4.749   1.388   4.123
 2915SOL    HW1 9644   4.747   1.410   4.221
 2915SOL    HW2 9645   4.661   1.411   4.081
 2916SOL     OW 9646   6.171   4.555   5.605
 2916SOL    HW1 9647   6.241   4.521   5.667
 2916SOL    HW2 9648   6.118   4.627   5.650
 2917SOL     OW 9649   4.015   0.030   0.571
 2917SOL    HW1 9650   3.976   0.117   0.602
 2917SOL    HW2 9651   4.010   6.986   0.645
 2918SOL     OW 9652   6.774   3.644   3.081
 2918SOL    HW1 9653   6.836   3.569   3.105
 2918SOL    HW2 9654   6.704   3.611   3.018
 2919SOL     OW 9655   6.104   6.869   0.382
 2919SOL    HW1 9656   6.164   6.941   0.418
 2919SOL    HW2 9657   6.061   6.901   0.298
 2920SOL     OW 9658   3.533   2.107   2.681
 2920SOL    HW1 9659   3.533   2.037   2.610
 2920SOL    HW2 9660   3.458   2.090   2.745
 2921SOL     OW 9661   0.341   1.710   2.643
 2921SOL    HW1 9662   0.247   1.675   2.643
 2921SOL    HW2 9663   0.374   1.719   2.549
 2922SOL     OW 9664   5.922   6.198   6.323
 2922SOL    HW1 9665   5.866   6.141   6.263
 2922SOL    HW2 9666   6.016   6.166   6.321
 2923SOL     OW 9667   6.999   5.528   2.652
 2923SOL    HW1 9668   6.913   5.575   2.634
 2923SOL    HW2 9669   0.037   5.588   2.704
 2924SOL     OW 9670   0.960   1.873   5.954
 2924SOL    HW1 9671   0.981   1.830   6.042
 2924SOL    HW2 9672   0.958   1.804   5.882
 2925SOL     OW 9673   5.835   1.806   2.569
 2925SOL    HW1 9674   5.835   1.800   2.669
 2925SOL    HW2 9675   5.928   1.817   2.536
 2926SOL     OW 9676   0.038   1.433   4.909
 2926SOL    HW1 9677   0.097   1.511   4.892
 2926SOL    HW2 9678   0.015   1.429   5.006
 2927SOL     OW 9679   1.423   2.957   2.411
 2927SOL    HW1 9680   1.376   2.872   2.433
 2927SOL    HW2 9681   1.467   2.994   2.493
 2928SOL     OW 9682   6.708   1.133   6.812
 2928SOL    HW1 9683   6.720   1.232   6.802
 2928SOL    HW2 9684   6.764   1.101   6.888
 2929SOL     OW 9685   0.562   1.022   6.191
 2929SOL    HW1 9686   0.568   1.101   6.130
 2929SOL    HW2 9687   0.637   1.026   6.258
 2930SOL     OW 9688   4.967   0.174   4.442
 2930SOL    HW1 9689   5.029   0.252   4.437
 2930SOL    HW2 9690   4.896   0.184   4.372
 2931SOL     OW 9691   5.236   5.396   6.646
 2931SOL    HW1 9692   5.327   5.430   6.620
 2931SOL    HW2 9693   5.213   5.315   6.591
 2932SOL     OW 9694   1.748   4.458   1.814
 2932SOL    HW1 9695   1.717   4.440   1.721
 2932SOL    HW2 9696   1.751   4.556   1.831
 2933SOL     OW 9697   5.703   2.198   4.138
 2933SOL    HW1 9698   5.708   2.161   4.230
 2933SOL    HW2 9699   5.652   2.136   4.079
 2934SOL     OW 9700   3.822   0.127   0.991
 2934SOL    HW1 9701   3.858   0.184   0.917
 2934SOL    HW2 9702   3.728   0.155   1.011
 2935SOL     OW 9703   6.412   3.595   1.439
 2935SOL    HW1 9704   6.470   3.651   1.498
 2935SOL    HW2 9705   6.456   3.583   1.350
 2936SOL     OW 9706   5.170   6.068   1.224
 2936SOL    HW1 9707   5.234   6.142   1.245
 2936SOL    HW2 9708   5.097   6.103   1.165
 2937SOL     OW 9709   3.266   5.074   0.742
 2937SOL    HW1 9710   3.173   5.047   0.716
 2937SOL    HW2 9711   3.269   5.172   0.761
 2938SOL     OW 9712   4.531   4.760   5.497
 2938SOL    HW1 9713   4.547   4.798   5.407
 2938SOL    HW2 9714   4.486   4.828   5.555
 2939SOL     OW 9715   6.422   0.104   4.515
 2939SOL    HW1 9716   6.376   0.064   4.436
 2939SOL    HW2 9717   6.383   0.066   4.599
 2940SOL     OW 9718   6.107   6.567   5.362
 2940SOL    HW1 9719   6.106   6.662   5.394
 2940SOL    HW2 9720   6.102   6.506   5.441
 2941SOL     OW 9721   1.679   2.157   5.826
 2941SOL    HW1 9722   1.638   2.220   5.760
 2941SOL    HW2 9723   1.616   2.141   5.902
 2942SOL     OW 9724   3.027   0.722   2.398
 2942SOL    HW1 9725   3.088   0.800   2.381
 2942SOL    HW2 9726   3.037   0.655   2.325
 2943SOL     OW 9727   5.257   3.222   2.333
 2943SOL    HW1 9728   5.330   3.236   2.266
 2943SOL    HW2 9729   5.294   3.176   2.413
 2944SOL     OW 9730   3.032   5.296   6.035
 2944SOL    HW1 9731   3.021   5.340   5.946
 2944SOL    HW2 9732   3.125   5.258   6.042
 2945SOL     OW 9733   3.955   3.955   2.664
 2945SOL    HW1 9734   3.978   3.946   2.567
 2945SOL    HW2 9735   3.869   3.907   2.683
 2946SOL     OW 9736   6.127   6.307   5.562
 2946SOL    HW1 9737   6.205   6.345   5.613
 2946SOL    HW2 9738   6.072   6.251   5.623
 2947SOL     OW 9739   6.981   3.883   6.446
 2947SOL    HW1 9740   0.020   3.807   6.430
 2947SOL    HW2 9741   7.001   3.957   6.382
 2948SOL     OW 9742   6.254   3.494   5.603
 2948SOL    HW1 9743   6.324   3.482   5.533
 2948SOL    HW2 9744   6.295   3.482   5.694
 2949SOL     OW 9745   1.801   6.378   1.309
 2949SOL    HW1 9746   1.733   6.364   1.238
 2949SOL    HW2 9747   1.801   6.300   1.372
 2950SOL     OW 9748   5.475   3.599   4.296
 2950SOL    HW1 9749   5.404   3.664   4.322
 2950SOL    HW2 9750   5.546   3.596   4.367
 2951SOL     OW 9751   6.917   2.197   0.169
 2951SOL    HW1 9752   6.987   2.236   0.229
 2951SOL    HW2 9753   6.911   2.098   0.185
 2952SOL     OW 9754   0.713   4.936   3.231
 2952SOL    HW1 9755   0.787   5.002   3.245
 2952SOL    HW2 9756   0.625   4.981   3.245
 2953SOL     OW 9757   5.059   2.711   2.254
 2953SOL    HW1 9758   5.086   2.807   2.244
 2953SOL    HW2 9759   5.014   2.681   2.170
 2954SOL     OW 9760   0.460   6.486   1.890
 2954SOL    HW1 9761   0.524   6.431   1.943
 2954SOL    HW2 9762   0.390   6.427   1.851
 2955SOL     OW 9763   0.384   3.055   0.388
 2955SOL    HW1 9764   0.453   3.051   0.461
 2955SOL    HW2 9765   0.342   3.146   0.387
 2956SOL     OW 9766   0.320   5.841   3.265
 2956SOL    HW1 9767   0.374   5.865   3.345
 2956SOL    HW2 9768   0.239   5.900   3.261
 2957SOL     OW 9769   0.440   3.644   0.424
 2957SOL    HW1 9770   0.456   3.598   0.337
 2957SOL    HW2 9771   0.342   3.647   0.444
 2958SOL     OW 9772   2.215   4.644   5.783
 2958SOL    HW1 9773   2.239   4.652   5.880
 2958SOL    HW2 9774   2.235   4.552   5.751
 2959SOL     OW 9775   5.894   4.859   5.921
 2959SOL    HW1 9776   5.884   4.950   5.880
 2959SOL    HW2 9777   5.863   4.861   6.016
 2960SOL     OW 9778   3.244   1.327   0.395
 2960SOL    HW1 9779   3.264   1.363   0.303
 2960SOL    HW2 9780   3.229   1.403   0.458
 2961SOL     OW 9781   5.049   2.952   5.011
 2961SOL    HW1 9782   5.119   3.008   4.965
 2961SOL    HW2 9783   5.024   2.995   5.098
 2962SOL     OW 9784   4.614   0.926   3.771
 2962SOL    HW1 9785   4.570   0.917   3.681
 2962SOL    HW2 9786   4.568   0.866   3.836
 2963SOL     OW 9787   1.885   1.715   5.399
 2963SOL    HW1 9788   1.883   1.814   5.387
 2963SOL    HW2 9789   1.894   1.671   5.310
 2964SOL     OW 9790   1.829   0.095   2.094
 2964SOL    HW1 9791   1.847   0.165   2.025
 2964SOL    HW2 9792   1.803   0.009   2.049
 2965SOL     OW 9793   0.369   0.689   5.219
 2965SOL    HW1 9794   0.341   0.771   5.268
 2965SOL    HW2 9795   0.452   0.708   5.167
 2966SOL     OW 9796   5.559   4.214   3.548
 2966SOL    HW1 9797   5.512   4.209   3.636
 2966SOL    HW2 9798   5.624   4.290   3.550
 2967SOL     OW 9799   6.257   2.455   3.693
 2967SOL    HW1 9800   6.291   2.490   3.605
 2967SOL    HW2 9801   6.262   2.527   3.762
 2968SOL     OW 9802   0.662   3.916   5.348
 2968SOL    HW1 9803   0.640   3.828   5.389
 2968SOL    HW2 9804   0.729   3.965   5.405
 2969SOL     OW 9805   5.657   1.955   5.093
 2969SOL    HW1 9806   5.566   1.918   5.074
 2969SOL    HW2 9807   5.717   1.882   5.126
 2970SOL     OW 9808   0.892   4.630   6.530
 2970SOL    HW1 9809   0.796   4.636   6.557
 2970SOL    HW2 9810   0.900   4.645   6.432
 2971SOL     OW 9811   5.843   3.149   3.698
 2971SOL    HW1 9812   5.892   3.234   3.721
 2971SOL    HW2 9813   5.747   3.158   3.725
 2972SOL     OW 9814   6.789   3.761   6.807
 2972SOL    HW1 9815   6.710   3.792   6.754
 2972SOL    HW2 9816   6.871   3.761   6.750
 2973SOL     OW 9817   5.324   0.422   3.822
 2973SOL    HW1 9818   5.225   0.416   3.824
 2973SOL    HW2 9819   5.364   0.339   3.862
 2974SOL     OW 9820   5.443   4.110   3.151
 2974SOL    HW1 9821   5.458   4.021   3.195
 2974SOL    HW2 9822   5.386   4.167   3.210
 2975SOL     OW 9823   0.823   1.624   5.229
 2975SOL    HW1 9824   0.833   1.576   5.141
 2975SOL    HW2 9825   0.892   1.696   5.236
 2976SOL     OW 9826   4.325   1.036   3.420
 2976SOL    HW1 9827   4.337   1.103   3.347
 2976SOL    HW2 9828   4.233   0.999   3.417
 2977SOL     OW 9829   2.620   0.233   4.152
 2977SOL    HW1 9830   2.526   0.198   4.154
 2977SOL    HW2 9831   2.641   0.277   4.239
 2978SOL     OW 9832   4.333   4.887   0.382
 2978SOL    HW1 9833   4.296   4.806   0.427
 2978SOL    HW2 9834   4.306   4.886   0.285
 2979SOL     OW 9835   3.294   0.597   3.851
 2979SOL    HW1 9836   3.241   0.543   3.786
 2979SOL    HW2 9837   3.232   0.643   3.914
 2980SOL     OW 9838   0.963   6.641   4.354
 2980SOL    HW1 9839   0.916   6.711   4.408
 2980SOL    HW2 9840   0.907   6.617   4.275
 2981SOL     OW 9841   1.273   0.495   5.759
 2981SOL    HW1 9842   1.282   0.566   5.828
 2981SOL    HW2 9843   1.280   0.535   5.668
 2982SOL     OW 9844   3.940   6.234   3.020
 2982SOL    HW1 9845   3.981   6.324   3.030
 2982SOL    HW2 9846   3.857   6.241   2.965
 2983SOL     OW 9847   0.087   0.726   4.048
 2983SOL    HW1 9848   0.000   0.684   4.074
 2983SOL    HW2 9849   0.163   0.673   4.087
 2984SOL     OW 9850   6.142   5.566   1.372
 2984SOL    HW1 9851   6.172   5.570   1.467
 2984SOL    HW2 9852   6.180   5.643   1.321
 2985SOL     OW 9853   1.093   1.840   4.438
 2985SOL    HW1 9854   1.123   1.909   4.372
 2985SOL    HW2 9855   1.163   1.768   4.444
 2986SOL     OW 9856   2.657   4.109   5.632
 2986SOL    HW1 9857   2.738   4.110   5.691
 2986SOL    HW2 9858   2.684   4.124   5.537
 2987SOL     OW 9859   4.973   0.848   4.274
 2987SOL    HW1 9860   5.048   0.834   4.209
 2987SOL    HW2 9861   4.886   0.839   4.227
 2988SOL     OW 9862   1.211   0.460   2.243
 2988SOL    HW1 9863   1.283   0.472   2.175
 2988SOL    HW2 9864   1.167   0.371   2.230
 2989SOL     OW 9865   6.319   5.411   1.259
 2989SOL    HW1 9866   6.397   5.394   1.319
 2989SOL    HW2 9867   6.254   5.472   1.305
 2990SOL     OW 9868   3.792   0.871   3.160
 2990SOL    HW1 9869   3.863   0.820   3.209
 2990SOL    HW2 9870   3.706   0.821   3.165
 2991SOL     OW 9871   0.212   4.303   0.629
 2991SOL    HW1 9872   0.131   4.256   0.595
 2991SOL    HW2 9873   0.293   4.249   0.606
 2992SOL     OW 9874   2.981   5.638   6.243
 2992SOL    HW1 9875   2.924   5.658   6.322
 2992SOL    HW2 9876   2.938   5.675   6.161
 2993SOL     OW 9877   1.760   4.596   2.349
 2993SOL    HW1 9878   1.738   4.645   2.433
 2993SOL    HW2 9879   1.808   4.511   2.371
 2994SOL     OW 9880   4.888   0.190   6.907
 2994SOL    HW1 9881   4.915   0.143   6.990
 2994SOL    HW2 9882   4.827   0.131   6.853
 2995SOL     OW 9883   1.309   2.028   0.095
 2995SOL    HW1 9884   1.248   2.072   0.161
 2995SOL    HW2 9885   1.346   2.097   0.033
 2996SOL     OW 9886   2.943   5.922   5.024
 2996SOL    HW1 9887   2.859   5.945   4.975
 2996SOL    HW2 9888   2.948   5.976   5.108
 2997SOL     OW 9889   5.077   5.768   2.039
 2997SOL    HW1 9890   5.157   5.826   2.053
 2997SOL    HW2 9891   5.051   5.727   2.127
 2998SOL     OW 9892   4.772   5.983   4.412
 2998SOL    HW1 9893   4.723   6.059   4.369
 2998SOL    HW2 9894   4.713   5.902   4.413
 2999SOL     OW 9895   3.280   6.021   3.656
 2999SOL    HW1 9896   3.269   6.118   3.634
 2999SOL    HW2 9897   3.190   5.978   3.661
 3000SOL     OW 9898   1.383   3.492   6.003
 3000SOL    HW1 9899   1.408   3.397   5.984
 3000SOL    HW2 9900   1.284   3.504   5.992
 3001SOL     OW 9901   4.834   6.916   6.468
 3001SOL    HW1 9902   4.875   6.850   6.404
 3001SOL    HW2 9903   4.860   7.008   6.442
 3002SOL     OW 9904   4.226   0.070   5.519
 3002SOL    HW1 9905   4.303   0.038   5.575
 3002SOL    HW2 9906   4.259   0.137   5.452
 3003SOL     OW 9907   2.871   6.414   6.358
 3003SOL    HW1 9908   2.863   6.481   6.433
 3003SOL    HW2 9909   2.953   6.436   6.304
 3004SOL     OW 9910   6.211   3.865   3.836
 3004SOL    HW1 9911   6.286   3.853   3.771
 3004SOL    HW2 9912   6.246   3.897   3.923
 3005SOL     OW 9913   3.411   3.315   1.520
 3005SOL    HW1 9914   3.413   3.333   1.422
 3005SOL    HW2 9915   3.353   3.236   1.538
 3006SOL     OW 9916   6.525   1.364   0.631
 3006SOL    HW1 9917   6.497   1.394   0.723
 3006SOL    HW2 9918   6.488   1.273   0.614
 3007SOL     OW 9919   5.391   5.140   2.042
 3007SOL    HW1 9920   5.356   5.133   2.136
 3007SOL    HW2 9921   5.351   5.221   1.998
 3008SOL     OW 9922   4.040   0.386   6.102
 3008SOL    HW1 9923   3.963   0.378   6.166
 3008SOL    HW2 9924   4.061   0.296   6.065
 3009SOL     OW 9925   0.496   0.269   2.764
 3009SOL    HW1 9926   0.558   0.247   2.688
 3009SOL    HW2 9927   0.487   0.368   2.772
 3010SOL     OW 9928   3.989   5.989   2.882
 3010SOL    HW1 9929   3.979   6.062   2.949
 3010SOL    HW2 9930   3.903   5.978   2.831
 3011SOL     OW 9931   6.389   0.905   6.545
 3011SOL    HW1 9932   6.358   0.814   6.571
 3011SOL    HW2 9933   6.329   0.942   6.474
 3012SOL     OW 9934   0.151   3.425   3.918
 3012SOL    HW1 9935   0.053   3.436   3.932
 3012SOL    HW2 9936   0.200   3.497   3.967
 3013SOL     OW 9937   5.702   6.007   3.061
 3013SOL    HW1 9938   5.683   6.048   3.150
 3013SOL    HW2 9939   5.712   6.079   2.992
 3014SOL     OW 9940   5.322   1.694   4.448
 3014SOL    HW1 9941   5.327   1.686   4.547
 3014SOL    HW2 9942   5.412   1.721   4.412
 3015SOL     OW 9943   2.644   2.282   0.058
 3015SOL    HW1 9944   2.652   2.353   0.128
 3015SOL    HW2 9945   2.735   2.256   0.025
 3016SOL     OW 9946   3.270   5.457   4.232
 3016SOL    HW1 9947   3.364   5.429   4.254
 3016SOL    HW2 9948   3.216   5.377   4.209
 3017SOL     OW 9949   0.836   5.793   0.996
 3017SOL    HW1 9950   0.892   5.840   1.064
 3017SOL    HW2 9951   0.856   5.695   0.998
 3018SOL     OW 9952   3.854   0.676   6.776
 3018SOL    HW1 9953   3.844   0.634   6.866
 3018SOL    HW2 9954   3.781   0.743   6.762
 3019SOL     OW 9955   3.429   6.523   1.065
 3019SOL    HW1 9956   3.490   6.584   1.015
 3019SOL    HW2 9957   3.366   6.478   1.002
 3020SOL     OW 9958   3.622   3.696   1.520
 3020SOL    HW1 9959   3.705   3.746   1.548
 3020SOL    HW2 9960   3.575   3.748   1.448
 3021SOL     OW 9961   1.877   2.324   6.599
 3021SOL    HW1 9962   1.796   2.369   6.560
 3021SOL    HW2 9963   1.911   2.255   6.536
 3022SOL     OW 9964   3.778   5.603   2.739
 3022SOL    HW1 9965   3.793   5.667   2.663
 3022SOL    HW2 9966   3.717   5.645   2.806
 3023SOL     OW 9967   3.476   5.984   3.400
 3023SOL    HW1 9968   3.404   6.011   3.337
 3023SOL    HW2 9969   3.442   5.990   3.494
 3024SOL     OW 9970   2.891   0.777   6.722
 3024SOL    HW1 9971   2.840   0.825   6.650
 3024SOL    HW2 9972   2.989   0.795   6.710
 3025SOL     OW 9973   3.288   3.150   1.021
 3025SOL    HW1 9974   3.385   3.173   1.012
 3025SOL    HW2 9975   3.268   3.069   0.966
 3026SOL     OW 9976   1.404   3.494   1.013
 3026SOL    HW1 9977   1.476   3.483   0.945
 3026SOL    HW2 9978   1.389   3.408   1.061
 3027SOL     OW 9979   3.931   0.874   2.756
 3027SOL    HW1 9980   3.893   0.878   2.664
 3027SOL    HW2 9981   4.013   0.930   2.761
 3028SOL     OW 9982   1.316   4.975   0.059
 3028SOL    HW1 9983   1.276   5.022   7.003
 3028SOL    HW2 9984   1.242   4.934   0.113
 3029SOL     OW 9985   6.166   4.929   5.317
 3029SOL    HW1 9986   6.182   4.839   5.276
 3029SOL    HW2 9987   6.068   4.946   5.322
 3030SOL     OW 9988   0.956   1.659   5.778
 3030SOL    HW1 9989   1.011   1.663   5.695
 3030SOL    HW2 9990   0.980   1.578   5.831
 3031SOL     OW 9991   0.605   3.741   0.664
 3031SOL    HW1 9992   0.558   3.808   0.722
 3031SOL    HW2 9993   0.552   3.726   0.580
 3032SOL     OW 9994   5.139   0.114   0.005
 3032SOL    HW1 9995   5.065   0.049   7.012
 3032SOL    HW2 9996   5.226   0.073   6.999
 3033SOL     OW 9997   0.775   2.769   0.325
 3033SOL    HW1 9998   0.837   2.843   0.302
 3033SOL    HW2 9999   0.683   2.791   0.293
 3034SOL     OW10000   1.877   6.509   3.434
 3034SOL    HW110001   1.971   6.488   3.408
 3034SOL    HW210002   1.849   6.449   3.509
 3035SOL     OW10003   6.499   1.479   0.365
 3035SOL    HW110004   6.405   1.513   0.368
 3035SOL    HW210005   6.513   1.414   0.440
 3036SOL     OW10006   1.685   3.916   6.877
 3036SOL    HW110007   1.710   3.869   6.792
 3036SOL    HW210008   1.680   3.849   6.951
 3037SOL     OW10009   5.846   5.709   4.771
 3037SOL    HW110010   5.870   5.764   4.852
 3037SOL    HW210011   5.846   5.612   4.795
 3038SOL     OW10012   5.827   6.804   6.292
 3038SOL    HW110013   5.729   6.787   6.306
 3038SOL    HW210014   5.874   6.801   6.381
 3039SOL     OW10015   6.563   4.588   2.616
 3039SOL    HW110016   6.648   4.572   2.667
 3039SOL    HW210017   6.546   4.686   2.609
 3040SOL     OW10018   4.278   3.807   6.311
 3040SOL    HW110019   4.263   3.822   6.213
 3040SOL    HW210020   4.321   3.889   6.350
 3041SOL     OW10021   2.057   2.826   5.878
 3041SOL    HW110022   1.982   2.847   5.814
 3041SOL    HW210023   2.025   2.838   5.972
 3042SOL     OW10024   4.962   0.305   2.263
 3042SOL    HW110025   4.969   0.404   2.260
 3042SOL    HW210026   5.054   0.265   2.261
 3043SOL     OW10027   0.475   5.728   0.568
 3043SOL    HW110028   0.434   5.745   0.478
 3043SOL    HW210029   0.540   5.801   0.589
 3044SOL     OW10030   3.690   4.519   5.547
 3044SOL    HW110031   3.606   4.545   5.594
 3044SOL    HW210032   3.674   4.437   5.492
 3045SOL     OW10033   4.811   0.589   2.866
 3045SOL    HW110034   4.866   0.630   2.939
 3045SOL    HW210035   4.715   0.585   2.894
 3046SOL     OW10036   0.883   3.184   5.180
 3046SOL    HW110037   0.970   3.135   5.171
 3046SOL    HW210038   0.889   3.272   5.133
 3047SOL     OW10039   5.580   5.139   1.804
 3047SOL    HW110040   5.522   5.136   1.886
 3047SOL    HW210041   5.523   5.148   1.723
 3048SOL     OW10042   4.389   3.307   1.372
 3048SOL    HW110043   4.421   3.213   1.361
 3048SOL    HW210044   4.339   3.335   1.290
 3049SOL     OW10045   1.022   0.003   1.350
 3049SOL    HW110046   0.982   0.028   1.261
 3049SOL    HW210047   1.085   6.948   1.337
 3050SOL     OW10048   3.144   6.954   3.365
 3050SOL    HW110049   3.165   6.983   3.272
 3050SOL    HW210050   3.196   7.009   3.430
 3051SOL     OW10051   2.266   4.774   6.670
 3051SOL    HW110052   2.201   4.759   6.596
 3051SOL    HW210053   2.223   4.829   6.741
 3052SOL     OW10054   3.837   0.400   3.132
 3052SOL    HW110055   3.924   0.449   3.129
 3052SOL    HW210056   3.854   0.302   3.124
 3053SOL     OW10057   5.975   0.584   0.020
 3053SOL    HW110058   6.030   0.665   0.039
 3053SOL    HW210059   6.022   0.525   6.977
 3054SOL     OW10060   6.936   2.802   6.864
 3054SOL    HW110061   6.953   2.705   6.884
 3054SOL    HW210062   6.983   2.859   6.931
 3055SOL     OW10063   5.060   0.384   3.754
 3055SOL    HW110064   5.014   0.472   3.768
 3055SOL    HW210065   5.094   0.378   3.660
 3056SOL     OW10066   6.380   0.417   0.127
 3056SOL    HW110067   6.333   0.459   0.049
 3056SOL    HW210068   6.374   0.318   0.121
 3057SOL     OW10069   4.753   5.481   2.714
 3057SOL    HW110070   4.745   5.566   2.661
 3057SOL    HW210071   4.734   5.403   2.655
 3058SOL     OW10072   6.636   5.976   1.320
 3058SOL    HW110073   6.663   6.033   1.397
 3058SOL    HW210074   6.703   5.903   1.307
 3059SOL     OW10075   1.329   3.155   5.328
 3059SOL    HW110076   1.323   3.248   5.290
 3059SOL    HW210077   1.415   3.145   5.378
 3060SOL     OW10078   0.631   6.873   0.238
 3060SOL    HW110079   0.707   6.919   0.192
 3060SOL    HW210080   0.573   6.941   0.282
 3061SOL     OW10081   0.187   0.568   5.036
 3061SOL    HW110082   0.262   0.596   5.096
 3061SOL    HW210083   0.127   0.506   5.086
 3062SOL     OW10084   2.038   7.020   1.669
 3062SOL    HW110085   2.086   0.074   1.626
 3062SOL    HW210086   1.996   0.028   1.755
 3063SOL     OW10087   2.189   4.959   2.081
 3063SOL    HW110088   2.167   5.054   2.059
 3063SOL    HW210089   2.206   4.908   1.997
 3064SOL     OW10090   5.476   3.372   3.915
 3064SOL    HW110091   5.498   3.351   4.011
 3064SOL    HW210092   5.516   3.460   3.890
 3065SOL     OW10093   2.091   0.596   6.294
 3065SOL    HW110094   2.182   0.586   6.254
 3065SOL    HW210095   2.094   0.574   6.392
 3066SOL     OW10096   6.047   4.162   0.177
 3066SOL    HW110097   6.131   4.203   0.212
 3066SOL    HW210098   5.984   4.145   0.253
 3067SOL     OW10099   3.749   0.798   5.124
 3067SOL    HW110100   3.803   0.790   5.208
 3067SOL    HW210101   3.809   0.828   5.049
 3068SOL     OW10102   5.898   6.141   0.897
 3068SOL    HW110103   5.987   6.173   0.929
 3068SOL    HW210104   5.878   6.051   0.936
 3069SOL     OW10105   0.334   5.805   1.832
 3069SOL    HW110106   0.413   5.744   1.833
 3069SOL    HW210107   0.365   5.900   1.835
 3070SOL     OW10108   2.258   1.283   2.778
 3070SOL    HW110109   2.251   1.340   2.860
 3070SOL    HW210110   2.314   1.202   2.797
 3071SOL     OW10111   6.359   0.015   3.556
 3071SOL    HW110112   6.444   0.012   3.609
 3071SOL    HW210113   6.311   6.951   3.565
 3072SOL     OW10114   0.731   6.716   1.725
 3072SOL    HW110115   0.795   6.734   1.650
 3072SOL    HW210116   0.638   6.706   1.687
 3073SOL     OW10117   0.575   3.521   5.023
 3073SOL    HW110118   0.641   3.578   4.972
 3073SOL    HW210119   0.602   3.425   5.015
 3074SOL     OW10120   4.707   3.044   0.129
 3074SOL    HW110121   4.713   3.106   0.207
 3074SOL    HW210122   4.776   3.071   0.060
 3075SOL     OW10123   1.753   6.710   1.584
 3075SOL    HW110124   1.763   6.768   1.665
 3075SOL    HW210125   1.687   6.637   1.603
 3076SOL     OW10126   6.425   0.471   4.711
 3076SOL    HW110127   6.433   0.433   4.619
 3076SOL    HW210128   6.514   0.508   4.739
 3077SOL     OW10129   5.806   4.647   3.453
 3077SOL    HW110130   5.772   4.739   3.436
 3077SOL    HW210131   5.906   4.649   3.463
 3078SOL     OW10132   2.256   3.911   1.751
 3078SOL    HW110133   2.167   3.898   1.707
 3078SOL    HW210134   2.244   3.906   1.850
 3079SOL     OW10135   1.523   2.595   5.295
 3079SOL    HW110136   1.490   2.687   5.314
 3079SOL    HW210137   1.463   2.550   5.229
 3080SOL     OW10138   6.363   5.028   1.439
 3080SOL    HW110139   6.293   5.100   1.442
 3080SOL    HW210140   6.385   4.999   1.532
 3081SOL     OW10141   0.664   4.655   5.969
 3081SOL    HW110142   0.640   4.745   6.006
 3081SOL    HW210143   0.719   4.667   5.886
 3082SOL     OW10144   3.942   6.673   3.606
 3082SOL    HW110145   3.973   6.631   3.691
 3082SOL    HW210146   3.962   6.771   3.608
 3083SOL     OW10147   3.832   6.830   2.786
 3083SOL    HW110148   3.866   6.856   2.696
 3083SOL    HW210149   3.759   6.893   2.814
 3084SOL     OW10150   4.599   4.459   4.107
 3084SOL    HW110151   4.577   4.362   4.124
 3084SOL    HW210152   4.694   4.466   4.078
 3085SOL     OW10153   0.075   4.649   3.229
 3085SOL    HW110154   0.153   4.606   3.184
 3085SOL    HW210155   0.104   4.688   3.316
 3086SOL     OW10156   4.131   1.192   2.153
 3086SOL    HW110157   4.094   1.100   2.162
 3086SOL    HW210158   4.094   1.235   2.071
 3087SOL     OW10159   6.761   4.650   3.573
 3087SOL    HW110160   6.795   4.601   3.654
 3087SOL    HW210161   6.732   4.583   3.504
 3088SOL     OW10162   3.001   5.073   5.274
 3088SOL    HW110163   2.907   5.041   5.273
 3088SOL    HW210164   3.004   5.170   5.248
 3089SOL     OW10165   1.377   3.228   0.075
 3089SOL    HW110166   1.293   3.218   0.022
 3089SOL    HW210167   1.357   3.279   0.160
 3090SOL     OW10168   1.946   1.651   1.253
 3090SOL    HW110169   1.936   1.699   1.166
 3090SOL    HW210170   1.856   1.641   1.296
 3091SOL     OW10171   3.219   6.991   0.304
 3091SOL    HW110172   3.219   6.947   0.393
 3091SOL    HW210173   3.188   0.062   0.313
 3092SOL     OW10174   5.628   6.673   0.065
 3092SOL    HW110175   5.659   6.764   0.038
 3092SOL    HW210176   5.579   6.630   7.012
 3093SOL     OW10177   5.836   5.134   5.863
 3093SOL    HW110178   5.916   5.193   5.870
 3093SOL    HW210179   5.794   5.143   5.773
 3094SOL     OW10180   3.030   6.206   5.036
 3094SOL    HW110181   3.008   6.197   4.939
 3094SOL    HW210182   3.088   6.129   5.064
 3095SOL     OW10183   2.337   4.381   4.487
 3095SOL    HW110184   2.245   4.420   4.495
 3095SOL    HW210185   2.348   4.342   4.396
 3096SOL     OW10186   6.735   0.536   4.753
 3096SOL    HW110187   6.801   0.465   4.778
 3096SOL    HW210188   6.757   0.571   4.662
 3097SOL     OW10189   1.008   2.541   0.676
 3097SOL    HW110190   1.042   2.491   0.597
 3097SOL    HW210191   0.934   2.602   0.648
 3098SOL     OW10192   2.757   3.181   1.309
 3098SOL    HW110193   2.706   3.105   1.268
 3098SOL    HW210194   2.742   3.264   1.255
 3099SOL     OW10195   6.553   5.526   4.563
 3099SOL    HW110196   6.518   5.619   4.562
 3099SOL    HW210197   6.566   5.497   4.658
 3100SOL     OW10198   6.932   0.208   4.634
 3100SOL    HW110199   6.950   0.248   4.544
 3100SOL    HW210200   6.954   0.276   4.705
 3101SOL     OW10201   4.770   6.043   5.335
 3101SOL    HW110202   4.694   5.988   5.302
 3101SOL    HW210203   4.748   6.081   5.425
 3102SOL     OW10204   0.951   4.314   1.377
 3102SOL    HW110205   0.942   4.388   1.444
 3102SOL    HW210206   1.017   4.341   1.307
 3103SOL     OW10207   3.713   2.100   0.824
 3103SOL    HW110208   3.637   2.128   0.882
 3103SOL    HW210209   3.681   2.088   0.730
 3104SOL     OW10210   5.416   5.854   4.325
 3104SOL    HW110211   5.426   5.923   4.253
 3104SOL    HW210212   5.474   5.775   4.304
 3105SOL     OW10213   5.889   5.871   3.345
 3105SOL    HW110214   5.987   5.880   3.326
 3105SOL    HW210215   5.848   5.962   3.356
 3106SOL     OW10216   6.359   2.259   2.193
 3106SOL    HW110217   6.268   2.267   2.151
 3106SOL    HW210218   6.429   2.280   2.125
 3107SOL     OW10219   3.305   0.413   4.118
 3107SOL    HW110220   3.316   0.440   4.022
 3107SOL    HW210221   3.213   0.435   4.148
 3108SOL     OW10222   1.666   0.966   4.277
 3108SOL    HW110223   1.618   0.978   4.364
 3108SOL    HW210224   1.618   0.899   4.221
 3109SOL     OW10225   5.061   5.844   2.687
 3109SOL    HW110226   5.107   5.774   2.742
 3109SOL    HW210227   5.086   5.935   2.721
 3110SOL     OW10228   0.221   2.801   3.761
 3110SOL    HW110229   0.293   2.749   3.716
 3110SOL    HW210230   0.239   2.899   3.752
 3111SOL     OW10231   6.224   5.048   4.208
 3111SOL    HW110232   6.293   5.121   4.208
 3111SOL    HW210233   6.226   5.001   4.119
 3112SOL     OW10234   4.384   2.443   6.143
 3112SOL    HW110235   4.338   2.532   6.143
 3112SOL    HW210236   4.357   2.391   6.062
 3113SOL     OW10237   2.353   0.246   3.857
 3113SOL    HW110238   2.300   0.237   3.941
 3113SOL    HW210239   2.411   0.165   3.845
 3114SOL     OW10240   5.449   3.939   6.687
 3114SOL    HW110241   5.542   3.977   6.680
 3114SOL    HW210242   5.450   3.843   6.657
 3115SOL     OW10243   3.888   4.133   0.355
 3115SOL    HW110244   3.853   4.123   0.262
 3115SOL    HW210245   3.974   4.082   0.364
 3116SOL     OW10246   6.774   2.715   6.635
 3116SOL    HW110247   6.851   2.748   6.690
 3116SOL    HW210248   6.747   2.786   6.570
 3117SOL     OW10249   4.440   3.654   5.479
 3117SOL    HW110250   4.536   3.627   5.478
 3117SOL    HW210251   4.398   3.633   5.391
 3118SOL     OW10252   6.794   4.616   6.701
 3118SOL    HW110253   6.733   4.678   6.751
 3118SOL    HW210254   6.773   4.620   6.603
 3119SOL     OW10255   2.148   4.299   5.031
 3119SOL    HW110256   2.171   4.268   4.938
 3119SOL    HW210257   2.129   4.220   5.089
 3120SOL     OW10258   2.254   5.975   4.388
 3120SOL    HW110259   2.155   5.989   4.393
 3120SOL    HW210260   2.274   5.877   4.387
 3121SOL     OW10261   0.716   1.631   1.874
 3121SOL    HW110262   0.759   1.635   1.964
 3121SOL    HW210263   0.727   1.539   1.836
 3122SOL     OW10264   3.013   5.376   6.288
 3122SOL    HW110265   3.017   5.321   6.205
 3122SOL    HW210266   2.992   5.471   6.265
 3123SOL     OW10267   3.254   6.484   3.622
 3123SOL    HW110268   3.202   6.403   3.593
 3123SOL    HW210269   3.256   6.551   3.548
 3124SOL     OW10270   4.316   0.658   5.174
 3124SOL    HW110271   4.287   0.685   5.266
 3124SOL    HW210272   4.411   0.683   5.160
 3125SOL     OW10273   6.381   1.896   5.399
 3125SOL    HW110274   6.352   1.839   5.322
 3125SOL    HW210275   6.308   1.901   5.466
 3126SOL     OW10276   5.366   4.403   6.010
 3126SOL    HW110277   5.334   4.428   5.918
 3126SOL    HW210278   5.348   4.478   6.073
 3127SOL     OW10279   0.853   1.695   3.179
 3127SOL    HW110280   0.828   1.744   3.263
 3127SOL    HW210281   0.788   1.622   3.161
 3128SOL     OW10282   1.684   0.686   0.567
 3128SOL    HW110283   1.751   0.656   0.500
 3128SOL    HW210284   1.618   0.613   0.584
 3129SOL     OW10285   0.895   3.954   5.567
 3129SOL    HW110286   0.991   3.978   5.579
 3129SOL    HW210287   0.877   3.865   5.609
 3130SOL     OW10288   2.723   4.676   2.365
 3130SOL    HW110289   2.658   4.655   2.438
 3130SOL    HW210290   2.800   4.728   2.403
 3131SOL     OW10291   1.087   2.814   3.202
 3131SOL    HW110292   1.183   2.828   3.228
 3131SOL    HW210293   1.035   2.898   3.218
 3132SOL     OW10294   5.165   5.884   5.130
 3132SOL    HW110295   5.196   5.802   5.177
 3132SOL    HW210296   5.243   5.944   5.113
 3133SOL     OW10297   2.309   1.926   4.255
 3133SOL    HW110298   2.234   1.977   4.211
 3133SOL    HW210299   2.274   1.840   4.291
 3134SOL     OW10300   5.090   3.339   1.392
 3134SOL    HW110301   5.052   3.254   1.429
 3134SOL    HW210302   5.188   3.327   1.376
 3135SOL     OW10303   4.125   2.018   4.608
 3135SOL    HW110304   4.119   1.946   4.539
 3135SOL    HW210305   4.212   2.067   4.598
 3136SOL     OW10306   5.993   5.828   6.289
 3136SOL    HW110307   5.986   5.920   6.251
 3136SOL    HW210308   6.072   5.781   6.249
 3137SOL     OW10309   4.990   1.737   4.072
 3137SOL    HW110310   5.011   1.639   4.076
 3137SOL    HW210311   5.043   1.779   3.998
 3138SOL     OW10312   6.269   1.821   4.690
 3138SOL    HW110313   6.309   1.905   4.654
 3138SOL    HW210314   6.204   1.844   4.763
 3139SOL     OW10315   5.098   6.292   5.919
 3139SOL    HW110316   5.072   6.213   5.863
 3139SOL    HW210317   5.197   6.304   5.915
 3140SOL     OW10318   6.686   6.817   6.708
 3140SOL    HW110319   6.708   6.833   6.805
 3140SOL    HW210320   6.587   6.807   6.698
 3141SOL     OW10321   0.509   6.111   6.861
 3141SOL    HW110322   0.566   6.054   6.919
 3141SOL    HW210323   0.508   6.205   6.895
 3142SOL     OW10324   5.042   6.118   0.272
 3142SOL    HW110325   5.009   6.073   0.188
 3142SOL    HW210326   5.030   6.056   0.349
 3143SOL     OW10327   6.862   2.040   6.850
 3143SOL    HW110328   6.904   1.958   6.890
 3143SOL    HW210329   6.921   2.119   6.867
 3144SOL     OW10330   2.011   3.591   0.830
 3144SOL    HW110331   2.018   3.494   0.807
 3144SOL    HW210332   2.060   3.645   0.762
 3145SOL     OW10333   3.089   5.697   2.832
 3145SOL    HW110334   3.063   5.687   2.929
 3145SOL    HW210335   3.146   5.778   2.821
 3146SOL     OW10336   1.613   6.743   3.547
 3146SOL    HW110337   1.709   6.770   3.555
 3146SOL    HW210338   1.602   6.682   3.468
 3147SOL     OW10339   4.505   4.937   0.592
 3147SOL    HW110340   4.589   4.991   0.582
 3147SOL    HW210341   4.457   4.933   0.504
 3148SOL     OW10342   4.035   5.211   3.930
 3148SOL    HW110343   4.028   5.199   4.029
 3148SOL    HW210344   4.120   5.167   3.898
 3149SOL     OW10345   3.434   0.738   5.527
 3149SOL    HW110346   3.429   0.837   5.542
 3149SOL    HW210347   3.342   0.699   5.528
 3150SOL     OW10348   5.311   6.574   4.634
 3150SOL    HW110349   5.371   6.553   4.710
 3150SOL    HW210350   5.313   6.499   4.567
 3151SOL     OW10351   4.990   1.296   6.448
 3151SOL    HW110352   4.978   1.210   6.399
 3151SOL    HW210353   5.074   1.292   6.503
 3152SOL     OW10354   0.649   5.321   1.404
 3152SOL    HW110355   0.569   5.378   1.426
 3152SOL    HW210356   0.687   5.284   1.489
 3153SOL     OW10357   6.125   4.263   1.422
 3153SOL    HW110358   6.148   4.225   1.511
 3153SOL    HW210359   6.195   4.329   1.395
 3154SOL     OW10360   6.565   2.222   6.491
 3154SOL    HW110361   6.563   2.322   6.491
 3154SOL    HW210362   6.495   2.187   6.553
 3155SOL     OW10363   6.174   5.056   0.911
 3155SOL    HW110364   6.265   5.094   0.891
 3155SOL    HW210365   6.106   5.129   0.906
 3156SOL     OW10366   3.594   4.137   3.105
 3156SOL    HW110367   3.563   4.084   3.025
 3156SOL    HW210368   3.612   4.231   3.077
 3157SOL     OW10369   2.133   3.594   4.778
 3157SOL    HW110370   2.096   3.503   4.796
 3157SOL    HW210371   2.138   3.646   4.863
 3158SOL     OW10372   4.964   6.779   1.428
 3158SOL    HW110373   4.872   6.765   1.392
 3158SOL    HW210374   4.959   6.830   1.514
 3159SOL     OW10375   5.044   5.591   6.159
 3159SOL    HW110376   5.019   5.676   6.114
 3159SOL    HW210377   5.137   5.565   6.134
 3160SOL     OW10378   5.582   3.664   5.753
 3160SOL    HW110379   5.669   3.664   5.803
 3160SOL    HW210380   5.520   3.598   5.795
 3161SOL     OW10381   1.629   1.015   2.597
 3161SOL    HW110382   1.559   1.071   2.554
 3161SOL    HW210383   1.653   1.053   2.686
 3162SOL     OW10384   0.638   5.591   0.159
 3162SOL    HW110385   0.727   5.547   0.162
 3162SOL    HW210386   0.588   5.562   0.077
 3163SOL     OW10387   3.931   3.018   6.847
 3163SOL    HW110388   4.012   3.032   6.790
 3163SOL    HW210389   3.894   3.106   6.874
 3164SOL     OW10390   5.471   4.236   0.998
 3164SOL    HW110391   5.442   4.200   1.087
 3164SOL    HW210392   5.570   4.248   0.998
 3165SOL     OW10393   0.561   0.086   2.014
 3165SOL    HW110394   0.516   0.030   2.084
 3165SOL    HW210395   0.631   0.031   1.968
 3166SOL     OW10396   4.835   2.908   6.070
 3166SOL    HW110397   4.851   3.006   6.076
 3166SOL    HW210398   4.902   2.867   6.009
 3167SOL     OW10399   0.151   4.287   1.962
 3167SOL    HW110400   0.178   4.192   1.978
 3167SOL    HW210401   0.158   4.307   1.864
 3168SOL     OW10402   5.492   2.830   0.603
 3168SOL    HW110403   5.435   2.792   0.530
 3168SOL    HW210404   5.481   2.929   0.604
 3169SOL     OW10405   0.881   2.945   5.803
 3169SOL    HW110406   0.945   2.907   5.869
 3169SOL    HW210407   0.844   3.031   5.840
 3170SOL     OW10408   4.385   0.561   6.784
 3170SOL    HW110409   4.429   0.480   6.745
 3170SOL    HW210410   4.355   0.621   6.710
 3171SOL     OW10411   6.695   0.222   2.116
 3171SOL    HW110412   6.645   0.264   2.041
 3171SOL    HW210413   6.768   0.284   2.147
 3172SOL     OW10414   6.533   6.779   4.813
 3172SOL    HW110415   6.537   6.713   4.737
 3172SOL    HW210416   6.509   6.731   4.897
 3173SOL     OW10417   2.446   0.440   2.110
 3173SOL    HW110418   2.416   0.443   2.206
 3173SOL    HW210419   2.396   0.509   2.058
 3174SOL     OW10420   3.053   2.858   5.612
 3174SOL    HW110421   3.148   2.847   5.583
 3174SOL    HW210422   2.994   2.871   5.532
 3175SOL     OW10423   0.936   6.071   6.791
 3175SOL    HW110424   0.921   6.160   6.834
 3175SOL    HW210425   0.970   6.006   6.860
 3176SOL     OW10426   1.415   4.342   6.398
 3176SOL    HW110427   1.410   4.254   6.445
 3176SOL    HW210428   1.510   4.364   6.377
 3177SOL     OW10429   5.252   5.087   5.511
 3177SOL    HW110430   5.278   5.077   5.607
 3177SOL    HW210431   5.153   5.075   5.502
 3178SOL     OW10432   0.450   4.368   2.459
 3178SOL    HW110433   0.513   4.338   2.531
 3178SOL    HW210434   0.485   4.451   2.415
 3179SOL     OW10435   2.107   2.409   2.328
 3179SOL    HW110436   2.049   2.428   2.248
 3179SOL    HW210437   2.060   2.437   2.411
 3180SOL     OW10438   5.360   0.060   5.663
 3180SOL    HW110439   5.336   6.996   5.706
 3180SOL    HW210440   5.411   0.043   5.579
 3181SOL     OW10441   0.583   1.053   3.220
 3181SOL    HW110442   0.553   1.148   3.214
 3181SOL    HW210443   0.678   1.049   3.251
 3182SOL     OW10444   0.152   6.211   5.649
 3182SOL    HW110445   0.230   6.272   5.635
 3182SOL    HW210446   0.131   6.206   5.747
 3183SOL     OW10447   4.359   5.090   1.880
 3183SOL    HW110448   4.414   5.007   1.889
 3183SOL    HW210449   4.418   5.167   1.855
 3184SOL     OW10450   2.663   1.956   3.034
 3184SOL    HW110451   2.730   2.026   3.013
 3184SOL    HW210452   2.636   1.962   3.131
 3185SOL     OW10453   0.648   6.567   5.270
 3185SOL    HW110454   0.601   6.650   5.241
 3185SOL    HW210455   0.747   6.584   5.271
 3186SOL     OW10456   3.542   1.317   2.757
 3186SOL    HW110457   3.613   1.263   2.712
 3186SOL    HW210458   3.585   1.395   2.803
 3187SOL     OW10459   3.316   4.502   0.075
 3187SOL    HW110460   3.323   4.572   0.146
 3187SOL    HW210461   3.267   4.423   0.112
 3188SOL     OW10462   3.560   5.652   3.004
 3188SOL    HW110463   3.648   5.649   3.051
 3188SOL    HW210464   3.490   5.688   3.065
 3189SOL     OW10465   0.919   0.484   3.347
 3189SOL    HW110466   0.896   0.389   3.323
 3189SOL    HW210467   1.002   0.485   3.404
 3190SOL     OW10468   1.382   5.684   1.798
 3190SOL    HW110469   1.338   5.595   1.788
 3190SOL    HW210470   1.480   5.674   1.786
 3191SOL     OW10471   3.911   0.829   0.918
 3191SOL    HW110472   3.898   0.779   1.004
 3191SOL    HW210473   3.987   0.893   0.927
 3192SOL     OW10474   0.815   2.587   1.731
 3192SOL    HW110475   0.810   2.685   1.710
 3192SOL    HW210476   0.828   2.575   1.829
 3193SOL     OW10477   4.569   1.781   6.547
 3193SOL    HW110478   4.624   1.740   6.475
 3193SOL    HW210479   4.629   1.826   6.613
 3194SOL     OW10480   1.541   3.695   6.104
 3194SOL    HW110481   1.565   3.765   6.037
 3194SOL    HW210482   1.479   3.629   6.062
 3195SOL     OW10483   1.649   3.167   3.716
 3195SOL    HW110484   1.552   3.149   3.701
 3195SOL    HW210485   1.667   3.265   3.705
 3196SOL     OW10486   0.366   0.347   4.808
 3196SOL    HW110487   0.403   0.399   4.885
 3196SOL    HW210488   0.315   0.408   4.748
 3197SOL     OW10489   1.230   5.247   3.520
 3197SOL    HW110490   1.304   5.291   3.571
 3197SOL    HW210491   1.151   5.236   3.580
 3198SOL     OW10492   0.421   1.705   6.168
 3198SOL    HW110493   0.511   1.742   6.143
 3198SOL    HW210494   0.363   1.702   6.086
 3199SOL     OW10495   4.453   1.615   2.366
 3199SOL    HW110496   4.498   1.664   2.292
 3199SOL    HW210497   4.520   1.593   2.437
 3200SOL     OW10498   6.714   2.341   0.369
 3200SOL    HW110499   6.786   2.275   0.393
 3200SOL    HW210500   6.713   2.355   0.270
 3201SOL     OW10501   5.519   3.959   3.927
 3201SOL    HW110502   5.541   4.055   3.906
 3201SOL    HW210503   5.593   3.900   3.895
 3202SOL     OW10504   1.824   4.995   1.837
 3202SOL    HW110505   1.818   5.060   1.913
 3202SOL    HW210506   1.901   5.018   1.778
 3203SOL     OW10507   6.890   1.028   1.039
 3203SOL    HW110508   6.892   0.949   1.100
 3203SOL    HW210509   6.799   1.068   1.039
 3204SOL     OW10510   6.933   5.831   1.852
 3204SOL    HW110511   6.989   5.750   1.870
 3204SOL    HW210512   6.949   5.862   1.759
 3205SOL     OW10513   6.824   3.611   5.092
 3205SOL    HW110514   6.787   3.528   5.049
 3205SOL    HW210515   6.917   3.594   5.122
 3206SOL     OW10516   1.435   6.606   5.550
 3206SOL    HW110517   1.471   6.526   5.598
 3206SOL    HW210518   1.510   6.663   5.517
 3207SOL     OW10519   0.781   0.887   4.917
 3207SOL    HW110520   0.792   0.986   4.930
 3207SOL    HW210521   0.728   0.849   4.992
 3208SOL     OW10522   4.529   5.486   5.208
 3208SOL    HW110523   4.620   5.522   5.186
 3208SOL    HW210524   4.522   5.471   5.306
 3209SOL     OW10525   2.555   0.413   3.910
 3209SOL    HW110526   2.477   0.357   3.885
 3209SOL    HW210527   2.598   0.376   3.993
 3210SOL     OW10528   6.784   4.562   2.760
 3210SOL    HW110529   6.806   4.466   2.744
 3210SOL    HW210530   6.826   4.592   2.846
 3211SOL     OW10531   2.022   4.681   1.189
 3211SOL    HW110532   1.992   4.699   1.282
 3211SOL    HW210533   2.116   4.646   1.190
 3212SOL     OW10534   4.701   2.607   6.872
 3212SOL    HW110535   4.601   2.604   6.867
 3212SOL    HW210536   4.734   2.527   6.922
 3213SOL     OW10537   5.646   5.481   2.865
 3213SOL    HW110538   5.693   5.527   2.939
 3213SOL    HW210539   5.713   5.444   2.800
 3214SOL     OW10540   4.362   5.726   6.850
 3214SOL    HW110541   4.426   5.705   6.777
 3214SOL    HW210542   4.368   5.823   6.873
 3215SOL     OW10543   6.295   2.608   6.596
 3215SOL    HW110544   6.277   2.616   6.694
 3215SOL    HW210545   6.315   2.698   6.558
 3216SOL     OW10546   5.553   6.646   3.418
 3216SOL    HW110547   5.526   6.620   3.511
 3216SOL    HW210548   5.556   6.564   3.361
 3217SOL     OW10549   0.236   4.571   2.319
 3217SOL    HW110550   0.142   4.559   2.351
 3217SOL    HW210551   0.298   4.577   2.398
 3218SOL     OW10552   4.091   0.569   3.501
 3218SOL    HW110553   4.018   0.634   3.484
 3218SOL    HW210554   4.106   0.513   3.419
 3219SOL     OW10555   0.596   0.316   3.084
 3219SOL    HW110556   0.657   0.304   3.162
 3219SOL    HW210557   0.526   0.246   3.085
 3220SOL     OW10558   0.192   4.514   5.092
 3220SOL    HW110559   0.281   4.476   5.065
 3220SOL    HW210560   0.190   4.612   5.071
 3221SOL     OW10561   2.747   0.230   3.496
 3221SOL    HW110562   2.788   0.181   3.573
 3221SOL    HW210563   2.727   0.165   3.422
 3222SOL     OW10564   5.617   2.223   3.238
 3222SOL    HW110565   5.642   2.316   3.265
 3222SOL    HW210566   5.530   2.198   3.279
 3223SOL     OW10567   2.479   4.894   6.113
 3223SOL    HW110568   2.488   4.958   6.190
 3223SOL    HW210569   2.435   4.810   6.144
 3224SOL     OW10570   4.229   5.381   0.592
 3224SOL    HW110571   4.137   5.392   0.555
 3224SOL    HW210572   4.293   5.363   0.517
 3225SOL     OW10573   2.980   3.711   0.060
 3225SOL    HW110574   2.893   3.683   0.102
 3225SOL    HW210575   3.012   3.638   7.023
 3226SOL     OW10576   1.470   0.764   4.205
 3226SOL    HW110577   1.511   0.679   4.170
 3226SOL    HW210578   1.387   0.784   4.153
 3227SOL     OW10579   3.839   1.112   5.502
 3227SOL    HW110580   3.748   1.102   5.463
 3227SOL    HW210581   3.863   1.209   5.506
 3228SOL     OW10582   5.249   3.767   4.614
 3228SOL    HW110583   5.229   3.811   4.527
 3228SOL    HW210584   5.230   3.831   4.689
 3229SOL     OW10585   4.371   1.617   5.493
 3229SOL    HW110586   4.432   1.690   5.524
 3229SOL    HW210587   4.276   1.646   5.503
 3230SOL     OW10588   0.556   0.474   3.496
 3230SOL    HW110589   0.617   0.395   3.500
 3230SOL    HW210590   0.525   0.497   3.588
 3231SOL     OW10591   6.152   6.143   0.991
 3231SOL    HW110592   6.170   6.045   1.001
 3231SOL    HW210593   6.161   6.188   1.080
 3232SOL     OW10594   2.662   4.704   4.375
 3232SOL    HW110595   2.626   4.779   4.431
 3232SOL    HW210596   2.666   4.620   4.430
 3233SOL     OW10597   0.577   4.118   1.524
 3233SOL    HW110598   0.606   4.068   1.443
 3233SOL    HW210599   0.630   4.203   1.532
 3234SOL     OW10600   0.334   1.559   6.611
 3234SOL    HW110601   0.299   1.563   6.518
 3234SOL    HW210602   0.377   1.470   6.626
 3235SOL     OW10603   5.605   6.716   2.623
 3235SOL    HW110604   5.697   6.734   2.588
 3235SOL    HW210605   5.601   6.738   2.721
 3236SOL     OW10606   1.306   3.373   2.805
 3236SOL    HW110607   1.294   3.303   2.734
 3236SOL    HW210608   1.345   3.331   2.887
 3237SOL     OW10609   3.429   6.890   5.040
 3237SOL    HW110610   3.485   6.810   5.016
 3237SOL    HW210611   3.489   6.966   5.064
 3238SOL     OW10612   0.018   6.475   6.451
 3238SOL    HW110613   0.006   6.388   6.403
 3238SOL    HW210614   0.066   6.460   6.537
 3239SOL     OW10615   6.661   0.231   5.324
 3239SOL    HW110616   6.668   0.267   5.231
 3239SOL    HW210617   6.568   0.200   5.342
 3240SOL     OW10618   1.386   0.195   4.765
 3240SOL    HW110619   1.324   0.270   4.742
 3240SOL    HW210620   1.480   0.220   4.739
 3241SOL     OW10621   4.751   1.049   4.205
 3241SOL    HW110622   4.681   1.120   4.199
 3241SOL    HW210623   4.823   1.068   4.139
 3242SOL     OW10624   4.092   6.278   6.934
 3242SOL    HW110625   4.117   6.216   7.008
 3242SOL    HW210626   4.008   6.326   6.957
 3243SOL     OW10627   4.542   5.178   1.121
 3243SOL    HW110628   4.476   5.111   1.087
 3243SOL    HW210629   4.580   5.147   1.208
 3244SOL     OW10630   3.279   6.145   6.884
 3244SOL    HW110631   3.262   6.211   6.812
 3244SOL    HW210632   3.200   6.084   6.893
 3245SOL     OW10633   3.569   2.377   6.704
 3245SOL    HW110634   3.585   2.455   6.764
 3245SOL    HW210635   3.646   2.314   6.709
 3246SOL     OW10636   5.219   6.239   2.751
 3246SOL    HW110637   5.273   6.287   2.820
 3246SOL    HW210638   5.280   6.185   2.693
 3247SOL     OW10639   0.439   2.665   3.624
 3247SOL    HW110640   0.488   2.589   3.581
 3247SOL    HW210641   0.504   2.725   3.671
 3248SOL     OW10642   6.247   3.203   1.488
 3248SOL    HW110643   6.334   3.250   1.476
 3248SOL    HW210644   6.191   3.215   1.406
 3249SOL     OW10645   2.598   4.612   4.821
 3249SOL    HW110646   2.528   4.552   4.860
 3249SOL    HW210647   2.668   4.630   4.890
 3250SOL     OW10648   4.680   6.605   2.513
 3250SOL    HW110649   4.745   6.605   2.589
 3250SOL    HW210650   4.606   6.670   2.532
 3251SOL     OW10651   3.603   2.103   2.955
 3251SOL    HW110652   3.681   2.161   2.933
 3251SOL    HW210653   3.525   2.128   2.897
 3252SOL     OW10654   2.971   0.962   2.939
 3252SOL    HW110655   2.993   1.058   2.955
 3252SOL    HW210656   2.984   0.940   2.843
 3253SOL     OW10657   5.282   2.971   1.137
 3253SOL    HW110658   5.203   3.014   1.181
 3253SOL    HW210659   5.255   2.882   1.100
 3254SOL     OW10660   4.677   4.462   3.212
 3254SOL    HW110661   4.700   4.512   3.295
 3254SOL    HW210662   4.582   4.479   3.188
 3255SOL     OW10663   4.553   5.353   0.450
 3255SOL    HW110664   4.481   5.284   0.437
 3255SOL    HW210665   4.632   5.330   0.394
 3256SOL     OW10666   5.227   6.629   5.678
 3256SOL    HW110667   5.201   6.589   5.766
 3256SOL    HW210668   5.316   6.674   5.688
 3257SOL     OW10669   1.485   2.520   1.136
 3257SOL    HW110670   1.447   2.608   1.108
 3257SOL    HW210671   1.559   2.494   1.072
 3258SOL     OW10672   5.307   6.587   1.994
 3258SOL    HW110673   5.265   6.582   2.084
 3258SOL    HW210674   5.238   6.567   1.924
 3259SOL     OW10675   4.272   6.143   3.976
 3259SOL    HW110676   4.223   6.089   3.908
 3259SOL    HW210677   4.215   6.153   4.058
 3260SOL     OW10678   2.326   2.045   0.341
 3260SOL    HW110679   2.367   2.130   0.375
 3260SOL    HW210680   2.319   2.048   0.241
 3261SOL     OW10681   4.586   0.022   1.211
 3261SOL    HW110682   4.607   0.117   1.189
 3261SOL    HW210683   4.519   0.019   1.286
 3262SOL     OW10684   4.042   1.941   3.028
 3262SOL    HW110685   4.004   1.876   3.094
 3262SOL    HW210686   3.973   2.011   3.007
 3263SOL     OW10687   4.227   6.656   1.619
 3263SOL    HW110688   4.253   6.671   1.524
 3263SOL    HW210689   4.246   6.561   1.644
 3264SOL     OW10690   6.640   4.733   6.902
 3264SOL    HW110691   6.621   4.661   6.970
 3264SOL    HW210692   6.577   4.809   6.917
 3265SOL     OW10693   5.068   0.350   6.157
 3265SOL    HW110694   5.050   0.448   6.144
 3265SOL    HW210695   5.159   0.328   6.122
 3266SOL     OW10696   1.083   1.434   5.948
 3266SOL    HW110697   1.135   1.348   5.949
 3266SOL    HW210698   1.050   1.454   6.040
 3267SOL     OW10699   3.724   2.029   1.200
 3267SOL    HW110700   3.643   1.988   1.157
 3267SOL    HW210701   3.698   2.116   1.242
 3268SOL     OW10702   1.270   4.233   6.181
 3268SOL    HW110703   1.265   4.272   6.089
 3268SOL    HW210704   1.295   4.305   6.247
 3269SOL     OW10705   4.296   4.660   1.293
 3269SOL    HW110706   4.379   4.705   1.325
 3269SOL    HW210707   4.284   4.573   1.342
 3270SOL     OW10708   1.009   5.827   4.429
 3270SOL    HW110709   1.066   5.850   4.508
 3270SOL    HW210710   1.007   5.727   4.418
 3271SOL     OW10711   6.069   1.843   1.222
 3271SOL    HW110712   6.038   1.771   1.160
 3271SOL    HW210713   6.143   1.894   1.178
 3272SOL     OW10714   4.256   0.194   0.380
 3272SOL    HW110715   4.158   0.196   0.396
 3272SOL    HW210716   4.304   0.176   0.466
 3273SOL     OW10717   0.263   6.826   2.637
 3273SOL    HW110718   0.339   6.844   2.575
 3273SOL    HW210719   0.178   6.861   2.598
 3274SOL     OW10720   3.028   2.219   5.772
 3274SOL    HW110721   3.027   2.277   5.853
 3274SOL    HW210722   3.110   2.238   5.718
 3275SOL     OW10723   2.311   0.391   6.717
 3275SOL    HW110724   2.398   0.428   6.748
 3275SOL    HW210725   2.250   0.466   6.690
 3276SOL     OW10726   3.210   6.537   0.065
 3276SOL    HW110727   3.247   6.600   7.019
 3276SOL    HW210728   3.239   6.566   0.156
 3277SOL     OW10729   0.296   6.045   5.024
 3277SOL    HW110730   0.219   6.012   4.970
 3277SOL    HW210731   0.353   5.967   5.051
 3278SOL     OW10732   1.353   0.584   6.088
 3278SOL    HW110733   1.302   0.641   6.024
 3278SOL    HW210734   1.307   0.496   6.098
 3279SOL     OW10735   1.128   0.233   1.023
 3279SOL    HW110736   1.094   0.277   1.107
 3279SOL    HW210737   1.050   0.197   0.971
 3280SOL     OW10738   1.757   4.779   6.010
 3280SOL    HW110739   1.670   4.810   5.971
 3280SOL    HW210740   1.740   4.712   6.081
 3281SOL     OW10741   2.619   5.652   0.746
 3281SOL    HW110742   2.645   5.675   0.839
 3281SOL    HW210743   2.697   5.612   0.698
 3282SOL     OW10744   2.389   5.167   3.094
 3282SOL    HW110745   2.475   5.130   3.057
 3282SOL    HW210746   2.370   5.124   3.182
 3283SOL     OW10747   2.367   0.956   3.529
 3283SOL    HW110748   2.353   1.052   3.555
 3283SOL    HW210749   2.445   0.949   3.468
 3284SOL     OW10750   0.011   5.022   6.974
 3284SOL    HW110751   6.966   4.958   7.011
 3284SOL    HW210752   0.055   5.071   0.027
 3285SOL     OW10753   0.787   1.800   3.501
 3285SOL    HW110754   0.695   1.775   3.533
 3285SOL    HW210755   0.844   1.823   3.580
 3286SOL     OW10756   3.582   3.582   4.717
 3286SOL    HW110757   3.574   3.671   4.673
 3286SOL    HW210758   3.677   3.550   4.712
 3287SOL     OW10759   1.600   5.261   0.546
 3287SOL    HW110760   1.622   5.350   0.507
 3287SOL    HW210761   1.519   5.224   0.502
 3288SOL     OW10762   0.597   6.277   6.481
 3288SOL    HW110763   0.694   6.294   6.495
 3288SOL    HW210764   0.555   6.357   6.438
 3289SOL     OW10765   1.476   6.251   4.814
 3289SOL    HW110766   1.411   6.285   4.746
 3289SOL    HW210767   1.494   6.322   4.882
 3290SOL     OW10768   6.639   5.028   1.271
 3290SOL    HW110769   6.544   4.997   1.271
 3290SOL    HW210770   6.669   5.047   1.364
 3291SOL     OW10771   1.153   6.456   0.384
 3291SOL    HW110772   1.252   6.469   0.378
 3291SOL    HW210773   1.123   6.471   0.478
 3292SOL     OW10774   6.969   6.936   5.650
 3292SOL    HW110775   6.987   6.927   5.748
 3292SOL    HW210776   0.033   6.946   5.601
 3293SOL     OW10777   7.001   1.157   2.540
 3293SOL    HW110778   0.049   1.109   2.592
 3293SOL    HW210779   0.019   1.233   2.490
 3294SOL     OW10780   0.139   0.596   6.977
 3294SOL    HW110781   0.128   0.691   7.006
 3294SOL    HW210782   0.168   0.541   0.033
 3295SOL     OW10783   1.959   3.085   0.339
 3295SOL    HW110784   1.899   3.164   0.337
 3295SOL    HW210785   1.997   3.070   0.247
 3296SOL     OW10786   2.102   6.702   2.435
 3296SOL    HW110787   2.140   6.739   2.519
 3296SOL    HW210788   2.091   6.603   2.444
 3297SOL     OW10789   2.952   2.304   6.365
 3297SOL    HW110790   2.914   2.362   6.292
 3297SOL    HW210791   2.879   2.250   6.406
 3298SOL     OW10792   6.371   2.958   2.641
 3298SOL    HW110793   6.276   2.928   2.646
 3298SOL    HW210794   6.428   2.899   2.698
 3299SOL     OW10795   1.965   6.953   4.924
 3299SOL    HW110796   1.992   6.888   4.995
 3299SOL    HW210797   1.982   0.024   4.957
 3300SOL     OW10798   6.266   6.223   4.470
 3300SOL    HW110799   6.356   6.203   4.510
 3300SOL    HW210800   6.227   6.303   4.515
 3301SOL     OW10801   0.577   3.832   3.170
 3301SOL    HW110802   0.617   3.811   3.259
 3301SOL    HW210803   0.581   3.930   3.153
 3302SOL     OW10804   1.060   4.970   4.105
 3302SOL    HW110805   1.005   4.895   4.068
 3302SOL    HW210806   1.008   5.017   4.176
 3303SOL     OW10807   3.787   3.508   3.468
 3303SOL    HW110808   3.774   3.605   3.450
 3303SOL    HW210809   3.840   3.496   3.552
 3304SOL     OW10810   0.583   6.447   4.427
 3304SOL    HW110811   0.540   6.371   4.378
 3304SOL    HW210812   0.513   6.511   4.457
 3305SOL     OW10813   2.262   1.043   2.162
 3305SOL    HW110814   2.224   1.022   2.252
 3305SOL    HW210815   2.326   1.119   2.169
 3306SOL     OW10816   1.357   3.786   3.677
 3306SOL    HW110817   1.426   3.803   3.607
 3306SOL    HW210818   1.307   3.870   3.695
 3307SOL     OW10819   6.888   5.927   0.030
 3307SOL    HW110820   6.974   5.964   0.065
 3307SOL    HW210821   6.815   5.944   0.096
 3308SOL     OW10822   4.986   5.861   0.806
 3308SOL    HW110823   4.890   5.845   0.829
 3308SOL    HW210824   4.996   5.951   0.764
 3309SOL     OW10825   0.228   4.863   3.020
 3309SOL    HW110826   0.222   4.955   3.058
 3309SOL    HW210827   0.294   4.810   3.073
 3310SOL     OW10828   0.719   5.080   2.295
 3310SOL    HW110829   0.781   5.002   2.286
 3310SOL    HW210830   0.768   5.157   2.335
 3311SOL     OW10831   4.233   6.601   0.975
 3311SOL    HW110832   4.220   6.626   0.879
 3311SOL    HW210833   4.144   6.580   1.016
 3312SOL     OW10834   3.425   3.744   0.031
 3312SOL    HW110835   3.403   3.660   0.080
 3312SOL    HW210836   3.520   3.771   0.051
 3313SOL     OW10837   7.013   5.413   3.619
 3313SOL    HW110838   6.926   5.389   3.664
 3313SOL    HW210839   7.010   5.383   3.524
 3314SOL     OW10840   1.223   3.347   5.640
 3314SOL    HW110841   1.195   3.408   5.714
 3314SOL    HW210842   1.266   3.401   5.567
 3315SOL     OW10843   0.413   1.971   4.071
 3315SOL    HW110844   0.484   1.917   4.027
 3315SOL    HW210845   0.387   2.047   4.012
 3316SOL     OW10846   4.687   1.908   6.775
 3316SOL    HW110847   4.703   1.819   6.820
 3316SOL    HW210848   4.774   1.956   6.765
 3317SOL     OW10849   4.341   2.597   0.847
 3317SOL    HW110850   4.309   2.686   0.818
 3317SOL    HW210851   4.279   2.526   0.814
 3318SOL     OW10852   2.790   5.585   5.770
 3318SOL    HW110853   2.762   5.517   5.702
 3318SOL    HW210854   2.741   5.671   5.752
 3319SOL     OW10855   0.464   5.831   4.987
 3319SOL    HW110856   0.443   5.847   4.891
 3319SOL    HW210857   0.559   5.858   5.005
 3320SOL     OW10858   6.284   1.151   5.833
 3320SOL    HW110859   6.238   1.072   5.793
 3320SOL    HW210860   6.373   1.164   5.788
 3321SOL     OW10861   3.475   3.481   3.008
 3321SOL    HW110862   3.459   3.440   3.098
 3321SOL    HW210863   3.396   3.537   2.984
 3322SOL     OW10864   3.761   1.723   0.475
 3322SOL    HW110865   3.828   1.726   0.549
 3322SOL    HW210866   3.808   1.710   0.388
 3323SOL     OW10867   2.322   5.017   0.460
 3323SOL    HW110868   2.340   5.081   0.535
 3323SOL    HW210869   2.293   4.929   0.497
 3324SOL     OW10870   1.128   3.037   0.759
 3324SOL    HW110871   1.164   3.059   0.668
 3324SOL    HW210872   1.131   2.938   0.774
 3325SOL     OW10873   1.393   2.757   1.073
 3325SOL    HW110874   1.443   2.775   0.989
 3325SOL    HW210875   1.310   2.812   1.076
 3326SOL     OW10876   6.304   1.525   1.077
 3326SOL    HW110877   6.242   1.468   1.024
 3326SOL    HW210878   6.255   1.563   1.156
 3327SOL     OW10879   2.996   6.794   2.260
 3327SOL    HW110880   2.990   6.870   2.195
 3327SOL    HW210881   3.015   6.831   2.351
 3328SOL     OW10882   4.806   0.866   2.094
 3328SOL    HW110883   4.830   0.834   2.002
 3328SOL    HW210884   4.752   0.796   2.141
 3329SOL     OW10885   5.010   0.203   5.413
 3329SOL    HW110886   5.086   0.266   5.432
 3329SOL    HW210887   4.979   0.162   5.498
 3330SOL     OW10888   6.284   5.971   2.726
 3330SOL    HW110889   6.285   5.873   2.748
 3330SOL    HW210890   6.308   5.983   2.629
 3331SOL     OW10891   2.016   3.362   2.565
 3331SOL    HW110892   1.938   3.338   2.622
 3331SOL    HW210893   2.082   3.414   2.619
 3332SOL     OW10894   4.396   5.644   1.184
 3332SOL    HW110895   4.454   5.564   1.168
 3332SOL    HW210896   4.365   5.680   1.096
 3333SOL     OW10897   4.156   3.728   1.521
 3333SOL    HW110898   4.063   3.697   1.501
 3333SOL    HW210899   4.159   3.828   1.518
 3334SOL     OW10900   1.751   1.964   2.831
 3334SOL    HW110901   1.814   2.031   2.791
 3334SOL    HW210902   1.716   1.998   2.918
 3335SOL     OW10903   4.002   4.495   5.285
 3335SOL    HW110904   4.041   4.559   5.352
 3335SOL    HW210905   4.076   4.449   5.236
 3336SOL     OW10906   4.545   6.049   3.906
 3336SOL    HW110907   4.459   6.092   3.878
 3336SOL    HW210908   4.563   6.069   4.002
 3337SOL     OW10909   3.309   3.786   3.210
 3337SOL    HW110910   3.263   3.698   3.196
 3337SOL    HW210911   3.362   3.782   3.295
 3338SOL     OW10912   2.162   1.670   1.415
 3338SOL    HW110913   2.100   1.681   1.337
 3338SOL    HW210914   2.252   1.641   1.383
 3339SOL     OW10915   2.289   0.036   5.326
 3339SOL    HW110916   2.289   6.964   5.294
 3339SOL    HW210917   2.370   0.052   5.382
 3340SOL     OW10918   4.027   0.915   4.525
 3340SOL    HW110919   3.961   0.990   4.515
 3340SOL    HW210920   4.000   0.839   4.466
 3341SOL     OW10921   2.279   4.242   2.733
 3341SOL    HW110922   2.244   4.170   2.673
 3341SOL    HW210923   2.256   4.220   2.828
 3342SOL     OW10924   6.777   0.684   3.099
 3342SOL    HW110925   6.853   0.619   3.103
 3342SOL    HW210926   6.803   0.769   3.146
 3343SOL     OW10927   4.896   4.953   6.905
 3343SOL    HW110928   4.916   4.855   6.904
 3343SOL    HW210929   4.847   4.978   6.821
 3344SOL     OW10930   0.178   2.852   2.878
 3344SOL    HW110931   0.199   2.785   2.807
 3344SOL    HW210932   0.257   2.865   2.936
 3345SOL     OW10933   6.896   4.666   0.557
 3345SOL    HW110934   6.975   4.664   0.619
 3345SOL    HW210935   6.813   4.647   0.609
 3346SOL     OW10936   2.085   1.225   6.937
 3346SOL    HW110937   2.072   1.204   0.011
 3346SOL    HW210938   2.162   1.172   6.902
 3347SOL     OW10939   0.141   3.405   6.562
 3347SOL    HW110940   0.173   3.323   6.515
 3347SOL    HW210941   0.196   3.422   6.643
 3348SOL     OW10942   3.814   3.747   6.065
 3348SOL    HW110943   3.854   3.667   6.110
 3348SOL    HW210944   3.746   3.717   5.998
 3349SOL     OW10945   2.224   5.277   3.645
 3349SOL    HW110946   2.259   5.370   3.634
 3349SOL    HW210947   2.246   5.244   3.737
 3350SOL     OW10948   0.288   3.911   5.311
 3350SOL    HW110949   0.336   3.824   5.297
 3350SOL    HW210950   0.344   3.971   5.368
 3351SOL     OW10951   5.601   0.994   1.389
 3351SOL    HW110952   5.670   1.064   1.409
 3351SOL    HW210953   5.546   0.978   1.471
 3352SOL     OW10954   5.129   2.324   0.041
 3352SOL    HW110955   5.176   2.238   0.020
 3352SOL    HW210956   5.133   2.384   6.984
 3353SOL     OW10957   2.655   0.436   1.673
 3353SOL    HW110958   2.590   0.361   1.691
 3353SOL    HW210959   2.641   0.469   1.580
 3354SOL     OW10960   3.466   3.529   6.454
 3354SOL    HW110961   3.418   3.565   6.534
 3354SOL    HW210962   3.480   3.603   6.388
 3355SOL     OW10963   2.182   0.619   5.229
 3355SOL    HW110964   2.142   0.627   5.137
 3355SOL    HW210965   2.250   0.691   5.242
 3356SOL     OW10966   1.759   6.683   5.039
 3356SOL    HW110967   1.771   6.691   4.940
 3356SOL    HW210968   1.847   6.691   5.084
 3357SOL     OW10969   3.568   3.494   1.701
 3357SOL    HW110970   3.629   3.553   1.648
 3357SOL    HW210971   3.511   3.441   1.638
 3358SOL     OW10972   0.430   1.235   2.287
 3358SOL    HW110973   0.404   1.198   2.197
 3358SOL    HW210974   0.410   1.333   2.289
 3359SOL     OW10975   6.567   6.140   4.128
 3359SOL    HW110976   6.542   6.232   4.158
 3359SOL    HW210977   6.487   6.080   4.137
 3360SOL     OW10978   6.962   3.198   5.699
 3360SOL    HW110979   7.020   3.234   5.772
 3360SOL    HW210980   6.889   3.263   5.680
 3361SOL     OW10981   0.265   0.875   4.352
 3361SOL    HW110982   0.355   0.910   4.377
 3361SOL    HW210983   0.199   0.897   4.424
 3362SOL     OW10984   3.742   1.560   3.891
 3362SOL    HW110985   3.826   1.613   3.906
 3362SOL    HW210986   3.755   1.499   3.814
 3363SOL     OW10987   5.960   3.815   1.090
 3363SOL    HW110988   6.005   3.787   1.005
 3363SOL    HW210989   5.942   3.734   1.145
 3364SOL     OW10990   1.782   4.337   4.037
 3364SOL    HW110991   1.831   4.402   3.980
 3364SOL    HW210992   1.820   4.339   4.130
 3365SOL     OW10993   2.080   3.843   4.027
 3365SOL    HW110994   2.006   3.853   4.094
 3365SOL    HW210995   2.124   3.754   4.039
 3366SOL     OW10996   5.647   3.985   4.621
 3366SOL    HW110997   5.597   3.901   4.602
 3366SOL    HW210998   5.585   4.055   4.657
 3367SOL     OW10999   4.139   3.417   3.970
 3367SOL    HW111000   4.115   3.367   3.886
 3367SOL    HW211001   4.238   3.420   3.979
 3368SOL     OW11002   1.387   5.925   0.792
 3368SOL    HW111003   1.392   6.009   0.845
 3368SOL    HW211004   1.291   5.903   0.772
 3369SOL     OW11005   4.378   2.679   1.169
 3369SOL    HW111006   4.290   2.722   1.151
 3369SOL    HW211007   4.366   2.580   1.179
 3370SOL     OW11008   0.329   5.668   2.707
 3370SOL    HW111009   0.293   5.600   2.771
 3370SOL    HW211010   0.385   5.734   2.757
 3371SOL     OW11011   1.566   3.097   3.238
 3371SOL    HW111012   1.638   3.113   3.306
 3371SOL    HW211013   1.582   3.156   3.159
 3372SOL     OW11014   6.670   3.734   1.591
 3372SOL    HW111015   6.608   3.794   1.641
 3372SOL    HW211016   6.686   3.651   1.644
 3373SOL     OW11017   0.012   2.933   1.131
 3373SOL    HW111018   6.982   2.851   1.150
 3373SOL    HW211019   0.082   2.945   1.201
 3374SOL     OW11020   0.296   0.628   4.191
 3374SOL    HW111021   0.368   0.570   4.231
 3374SOL    HW211022   0.285   0.710   4.247
 3375SOL     OW11023   6.513   5.244   6.094
 3375SOL    HW111024   6.490   5.260   6.191
 3375SOL    HW211025   6.446   5.183   6.053
 3376SOL     OW11026   2.670   3.850   5.290
 3376SOL    HW111027   2.723   3.823   5.210
 3376SOL    HW211028   2.574   3.863   5.263
 3377SOL     OW11029   5.887   4.488   3.199
 3377SOL    HW111030   5.867   4.485   3.297
 3377SOL    HW211031   5.820   4.547   3.154
 3378SOL     OW11032   0.947   6.274   0.249
 3378SOL    HW111033   0.881   6.313   0.313
 3378SOL    HW211034   1.039   6.301   0.275
 3379SOL     OW11035   6.790   4.457   3.756
 3379SOL    HW111036   6.888   4.467   3.776
 3379SOL    HW211037   6.759   4.368   3.787
 3380SOL     OW11038   3.455   4.216   6.444
 3380SOL    HW111039   3.512   4.165   6.509
 3380SOL    HW211040   3.462   4.314   6.463
 3381SOL     OW11041   1.303   3.984   1.002
 3381SOL    HW111042   1.217   4.005   1.048
 3381SOL    HW211043   1.355   3.917   1.056
 3382SOL     OW11044   0.163   2.721   1.323
 3382SOL    HW111045   0.121   2.634   1.347
 3382SOL    HW211046   0.233   2.744   1.391
 3383SOL     OW11047   5.266   5.376   0.151
 3383SOL    HW111048   5.352   5.420   0.127
 3383SOL    HW211049   5.282   5.278   0.164
 3384SOL     OW11050   2.470   4.626   0.178
 3384SOL    HW111051   2.490   4.722   0.197
 3384SOL    HW211052   2.458   4.577   0.264
 3385SOL     OW11053   0.512   1.756   3.698
 3385SOL    HW111054   0.453   1.836   3.689
 3385SOL    HW211055   0.562   1.761   3.785
 3386SOL     OW11056   6.576   4.629   6.311
 3386SOL    HW111057   6.574   4.562   6.236
 3386SOL    HW211058   6.667   4.630   6.352
 3387SOL     OW11059   6.469   0.364   3.853
 3387SOL    HW111060   6.381   0.317   3.852
 3387SOL    HW211061   6.489   0.395   3.946
 3388SOL     OW11062   6.271   3.355   1.249
 3388SOL    HW111063   6.242   3.383   1.157
 3388SOL    HW211064   6.221   3.409   1.317
 3389SOL     OW11065   6.385   6.349   0.889
 3389SOL    HW111066   6.313   6.284   0.865
 3389SOL    HW211067   6.428   6.383   0.806
 3390SOL     OW11068   3.772   6.799   6.051
 3390SOL    HW111069   3.744   6.851   5.971
 3390SOL    HW211070   3.768   6.857   6.132
 3391SOL     OW11071   5.464   2.957   3.956
 3391SOL    HW111072   5.453   2.865   3.919
 3391SOL    HW211073   5.381   2.982   4.006
 3392SOL     OW11074   4.459   6.772   5.845
 3392SOL    HW111075   4.404   6.798   5.765
 3392SOL    HW211076   4.468   6.673   5.848
 3393SOL     OW11077   5.139   6.217   1.639
 3393SOL    HW111078   5.186   6.281   1.578
 3393SOL    HW211079   5.169   6.124   1.619
 3394SOL     OW11080   3.034   5.678   1.517
 3394SOL    HW111081   3.092   5.598   1.503
 3394SOL    HW211082   2.969   5.659   1.591
 3395SOL     OW11083   2.955   0.545   3.327
 3395SOL    HW111084   3.014   0.495   3.265
 3395SOL    HW211085   2.930   0.485   3.404
 3396SOL     OW11086   4.463   1.934   4.320
 3396SOL    HW111087   4.516   2.004   4.272
 3396SOL    HW211088   4.525   1.870   4.365
 3397SOL     OW11089   2.215   5.654   0.358
 3397SOL    HW111090   2.248   5.612   0.273
 3397SOL    HW211091   2.228   5.589   0.434
 3398SOL     OW11092   6.860   1.605   4.358
 3398SOL    HW111093   6.788   1.584   4.425
 3398SOL    HW211094   6.883   1.522   4.307
 3399SOL     OW11095   6.511   5.414   2.254
 3399SOL    HW111096   6.587   5.353   2.229
 3399SOL    HW211097   6.501   5.485   2.184
 3400SOL     OW11098   5.554   1.701   6.095
 3400SOL    HW111099   5.519   1.767   6.028
 3400SOL    HW211100   5.632   1.739   6.143
 3401SOL     OW11101   0.032   3.521   5.504
 3401SOL    HW111102   0.044   3.519   5.405
 3401SOL    HW211103   0.057   3.433   5.543
 3402SOL     OW11104   6.512   4.206   1.680
 3402SOL    HW111105   6.506   4.250   1.590
 3402SOL    HW211106   6.545   4.272   1.747
 3403SOL     OW11107   4.487   6.179   7.016
 3403SOL    HW111108   4.427   6.258   7.003
 3403SOL    HW211109   4.547   6.194   0.072
 3404SOL     OW11110   5.310   3.949   4.861
 3404SOL    HW111111   5.303   4.006   4.944
 3404SOL    HW211112   5.317   3.853   4.887
 3405SOL     OW11113   5.117   5.769   5.705
 3405SOL    HW111114   5.125   5.713   5.622
 3405SOL    HW211115   5.208   5.786   5.742
 3406SOL     OW11116   2.008   5.027   1.637
 3406SOL    HW111117   1.966   5.109   1.599
 3406SOL    HW211118   1.995   4.951   1.574
 3407SOL     OW11119   1.204   3.945   0.329
 3407SOL    HW111120   1.276   3.957   0.397
 3407SOL    HW211121   1.153   4.031   0.319
 3408SOL     OW11122   4.869   2.520   3.796
 3408SOL    HW111123   4.774   2.517   3.765
 3408SOL    HW211124   4.920   2.585   3.741
 3409SOL     OW11125   4.521   0.426   0.537
 3409SOL    HW111126   4.496   0.379   0.622
 3409SOL    HW211127   4.459   0.503   0.522
 3410SOL     OW11128   4.923   0.189   2.507
 3410SOL    HW111129   4.985   0.238   2.569
 3410SOL    HW211130   4.927   0.230   2.416
 3411SOL     OW11131   6.699   2.468   0.626
 3411SOL    HW111132   6.603   2.499   0.626
 3411SOL    HW211133   6.712   2.401   0.554
 3412SOL     OW11134   5.359   3.362   1.329
 3412SOL    HW111135   5.388   3.393   1.238
 3412SOL    HW211136   5.431   3.384   1.396
 3413SOL     OW11137   0.224   2.567   6.075
 3413SOL    HW111138   0.214   2.516   6.160
 3413SOL    HW211139   0.281   2.516   6.011
 3414SOL     OW11140   3.214   3.820   0.917
 3414SOL    HW111141   3.126   3.821   0.964
 3414SOL    HW211142   3.201   3.846   0.821
 3415SOL     OW11143   2.112   2.935   5.543
 3415SOL    HW111144   2.035   2.924   5.606
 3415SOL    HW211145   2.170   3.011   5.573
 3416SOL     OW11146   5.885   6.815   6.593
 3416SOL    HW111147   5.979   6.841   6.615
 3416SOL    HW211148   5.826   6.894   6.604
 3417SOL     OW11149   6.362   0.254   2.754
 3417SOL    HW111150   6.270   0.234   2.720
 3417SOL    HW211151   6.389   0.184   2.821
 3418SOL     OW11152   5.102   4.667   0.833
 3418SOL    HW111153   5.201   4.661   0.819
 3418SOL    HW211154   5.058   4.584   0.799
 3419SOL     OW11155   3.157   6.164   5.649
 3419SOL    HW111156   3.088   6.112   5.699
 3419SOL    HW211157   3.173   6.122   5.560
 3420SOL     OW11158   4.478   2.333   3.258
 3420SOL    HW111159   4.504   2.359   3.351
 3420SOL    HW211160   4.385   2.297   3.258
 3421SOL     OW11161   6.205   2.449   3.225
 3421SOL    HW111162   6.175   2.356   3.245
 3421SOL    HW211163   6.275   2.448   3.154
 3422SOL     OW11164   2.207   0.054   1.076
 3422SOL    HW111165   2.157   7.008   1.022
 3422SOL    HW211166   2.267   0.007   1.141
 3423SOL     OW11167   1.099   4.923   5.875
 3423SOL    HW111168   1.083   5.016   5.910
 3423SOL    HW211169   1.182   4.885   5.917
 3424SOL     OW11170   4.498   0.666   1.958
 3424SOL    HW111171   4.431   0.616   2.013
 3424SOL    HW211172   4.455   0.747   1.919
 3425SOL     OW11173   5.615   3.652   1.049
 3425SOL    HW111174   5.613   3.680   0.953
 3425SOL    HW211175   5.699   3.602   1.068
 3426SOL     OW11176   5.261   2.865   6.829
 3426SOL    HW111177   5.329   2.796   6.804
 3426SOL    HW211178   5.175   2.819   6.852
 3427SOL     OW11179   1.191   2.598   0.392
 3427SOL    HW111180   1.115   2.657   0.416
 3427SOL    HW211181   1.269   2.618   0.453
 3428SOL     OW11182   4.614   5.800   6.347
 3428SOL    HW111183   4.679   5.871   6.372
 3428SOL    HW211184   4.522   5.840   6.338
 3429SOL     OW11185   6.529   0.287   0.932
 3429SOL    HW111186   6.535   0.240   1.020
 3429SOL    HW211187   6.472   0.369   0.943
 3430SOL     OW11188   2.264   4.490   5.213
 3430SOL    HW111189   2.228   4.429   5.143
 3430SOL    HW211190   2.352   4.455   5.246
 3431SOL     OW11191   1.904   5.677   3.130
 3431SOL    HW111192   1.851   5.634   3.058
 3431SOL    HW211193   1.931   5.769   3.101
 3432SOL     OW11194   1.897   4.378   1.099
 3432SOL    HW111195   1.920   4.471   1.070
 3432SOL    HW211196   1.805   4.377   1.138
 3433SOL     OW11197   2.366   1.361   0.109
 3433SOL    HW111198   2.336   1.291   0.174
 3433SOL    HW211199   2.286   1.405   0.067
 3434SOL     OW11200   2.939   2.592   0.738
 3434SOL    HW111201   2.916   2.576   0.834
 3434SOL    HW211202   2.981   2.510   0.700
 3435SOL     OW11203   2.593   0.438   0.349
 3435SOL    HW111204   2.613   0.488   0.265
 3435SOL    HW211205   2.574   0.502   0.423
 3436SOL     OW11206   3.186   5.887   0.218
 3436SOL    HW111207   3.100   5.935   0.234
 3436SOL    HW211208   3.263   5.947   0.238
 3437SOL     OW11209   1.555   6.496   6.638
 3437SOL    HW111210   1.628   6.483   6.705
 3437SOL    HW211211   1.578   6.571   6.577
 3438SOL     OW11212   1.206   3.918   1.555
 3438SOL    HW111213   1.180   3.970   1.637
 3438SOL    HW211214   1.209   3.821   1.577
 3439SOL     OW11215   2.512   5.625   2.179
 3439SOL    HW111216   2.485   5.687   2.105
 3439SOL    HW211217   2.606   5.646   2.207
 3440SOL     OW11218   3.777   3.652   4.420
 3440SOL    HW111219   3.725   3.727   4.460
 3440SOL    HW211220   3.716   3.576   4.401
 3441SOL     OW11221   5.401   5.106   5.783
 3441SOL    HW111222   5.431   5.015   5.810
 3441SOL    HW211223   5.456   5.175   5.830
 3442SOL     OW11224   3.433   3.297   0.690
 3442SOL    HW111225   3.398   3.390   0.678
 3442SOL    HW211226   3.503   3.297   0.762
 3443SOL     OW11227   1.695   6.494   1.972
 3443SOL    HW111228   1.611   6.460   1.928
 3443SOL    HW211229   1.728   6.425   2.037
 3444SOL     OW11230   6.067   3.734   0.405
 3444SOL    HW111231   5.995   3.794   0.371
 3444SOL    HW211232   6.026   3.655   0.451
 3445SOL     OW11233   5.903   4.493   2.798
 3445SOL    HW111234   5.962   4.428   2.844
 3445SOL    HW211235   5.899   4.578   2.850
 3446SOL     OW11236   5.198   1.119   1.166
 3446SOL    HW111237   5.110   1.166   1.165
 3446SOL    HW211238   5.242   1.132   1.255
 3447SOL     OW11239   5.690   1.339   6.851
 3447SOL    HW111240   5.695   1.281   6.770
 3447SOL    HW211241   5.615   1.307   6.909
 3448SOL     OW11242   1.453   5.978   4.873
 3448SOL    HW111243   1.468   6.076   4.863
 3448SOL    HW211244   1.368   5.963   4.923
 3449SOL     OW11245   6.614   3.982   5.320
 3449SOL    HW111246   6.544   4.016   5.383
 3449SOL    HW211247   6.644   4.057   5.261
 3450SOL     OW11248   1.410   6.331   1.184
 3450SOL    HW111249   1.355   6.307   1.264
 3450SOL    HW211250   1.376   6.416   1.144
 3451SOL     OW11251   2.238   0.962   1.419
 3451SOL    HW111252   2.235   0.889   1.487
 3451SOL    HW211253   2.333   0.986   1.400
 3452SOL     OW11254   4.854   0.084   4.980
 3452SOL    HW111255   4.895   0.048   4.896
 3452SOL    HW211256   4.756   0.096   4.968
 3453SOL     OW11257   4.593   6.213   6.235
 3453SOL    HW111258   4.670   6.204   6.298
 3453SOL    HW211259   4.628   6.232   6.143
 3454SOL     OW11260   0.994   2.870   1.716
 3454SOL    HW111261   0.899   2.894   1.734
 3454SOL    HW211262   1.020   2.901   1.624
 3455SOL     OW11263   0.694   3.255   5.740
 3455SOL    HW111264   0.716   3.342   5.697
 3455SOL    HW211265   0.705   3.263   5.839
 3456SOL     OW11266   5.488   4.349   2.292
 3456SOL    HW111267   5.456   4.264   2.334
 3456SOL    HW211268   5.576   4.375   2.332
 3457SOL     OW11269   3.958   5.088   5.769
 3457SOL    HW111270   3.948   5.101   5.671
 3457SOL    HW211271   3.887   5.026   5.802
 3458SOL     OW11272   3.954   1.245   2.757
 3458SOL    HW111273   3.957   1.304   2.838
 3458SOL    HW211274   4.012   1.284   2.685
 3459SOL     OW11275   4.699   6.600   3.052
 3459SOL    HW111276   4.640   6.635   2.979
 3459SOL    HW211277   4.736   6.512   3.026
 3460SOL     OW11278   4.097   1.454   5.303
 3460SOL    HW111279   4.078   1.517   5.379
 3460SOL    HW211280   4.101   1.360   5.338
 3461SOL     OW11281   6.014   5.324   5.111
 3461SOL    HW111282   6.099   5.350   5.158
 3461SOL    HW211283   6.012   5.367   5.020
 3462SOL     OW11284   1.680   4.161   6.734
 3462SOL    HW111285   1.750   4.229   6.753
 3462SOL    HW211286   1.697   4.079   6.788
 3463SOL     OW11287   6.268   4.165   1.012
 3463SOL    HW111288   6.337   4.237   1.024
 3463SOL    HW211289   6.296   4.084   1.063
 3464SOL     OW11290   6.673   4.918   6.086
 3464SOL    HW111291   6.756   4.894   6.136
 3464SOL    HW211292   6.593   4.895   6.141
 3465SOL     OW11293   1.961   0.520   1.293
 3465SOL    HW111294   2.040   0.464   1.270
 3465SOL    HW211295   1.885   0.496   1.232
 3466SOL     OW11296   6.612   4.277   5.231
 3466SOL    HW111297   6.514   4.270   5.212
 3466SOL    HW211298   6.633   4.370   5.260
 3467SOL     OW11299   1.940   2.046   6.963
 3467SOL    HW111300   1.875   2.029   6.888
 3467SOL    HW211301   1.929   2.140   6.995
 3468SOL     OW11302   2.920   6.889   4.313
 3468SOL    HW111303   2.862   6.829   4.367
 3468SOL    HW211304   3.015   6.881   4.344
 3469SOL     OW11305   5.494   2.327   2.612
 3469SOL    HW111306   5.478   2.267   2.534
 3469SOL    HW211307   5.546   2.278   2.682
 3470SOL     OW11308   0.170   5.967   0.967
 3470SOL    HW111309   0.252   5.956   1.023
 3470SOL    HW211310   0.135   5.876   0.942
 3471SOL     OW11311   3.545   6.279   4.542
 3471SOL    HW111312   3.495   6.248   4.461
 3471SOL    HW211313   3.483   6.326   4.605
 3472SOL     OW11314   3.041   1.218   5.355
 3472SOL    HW111315   3.100   1.205   5.276
 3472SOL    HW211316   2.991   1.133   5.374
 3473SOL     OW11317   4.927   0.624   6.201
 3473SOL    HW111318   5.007   0.681   6.220
 3473SOL    HW211319   4.908   0.625   6.102
 3474SOL     OW11320   5.176   5.688   1.035
 3474SOL    HW111321   5.243   5.620   1.006
 3474SOL    HW211322   5.196   5.776   0.992
 3475SOL     OW11323   1.460   6.000   4.435
 3475SOL    HW111324   1.373   5.995   4.386
 3475SOL    HW211325   1.454   5.946   4.519
 3476SOL     OW11326   5.122   0.701   4.455
 3476SOL    HW111327   5.103   0.605   4.435
 3476SOL    HW211328   5.077   0.759   4.388
 3477SOL     OW11329   3.935   6.404   1.327
 3477SOL    HW111330   3.997   6.351   1.386
 3477SOL    HW211331   3.841   6.389   1.355
 3478SOL     OW11332   4.171   4.963   0.735
 3478SOL    HW111333   4.157   5.049   0.784
 3478SOL    HW211334   4.220   4.981   0.649
 3479SOL     OW11335   0.985   0.656   2.426
 3479SOL    HW111336   0.928   0.737   2.415
 3479SOL    HW211337   0.989   0.606   2.340
 3480SOL     OW11338   0.672   1.389   3.411
 3480SOL    HW111339   0.770   1.409   3.414
 3480SOL    HW211340   0.631   1.412   3.499
 3481SOL     OW11341   2.265   6.187   0.071
 3481SOL    HW111342   2.263   6.135   7.008
 3481SOL    HW211343   2.196   6.150   0.134
 3482SOL     OW11344   0.571   2.318   0.284
 3482SOL    HW111345   0.642   2.376   0.323
 3482SOL    HW211346   0.481   2.349   0.316
 3483SOL     OW11347   3.086   0.026   1.389
 3483SOL    HW111348   3.134   0.037   1.476
 3483SOL    HW211349   3.037   0.111   1.367
 3484SOL     OW11350   3.695   4.059   3.349
 3484SOL    HW111351   3.655   4.084   3.260
 3484SOL    HW211352   3.648   4.109   3.421
 3485SOL     OW11353   1.210   2.386   5.246
 3485SOL    HW111354   1.197   2.424   5.155
 3485SOL    HW211355   1.237   2.290   5.239
 3486SOL     OW11356   4.195   1.760   1.915
 3486SOL    HW111357   4.109   1.808   1.899
 3486SOL    HW211358   4.200   1.733   2.011
 3487SOL     OW11359   6.442   1.057   6.776
 3487SOL    HW111360   6.402   1.016   6.694
 3487SOL    HW211361   6.541   1.044   6.775
 3488SOL     OW11362   5.236   3.438   3.809
 3488SOL    HW111363   5.312   3.398   3.861
 3488SOL    HW211364   5.258   3.532   3.784
 3489SOL     OW11365   3.299   0.163   1.267
 3489SOL    HW111366   3.215   0.117   1.293
 3489SOL    HW211367   3.285   0.211   1.181
 3490SOL     OW11368   3.887   4.307   0.032
 3490SOL    HW111369   3.942   4.351   0.104
 3490SOL    HW211370   3.825   4.241   0.074
 3491SOL     OW11371   0.310   2.986   4.820
 3491SOL    HW111372   0.358   3.005   4.906
 3491SOL    HW211373   0.318   3.066   4.760
 3492SOL     OW11374   6.709   4.420   6.868
 3492SOL    HW111375   6.633   4.455   6.923
 3492SOL    HW211376   6.743   4.493   6.808
 3493SOL     OW11377   6.687   4.542   0.682
 3493SOL    HW111378   6.604   4.590   0.708
 3493SOL    HW211379   6.728   4.498   0.763
 3494SOL     OW11380   3.302   0.215   0.629
 3494SOL    HW111381   3.226   0.177   0.682
 3494SOL    HW211382   3.381   0.154   0.636
 3495SOL     OW11383   5.003   4.720   0.434
 3495SOL    HW111384   5.057   4.803   0.449
 3495SOL    HW211385   4.915   4.744   0.393
 3496SOL     OW11386   2.286   3.023   0.990
 3496SOL    HW111387   2.385   3.016   0.985
 3496SOL    HW211388   2.251   2.963   1.062
 3497SOL     OW11389   4.287   0.208   3.665
 3497SOL    HW111390   4.338   0.260   3.596
 3497SOL    HW211391   4.286   0.111   3.639
 3498SOL     OW11392   2.686   1.794   1.849
 3498SOL    HW111393   2.768   1.768   1.900
 3498SOL    HW211394   2.617   1.723   1.858
 3499SOL     OW11395   6.528   3.227   3.805
 3499SOL    HW111396   6.474   3.309   3.825
 3499SOL    HW211397   6.573   3.238   3.716
 3500SOL     OW11398   6.086   3.684   6.943
 3500SOL    HW111399   6.076   3.784   6.941
 3500SOL    HW211400   6.155   3.659   7.011
 3501SOL     OW11401   1.696   4.551   4.423
 3501SOL    HW111402   1.677   4.634   4.476
 3501SOL    HW211403   1.632   4.546   4.346
 3502SOL     OW11404   0.796   3.173   1.217
 3502SOL    HW111405   0.746   3.103   1.269
 3502SOL    HW211406   0.768   3.263   1.248
 3503SOL     OW11407   4.988   6.051   4.607
 3503SOL    HW111408   4.937   6.027   4.524
 3503SOL    HW211409   5.073   5.998   4.610
 3504SOL     OW11410   2.331   3.233   1.696
 3504SOL    HW111411   2.350   3.320   1.743
 3504SOL    HW211412   2.342   3.246   1.598
 3505SOL     OW11413   5.395   5.067   5.276
 3505SOL    HW111414   5.342   5.065   5.361
 3505SOL    HW211415   5.391   5.159   5.237
 3506SOL     OW11416   4.689   5.429   3.190
 3506SOL    HW111417   4.786   5.407   3.180
 3506SOL    HW211418   4.642   5.411   3.104
 3507SOL     OW11419   0.764   6.688   6.270
 3507SOL    HW111420   0.786   6.696   6.367
 3507SOL    HW211421   0.745   6.778   6.232
 3508SOL     OW11422   5.837   3.417   6.607
 3508SOL    HW111423   5.770   3.484   6.576
 3508SOL    HW211424   5.871   3.443   6.697
 3509SOL     OW11425   6.537   6.825   0.965
 3509SOL    HW111426   6.476   6.757   1.005
 3509SOL    HW211427   6.632   6.796   0.977
 3510SOL     OW11428   1.986   3.070   1.987
 3510SOL    HW111429   2.022   3.023   1.907
 3510SOL    HW211430   1.997   3.012   2.068
 3511SOL     OW11431   0.831   1.990   6.262
 3511SOL    HW111432   0.779   2.058   6.315
 3511SOL    HW211433   0.878   2.036   6.187
 3512SOL     OW11434   2.533   3.173   0.808
 3512SOL    HW111435   2.559   3.133   0.895
 3512SOL    HW211436   2.558   3.270   0.807
 3513SOL     OW11437   6.377   4.949   1.165
 3513SOL    HW111438   6.333   5.004   1.093
 3513SOL    HW211439   6.322   4.953   1.248
 3514SOL     OW11440   0.539   6.142   1.245
 3514SOL    HW111441   0.507   6.231   1.277
 3514SOL    HW211442   0.623   6.117   1.293
 3515SOL     OW11443   2.777   6.334   3.851
 3515SOL    HW111444   2.740   6.322   3.944
 3515SOL    HW211445   2.783   6.432   3.831
 3516SOL     OW11446   3.142   1.069   1.183
 3516SOL    HW111447   3.075   1.007   1.143
 3516SOL    HW211448   3.126   1.162   1.150
 3517SOL     OW11449   0.977   0.797   6.230
 3517SOL    HW111450   1.067   0.834   6.207
 3517SOL    HW211451   0.971   0.703   6.198
 3518SOL     OW11452   4.302   2.912   5.968
 3518SOL    HW111453   4.211   2.875   5.945
 3518SOL    HW211454   4.291   2.988   6.032
 3519SOL     OW11455   1.835   6.144   0.348
 3519SOL    HW111456   1.821   6.045   0.342
 3519SOL    HW211457   1.765   6.185   0.407
 3520SOL     OW11458   4.115   6.047   0.980
 3520SOL    HW111459   4.196   6.097   0.949
 3520SOL    HW211460   4.076   6.092   1.060
 3521SOL     OW11461   5.998   2.731   0.670
 3521SOL    HW111462   6.046   2.644   0.681
 3521SOL    HW211463   6.063   2.801   0.642
 3522SOL     OW11464   2.899   4.989   2.172
 3522SOL    HW111465   2.847   4.914   2.132
 3522SOL    HW211466   2.850   5.024   2.252
 3523SOL     OW11467   2.380   4.691   5.506
 3523SOL    HW111468   2.470   4.689   5.462
 3523SOL    HW211469   2.342   4.599   5.508
 3524SOL     OW11470   2.900   0.311   0.551
 3524SOL    HW111471   2.816   0.259   0.539
 3524SOL    HW211472   2.886   0.405   0.521
 3525SOL     OW11473   0.864   2.540   2.788
 3525SOL    HW111474   0.901   2.448   2.779
 3525SOL    HW211475   0.901   2.584   2.870
 3526SOL     OW11476   2.162   1.174   2.411
 3526SOL    HW111477   2.095   1.236   2.452
 3526SOL    HW211478   2.244   1.170   2.470
 3527SOL     OW11479   5.277   2.368   5.711
 3527SOL    HW111480   5.203   2.306   5.737
 3527SOL    HW211481   5.342   2.377   5.787
 3528SOL     OW11482   0.325   6.749   5.017
 3528SOL    HW111483   0.253   6.686   5.044
 3528SOL    HW211484   0.372   6.714   4.935
 3529SOL     OW11485   3.510   6.216   6.432
 3529SOL    HW111486   3.504   6.126   6.474
 3529SOL    HW211487   3.603   6.252   6.442
 3530SOL     OW11488   1.677   6.049   3.486
 3530SOL    HW111489   1.772   6.066   3.510
 3530SOL    HW211490   1.624   6.031   3.569
 3531SOL     OW11491   5.435   3.676   6.609
 3531SOL    HW111492   5.361   3.669   6.542
 3531SOL    HW211493   5.406   3.635   6.695
 3532SOL     OW11494   1.977   6.598   0.269
 3532SOL    HW111495   2.023   6.687   0.261
 3532SOL    HW211496   2.046   6.526   0.275
 3533SOL     OW11497   1.520   1.353   2.906
 3533SOL    HW111498   1.456   1.296   2.957
 3533SOL    HW211499   1.560   1.422   2.967
 3534SOL     OW11500   5.195   1.022   4.778
 3534SOL    HW111501   5.098   1.011   4.758
 3534SOL    HW211502   5.214   0.989   4.870
 3535SOL     OW11503   5.480   5.092   6.147
 3535SOL    HW111504   5.505   5.055   6.237
 3535SOL    HW211505   5.560   5.133   6.104
 3536SOL     OW11506   0.923   4.111   3.602
 3536SOL    HW111507   0.867   4.066   3.532
 3536SOL    HW211508   0.995   4.164   3.557
 3537SOL     OW11509   2.509   5.376   1.094
 3537SOL    HW111510   2.558   5.300   1.138
 3537SOL    HW211511   2.511   5.456   1.154
 3538SOL     OW11512   2.392   1.033   4.468
 3538SOL    HW111513   2.470   0.974   4.488
 3538SOL    HW211514   2.411   1.125   4.500
 3539SOL     OW11515   5.143   5.289   5.903
 3539SOL    HW111516   5.194   5.257   5.823
 3539SOL    HW211517   5.202   5.285   5.984
 3540SOL     OW11518   3.207   3.692   6.440
 3540SOL    HW111519   3.186   3.747   6.360
 3540SOL    HW211520   3.274   3.741   6.497
 3541SOL     OW11521   3.292   2.648   0.896
 3541SOL    HW111522   3.326   2.619   0.806
 3541SOL    HW211523   3.242   2.572   0.937
 3542SOL     OW11524   5.507   2.274   6.140
 3542SOL    HW111525   5.547   2.365   6.154
 3542SOL    HW211526   5.565   2.205   6.183
 3543SOL     OW11527   1.111   2.759   3.587
 3543SOL    HW111528   1.072   2.668   3.579
 3543SOL    HW211529   1.204   2.758   3.550
 3544SOL     OW11530   2.636   4.577   6.332
 3544SOL    HW111531   2.728   4.539   6.322
 3544SOL    HW211532   2.643   4.672   6.363
 3545SOL     OW11533   3.491   7.011   1.523
 3545SOL    HW111534   3.398   6.994   1.557
 3545SOL    HW211535   3.505   6.959   1.439
 3546SOL     OW11536   6.916   3.806   3.334
 3546SOL    HW111537   6.877   3.754   3.259
 3546SOL    HW211538   6.864   3.788   3.418
 3547SOL     OW11539   0.794   4.184   5.689
 3547SOL    HW111540   0.776   4.251   5.617
 3547SOL    HW211541   0.751   4.097   5.665
 3548SOL     OW11542   6.091   0.375   5.077
 3548SOL    HW111543   6.155   0.380   5.154
 3548SOL    HW211544   6.086   0.464   5.032
 3549SOL     OW11545   2.924   5.977   0.177
 3549SOL    HW111546   2.909   5.901   0.113
 3549SOL    HW211547   2.896   6.062   0.134
 3550SOL     OW11548   5.517   1.005   5.222
 3550SOL    HW111549   5.547   1.100   5.225
 3550SOL    HW211550   5.521   0.966   5.314
 3551SOL     OW11551   4.262   1.936   4.143
 3551SOL    HW111552   4.325   1.918   4.219
 3551SOL    HW211553   4.207   1.855   4.125
 3552SOL     OW11554   0.771   6.357   3.069
 3552SOL    HW111555   0.684   6.314   3.046
 3552SOL    HW211556   0.776   6.448   3.027
 3553SOL     OW11557   4.750   5.306   0.269
 3553SOL    HW111558   4.820   5.345   0.208
 3553SOL    HW211559   4.715   5.222   0.229
 3554SOL     OW11560   5.111   3.299   1.006
 3554SOL    HW111561   5.061   3.322   0.922
 3554SOL    HW211562   5.202   3.267   0.983
 3555SOL     OW11563   2.423   1.934   5.264
 3555SOL    HW111564   2.496   1.874   5.230
 3555SOL    HW211565   2.463   2.014   5.307
 3556SOL     OW11566   5.016   0.670   5.540
 3556SOL    HW111567   4.941   0.620   5.583
 3556SOL    HW211568   4.980   0.751   5.493
 3557SOL     OW11569   6.531   1.114   1.309
 3557SOL    HW111570   6.541   1.014   1.314
 3557SOL    HW211571   6.478   1.138   1.228
 3558SOL     OW11572   3.315   6.223   2.043
 3558SOL    HW111573   3.285   6.307   1.998
 3558SOL    HW211574   3.393   6.242   2.102
 3559SOL     OW11575   3.964   6.054   4.832
 3559SOL    HW111576   3.932   5.969   4.790
 3559SOL    HW211577   3.960   6.046   4.932
 3560SOL     OW11578   2.254   5.711   4.383
 3560SOL    HW111579   2.209   5.626   4.358
 3560SOL    HW211580   2.337   5.691   4.437
 3561SOL     OW11581   5.011   4.067   5.534
 3561SOL    HW111582   5.038   4.164   5.537
 3561SOL    HW211583   4.948   4.048   5.610
 3562SOL     OW11584   2.375   1.292   5.716
 3562SOL    HW111585   2.464   1.246   5.711
 3562SOL    HW211586   2.379   1.363   5.786
 3563SOL     OW11587   5.568   2.580   5.191
 3563SOL    HW111588   5.657   2.562   5.235
 3563SOL    HW211589   5.496   2.576   5.260
 3564SOL     OW11590   6.390   4.289   2.058
 3564SOL    HW111591   6.472   4.300   2.002
 3564SOL    HW211592   6.309   4.283   1.999
 3565SOL     OW11593   3.790   5.632   3.152
 3565SOL    HW111594   3.875   5.646   3.202
 3565SOL    HW211595   3.763   5.536   3.158
 3566SOL     OW11596   1.655   0.679   5.506
 3566SOL    HW111597   1.660   0.610   5.578
 3566SOL    HW211598   1.692   0.641   5.421
 3567SOL     OW11599   0.657   4.183   6.146
 3567SOL    HW111600   0.677   4.249   6.074
 3567SOL    HW211601   0.627   4.097   6.106
 3568SOL     OW11602   6.182   3.646   5.987
 3568SOL    HW111603   6.112   3.577   5.970
 3568SOL    HW211604   6.203   3.648   6.084
 3569SOL     OW11605   1.693   1.953   5.232
 3569SOL    HW111606   1.677   1.933   5.328
 3569SOL    HW211607   1.790   1.972   5.217
 3570SOL     OW11608   6.153   1.741   4.097
 3570SOL    HW111609   6.241   1.788   4.088
 3570SOL    HW211610   6.130   1.732   4.194
 3571SOL     OW11611   6.241   5.822   5.648
 3571SOL    HW111612   6.157   5.800   5.698
 3571SOL    HW211613   6.299   5.741   5.644
 3572SOL     OW11614   5.473   4.701   4.794
 3572SOL    HW111615   5.559   4.738   4.831
 3572SOL    HW211616   5.459   4.737   4.702
 3573SOL     OW11617   1.376   3.022   2.939
 3573SOL    HW111618   1.332   3.098   2.987
 3573SOL    HW211619   1.321   2.940   2.949
 3574SOL     OW11620   0.419   4.125   0.623
 3574SOL    HW111621   0.383   4.077   0.543
 3574SOL    HW211622   0.446   4.058   0.693
 3575SOL     OW11623   5.601   4.492   2.065
 3575SOL    HW111624   5.575   4.454   2.154
 3575SOL    HW211625   5.687   4.451   2.034
 3576SOL     OW11626   0.681   1.330   6.252
 3576SOL    HW111627   0.682   1.324   6.352
 3576SOL    HW211628   0.597   1.374   6.222
 3577SOL     OW11629   0.795   3.037   0.055
 3577SOL    HW111630   0.822   3.117   0.000
 3577SOL    HW211631   0.703   3.008   0.029
 3578SOL     OW11632   3.406   4.858   0.732
 3578SOL    HW111633   3.495   4.860   0.686
 3578SOL    HW211634   3.371   4.952   0.738
 3579SOL     OW11635   6.933   3.756   4.457
 3579SOL    HW111636   6.859   3.823   4.461
 3579SOL    HW211637   6.894   3.664   4.446
 3580SOL     OW11638   6.087   2.155   2.138
 3580SOL    HW111639   6.111   2.124   2.046
 3580SOL    HW211640   6.061   2.075   2.193
 3581SOL     OW11641   0.425   0.513   3.000
 3581SOL    HW111642   0.509   0.464   3.024
 3581SOL    HW211643   0.380   0.544   3.084
 3582SOL     OW11644   1.353   0.139   6.277
 3582SOL    HW111645   1.445   0.170   6.303
 3582SOL    HW211646   1.358   0.048   6.236
 3583SOL     OW11647   1.267   5.589   6.883
 3583SOL    HW111648   1.212   5.624   6.807
 3583SOL    HW211649   1.279   5.661   6.951
 3584SOL     OW11650   5.171   6.042   6.521
 3584SOL    HW111651   5.162   6.133   6.559
 3584SOL    HW211652   5.167   5.974   6.594
 3585SOL     OW11653   3.169   4.867   4.007
 3585SOL    HW111654   3.088   4.838   3.957
 3585SOL    HW211655   3.176   4.816   4.093
 3586SOL     OW11656   6.636   3.359   5.795
 3586SOL    HW111657   6.541   3.363   5.828
 3586SOL    HW211658   6.655   3.441   5.741
 3587SOL     OW11659   4.334   6.518   0.063
 3587SOL    HW111660   4.336   6.617   0.081
 3587SOL    HW211661   4.337   6.502   6.987
 3588SOL     OW11662   1.229   2.472   6.088
 3588SOL    HW111663   1.306   2.450   6.148
 3588SOL    HW211664   1.261   2.533   6.015
 3589SOL     OW11665   2.891   0.962   5.447
 3589SOL    HW111666   2.839   0.995   5.525
 3589SOL    HW211667   2.860   0.870   5.423
 3590SOL     OW11668   1.794   5.252   6.214
 3590SOL    HW111669   1.768   5.173   6.157
 3590SOL    HW211670   1.834   5.219   6.299
 3591SOL     OW11671   5.022   2.233   6.091
 3591SOL    HW111672   4.994   2.314   6.144
 3591SOL    HW211673   5.120   2.218   6.104
 3592SOL     OW11674   5.211   2.813   2.849
 3592SOL    HW111675   5.190   2.911   2.854
 3592SOL    HW211676   5.311   2.801   2.851
 3593SOL     OW11677   1.393   6.502   3.932
 3593SOL    HW111678   1.331   6.576   3.904
 3593SOL    HW211679   1.486   6.525   3.904
 3594SOL     OW11680   2.928   1.485   4.332
 3594SOL    HW111681   2.904   1.429   4.411
 3594SOL    HW211682   2.872   1.568   4.331
 3595SOL     OW11683   2.877   6.071   6.149
 3595SOL    HW111684   2.838   6.074   6.241
 3595SOL    HW211685   2.863   6.159   6.104
 3596SOL     OW11686   6.368   1.980   2.197
 3596SOL    HW111687   6.398   1.934   2.281
 3596SOL    HW211688   6.346   2.075   2.218
 3597SOL     OW11689   2.923   5.897   4.002
 3597SOL    HW111690   2.858   5.830   4.039
 3597SOL    HW211691   2.908   5.908   3.904
 3598SOL     OW11692   1.537   6.985   6.144
 3598SOL    HW111693   1.629   7.014   6.170
 3598SOL    HW211694   1.529   6.886   6.153
 3599SOL     OW11695   0.229   1.645   4.900
 3599SOL    HW111696   0.175   1.727   4.921
 3599SOL    HW211697   0.307   1.670   4.842
 3600SOL     OW11698   5.868   2.438   0.670
 3600SOL    HW111699   5.845   2.534   0.655
 3600SOL    HW211700   5.942   2.411   0.608
 3601SOL     OW11701   0.140   3.865   6.733
 3601SOL    HW111702   0.195   3.898   6.657
 3601SOL    HW211703   0.102   3.775   6.711
 3602SOL     OW11704   1.908   1.197   6.738
 3602SOL    HW111705   1.986   1.202   6.800
 3602SOL    HW211706   1.914   1.114   6.682
 3603SOL     OW11707   4.012   4.799   3.715
 3603SOL    HW111708   4.039   4.773   3.622
 3603SOL    HW211709   4.092   4.799   3.775
 3604SOL     OW11710   0.451   2.281   2.688
 3604SOL    HW111711   0.386   2.260   2.761
 3604SOL    HW211712   0.525   2.338   2.724
 3605SOL     OW11713   6.032   3.417   6.136
 3605SOL    HW111714   5.968   3.386   6.066
 3605SOL    HW211715   5.985   3.480   6.198
 3606SOL     OW11716   0.283   4.322   5.580
 3606SOL    HW111717   0.279   4.390   5.506
 3606SOL    HW211718   0.346   4.249   5.555
 3607SOL     OW11719   5.418   6.831   0.752
 3607SOL    HW111720   5.362   6.855   0.672
 3607SOL    HW211721   5.358   6.804   0.827
 3608SOL     OW11722   0.588   2.093   1.625
 3608SOL    HW111723   0.617   2.086   1.529
 3608SOL    HW211724   0.641   2.029   1.680
 3609SOL     OW11725   6.651   0.647   4.971
 3609SOL    HW111726   6.561   0.688   4.958
 3609SOL    HW211727   6.685   0.612   4.883
 3610SOL     OW11728   1.554   6.511   6.035
 3610SOL    HW111729   1.494   6.437   6.065
 3610SOL    HW211730   1.566   6.577   6.109
 3611SOL     OW11731   3.612   5.344   5.511
 3611SOL    HW111732   3.595   5.299   5.598
 3611SOL    HW211733   3.709   5.338   5.488
 3612SOL     OW11734   1.366   6.540   1.017
 3612SOL    HW111735   1.385   6.537   0.918
 3612SOL    HW211736   1.285   6.596   1.034
 3613SOL     OW11737   5.727   4.833   0.182
 3613SOL    HW111738   5.750   4.758   0.119
 3613SOL    HW211739   5.627   4.845   0.184
 3614SOL     OW11740   3.625   3.355   2.804
 3614SOL    HW111741   3.571   3.383   2.883
 3614SOL    HW211742   3.665   3.265   2.820
 3615SOL     OW11743   5.604   5.487   5.504
 3615SOL    HW111744   5.587   5.459   5.409
 3615SOL    HW211745   5.699   5.466   5.528
 3616SOL     OW11746   6.943   2.186   5.558
 3616SOL    HW111747   7.020   2.125   5.574
 3616SOL    HW211748   6.949   2.224   5.466
 3617SOL     OW11749   6.496   1.790   6.178
 3617SOL    HW111750   6.570   1.791   6.110
 3617SOL    HW211751   6.490   1.879   6.222
 3618SOL     OW11752   1.887   1.730   5.812
 3618SOL    HW111753   1.894   1.648   5.869
 3618SOL    HW211754   1.939   1.804   5.854
 3619SOL     OW11755   5.541   2.061   3.978
 3619SOL    HW111756   5.583   2.036   3.891
 3619SOL    HW211757   5.447   2.093   3.962
 3620SOL     OW11758   5.959   0.260   5.437
 3620SOL    HW111759   5.921   0.232   5.525
 3620SOL    HW211760   6.012   0.344   5.449
 3621SOL     OW11761   2.699   3.049   5.832
 3621SOL    HW111762   2.609   3.029   5.794
 3621SOL    HW211763   2.754   2.965   5.836
 3622SOL     OW11764   1.162   2.033   2.143
 3622SOL    HW111765   1.250   1.997   2.113
 3622SOL    HW211766   1.096   1.958   2.151
 3623SOL     OW11767   5.008   5.217   3.696
 3623SOL    HW111768   4.985   5.203   3.600
 3623SOL    HW211769   5.081   5.154   3.723
 3624SOL     OW11770   2.365   6.917   2.969
 3624SOL    HW111771   2.384   6.827   3.011
 3624SOL    HW211772   2.451   6.956   2.935
 3625SOL     OW11773   6.019   2.705   5.873
 3625SOL    HW111774   6.116   2.684   5.868
 3625SOL    HW211775   5.968   2.641   5.814
 3626SOL     OW11776   1.997   3.979   5.696
 3626SOL    HW111777   2.056   3.964   5.616
 3626SOL    HW211778   1.902   3.986   5.667
 3627SOL     OW11779   3.440   3.792   3.467
 3627SOL    HW111780   3.428   3.737   3.550
 3627SOL    HW211781   3.399   3.882   3.480
 3628SOL     OW11782   2.358   5.643   2.410
 3628SOL    HW111783   2.376   5.731   2.453
 3628SOL    HW211784   2.419   5.631   2.331
 3629SOL     OW11785   6.042   1.950   5.129
 3629SOL    HW111786   6.039   1.961   5.030
 3629SOL    HW211787   5.993   1.866   5.154
 3630SOL     OW11788   5.969   2.391   4.358
 3630SOL    HW111789   5.887   2.419   4.409
 3630SOL    HW211790   5.975   2.292   4.357
 3631SOL     OW11791   2.338   0.240   4.162
 3631SOL    HW111792   2.294   0.327   4.185
 3631SOL    HW211793   2.298   0.167   4.218
 3632SOL     OW11794   4.982   0.983   0.813
 3632SOL    HW111795   4.942   0.899   0.776
 3632SOL    HW211796   4.998   1.048   0.738
 3633SOL     OW11797   3.158   2.743   6.074
 3633SOL    HW111798   3.225   2.691   6.020
 3633SOL    HW211799   3.070   2.695   6.073
 3634SOL     OW11800   1.941   6.403   4.720
 3634SOL    HW111801   1.856   6.370   4.680
 3634SOL    HW211802   2.019   6.354   4.681
 3635SOL     OW11803   2.773   1.683   5.586
 3635SOL    HW111804   2.734   1.600   5.625
 3635SOL    HW211805   2.851   1.713   5.642
 3636SOL     OW11806   0.127   5.969   5.870
 3636SOL    HW111807   0.102   6.059   5.906
 3636SOL    HW211808   0.049   5.930   5.821
 3637SOL     OW11809   5.582   1.354   1.554
 3637SOL    HW111810   5.652   1.307   1.500
 3637SOL    HW211811   5.589   1.325   1.650
 3638SOL     OW11812   6.758   4.222   4.320
 3638SOL    HW111813   6.692   4.286   4.359
 3638SOL    HW211814   6.710   4.142   4.283
 3639SOL     OW11815   2.818   4.059   0.703
 3639SOL    HW111816   2.743   4.078   0.639
 3639SOL    HW211817   2.783   4.064   0.797
 3640SOL     OW11818   3.105   6.172   0.894
 3640SOL    HW111819   3.062   6.085   0.871
 3640SOL    HW211820   3.181   6.156   0.957
 3641SOL     OW11821   3.241   1.169   4.924
 3641SOL    HW111822   3.319   1.198   4.869
 3641SOL    HW211823   3.185   1.248   4.946
 3642SOL     OW11824   4.783   0.346   5.038
 3642SOL    HW111825   4.816   0.254   5.017
 3642SOL    HW211826   4.693   0.359   4.997
 3643SOL     OW11827   3.222   5.114   4.916
 3643SOL    HW111828   3.286   5.126   4.992
 3643SOL    HW211829   3.192   5.019   4.913
 3644SOL     OW11830   6.437   2.524   0.694
 3644SOL    HW111831   6.445   2.603   0.755
 3644SOL    HW211832   6.340   2.504   0.678
 3645SOL     OW11833   4.565   1.471   3.480
 3645SOL    HW111834   4.621   1.498   3.401
 3645SOL    HW211835   4.590   1.526   3.560
 3646SOL     OW11836   0.283   4.940   5.718
 3646SOL    HW111837   0.362   4.990   5.682
 3646SOL    HW211838   0.311   4.847   5.743
 3647SOL     OW11839   1.342   2.893   0.386
 3647SOL    HW111840   1.377   2.847   0.468
 3647SOL    HW211841   1.414   2.950   0.346
 3648SOL     OW11842   3.630   5.411   2.022
 3648SOL    HW111843   3.555   5.477   2.020
 3648SOL    HW211844   3.596   5.322   2.052
 3649SOL     OW11845   4.410   3.894   0.979
 3649SOL    HW111846   4.389   3.980   0.932
 3649SOL    HW211847   4.330   3.834   0.977
 3650SOL     OW11848   0.136   6.378   1.293
 3650SOL    HW111849   0.145   6.337   1.203
 3650SOL    HW211850   0.158   6.475   1.288
 3651SOL     OW11851   0.702   5.943   2.313
 3651SOL    HW111852   0.689   5.912   2.407
 3651SOL    HW211853   0.613   5.968   2.274
 3652SOL     OW11854   4.720   6.157   3.648
 3652SOL    HW111855   4.747   6.187   3.556
 3652SOL    HW211856   4.625   6.124   3.645
 3653SOL     OW11857   6.016   1.600   3.017
 3653SOL    HW111858   5.976   1.665   2.953
 3653SOL    HW211859   5.967   1.513   3.011
 3654SOL     OW11860   2.081   6.588   0.586
 3654SOL    HW111861   2.153   6.522   0.565
 3654SOL    HW211862   1.992   6.548   0.563
 3655SOL     OW11863   1.761   0.215   4.661
 3655SOL    HW111864   1.710   0.301   4.663
 3655SOL    HW211865   1.728   0.155   4.734
 3656SOL     OW11866   2.067   2.466   1.888
 3656SOL    HW111867   2.051   2.387   1.829
 3656SOL    HW211868   2.162   2.468   1.918
 3657SOL     OW11869   3.824   5.905   0.334
 3657SOL    HW111870   3.914   5.917   0.375
 3657SOL    HW211871   3.781   5.822   0.370
 3658SOL     OW11872   1.184   5.430   4.976
 3658SOL    HW111873   1.156   5.429   5.072
 3658SOL    HW211874   1.267   5.485   4.966
 3659SOL     OW11875   2.729   4.826   0.162
 3659SOL    HW111876   2.799   4.759   0.186
 3659SOL    HW211877   2.679   4.853   0.245
 3660SOL     OW11878   4.769   6.195   1.901
 3660SOL    HW111879   4.699   6.244   1.953
 3660SOL    HW211880   4.758   6.097   1.915
 3661SOL     OW11881   5.285   2.028   0.734
 3661SOL    HW111882   5.373   2.034   0.687
 3661SOL    HW211883   5.212   2.057   0.672
 3662SOL     OW11884   3.866   0.051   5.244
 3662SOL    HW111885   3.910   0.059   5.334
 3662SOL    HW211886   3.770   0.027   5.256
 3663SOL     OW11887   1.599   2.097   0.089
 3663SOL    HW111888   1.690   2.067   0.119
 3663SOL    HW211889   1.608   2.176   0.029
 3664SOL     OW11890   4.868   1.325   0.460
 3664SOL    HW111891   4.953   1.348   0.507
 3664SOL    HW211892   4.858   1.225   0.455
 3665SOL     OW11893   0.673   6.809   5.096
 3665SOL    HW111894   0.758   6.814   5.147
 3665SOL    HW211895   0.615   6.887   5.122
 3666SOL     OW11896   1.315   4.562   3.791
 3666SOL    HW111897   1.228   4.541   3.835
 3666SOL    HW211898   1.357   4.477   3.758
 3667SOL     OW11899   6.414   0.630   6.603
 3667SOL    HW111900   6.432   0.581   6.517
 3667SOL    HW211901   6.501   0.659   6.643
 3668SOL     OW11902   1.343   0.220   2.821
 3668SOL    HW111903   1.428   0.255   2.859
 3668SOL    HW211904   1.270   0.229   2.889
 3669SOL     OW11905   5.921   1.931   4.554
 3669SOL    HW111906   5.939   2.029   4.557
 3669SOL    HW211907   6.005   1.882   4.533
 3670SOL     OW11908   1.903   5.465   0.100
 3670SOL    HW111909   1.970   5.518   0.152
 3670SOL    HW211910   1.870   5.389   0.157
 3671SOL     OW11911   0.172   0.619   3.130
 3671SOL    HW111912   0.108   0.552   3.170
 3671SOL    HW211913   0.149   0.710   3.163
 3672SOL     OW11914   6.440   2.303   0.431
 3672SOL    HW111915   6.383   2.356   0.369
 3672SOL    HW211916   6.536   2.325   0.414
 3673SOL     OW11917   4.388   1.359   6.439
 3673SOL    HW111918   4.298   1.349   6.398
 3673SOL    HW211919   4.418   1.271   6.477
 3674SOL     OW11920   0.334   6.751   6.830
 3674SOL    HW111921   0.255   6.779   6.775
 3674SOL    HW211922   0.407   6.818   6.818
 3675SOL     OW11923   1.579   2.629   5.950
 3675SOL    HW111924   1.648   2.622   5.877
 3675SOL    HW211925   1.625   2.639   6.038
 3676SOL     OW11926   3.405   5.168   4.108
 3676SOL    HW111927   3.466   5.192   4.033
 3676SOL    HW211928   3.414   5.234   4.182
 3677SOL     OW11929   0.018   0.049   2.887
 3677SOL    HW111930   6.975   0.096   2.829
 3677SOL    HW211931   0.107   0.093   2.880
 3678SOL     OW11932   1.787   2.577   3.965
 3678SOL    HW111933   1.775   2.484   3.999
 3678SOL    HW211934   1.877   2.611   3.994
 3679SOL     OW11935   0.536   1.149   2.567
 3679SOL    HW111936   0.477   1.183   2.495
 3679SOL    HW211937   0.579   1.064   2.538
 3680SOL     OW11938   6.288   2.895   3.870
 3680SOL    HW111939   6.239   2.929   3.789
 3680SOL    HW211940   6.297   2.968   3.937
 3681SOL     OW11941   1.188   0.333   6.125
 3681SOL    HW111942   1.267   0.284   6.163
 3681SOL    HW211943   1.136   0.272   6.065
 3682SOL     OW11944   6.847   1.512   5.373
 3682SOL    HW111945   6.824   1.569   5.452
 3682SOL    HW211946   6.767   1.505   5.314
 3683SOL     OW11947   6.157   6.411   4.633
 3683SOL    HW111948   6.185   6.347   4.705
 3683SOL    HW211949   6.057   6.422   4.636
 3684SOL     OW11950   2.106   3.058   1.732
 3684SOL    HW111951   2.192   3.109   1.725
 3684SOL    HW211952   2.118   2.968   1.689
 3685SOL     OW11953   6.337   5.917   6.128
 3685SOL    HW111954   6.400   5.840   6.136
 3685SOL    HW211955   6.377   5.997   6.173
 3686SOL     OW11956   6.026   4.897   2.332
 3686SOL    HW111957   5.927   4.895   2.318
 3686SOL    HW211958   6.066   4.812   2.297
 3687SOL     OW11959   2.434   6.618   6.896
 3687SOL    HW111960   2.419   6.580   6.988
 3687SOL    HW211961   2.375   6.698   6.883
 3688SOL     OW11962   1.030   3.466   0.043
 3688SOL    HW111963   1.096   3.508   7.003
 3688SOL    HW211964   1.069   3.461   0.135
 3689SOL     OW11965   1.740   1.058   5.396
 3689SOL    HW111966   1.809   1.127   5.416
 3689SOL    HW211967   1.660   1.073   5.455
 3690SOL     OW11968   5.048   0.580   5.867
 3690SOL    HW111969   4.995   0.650   5.819
 3690SOL    HW211970   5.127   0.622   5.911
 3691SOL     OW11971   3.041   3.678   6.743
 3691SOL    HW111972   3.073   3.597   6.791
 3691SOL    HW211973   3.112   3.749   6.749
 3692SOL     OW11974   0.961   5.797   4.937
 3692SOL    HW111975   0.886   5.851   4.900
 3692SOL    HW211976   0.990   5.728   4.870
 3693SOL     OW11977   2.348   2.212   3.526
 3693SOL    HW111978   2.322   2.141   3.461
 3693SOL    HW211979   2.280   2.286   3.523
 3694SOL     OW11980   0.602   5.772   3.163
 3694SOL    HW111981   0.653   5.791   3.247
 3694SOL    HW211982   0.505   5.790   3.179
 3695SOL     OW11983   1.512   1.980   2.681
 3695SOL    HW111984   1.452   1.983   2.760
 3695SOL    HW211985   1.606   1.966   2.711
 3696SOL     OW11986   4.435   6.105   5.484
 3696SOL    HW111987   4.474   6.028   5.433
 3696SOL    HW211988   4.422   6.079   5.580
 3697SOL     OW11989   6.682   6.984   3.662
 3697SOL    HW111990   6.692   6.889   3.630
 3697SOL    HW211991   6.745   0.020   3.612
 3698SOL     OW11992   3.374   0.657   5.223
 3698SOL    HW111993   3.277   0.632   5.231
 3698SOL    HW211994   3.399   0.717   5.299
 3699SOL     OW11995   6.924   3.465   2.780
 3699SOL    HW111996   6.934   3.469   2.879
 3699SOL    HW211997   7.011   3.438   2.739
 3700SOL     OW11998   6.235   7.017   4.352
 3700SOL    HW111999   6.189   6.930   4.370
 3700SOL    HW212000   6.244   0.007   4.253
 3701SOL     OW12001   6.933   0.770   3.732
 3701SOL    HW112002   6.912   0.748   3.637
 3701SOL    HW212003   6.953   0.867   3.741
 3702SOL     OW12004   3.915   0.298   1.811
 3702SOL    HW112005   4.006   0.336   1.828
 3702SOL    HW212006   3.846   0.354   1.858
 3703SOL     OW12007   3.908   4.138   5.903
 3703SOL    HW112008   3.885   4.235   5.914
 3703SOL    HW212009   3.830   4.090   5.862
 3704SOL     OW12010   2.981   1.145   2.442
 3704SOL    HW112011   2.915   1.218   2.421
 3704SOL    HW212012   3.073   1.178   2.421
 3705SOL     OW12013   4.623   0.692   4.183
 3705SOL    HW112014   4.525   0.679   4.169
 3705SOL    HW212015   4.643   0.790   4.193
 3706SOL     OW12016   1.719   3.025   4.563
 3706SOL    HW112017   1.764   3.112   4.542
 3706SOL    HW212018   1.696   3.022   4.660
 3707SOL     OW12019   5.048   2.234   5.830
 3707SOL    HW112020   5.064   2.138   5.811
 3707SOL    HW212021   5.039   2.248   5.929
 3708SOL     OW12022   6.395   0.671   6.979
 3708SOL    HW112023   6.371   0.727   6.900
 3708SOL    HW212024   6.472   0.612   6.956
 3709SOL     OW12025   3.933   0.550   5.877
 3709SOL    HW112026   3.874   0.469   5.873
 3709SOL    HW212027   3.972   0.558   5.969
 3710SOL     OW12028   6.461   5.545   0.268
 3710SOL    HW112029   6.370   5.579   0.293
 3710SOL    HW212030   6.522   5.623   0.250
 3711SOL     OW12031   0.540   6.354   2.321
 3711SOL    HW112032   0.446   6.357   2.354
 3711SOL    HW212033   0.601   6.321   2.393
 3712SOL     OW12034   0.511   6.539   6.795
 3712SOL    HW112035   0.592   6.520   6.851
 3712SOL    HW212036   0.470   6.625   6.824
 3713SOL     OW12037   2.425   5.976   4.761
 3713SOL    HW112038   2.497   5.918   4.724
 3713SOL    HW212039   2.437   6.069   4.727
 3714SOL     OW12040   4.579   6.854   4.113
 3714SOL    HW112041   4.650   6.867   4.183
 3714SOL    HW212042   4.541   6.762   4.121
 3715SOL     OW12043   5.858   5.080   4.053
 3715SOL    HW112044   5.893   5.042   4.139
 3715SOL    HW212045   5.929   5.135   4.009
 3716SOL     OW12046   6.383   0.347   4.439
 3716SOL    HW112047   6.458   0.389   4.387
 3716SOL    HW212048   6.416   0.262   4.482
 3717SOL     OW12049   6.399   5.901   0.963
 3717SOL    HW112050   6.453   5.889   1.046
 3717SOL    HW212051   6.439   5.846   0.889
 3718SOL     OW12052   0.936   6.973   6.860
 3718SOL    HW112053   0.895   6.936   6.944
 3718SOL    HW212054   0.965   6.898   6.801
 3719SOL     OW12055   5.358   4.807   0.142
 3719SOL    HW112056   5.312   4.896   0.147
 3719SOL    HW212057   5.297   4.736   0.179
 3720SOL     OW12058   6.770   1.912   6.543
 3720SOL    HW112059   6.830   1.900   6.622
 3720SOL    HW212060   6.685   1.862   6.558
 3721SOL     OW12061   6.435   4.738   6.694
 3721SOL    HW112062   6.501   4.739   6.769
 3721SOL    HW212063   6.372   4.814   6.704
 3722SOL     OW12064   0.043   6.102   2.680
 3722SOL    HW112065   0.078   6.008   2.687
 3722SOL    HW212066   0.023   6.122   2.584
 3723SOL     OW12067   5.692   6.469   1.978
 3723SOL    HW112068   5.686   6.494   1.881
 3723SOL    HW212069   5.784   6.490   2.012
 3724SOL     OW12070   1.053   5.151   0.272
 3724SOL    HW112071   0.955   5.167   0.268
 3724SOL    HW212072   1.072   5.053   0.266
 3725SOL     OW12073   6.470   6.526   6.822
 3725SOL    HW112074   6.491   6.508   6.726
 3725SOL    HW212075   6.390   6.587   6.827
 3726SOL     OW12076   6.340   3.842   1.851
 3726SOL    HW112077   6.268   3.881   1.909
 3726SOL    HW212078   6.302   3.819   1.762
 3727SOL     OW12079   0.741   2.956   5.068
 3727SOL    HW112080   0.817   3.018   5.089
 3727SOL    HW212081   0.718   2.903   5.149
 3728SOL     OW12082   2.086   3.152   0.575
 3728SOL    HW112083   2.062   3.119   0.484
 3728SOL    HW212084   2.182   3.181   0.576
 3729SOL     OW12085   0.966   2.278   2.803
 3729SOL    HW112086   0.907   2.225   2.864
 3729SOL    HW212087   0.981   2.227   2.719
 3730SOL     OW12088   3.197   0.634   6.887
 3730SOL    HW112089   3.229   0.728   6.873
 3730SOL    HW212090   3.109   0.636   6.935
 3731SOL     OW12091   4.530   1.781   1.054
 3731SOL    HW112092   4.576   1.841   1.120
 3731SOL    HW212093   4.466   1.721   1.102
 3732SOL     OW12094   2.447   3.318   5.860
 3732SOL    HW112095   2.405   3.238   5.903
 3732SOL    HW212096   2.376   3.383   5.834
 3733SOL     OW12097   2.766   3.906   1.308
 3733SOL    HW112098   2.865   3.898   1.313
 3733SOL    HW212099   2.735   3.977   1.372
 3734SOL     OW12100   4.412   1.186   2.591
 3734SOL    HW112101   4.462   1.233   2.664
 3734SOL    HW212102   4.472   1.121   2.546
 3735SOL     OW12103   1.734   2.459   3.000
 3735SOL    HW112104   1.645   2.482   3.040
 3735SOL    HW212105   1.765   2.371   3.037
 3736SOL     OW12106   6.849   2.965   0.773
 3736SOL    HW112107   6.799   3.048   0.797
 3736SOL    HW212108   6.809   2.887   0.821
 3737SOL     OW12109   5.119   0.294   2.690
 3737SOL    HW112110   5.171   0.344   2.759
 3737SOL    HW212111   5.182   0.258   2.621
 3738SOL     OW12112   6.343   6.101   3.377
 3738SOL    HW112113   6.354   6.200   3.366
 3738SOL    HW212114   6.262   6.083   3.434
 3739SOL     OW12115   1.517   3.887   2.476
 3739SOL    HW112116   1.486   3.842   2.560
 3739SOL    HW212117   1.610   3.920   2.489
 3740SOL     OW12118   4.968   1.227   6.915
 3740SOL    HW112119   4.932   1.167   6.843
 3740SOL    HW212120   4.901   1.235   6.988
 3741SOL     OW12121   4.223   3.559   0.837
 3741SOL    HW112122   4.311   3.593   0.805
 3741SOL    HW212123   4.188   3.490   0.775
 3742SOL     OW12124   3.228   1.937   5.907
 3742SOL    HW112125   3.197   2.028   5.880
 3742SOL    HW212126   3.309   1.911   5.855
 3743SOL     OW12127   6.552   5.272   0.277
 3743SOL    HW112128   6.599   5.267   0.365
 3743SOL    HW212129   6.511   5.363   0.267
 3744SOL     OW12130   0.423   5.035   3.867
 3744SOL    HW112131   0.396   5.094   3.790
 3744SOL    HW212132   0.436   5.091   3.949
 3745SOL     OW12133   3.575   5.348   2.680
 3745SOL    HW112134   3.551   5.439   2.713
 3745SOL    HW212135   3.672   5.331   2.696
 3746SOL     OW12136   4.706   1.875   1.525
 3746SOL    HW112137   4.701   1.867   1.624
 3746SOL    HW212138   4.801   1.867   1.495
 3747SOL     OW12139   3.329   6.728   6.924
 3747SOL    HW112140   3.293   6.819   6.942
 3747SOL    HW212141   3.422   6.722   6.960
 3748SOL     OW12142   6.104   0.947   1.277
 3748SOL    HW112143   6.109   1.045   1.256
 3748SOL    HW212144   6.161   0.896   1.212
 3749SOL     OW12145   1.299   6.903   4.079
 3749SOL    HW112146   1.316   6.946   4.168
 3749SOL    HW212147   1.291   6.804   4.091
 3750SOL     OW12148   0.181   3.764   0.477
 3750SOL    HW112149   0.219   3.837   0.421
 3750SOL    HW212150   0.092   3.737   0.442
 3751SOL     OW12151   0.092   4.006   3.266
 3751SOL    HW112152   0.179   3.957   3.265
 3751SOL    HW212153   0.022   3.950   3.312
 3752SOL     OW12154   5.986   1.047   5.716
 3752SOL    HW112155   5.966   1.025   5.620
 3752SOL    HW212156   6.053   0.982   5.752
 3753SOL     OW12157   6.236   1.221   3.993
 3753SOL    HW112158   6.323   1.267   3.975
 3753SOL    HW212159   6.173   1.284   4.037
 3754SOL     OW12160   2.225   1.405   2.215
 3754SOL    HW112161   2.154   1.356   2.267
 3754SOL    HW212162   2.202   1.402   2.117
 3755SOL     OW12163   2.900   4.833   4.226
 3755SOL    HW112164   2.836   4.788   4.288
 3755SOL    HW212165   2.879   4.806   4.132
 3756SOL     OW12166   2.269   6.089   0.513
 3756SOL    HW112167   2.258   6.032   0.431
 3756SOL    HW212168   2.363   6.121   0.520
 3757SOL     OW12169   6.236   4.509   1.741
 3757SOL    HW112170   6.194   4.525   1.652
 3757SOL    HW212171   6.172   4.459   1.800
 3758SOL     OW12172   1.775   0.767   3.327
 3758SOL    HW112173   1.781   0.833   3.253
 3758SOL    HW212174   1.792   0.675   3.291
 3759SOL     OW12175   5.405   0.254   4.018
 3759SOL    HW112176   5.454   0.291   4.097
 3759SOL    HW212177   5.433   0.160   4.003
 3760SOL     OW12178   6.660   0.788   3.817
 3760SOL    HW112179   6.601   0.735   3.756
 3760SOL    HW212180   6.756   0.770   3.795
 3761SOL     OW12181   5.253   1.201   4.549
 3761SOL    HW112182   5.171   1.157   4.512
 3761SOL    HW212183   5.227   1.288   4.593
 3762SOL     OW12184   1.036   3.934   2.800
 3762SOL    HW112185   0.959   3.872   2.783
 3762SOL    HW212186   1.092   3.940   2.717
 3763SOL     OW12187   0.119   4.474   0.319
 3763SOL    HW112188   0.074   4.445   0.235
 3763SOL    HW212189   0.205   4.426   0.329
 3764SOL     OW12190   1.895   0.548   3.228
 3764SOL    HW112191   1.954   0.467   3.231
 3764SOL    HW212192   1.885   0.578   3.134
 3765SOL     OW12193   6.129   1.743   1.466
 3765SOL    HW112194   6.065   1.687   1.519
 3765SOL    HW212195   6.089   1.765   1.377
 3766SOL     OW12196   1.642   3.451   3.740
 3766SOL    HW112197   1.619   3.450   3.643
 3766SOL    HW212198   1.732   3.492   3.752
 3767SOL     OW12199   3.063   4.644   6.208
 3767SOL    HW112200   3.150   4.613   6.246
 3767SOL    HW212201   3.037   4.584   6.132
 3768SOL     OW12202   1.572   0.082   5.107
 3768SOL    HW112203   1.626   0.095   5.024
 3768SOL    HW212204   1.475   0.081   5.083
 3769SOL     OW12205   4.570   5.984   4.651
 3769SOL    HW112206   4.612   6.008   4.563
 3769SOL    HW212207   4.550   5.886   4.653
 3770SOL     OW12208   1.118   1.440   0.589
 3770SOL    HW112209   1.140   1.344   0.606
 3770SOL    HW212210   1.127   1.460   0.492
 3771SOL     OW12211   0.078   4.533   0.707
 3771SOL    HW112212   0.156   4.474   0.689
 3771SOL    HW212213   0.095   4.587   0.789
 3772SOL     OW12214   1.172   6.210   0.624
 3772SOL    HW112215   1.272   6.204   0.619
 3772SOL    HW212216   1.142   6.300   0.591
 3773SOL     OW12217   5.848   3.010   6.060
 3773SOL    HW112218   5.828   2.912   6.057
 3773SOL    HW212219   5.922   3.031   5.997
 3774SOL     OW12220   5.406   6.269   1.390
 3774SOL    HW112221   5.487   6.327   1.385
 3774SOL    HW212222   5.433   6.173   1.399
 3775SOL     OW12223   3.915   4.813   3.284
 3775SOL    HW112224   4.014   4.813   3.269
 3775SOL    HW212225   3.895   4.841   3.378
 3776SOL     OW12226   3.349   2.805   6.766
 3776SOL    HW112227   3.270   2.857   6.733
 3776SOL    HW212228   3.422   2.868   6.793
 3777SOL     OW12229   2.779   6.081   4.728
 3777SOL    HW112230   2.701   6.078   4.790
 3777SOL    HW212231   2.799   5.988   4.695
 3778SOL     OW12232   3.139   5.374   4.906
 3778SOL    HW112233   3.046   5.391   4.876
 3778SOL    HW212234   3.161   5.277   4.893
 3779SOL     OW12235   0.287   5.157   0.498
 3779SOL    HW112236   0.262   5.237   0.553
 3779SOL    HW212237   0.335   5.187   0.416
 3780SOL     OW12238   6.564   2.782   1.227
 3780SOL    HW112239   6.479   2.798   1.276
 3780SOL    HW212240   6.576   2.852   1.157
 3781SOL     OW12241   2.008   6.400   5.286
 3781SOL    HW112242   2.106   6.409   5.272
 3781SOL    HW212243   1.988   6.410   5.384
 3782SOL     OW12244   4.846   6.194   1.652
 3782SOL    HW112245   4.812   6.191   1.746
 3782SOL    HW212246   4.945   6.203   1.653
 3783SOL     OW12247   5.281   4.942   6.033
 3783SOL    HW112248   5.327   4.899   5.956
 3783SOL    HW212249   5.342   5.008   6.076
 3784SOL     OW12250   5.206   2.526   3.787
 3784SOL    HW112251   5.245   2.435   3.772
 3784SOL    HW212252   5.176   2.564   3.699
 3785SOL     OW12253   0.966   3.522   4.759
 3785SOL    HW112254   0.933   3.479   4.675
 3785SOL    HW212255   0.982   3.620   4.742
 3786SOL     OW12256   2.374   2.351   4.611
 3786SOL    HW112257   2.453   2.383   4.559
 3786SOL    HW212258   2.341   2.265   4.572
 3787SOL     OW12259   4.253   0.109   3.282
 3787SOL    HW112260   4.325   0.166   3.322
 3787SOL    HW212261   4.242   0.026   3.337
 3788SOL     OW12262   0.390   3.053   5.318
 3788SOL    HW112263   0.387   3.136   5.374
 3788SOL    HW212264   0.301   3.038   5.276
 3789SOL     OW12265   1.729   2.587   2.741
 3789SOL    HW112266   1.813   2.641   2.738
 3789SOL    HW212267   1.712   2.558   2.835
 3790SOL     OW12268   0.500   6.948   0.672
 3790SOL    HW112269   0.499   7.015   0.598
 3790SOL    HW212270   0.523   6.995   0.758
 3791SOL     OW12271   5.772   0.711   5.919
 3791SOL    HW112272   5.747   0.793   5.868
 3791SOL    HW212273   5.704   0.640   5.902
 3792SOL     OW12274   0.617   0.984   3.866
 3792SOL    HW112275   0.714   0.968   3.848
 3792SOL    HW212276   0.564   0.972   3.782
 3793SOL     OW12277   6.369   6.412   0.576
 3793SOL    HW112278   6.422   6.383   0.496
 3793SOL    HW212279   6.361   6.511   0.576
 3794SOL     OW12280   1.876   4.184   0.859
 3794SOL    HW112281   1.831   4.172   0.947
 3794SOL    HW212282   1.842   4.267   0.815
 3795SOL     OW12283   2.631   5.670   1.030
 3795SOL    HW112284   2.594   5.761   1.050
 3795SOL    HW212285   2.613   5.610   1.108
 3796SOL     OW12286   4.209   1.734   0.086
 3796SOL    HW112287   4.193   1.823   0.129
 3796SOL    HW212288   4.242   1.747   7.016
 3797SOL     OW12289   0.734   4.473   3.055
 3797SOL    HW112290   0.805   4.484   2.986
 3797SOL    HW212291   0.776   4.467   3.146
 3798SOL     OW12292   2.416   6.280   3.090
 3798SOL    HW112293   2.421   6.184   3.062
 3798SOL    HW212294   2.331   6.295   3.140
 3799SOL     OW12295   6.669   2.261   3.082
 3799SOL    HW112296   6.763   2.292   3.097
 3799SOL    HW212297   6.637   2.292   2.993
 3800SOL     OW12298   5.483   1.804   3.047
 3800SOL    HW112299   5.440   1.717   3.023
 3800SOL    HW212300   5.579   1.789   3.071
 3801SOL     OW12301   5.483   0.106   2.345
 3801SOL    HW112302   5.485   0.027   2.285
 3801SOL    HW212303   5.573   0.148   2.349
 3802SOL     OW12304   6.246   1.982   1.968
 3802SOL    HW112305   6.153   1.945   1.963
 3802SOL    HW212306   6.282   1.969   2.061
 3803SOL     OW12307   2.906   3.660   4.378
 3803SOL    HW112308   2.815   3.680   4.341
 3803SOL    HW212309   2.975   3.705   4.322
 3804SOL     OW12310   3.621   0.034   4.885
 3804SOL    HW112311   3.637   0.127   4.851
 3804SOL    HW212312   3.615   6.994   4.807
 3805SOL     OW12313   2.208   3.297   0.043
 3805SOL    HW112314   2.141   3.281   6.993
 3805SOL    HW212315   2.212   3.218   0.103
 3806SOL     OW12316   4.322   4.378   6.544
 3806SOL    HW112317   4.342   4.439   6.621
 3806SOL    HW212318   4.346   4.284   6.569
 3807SOL     OW12319   1.091   5.164   3.931
 3807SOL    HW112320   1.158   5.228   3.969
 3807SOL    HW212321   1.086   5.082   3.988
 3808SOL     OW12322   4.864   6.546   6.214
 3808SOL    HW112323   4.770   6.523   6.240
 3808SOL    HW212324   4.861   6.609   6.136
 3809SOL     OW12325   5.373   1.749   1.526
 3809SOL    HW112326   5.463   1.767   1.565
 3809SOL    HW212327   5.375   1.663   1.474
 3810SOL     OW12328   6.483   2.395   2.474
 3810SOL    HW112329   6.469   2.308   2.426
 3810SOL    HW212330   6.395   2.434   2.501
 3811SOL     OW12331   6.902   5.458   5.006
 3811SOL    HW112332   6.860   5.424   4.922
 3811SOL    HW212333   6.934   5.551   4.992
 3812SOL     OW12334   3.823   6.023   6.912
 3812SOL    HW112335   3.773   5.969   6.979
 3812SOL    HW212336   3.914   6.043   6.947
 3813SOL     OW12337   6.684   3.559   0.896
 3813SOL    HW112338   6.682   3.492   0.971
 3813SOL    HW212339   6.635   3.524   0.817
 3814SOL     OW12340   6.702   0.049   4.480
 3814SOL    HW112341   6.617   0.091   4.509
 3814SOL    HW212342   6.758   0.026   4.560
 3815SOL     OW12343   4.706   3.133   0.417
 3815SOL    HW112344   4.646   3.152   0.495
 3815SOL    HW212345   4.771   3.062   0.441
 3816SOL     OW12346   1.320   5.902   5.627
 3816SOL    HW112347   1.378   5.825   5.653
 3816SOL    HW212348   1.363   5.952   5.552
 3817SOL     OW12349   5.099   3.357   2.524
 3817SOL    HW112350   5.168   3.307   2.472
 3817SOL    HW212351   5.051   3.421   2.463
 3818SOL     OW12352   0.417   0.826   2.104
 3818SOL    HW112353   0.452   0.824   2.198
 3818SOL    HW212354   0.415   0.920   2.071
 3819SOL     OW12355   6.410   4.534   3.249
 3819SOL    HW112356   6.485   4.508   3.310
 3819SOL    HW212357   6.402   4.633   3.247
 3820SOL     OW12358   5.552   6.556   4.259
 3820SOL    HW112359   5.578   6.539   4.354
 3820SOL    HW212360   5.504   6.643   4.252
 3821SOL     OW12361   0.534   6.967   6.721
 3821SOL    HW112362   0.517   0.043   6.726
 3821SOL    HW212363   0.593   6.940   6.797
 3822SOL     OW12364   3.892   1.128   6.851
 3822SOL    HW112365   3.860   1.082   6.934
 3822SOL    HW212366   3.854   1.081   6.771
 3823SOL     OW12367   4.879   4.900   6.147
 3823SOL    HW112368   4.917   4.911   6.055
 3823SOL    HW212369   4.833   4.984   6.175
 3824SOL     OW12370   1.573   3.476   0.222
 3824SOL    HW112371   1.669   3.464   0.195
 3824SOL    HW212372   1.568   3.541   0.298
 3825SOL     OW12373   1.413   4.090   6.645
 3825SOL    HW112374   1.501   4.113   6.687
 3825SOL    HW212375   1.427   4.017   6.577
 3826SOL     OW12376   6.166   4.229   1.905
 3826SOL    HW112377   6.112   4.164   1.958
 3826SOL    HW212378   6.118   4.317   1.902
 3827SOL     OW12379   0.733   0.868   1.472
 3827SOL    HW112380   0.761   0.827   1.385
 3827SOL    HW212381   0.779   0.820   1.547
 3828SOL     OW12382   3.622   4.167   4.678
 3828SOL    HW112383   3.664   4.252   4.644
 3828SOL    HW212384   3.694   4.102   4.703
 3829SOL     OW12385   0.270   4.827   2.359
 3829SOL    HW112386   0.261   4.825   2.458
 3829SOL    HW212387   0.268   4.734   2.323
 3830SOL     OW12388   0.505   0.416   5.043
 3830SOL    HW112389   0.525   0.498   4.990
 3830SOL    HW212390   0.589   0.366   5.062
 3831SOL     OW12391   4.766   1.546   3.236
 3831SOL    HW112392   4.722   1.636   3.239
 3831SOL    HW212393   4.723   1.490   3.165
 3832SOL     OW12394   0.431   0.516   2.360
 3832SOL    HW112395   0.479   0.604   2.356
 3832SOL    HW212396   0.464   0.456   2.288
 3833SOL     OW12397   1.399   6.611   6.262
 3833SOL    HW112398   1.340   6.558   6.322
 3833SOL    HW212399   1.347   6.641   6.182
 3834SOL     OW12400   4.683   4.116   0.942
 3834SOL    HW112401   4.650   4.184   0.878
 3834SOL    HW212402   4.666   4.024   0.906
 3835SOL     OW12403   3.382   5.855   5.528
 3835SOL    HW112404   3.343   5.843   5.436
 3835SOL    HW212405   3.458   5.791   5.540
 3836SOL     OW12406   0.407   5.551   6.596
 3836SOL    HW112407   0.366   5.552   6.505
 3836SOL    HW212408   0.493   5.601   6.594
 3837SOL     OW12409   4.016   4.955   5.268
 3837SOL    HW112410   3.988   4.961   5.364
 3837SOL    HW212411   3.935   4.951   5.210
 3838SOL     OW12412   1.923   1.215   3.193
 3838SOL    HW112413   1.964   1.191   3.281
 3838SOL    HW212414   1.899   1.312   3.192
 3839SOL     OW12415   4.672   0.022   3.183
 3839SOL    HW112416   4.655   0.118   3.206
 3839SOL    HW212417   4.617   6.986   3.242
 3840SOL     OW12418   2.668   0.475   0.087
 3840SOL    HW112419   2.631   0.396   0.038
 3840SOL    HW212420   2.643   0.559   0.038
 3841SOL     OW12421   6.538   4.712   4.398
 3841SOL    HW112422   6.446   4.744   4.377
 3841SOL    HW212423   6.544   4.690   4.496
 3842SOL     OW12424   2.352   2.798   4.728
 3842SOL    HW112425   2.286   2.793   4.803
 3842SOL    HW212426   2.316   2.857   4.656
 3843SOL     OW12427   4.981   2.882   0.856
 3843SOL    HW112428   4.893   2.866   0.900
 3843SOL    HW212429   4.983   2.973   0.816
 3844SOL     OW12430   1.381   5.001   0.503
 3844SOL    HW112431   1.429   4.979   0.418
 3844SOL    HW212432   1.352   4.916   0.547
 3845SOL     OW12433   1.945   5.788   0.374
 3845SOL    HW112434   1.961   5.876   0.419
 3845SOL    HW212435   2.032   5.743   0.356
 3846SOL     OW12436   0.808   3.197   4.459
 3846SOL    HW112437   0.778   3.146   4.378
 3846SOL    HW212438   0.772   3.154   4.541
 3847SOL     OW12439   5.617   1.601   4.832
 3847SOL    HW112440   5.656   1.604   4.924
 3847SOL    HW212441   5.595   1.507   4.808
 3848SOL     OW12442   4.955   2.937   2.507
 3848SOL    HW112443   4.891   2.932   2.430
 3848SOL    HW212444   4.924   2.875   2.580
 3849SOL     OW12445   0.571   6.379   5.983
 3849SOL    HW112446   0.639   6.370   6.056
 3849SOL    HW212447   0.609   6.436   5.910
 3850SOL     OW12448   2.725   2.604   1.587
 3850SOL    HW112449   2.670   2.577   1.507
 3850SOL    HW212450   2.667   2.648   1.655
 3851SOL     OW12451   0.156   5.196   3.489
 3851SOL    HW112452   0.059   5.174   3.496
 3851SOL    HW212453   0.191   5.220   3.579
 3852SOL     OW12454   2.804   6.639   4.349
 3852SOL    HW112455   2.715   6.636   4.393
 3852SOL    HW212456   2.794   6.620   4.251
 3853SOL     OW12457   2.133   1.621   4.121
 3853SOL    HW112458   2.111   1.576   4.207
 3853SOL    HW212459   2.066   1.596   4.051
 3854SOL     OW12460   1.608   2.930   2.786
 3854SOL    HW112461   1.532   2.962   2.841
 3854SOL    HW212462   1.578   2.855   2.726
 3855SOL     OW12463   4.568   6.430   0.438
 3855SOL    HW112464   4.653   6.455   0.390
 3855SOL    HW212465   4.585   6.429   0.536
 3856SOL     OW12466   0.517   1.977   6.359
 3856SOL    HW112467   0.535   2.038   6.437
 3856SOL    HW212468   0.547   2.021   6.275
 3857SOL     OW12469   2.504   6.543   5.982
 3857SOL    HW112470   2.405   6.539   5.991
 3857SOL    HW212471   2.545   6.549   6.073
 3858SOL     OW12472   3.855   1.393   5.510
 3858SOL    HW112473   3.874   1.467   5.574
 3858SOL    HW212474   3.756   1.381   5.501
 3859SOL     OW12475   5.830   0.916   1.027
 3859SOL    HW112476   5.762   0.955   0.965
 3859SOL    HW212477   5.801   0.824   1.054
 3860SOL     OW12478   1.729   0.627   4.700
 3860SOL    HW112479   1.795   0.570   4.649
 3860SOL    HW212480   1.775   0.708   4.735
 3861SOL     OW12481   4.116   5.846   2.665
 3861SOL    HW112482   4.198   5.877   2.617
 3861SOL    HW212483   4.088   5.916   2.730
 3862SOL     OW12484   0.664   0.464   3.895
 3862SOL    HW112485   0.600   0.470   3.819
 3862SOL    HW212486   0.657   0.547   3.951
 3863SOL     OW12487   5.408   0.924   0.166
 3863SOL    HW112488   5.319   0.966   0.147
 3863SOL    HW212489   5.471   0.993   0.201
 3864SOL     OW12490   2.609   0.707   4.951
 3864SOL    HW112491   2.517   0.738   4.928
 3864SOL    HW212492   2.611   0.607   4.954
 3865SOL     OW12493   4.594   0.752   0.300
 3865SOL    HW112494   4.632   0.763   0.208
 3865SOL    HW212495   4.655   0.694   0.354
 3866SOL     OW12496   3.670   1.614   6.774
 3866SOL    HW112497   3.711   1.650   6.690
 3866SOL    HW212498   3.709   1.524   6.794
 3867SOL     OW12499   1.252   4.831   3.097
 3867SOL    HW112500   1.351   4.819   3.100
 3867SOL    HW212501   1.210   4.757   3.044
 3868SOL     OW12502   4.014   0.541   6.598
 3868SOL    HW112503   4.092   0.492   6.638
 3868SOL    HW212504   3.963   0.586   6.670
 3869SOL     OW12505   6.555   3.363   4.047
 3869SOL    HW112506   6.461   3.396   4.058
 3869SOL    HW212507   6.563   3.313   3.961
 3870SOL     OW12508   6.679   0.055   2.671
 3870SOL    HW112509   6.627   6.993   2.664
 3870SOL    HW212510   6.661   0.112   2.591
 3871SOL     OW12511   2.924   6.762   3.455
 3871SOL    HW112512   2.992   6.817   3.407
 3871SOL    HW212513   2.945   6.761   3.553
 3872SOL     OW12514   3.212   2.959   3.662
 3872SOL    HW112515   3.178   3.041   3.708
 3872SOL    HW212516   3.177   2.956   3.568
 3873SOL     OW12517   5.018   4.136   0.699
 3873SOL    HW112518   5.011   4.148   0.600
 3873SOL    HW212519   4.975   4.050   0.726
 3874SOL     OW12520   4.329   0.453   0.301
 3874SOL    HW112521   4.292   0.378   0.355
 3874SOL    HW212522   4.392   0.418   0.232
 3875SOL     OW12523   2.137   3.169   4.010
 3875SOL    HW112524   2.107   3.229   4.084
 3875SOL    HW212525   2.180   3.087   4.048
 3876SOL     OW12526   3.711   5.753   0.713
 3876SOL    HW112527   3.789   5.738   0.774
 3876SOL    HW212528   3.734   5.719   0.622
 3877SOL     OW12529   6.269   2.256   0.745
 3877SOL    HW112530   6.281   2.274   0.648
 3877SOL    HW212531   6.274   2.157   0.762
 3878SOL     OW12532   4.807   6.779   4.464
 3878SOL    HW112533   4.879   6.758   4.530
 3878SOL    HW212534   4.718   6.759   4.506
 3879SOL     OW12535   6.069   4.946   0.318
 3879SOL    HW112536   6.075   4.944   0.218
 3879SOL    HW212537   6.009   4.872   0.348
 3880SOL     OW12538   4.930   3.814   4.543
 3880SOL    HW112539   4.878   3.847   4.464
 3880SOL    HW212540   5.026   3.806   4.517
 3881SOL     OW12541   1.360   3.759   1.132
 3881SOL    HW112542   1.450   3.794   1.157
 3881SOL    HW212543   1.368   3.663   1.104
 3882SOL     OW12544   1.590   1.388   7.021
 3882SOL    HW112545   1.648   1.458   6.978
 3882SOL    HW212546   1.625   1.297   6.999
 3883SOL     OW12547   4.565   0.850   2.763
 3883SOL    HW112548   4.490   0.833   2.700
 3883SOL    HW212549   4.651   0.857   2.711
 3884SOL     OW12550   0.485   5.858   2.840
 3884SOL    HW112551   0.534   5.827   2.921
 3884SOL    HW212552   0.551   5.887   2.770
 3885SOL     OW12553   5.874   6.185   3.368
 3885SOL    HW112554   5.947   6.170   3.302
 3885SOL    HW212555   5.899   6.262   3.428
 3886SOL     OW12556   4.470   5.786   5.654
 3886SOL    HW112557   4.428   5.865   5.697
 3886SOL    HW212558   4.405   5.710   5.652
 3887SOL     OW12559   0.942   6.731   0.398
 3887SOL    HW112560   0.965   6.828   0.403
 3887SOL    HW212561   1.023   6.676   0.420
 3888SOL     OW12562   6.246   6.251   4.841
 3888SOL    HW112563   6.152   6.235   4.872
 3888SOL    HW212564   6.299   6.293   4.915
 3889SOL     OW12565   6.496   2.562   6.929
 3889SOL    HW112566   6.413   2.582   6.877
 3889SOL    HW212567   6.495   2.466   6.957
 3890SOL     OW12568   5.477   4.519   3.764
 3890SOL    HW112569   5.559   4.468   3.786
 3890SOL    HW212570   5.502   4.605   3.718
 3891SOL     OW12571   5.043   3.897   3.502
 3891SOL    HW112572   5.038   3.799   3.484
 3891SOL    HW212573   5.121   3.936   3.455
 3892SOL     OW12574   0.341   2.915   1.211
 3892SOL    HW112575   0.346   2.948   1.117
 3892SOL    HW212576   0.278   2.837   1.216
 3893SOL     OW12577   4.169   3.999   1.489
 3893SOL    HW112578   4.104   4.043   1.427
 3893SOL    HW212579   4.204   4.068   1.554
 3894SOL     OW12580   5.515   0.754   6.508
 3894SOL    HW112581   5.534   0.748   6.606
 3894SOL    HW212582   5.420   0.728   6.491
 3895SOL     OW12583   1.905   0.370   5.278
 3895SOL    HW112584   2.004   0.373   5.291
 3895SOL    HW212585   1.870   0.283   5.312
 3896SOL     OW12586   0.741   1.224   6.531
 3896SOL    HW112587   0.753   1.144   6.590
 3896SOL    HW212588   0.761   1.307   6.583
 3897SOL     OW12589   4.245   5.693   2.438
 3897SOL    HW112590   4.146   5.704   2.434
 3897SOL    HW212591   4.287   5.779   2.466
 3898SOL     OW12592   3.190   2.069   7.021
 3898SOL    HW112593   3.285   2.076   6.990
 3898SOL    HW212594   3.181   2.112   0.088
 3899SOL     OW12595   4.564   6.533   6.037
 3899SOL    HW112596   4.587   6.517   6.133
 3899SOL    HW212597   4.465   6.534   6.026
 3900SOL     OW12598   4.780   2.905   3.945
 3900SOL    HW112599   4.692   2.864   3.969
 3900SOL    HW212600   4.852   2.837   3.957
 3901SOL     OW12601   3.466   0.579   6.207
 3901SOL    HW112602   3.405   0.552   6.281
 3901SOL    HW212603   3.502   0.671   6.225
 3902SOL     OW12604   6.513   2.813   2.164
 3902SOL    HW112605   6.439   2.754   2.134
 3902SOL    HW212606   6.492   2.908   2.140
 3903SOL     OW12607   3.472   6.613   0.214
 3903SOL    HW112608   3.493   6.621   0.311
 3903SOL    HW212609   3.531   6.545   0.172
 3904SOL     OW12610   1.893   0.586   6.689
 3904SOL    HW112611   1.820   0.650   6.713
 3904SOL    HW212612   1.858   0.492   6.694
 3905SOL     OW12613   6.720   6.496   5.850
 3905SOL    HW112614   6.744   6.499   5.753
 3905SOL    HW212615   6.775   6.563   5.900
 3906SOL     OW12616   5.791   6.581   6.106
 3906SOL    HW112617   5.798   6.623   6.015
 3906SOL    HW212618   5.872   6.604   6.160
 3907SOL     OW12619   5.854   1.025   4.212
 3907SOL    HW112620   5.862   1.030   4.312
 3907SOL    HW212621   5.945   1.030   4.171
 3908SOL     OW12622   0.458   2.496   6.890
 3908SOL    HW112623   0.556   2.512   6.886
 3908SOL    HW212624   0.417   2.513   6.800
 3909SOL     OW12625   5.978   5.798   4.560
 3909SOL    HW112626   5.930   5.767   4.642
 3909SOL    HW212627   6.047   5.865   4.586
 3910SOL     OW12628   3.354   3.448   2.202
 3910SOL    HW112629   3.405   3.517   2.252
 3910SOL    HW212630   3.322   3.377   2.265
 3911SOL     OW12631   6.028   1.525   5.194
 3911SOL    HW112632   6.063   1.541   5.102
 3911SOL    HW212633   6.040   1.429   5.219
 3912SOL     OW12634   5.843   0.106   5.252
 3912SOL    HW112635   5.887   0.150   5.330
 3912SOL    HW212636   5.908   0.100   5.176
 3913SOL     OW12637   2.489   6.264   6.284
 3913SOL    HW112638   2.497   6.205   6.364
 3913SOL    HW212639   2.400   6.310   6.284
 3914SOL     OW12640   2.902   0.836   1.362
 3914SOL    HW112641   2.872   0.787   1.444
 3914SOL    HW212642   2.937   0.926   1.388
 3915SOL     OW12643   5.329   6.393   0.984
 3915SOL    HW112644   5.385   6.471   1.013
 3915SOL    HW212645   5.343   6.316   1.046
 3916SOL     OW12646   1.005   6.950   3.858
 3916SOL    HW112647   1.091   6.999   3.872
 3916SOL    HW212648   0.978   6.906   3.943
 3917SOL     OW12649   6.827   6.575   6.794
 3917SOL    HW112650   6.759   6.561   6.866
 3917SOL    HW212651   6.796   6.648   6.732
 3918SOL     OW12652   5.649   5.505   1.273
 3918SOL    HW112653   5.744   5.523   1.298
 3918SOL    HW212654   5.605   5.590   1.246
 3919SOL     OW12655   4.761   6.730   0.314
 3919SOL    HW112656   4.835   6.668   0.286
 3919SOL    HW212657   4.801   6.816   0.345
 3920SOL     OW12658   2.712   3.354   0.638
 3920SOL    HW112659   2.803   3.395   0.627
 3920SOL    HW212660   2.662   3.404   0.710
 3921SOL     OW12661   6.858   3.141   1.126
 3921SOL    HW112662   6.831   3.137   1.222
 3921SOL    HW212663   6.922   3.066   1.106
 3922SOL     OW12664   6.755   3.707   1.899
 3922SOL    HW112665   6.840   3.669   1.936
 3922SOL    HW212666   6.752   3.805   1.916
 3923SOL     OW12667   0.726   1.247   0.350
 3923SOL    HW112668   0.705   1.339   0.384
 3923SOL    HW212669   0.644   1.190   0.357
 3924SOL     OW12670   5.293   5.172   3.717
 3924SOL    HW112671   5.315   5.247   3.779
 3924SOL    HW212672   5.303   5.203   3.622
 3925SOL     OW12673   1.881   5.232   1.238
 3925SOL    HW112674   1.927   5.277   1.161
 3925SOL    HW212675   1.892   5.133   1.229
 3926SOL     OW12676   5.603   4.979   2.082
 3926SOL    HW112677   5.561   4.889   2.072
 3926SOL    HW212678   5.533   5.050   2.069
 3927SOL     OW12679   6.332   2.686   4.936
 3927SOL    HW112680   6.284   2.749   4.874
 3927SOL    HW212681   6.329   2.593   4.898
 3928SOL     OW12682   3.837   5.783   6.699
 3928SOL    HW112683   3.795   5.839   6.771
 3928SOL    HW212684   3.935   5.802   6.696
 3929SOL     OW12685   0.194   0.491   4.585
 3929SOL    HW112686   0.179   0.552   4.662
 3929SOL    HW212687   0.110   0.481   4.533
 3930SOL     OW12688   3.030   2.162   4.404
 3930SOL    HW112689   2.948   2.210   4.436
 3930SOL    HW212690   3.046   2.081   4.461
 3931SOL     OW12691   1.704   1.635   1.386
 3931SOL    HW112692   1.775   1.651   1.455
 3931SOL    HW212693   1.648   1.557   1.412
 3932SOL     OW12694   0.914   4.282   3.981
 3932SOL    HW112695   0.934   4.188   3.954
 3932SOL    HW212696   0.830   4.312   3.937
 3933SOL     OW12697   1.834   6.414   6.725
 3933SOL    HW112698   1.806   6.332   6.674
 3933SOL    HW212699   1.931   6.408   6.747
 3934SOL     OW12700   0.125   1.160   7.017
 3934SOL    HW112701   0.075   1.246   0.007
 3934SOL    HW212702   0.223   1.178   7.015
 3935SOL     OW12703   2.913   6.936   6.764
 3935SOL    HW112704   2.985   6.868   6.781
 3935SOL    HW212705   2.932   6.982   6.677
 3936SOL     OW12706   6.683   5.011   5.253
 3936SOL    HW112707   6.656   5.099   5.216
 3936SOL    HW212708   6.775   5.017   5.291
 3937SOL     OW12709   0.306   1.734   3.054
 3937SOL    HW112710   0.352   1.656   3.012
 3937SOL    HW212711   0.371   1.808   3.070
 3938SOL     OW12712   0.339   2.206   3.124
 3938SOL    HW112713   0.274   2.187   3.050
 3938SOL    HW212714   0.291   2.199   3.212
 3939SOL     OW12715   1.827   3.276   2.979
 3939SOL    HW112716   1.738   3.297   3.017
 3939SOL    HW212717   1.897   3.288   3.049
 3940SOL     OW12718   4.992   4.552   1.213
 3940SOL    HW112719   4.963   4.631   1.159
 3940SOL    HW212720   5.090   4.558   1.231
 3941SOL     OW12721   5.193   3.437   5.278
 3941SOL    HW112722   5.100   3.439   5.242
 3941SOL    HW212723   5.258   3.455   5.204
 3942SOL     OW12724   0.279   6.776   6.485
 3942SOL    HW112725   0.229   6.757   6.401
 3942SOL    HW212726   0.307   6.690   6.528
 3943SOL     OW12727   0.033   2.895   3.226
 3943SOL    HW112728   6.999   2.831   3.279
 3943SOL    HW212729   0.104   2.933   3.285
 3944SOL     OW12730   4.909   2.586   4.963
 3944SOL    HW112731   4.875   2.676   4.935
 3944SOL    HW212732   4.850   2.549   5.035
 3945SOL     OW12733   0.284   2.014   0.230
 3945SOL    HW112734   0.380   2.028   0.206
 3945SOL    HW212735   0.278   1.955   0.311
 3946SOL     OW12736   5.209   4.702   4.460
 3946SOL    HW112737   5.169   4.773   4.518
 3946SOL    HW212738   5.200   4.729   4.364
 3947SOL     OW12739   5.313   6.288   0.162
 3947SOL    HW112740   5.370   6.280   0.080
 3947SOL    HW212741   5.371   6.282   0.243
 3948SOL     OW12742   6.871   5.076   2.475
 3948SOL    HW112743   6.839   4.993   2.522
 3948SOL    HW212744   6.968   5.090   2.495
 3949SOL     OW12745   5.192   6.998   3.364
 3949SOL    HW112746   5.219   6.973   3.457
 3949SOL    HW212747   5.092   7.000   3.357
 3950SOL     OW12748   1.832   4.396   0.699
 3950SOL    HW112749   1.920   4.428   0.734
 3950SOL    HW212750   1.794   4.464   0.637
 3951SOL     OW12751   4.425   0.486   1.425
 3951SOL    HW112752   4.501   0.470   1.488
 3951SOL    HW212753   4.354   0.538   1.471
 3952SOL     OW12754   6.819   2.432   1.942
 3952SOL    HW112755   6.872   2.353   1.909
 3952SOL    HW212756   6.847   2.452   2.036
 3953SOL     OW12757   4.124   4.897   1.356
 3953SOL    HW112758   4.183   4.830   1.311
 3953SOL    HW212759   4.036   4.854   1.378
 3954SOL     OW12760   3.902   5.372   5.382
 3954SOL    HW112761   3.841   5.406   5.310
 3954SOL    HW212762   3.968   5.442   5.406
 3955SOL     OW12763   2.912   6.971   6.235
 3955SOL    HW112764   2.867   6.908   6.173
 3955SOL    HW212765   3.012   6.961   6.226
 3956SOL     OW12766   1.196   0.929   2.848
 3956SOL    HW112767   1.134   0.922   2.769
 3956SOL    HW212768   1.273   0.867   2.835
 3957SOL     OW12769   4.797   6.930   3.864
 3957SOL    HW112770   4.823   6.898   3.955
 3957SOL    HW212771   4.697   6.926   3.854
 3958SOL     OW12772   5.336   1.650   4.714
 3958SOL    HW112773   5.432   1.643   4.741
 3958SOL    HW212774   5.297   1.558   4.707
 3959SOL     OW12775   4.802   6.404   0.251
 3959SOL    HW112776   4.865   6.469   0.294
 3959SOL    HW212777   4.751   6.449   0.178
 3960SOL     OW12778   5.192   1.236   6.634
 3960SOL    HW112779   5.250   1.227   6.716
 3960SOL    HW212780   5.166   1.145   6.601
 3961SOL     OW12781   5.551   1.243   2.466
 3961SOL    HW112782   5.610   1.179   2.417
 3961SOL    HW212783   5.477   1.273   2.404
 3962SOL     OW12784   2.377   5.046   6.672
 3962SOL    HW112785   2.324   5.117   6.718
 3962SOL    HW212786   2.325   5.009   6.595
 3963SOL     OW12787   4.562   5.450   2.948
 3963SOL    HW112788   4.518   5.534   2.980
 3963SOL    HW212789   4.604   5.467   2.859
 3964SOL     OW12790   4.151   4.729   3.471
 3964SOL    HW112791   4.227   4.720   3.535
 3964SOL    HW212792   4.158   4.660   3.400
 3965SOL     OW12793   4.939   2.984   4.504
 3965SOL    HW112794   4.894   3.010   4.589
 3965SOL    HW212795   5.038   2.981   4.517
 3966SOL     OW12796   4.074   5.925   6.677
 3966SOL    HW112797   4.150   5.948   6.737
 3966SOL    HW212798   4.109   5.878   6.596
 3967SOL     OW12799   2.142   4.022   2.111
 3967SOL    HW112800   2.147   3.958   2.034
 3967SOL    HW212801   2.088   4.102   2.085
 3968SOL     OW12802   4.559   0.806   0.735
 3968SOL    HW112803   4.561   0.849   0.645
 3968SOL    HW212804   4.615   0.723   0.734
 3969SOL     OW12805   0.737   4.519   2.219
 3969SOL    HW112806   0.836   4.518   2.201
 3969SOL    HW212807   0.706   4.426   2.237
 3970SOL     OW12808   5.325   6.295   3.354
 3970SOL    HW112809   5.316   6.217   3.416
 3970SOL    HW212810   5.251   6.292   3.287
 3971SOL     OW12811   3.161   5.122   3.888
 3971SOL    HW112812   3.250   5.165   3.872
 3971SOL    HW212813   3.174   5.025   3.907
 3972SOL     OW12814   1.435   3.905   0.511
 3972SOL    HW112815   1.407   3.864   0.597
 3972SOL    HW212816   1.507   3.973   0.527
 3973SOL     OW12817   1.479   5.570   6.288
 3973SOL    HW112818   1.547   5.641   6.270
 3973SOL    HW212819   1.405   5.576   6.221
 3974SOL     OW12820   2.016   6.687   5.282
 3974SOL    HW112821   2.104   6.680   5.235
 3974SOL    HW212822   1.969   6.599   5.280
 3975SOL     OW12823   5.155   1.306   6.098
 3975SOL    HW112824   5.143   1.405   6.092
 3975SOL    HW212825   5.206   1.283   6.181
 3976SOL     OW12826   1.803   6.077   2.230
 3976SOL    HW112827   1.825   6.171   2.203
 3976SOL    HW212828   1.709   6.073   2.264
 3977SOL     OW12829   1.998   3.293   6.004
 3977SOL    HW112830   2.052   3.311   6.087
 3977SOL    HW212831   1.935   3.369   5.988
 3978SOL     OW12832   5.846   5.434   3.271
 3978SOL    HW112833   5.866   5.395   3.182
 3978SOL    HW212834   5.894   5.382   3.342
 3979SOL     OW12835   4.143   1.138   6.779
 3979SOL    HW112836   4.054   1.175   6.806
 3979SOL    HW212837   4.139   1.038   6.776
 3980SOL     OW12838   5.786   6.241   6.587
 3980SOL    HW112839   5.687   6.243   6.576
 3980SOL    HW212840   5.829   6.222   6.498
 3981SOL     OW12841   3.591   6.544   0.470
 3981SOL    HW112842   3.687   6.541   0.442
 3981SOL    HW212843   3.557   6.451   0.484
 3982SOL     OW12844   2.513   6.536   3.437
 3982SOL    HW112845   2.517   6.552   3.339
 3982SOL    HW212846   2.606   6.523   3.473
 3983SOL     OW12847   5.063   4.759   4.211
 3983SOL    HW112848   5.044   4.670   4.254
 3983SOL    HW212849   4.979   4.796   4.172
 3984SOL     OW12850   6.790   1.069   1.921
 3984SOL    HW112851   6.812   0.972   1.924
 3984SOL    HW212852   6.874   1.123   1.927
 3985SOL     OW12853   2.817   4.802   6.794
 3985SOL    HW112854   2.849   4.734   6.860
 3985SOL    HW212855   2.729   4.773   6.757
 3986SOL     OW12856   5.122   1.371   2.566
 3986SOL    HW112857   5.202   1.429   2.548
 3986SOL    HW212858   5.133   1.283   2.520
 3987SOL     OW12859   3.862   5.004   3.845
 3987SOL    HW112860   3.925   4.958   3.783
 3987SOL    HW212861   3.901   5.091   3.875
 3988SOL     OW12862   3.044   4.898   0.008
 3988SOL    HW112863   2.958   4.860   6.996
 3988SOL    HW212864   3.051   4.879   0.106
 3989SOL     OW12865   6.690   2.467   6.713
 3989SOL    HW112866   6.726   2.557   6.688
 3989SOL    HW212867   6.611   2.478   6.772
 3990SOL     OW12868   4.340   2.376   2.450
 3990SOL    HW112869   4.356   2.415   2.359
 3990SOL    HW212870   4.386   2.432   2.519
 3991SOL     OW12871   6.851   1.309   2.159
 3991SOL    HW112872   6.776   1.273   2.214
 3991SOL    HW212873   6.916   1.235   2.139
 3992SOL     OW12874   3.390   1.399   0.117
 3992SOL    HW112875   3.363   1.495   0.123
 3992SOL    HW212876   3.490   1.393   0.118
 3993SOL     OW12877   1.355   3.092   1.937
 3993SOL    HW112878   1.384   3.035   1.861
 3993SOL    HW212879   1.409   3.070   2.018
 3994SOL     OW12880   2.565   6.832   6.234
 3994SOL    HW112881   2.467   6.811   6.225
 3994SOL    HW212882   2.576   6.930   6.252
 3995SOL     OW12883   2.274   4.213   6.018
 3995SOL    HW112884   2.302   4.127   6.061
 3995SOL    HW212885   2.231   4.194   5.930
 3996SOL     OW12886   0.664   6.495   4.963
 3996SOL    HW112887   0.595   6.545   4.910
 3996SOL    HW212888   0.651   6.514   5.061
 3997SOL     OW12889   5.764   2.004   3.094
 3997SOL    HW112890   5.700   2.068   3.136
 3997SOL    HW212891   5.751   1.913   3.134
 3998SOL     OW12892   3.936   1.150   3.829
 3998SOL    HW112893   4.021   1.103   3.853
 3998SOL    HW212894   3.863   1.120   3.890
 3999SOL     OW12895   5.922   2.528   3.863
 3999SOL    HW112896   5.996   2.494   3.806
 3999SOL    HW212897   5.954   2.539   3.957
 4000SOL     OW12898   3.020   0.252   3.609
 4000SOL    HW112899   2.937   0.256   3.552
 4000SOL    HW212900   3.057   0.344   3.620
 4001SOL     OW12901   2.611   1.640   4.037
 4001SOL    HW112902   2.526   1.689   4.058
 4001SOL    HW212903   2.672   1.699   3.984
 4002SOL     OW12904   3.462   4.226   1.248
 4002SOL    HW112905   3.480   4.312   1.202
 4002SOL    HW212906   3.390   4.176   1.200
 4003SOL     OW12907   3.067   0.253   3.969
 4003SOL    HW112908   2.990   0.227   3.911
 4003SOL    HW212909   3.035   0.317   4.039
 4004SOL     OW12910   5.773   2.103   4.394
 4004SOL    HW112911   5.710   2.154   4.452
 4004SOL    HW212912   5.793   2.014   4.435
 4005SOL     OW12913   5.188   5.180   6.483
 4005SOL    HW112914   5.152   5.113   6.547
 4005SOL    HW212915   5.287   5.167   6.473
 4006SOL     OW12916   4.143   5.371   2.178
 4006SOL    HW112917   4.140   5.275   2.150
 4006SOL    HW212918   4.081   5.425   2.121
 4007SOL     OW12919   0.221   2.876   6.903
 4007SOL    HW112920   0.150   2.811   6.874
 4007SOL    HW212921   0.213   2.960   6.849
 4008SOL     OW12922   2.611   2.100   4.797
 4008SOL    HW112923   2.562   2.130   4.879
 4008SOL    HW212924   2.680   2.168   4.772
 4009SOL     OW12925   4.521   3.050   1.358
 4009SOL    HW112926   4.556   2.958   1.341
 4009SOL    HW212927   4.482   3.054   1.450
 4010SOL     OW12928   2.484   2.937   1.346
 4010SOL    HW112929   2.576   2.919   1.311
 4010SOL    HW212930   2.454   2.858   1.400
 4011SOL     OW12931   1.185   1.706   2.043
 4011SOL    HW112932   1.167   1.752   1.956
 4011SOL    HW212933   1.273   1.659   2.037
 4012SOL     OW12934   6.657   4.420   1.813
 4012SOL    HW112935   6.694   4.366   1.888
 4012SOL    HW212936   6.679   4.516   1.827
 4013SOL     OW12937   3.668   1.867   4.905
 4013SOL    HW112938   3.654   1.810   4.986
 4013SOL    HW212939   3.765   1.868   4.881
 4014SOL     OW12940   5.733   6.422   2.388
 4014SOL    HW112941   5.668   6.446   2.316
 4014SOL    HW212942   5.775   6.334   2.366
 4015SOL     OW12943   5.257   4.208   6.212
 4015SOL    HW112944   5.215   4.278   6.269
 4015SOL    HW212945   5.290   4.249   6.127
 4016SOL     OW12946   2.629   5.948   6.028
 4016SOL    HW112947   2.598   6.039   6.001
 4016SOL    HW212948   2.627   5.940   6.128
 4017SOL     OW12949   6.982   6.189   0.625
 4017SOL    HW112950   6.885   6.173   0.643
 4017SOL    HW212951   7.019   6.112   0.573
 4018SOL     OW12952   4.032   5.897   2.244
 4018SOL    HW112953   4.016   5.804   2.274
 4018SOL    HW212954   4.120   5.903   2.197
 4019SOL     OW12955   5.445   4.519   3.027
 4019SOL    HW112956   5.375   4.525   3.098
 4019SOL    HW212957   5.419   4.577   2.949
 4020SOL     OW12958   4.619   2.136   5.352
 4020SOL    HW112959   4.604   2.187   5.437
 4020SOL    HW212960   4.536   2.136   5.298
 4021SOL     OW12961   3.503   5.181   6.687
 4021SOL    HW112962   3.492   5.122   6.768
 4021SOL    HW212963   3.428   5.246   6.683
 4022SOL     OW12964   4.749   1.847   0.099
 4022SOL    HW112965   4.736   1.934   0.146
 4022SOL    HW212966   4.846   1.824   0.096
 4023SOL     OW12967   6.448   2.202   4.721
 4023SOL    HW112968   6.489   2.288   4.692
 4023SOL    HW212969   6.457   2.193   4.820
 4024SOL     OW12970   3.786   5.629   4.349
 4024SOL    HW112971   3.703   5.605   4.400
 4024SOL    HW212972   3.802   5.562   4.277
 4025SOL     OW12973   0.740   3.726   3.402
 4025SOL    HW112974   0.809   3.654   3.397
 4025SOL    HW212975   0.688   3.717   3.487
 4026SOL     OW12976   5.411   6.034   4.113
 4026SOL    HW112977   5.408   6.124   4.157
 4026SOL    HW212978   5.497   6.023   4.064
 4027SOL     OW12979   3.494   4.478   1.703
 4027SOL    HW112980   3.528   4.490   1.609
 4027SOL    HW212981   3.540   4.543   1.763
 4028SOL     OW12982   1.770   1.989   4.204
 4028SOL    HW112983   1.679   2.011   4.240
 4028SOL    HW212984   1.797   1.898   4.235
 4029SOL     OW12985   2.144   3.910   5.459
 4029SOL    HW112986   2.163   3.827   5.406
 4029SOL    HW212987   2.225   3.969   5.459
 4030SOL     OW12988   0.257   1.932   5.495
 4030SOL    HW112989   0.315   1.862   5.452
 4030SOL    HW212990   0.266   1.927   5.594
 4031SOL     OW12991   4.348   5.505   3.885
 4031SOL    HW112992   4.436   5.460   3.867
 4031SOL    HW212993   4.284   5.483   3.812
 4032SOL     OW12994   5.784   6.854   3.720
 4032SOL    HW112995   5.719   6.789   3.758
 4032SOL    HW212996   5.735   6.919   3.662
 4033SOL     OW12997   3.004   3.312   4.274
 4033SOL    HW112998   3.016   3.220   4.312
 4033SOL    HW212999   3.075   3.330   4.206
 4034SOL     OW13000   6.657   1.515   4.516
 4034SOL    HW113001   6.561   1.526   4.542
 4034SOL    HW213002   6.715   1.525   4.598
 4035SOL     OW13003   0.490   4.208   6.468
 4035SOL    HW113004   0.559   4.154   6.514
 4035SOL    HW213005   0.458   4.281   6.529
 4036SOL     OW13006   6.139   6.342   2.925
 4036SOL    HW113007   6.187   6.404   2.862
 4036SOL    HW213008   6.193   6.259   2.937
 4037SOL     OW13009   0.943   3.355   6.522
 4037SOL    HW113010   0.900   3.390   6.439
 4037SOL    HW213011   0.956   3.256   6.514
 4038SOL     OW13012   5.313   4.645   3.263
 4038SOL    HW113013   5.215   4.630   3.277
 4038SOL    HW213014   5.363   4.622   3.347
 4039SOL     OW13015   5.581   6.252   0.297
 4039SOL    HW113016   5.673   6.259   0.334
 4039SOL    HW213017   5.516   6.233   0.371
 4040SOL     OW13018   3.565   6.798   1.359
 4040SOL    HW113019   3.510   6.715   1.360
 4040SOL    HW213020   3.644   6.785   1.299
 4041SOL     OW13021   1.081   6.347   3.497
 4041SOL    HW113022   1.133   6.264   3.477
 4041SOL    HW213023   1.138   6.409   3.550
 4042SOL     OW13024   5.779   5.337   1.697
 4042SOL    HW113025   5.725   5.270   1.747
 4042SOL    HW213026   5.719   5.410   1.663
 4043SOL     OW13027   5.629   1.949   2.215
 4043SOL    HW113028   5.554   1.884   2.202
 4043SOL    HW213029   5.609   2.033   2.165
 4044SOL     OW13030   6.073   0.144   3.549
 4044SOL    HW113031   6.130   0.134   3.467
 4044SOL    HW213032   5.995   0.202   3.527
 4045SOL     OW13033   1.621   5.495   6.514
 4045SOL    HW113034   1.561   5.507   6.435
 4045SOL    HW213035   1.623   5.580   6.567
 4046SOL     OW13036   0.705   2.869   1.691
 4046SOL    HW113037   0.693   2.925   1.609
 4046SOL    HW213038   0.619   2.823   1.713
 4047SOL     OW13039   3.107   3.771   1.741
 4047SOL    HW113040   3.129   3.850   1.798
 4047SOL    HW213041   3.045   3.710   1.792
 4048SOL     OW13042   4.937   0.339   0.912
 4048SOL    HW113043   4.973   0.310   0.823
 4048SOL    HW213044   4.837   0.333   0.911
 4049SOL     OW13045   5.562   6.614   5.387
 4049SOL    HW113046   5.464   6.616   5.405
 4049SOL    HW213047   5.589   6.699   5.342
 4050SOL     OW13048   1.504   6.521   0.763
 4050SOL    HW113049   1.568   6.572   0.820
 4050SOL    HW213050   1.547   6.437   0.730
 4051SOL     OW13051   3.279   4.226   0.854
 4051SOL    HW113052   3.378   4.241   0.852
 4051SOL    HW213053   3.237   4.289   0.919
 4052SOL     OW13054   0.292   0.905   0.496
 4052SOL    HW113055   0.287   1.002   0.517
 4052SOL    HW213056   0.201   0.864   0.501
 4053SOL     OW13057   3.483   4.872   3.683
 4053SOL    HW113058   3.471   4.905   3.777
 4053SOL    HW213059   3.513   4.777   3.685
 4054SOL     OW13060   3.534   2.521   0.971
 4054SOL    HW113061   3.443   2.562   0.966
 4054SOL    HW213062   3.562   2.513   1.067
 4055SOL     OW13063   3.712   1.933   5.939
 4055SOL    HW113064   3.641   1.941   5.869
 4055SOL    HW213065   3.697   2.001   6.010
 4056SOL     OW13066   3.670   3.411   0.060
 4056SOL    HW113067   3.655   3.506   0.032
 4056SOL    HW213068   3.668   3.405   0.160
 4057SOL     OW13069   4.654   2.732   6.506
 4057SOL    HW113070   4.586   2.799   6.537
 4057SOL    HW213071   4.653   2.726   6.406
 4058SOL     OW13072   2.243   0.796   5.695
 4058SOL    HW113073   2.193   0.762   5.616
 4058SOL    HW213074   2.263   0.893   5.683
 4059SOL     OW13075   1.216   1.980   5.454
 4059SOL    HW113076   1.291   1.920   5.426
 4059SOL    HW213077   1.231   2.012   5.547
 4060SOL     OW13078   4.534   5.092   4.324
 4060SOL    HW113079   4.600   5.139   4.266
 4060SOL    HW213080   4.472   5.158   4.365
 4061SOL     OW13081   3.025   3.756   2.098
 4061SOL    HW113082   3.015   3.855   2.106
 4061SOL    HW213083   2.987   3.712   2.179
 4062SOL     OW13084   3.143   0.909   3.139
 4062SOL    HW113085   3.221   0.872   3.089
 4062SOL    HW213086   3.070   0.932   3.074
 4063SOL     OW13087   2.705   5.214   6.263
 4063SOL    HW113088   2.606   5.198   6.260
 4063SOL    HW213089   2.745   5.197   6.173
 4064SOL     OW13090   6.667   1.319   3.496
 4064SOL    HW113091   6.602   1.266   3.442
 4064SOL    HW213092   6.755   1.272   3.498
 4065SOL     OW13093   6.688   6.935   0.301
 4065SOL    HW113094   6.725   6.920   0.392
 4065SOL    HW213095   6.721   0.000   0.266
 4066SOL     OW13096   6.100   4.575   1.496
 4066SOL    HW113097   6.157   4.535   1.424
 4066SOL    HW213098   6.004   4.563   1.472
 4067SOL     OW13099   6.146   1.538   2.652
 4067SOL    HW113100   6.158   1.624   2.703
 4067SOL    HW213101   6.143   1.558   2.554
 4068SOL     OW13102   6.017   0.268   3.962
 4068SOL    HW113103   5.934   0.227   3.999
 4068SOL    HW213104   6.011   0.368   3.967
 4069SOL     OW13105   5.437   5.102   0.913
 4069SOL    HW113106   5.482   5.014   0.926
 4069SOL    HW213107   5.383   5.100   0.829
 4070SOL     OW13108   1.649   3.869   3.509
 4070SOL    HW113109   1.745   3.879   3.538
 4070SOL    HW213110   1.598   3.951   3.537
 4071SOL     OW13111   1.109   0.173   4.003
 4071SOL    HW113112   1.010   0.157   3.998
 4071SOL    HW213113   1.144   0.188   3.910
 4072SOL     OW13114   1.682   0.055   4.871
 4072SOL    HW113115   1.617   7.018   4.822
 4072SOL    HW213116   1.772   0.012   4.870
 4073SOL     OW13117   2.270   5.926   0.279
 4073SOL    HW113118   2.358   5.936   0.232
 4073SOL    HW213119   2.254   5.829   0.300
 4074SOL     OW13120   1.527   2.867   0.865
 4074SOL    HW113121   1.473   2.951   0.871
 4074SOL    HW213122   1.623   2.890   0.853
 4075SOL     OW13123   4.655   1.816   3.171
 4075SOL    HW113124   4.563   1.809   3.134
 4075SOL    HW213125   4.722   1.807   3.097
 4076SOL     OW13126   1.667   3.711   4.420
 4076SOL    HW113127   1.609   3.781   4.462
 4076SOL    HW213128   1.639   3.698   4.325
 4077SOL     OW13129   3.855   1.116   1.110
 4077SOL    HW113130   3.774   1.080   1.063
 4077SOL    HW213131   3.841   1.213   1.130
 4078SOL     OW13132   6.304   3.990   1.233
 4078SOL    HW113133   6.220   4.021   1.278
 4078SOL    HW213134   6.382   4.009   1.292
 4079SOL     OW13135   0.249   0.762   3.652
 4079SOL    HW113136   0.197   0.800   3.729
 4079SOL    HW213137   0.204   0.787   3.566
 4080SOL     OW13138   3.383   3.755   1.804
 4080SOL    HW113139   3.402   3.686   1.734
 4080SOL    HW213140   3.323   3.715   1.874
 4081SOL     OW13141   2.007   2.034   5.643
 4081SOL    HW113142   1.918   2.065   5.680
 4081SOL    HW213143   2.037   1.953   5.693
 4082SOL     OW13144   1.244   2.802   4.529
 4082SOL    HW113145   1.272   2.724   4.473
 4082SOL    HW213146   1.247   2.886   4.474
 4083SOL     OW13147   5.320   5.179   2.841
 4083SOL    HW113148   5.372   5.257   2.805
 4083SOL    HW213149   5.271   5.134   2.766
 4084SOL     OW13150   4.554   0.887   3.453
 4084SOL    HW113151   4.595   0.863   3.365
 4084SOL    HW213152   4.486   0.958   3.440
 4085SOL     OW13153   2.935   5.150   1.949
 4085SOL    HW113154   2.948   5.099   2.034
 4085SOL    HW213155   2.907   5.086   1.877
 4086SOL     OW13156   6.267   5.362   5.791
 4086SOL    HW113157   6.186   5.327   5.744
 4086SOL    HW213158   6.341   5.375   5.726
 4087SOL     OW13159   2.821   0.004   2.476
 4087SOL    HW113160   2.758   6.950   2.461
 4087SOL    HW213161   2.907   6.992   2.513
 4088SOL     OW13162   0.429   1.581   5.796
 4088SOL    HW113163   0.374   1.621   5.870
 4088SOL    HW213164   0.481   1.654   5.751
 4089SOL     OW13165   0.372   0.225   3.826
 4089SOL    HW113166   0.304   0.168   3.872
 4089SOL    HW213167   0.384   0.310   3.876
 4090SOL     OW13168   2.938   0.441   5.715
 4090SOL    HW113169   3.028   0.441   5.671
 4090SOL    HW213170   2.890   0.526   5.693
 4091SOL     OW13171   2.021   5.583   1.482
 4091SOL    HW113172   1.974   5.523   1.417
 4091SOL    HW213173   1.995   5.678   1.464
 4092SOL     OW13174   4.972   3.186   4.013
 4092SOL    HW113175   4.935   3.161   4.102
 4092SOL    HW213176   4.960   3.284   3.998
 4093SOL     OW13177   4.099   5.365   2.956
 4093SOL    HW113178   4.097   5.462   2.931
 4093SOL    HW213179   4.192   5.331   2.949
 4094SOL     OW13180   6.538   5.692   6.587
 4094SOL    HW113181   6.560   5.747   6.506
 4094SOL    HW213182   6.605   5.710   6.659
 4095SOL     OW13183   0.473   5.111   6.833
 4095SOL    HW113184   0.557   5.082   6.878
 4095SOL    HW213185   0.431   5.186   6.885
 4096SOL     OW13186   1.672   1.733   6.619
 4096SOL    HW113187   1.613   1.669   6.669
 4096SOL    HW213188   1.625   1.821   6.610
 4097SOL     OW13189   7.009   4.920   4.783
 4097SOL    HW113190   6.971   4.828   4.795
 4097SOL    HW213191   0.084   4.919   4.802
 4098SOL     OW13192   2.038   4.742   3.268
 4098SOL    HW113193   1.973   4.731   3.343
 4098SOL    HW213194   2.012   4.821   3.213
 4099SOL     OW13195   4.762   4.631   6.014
 4099SOL    HW113196   4.853   4.671   6.014
 4099SOL    HW213197   4.698   4.692   5.968
 4100SOL     OW13198   1.198   0.162   3.745
 4100SOL    HW113199   1.186   0.080   3.689
 4100SOL    HW213200   1.122   0.225   3.727
 4101SOL     OW13201   6.169   0.240   0.536
 4101SOL    HW113202   6.096   0.234   0.604
 4101SOL    HW213203   6.145   0.307   0.466
 4102SOL     OW13204   1.329   1.057   0.079
 4102SOL    HW113205   1.343   0.993   0.153
 4102SOL    HW213206   1.361   1.148   0.107
 4103SOL     OW13207   1.492   6.580   2.497
 4103SOL    HW113208   1.538   6.652   2.548
 4103SOL    HW213209   1.395   6.579   2.521
 4104SOL     OW13210   0.727   5.961   4.464
 4104SOL    HW113211   0.710   6.039   4.525
 4104SOL    HW213212   0.825   5.948   4.453
 4105SOL     OW13213   4.919   1.220   1.237
 4105SOL    HW113214   4.950   1.204   1.330
 4105SOL    HW213215   4.883   1.135   1.199
 4106SOL     OW13216   0.204   2.343   3.852
 4106SOL    HW113217   0.137   2.344   3.778
 4106SOL    HW213218   0.176   2.404   3.925
 4107SOL     OW13219   0.130   6.468   6.725
 4107SOL    HW113220   0.046   6.414   6.736
 4107SOL    HW213221   0.195   6.445   6.797
 4108SOL     OW13222   6.386   5.322   4.120
 4108SOL    HW113223   6.355   5.370   4.201
 4108SOL    HW213224   6.469   5.365   4.085
 4109SOL     OW13225   5.996   6.563   3.031
 4109SOL    HW113226   6.077   6.516   2.997
 4109SOL    HW213227   5.921   6.497   3.040
 4110SOL     OW13228   4.386   4.082   0.321
 4110SOL    HW113229   4.370   4.052   0.227
 4110SOL    HW213230   4.364   4.179   0.329
 4111SOL     OW13231   6.460   4.170   3.836
 4111SOL    HW113232   6.407   4.230   3.896
 4111SOL    HW213233   6.443   4.075   3.860
 4112SOL     OW13234   4.944   6.587   5.640
 4112SOL    HW113235   5.043   6.596   5.644
 4112SOL    HW213236   4.902   6.675   5.664
 4113SOL     OW13237   4.190   4.931   5.031
 4113SOL    HW113238   4.215   4.891   5.119
 4113SOL    HW213239   4.197   4.861   4.959
 4114SOL     OW13240   0.185   1.634   2.137
 4114SOL    HW113241   0.154   1.573   2.064
 4114SOL    HW213242   0.242   1.707   2.098
 4115SOL     OW13243   3.814   4.875   4.243
 4115SOL    HW113244   3.754   4.882   4.323
 4115SOL    HW213245   3.762   4.841   4.165
 4116SOL     OW13246   5.533   2.615   3.428
 4116SOL    HW113247   5.554   2.697   3.375
 4116SOL    HW213248   5.511   2.641   3.522
 4117SOL     OW13249   1.243   2.121   3.019
 4117SOL    HW113250   1.151   2.089   3.040
 4117SOL    HW213251   1.289   2.053   2.962
 4118SOL     OW13252   0.108   6.537   6.037
 4118SOL    HW113253   0.161   6.608   5.989
 4118SOL    HW213254   0.168   6.460   6.058
 4119SOL     OW13255   2.012   1.371   3.728
 4119SOL    HW113256   1.995   1.419   3.814
 4119SOL    HW213257   1.930   1.320   3.702
 4120SOL     OW13258   1.567   1.084   6.359
 4120SOL    HW113259   1.563   1.097   6.458
 4120SOL    HW213260   1.551   0.987   6.337
 4121SOL     OW13261   6.455   6.743   1.811
 4121SOL    HW113262   6.531   6.678   1.806
 4121SOL    HW213263   6.417   6.756   1.719
 4122SOL     OW13264   6.808   4.927   3.873
 4122SOL    HW113265   6.801   4.917   3.774
 4122SOL    HW213266   6.732   4.982   3.906
 4123SOL     OW13267   3.854   5.221   2.340
 4123SOL    HW113268   3.926   5.241   2.407
 4123SOL    HW213269   3.766   5.251   2.376
 4124SOL     OW13270   6.760   5.654   0.097
 4124SOL    HW113271   6.829   5.705   0.045
 4124SOL    HW213272   6.683   5.715   0.118
 4125SOL     OW13273   5.686   1.824   1.904
 4125SOL    HW113274   5.604   1.775   1.875
 4125SOL    HW213275   5.707   1.800   1.999
 4126SOL     OW13276   1.378   3.507   2.368
 4126SOL    HW113277   1.335   3.426   2.329
 4126SOL    HW213278   1.309   3.577   2.386
 4127SOL     OW13279   3.987   1.761   3.863
 4127SOL    HW113280   3.970   1.838   3.924
 4127SOL    HW213281   3.997   1.795   3.769
 4128SOL     OW13282   0.095   3.348   0.540
 4128SOL    HW113283   0.139   3.329   0.627
 4128SOL    HW213284   0.042   3.268   0.511
 4129SOL     OW13285   2.239   2.511   0.477
 4129SOL    HW113286   2.241   2.608   0.503
 4129SOL    HW213287   2.226   2.503   0.379
 4130SOL     OW13288   5.220   2.646   1.214
 4130SOL    HW113289   5.311   2.629   1.253
 4130SOL    HW213290   5.226   2.649   1.114
 4131SOL     OW13291   4.532   0.644   2.954
 4131SOL    HW113292   4.518   0.741   2.930
 4131SOL    HW213293   4.450   0.592   2.928
 4132SOL     OW13294   6.626   4.586   3.956
 4132SOL    HW113295   6.669   4.626   4.037
 4132SOL    HW213296   6.697   4.554   3.894
 4133SOL     OW13297   5.663   0.027   2.651
 4133SOL    HW113298   5.701   0.013   2.743
 4133SOL    HW213299   5.581   0.083   2.658
 4134SOL     OW13300   1.987   3.256   1.028
 4134SOL    HW113301   1.994   3.179   1.091
 4134SOL    HW213302   2.078   3.297   1.016
 4135SOL     OW13303   0.092   1.563   2.631
 4135SOL    HW113304   0.047   1.616   2.559
 4135SOL    HW213305   0.033   1.486   2.658
 4136SOL     OW13306   1.688   4.724   1.859
 4136SOL    HW113307   1.631   4.713   1.939
 4136SOL    HW213308   1.728   4.816   1.859
 4137SOL     OW13309   1.963   2.306   0.035
 4137SOL    HW113310   1.947   2.324   0.132
 4137SOL    HW213311   2.050   2.258   0.024
 4138SOL     OW13312   4.948   6.576   0.654
 4138SOL    HW113313   5.030   6.530   0.688
 4138SOL    HW213314   4.957   6.675   0.664
 4139SOL     OW13315   1.968   2.780   2.746
 4139SOL    HW113316   2.010   2.776   2.656
 4139SOL    HW213317   1.982   2.871   2.786
 4140SOL     OW13318   2.499   2.704   5.478
 4140SOL    HW113319   2.401   2.709   5.494
 4140SOL    HW213320   2.536   2.622   5.524
 4141SOL     OW13321   4.940   6.703   6.662
 4141SOL    HW113322   4.931   6.701   6.563
 4141SOL    HW213323   4.970   6.794   6.691
 4142SOL     OW13324   7.014   4.161   3.060
 4142SOL    HW113325   6.918   4.178   3.039
 4142SOL    HW213326   7.021   4.109   3.145
 4143SOL     OW13327   5.888   3.152   0.306
 4143SOL    HW113328   5.811   3.121   0.250
 4143SOL    HW213329   5.940   3.073   0.338
 4144SOL     OW13330   5.579   2.206   0.894
 4144SOL    HW113331   5.646   2.138   0.924
 4144SOL    HW213332   5.491   2.187   0.936
 4145SOL     OW13333   0.113   6.935   1.728
 4145SOL    HW113334   0.164   6.990   1.662
 4145SOL    HW213335   0.045   6.879   1.680
 4146SOL     OW13336   5.190   6.505   3.494
 4146SOL    HW113337   5.268   6.464   3.447
 4146SOL    HW213338   5.118   6.526   3.428
 4147SOL     OW13339   5.122   4.105   5.869
 4147SOL    HW113340   5.135   4.204   5.872
 4147SOL    HW213341   5.025   4.083   5.867
 4148SOL     OW13342   2.996   1.299   6.084
 4148SOL    HW113343   2.915   1.275   6.137
 4148SOL    HW213344   3.062   1.225   6.089
 4149SOL     OW13345   1.997   2.700   0.242
 4149SOL    HW113346   1.976   2.767   0.170
 4149SOL    HW213347   2.068   2.638   0.209
 4150SOL     OW13348   6.080   2.134   5.772
 4150SOL    HW113349   6.044   2.166   5.860
 4150SOL    HW213350   6.067   2.205   5.703
 4151SOL     OW13351   2.457   6.785   4.182
 4151SOL    HW113352   2.405   6.709   4.143
 4151SOL    HW213353   2.512   6.751   4.259
 4152SOL     OW13354   3.040   5.096   1.166
 4152SOL    HW113355   2.964   5.158   1.151
 4152SOL    HW213356   3.037   5.060   1.259
 4153SOL     OW13357   6.824   5.046   1.564
 4153SOL    HW113358   6.917   5.054   1.528
 4153SOL    HW213359   6.827   5.001   1.654
 4154SOL     OW13360   1.212   6.052   4.333
 4154SOL    HW113361   1.229   6.132   4.276
 4154SOL    HW213362   1.154   6.079   4.411
 4155SOL     OW13363   0.745   2.033   1.361
 4155SOL    HW113364   0.691   2.042   1.277
 4155SOL    HW213365   0.820   2.099   1.360
 4156SOL     OW13366   6.708   5.281   5.163
 4156SOL    HW113367   6.775   5.341   5.121
 4156SOL    HW213368   6.619   5.294   5.118
 4157SOL     OW13369   6.727   6.195   2.098
 4157SOL    HW113370   6.682   6.272   2.144
 4157SOL    HW213371   6.826   6.211   2.095
 4158SOL     OW13372   1.292   2.707   2.494
 4158SOL    HW113373   1.353   2.660   2.557
 4158SOL    HW213374   1.249   2.641   2.433
 4159SOL     OW13375   3.073   1.274   3.927
 4159SOL    HW113376   3.016   1.196   3.956
 4159SOL    HW213377   3.078   1.340   4.002
 4160SOL     OW13378   6.416   6.995   6.472
 4160SOL    HW113379   6.368   6.993   6.384
 4160SOL    HW213380   6.390   0.054   6.523
 4161SOL     OW13381   3.170   2.479   1.411
 4161SOL    HW113382   3.184   2.574   1.384
 4161SOL    HW213383   3.101   2.475   1.483
 4162SOL     OW13384   5.920   5.826   1.537
 4162SOL    HW113385   5.991   5.896   1.524
 4162SOL    HW213386   5.847   5.863   1.594
 4163SOL     OW13387   3.960   6.579   1.029
 4163SOL    HW113388   3.891   6.624   1.086
 4163SOL    HW213389   3.927   6.574   0.934
 4164SOL     OW13390   6.512   0.044   4.887
 4164SOL    HW113391   6.456   0.109   4.837
 4164SOL    HW213392   6.488   6.973   4.859
 4165SOL     OW13393   4.886   1.168   5.337
 4165SOL    HW113394   4.810   1.224   5.371
 4165SOL    HW213395   4.875   1.151   5.240
 4166SOL     OW13396   6.108   0.923   2.084
 4166SOL    HW113397   6.120   0.926   2.183
 4166SOL    HW213398   6.165   0.993   2.041
 4167SOL     OW13399   4.263   5.283   5.485
 4167SOL    HW113400   4.237   5.256   5.393
 4167SOL    HW213401   4.220   5.370   5.508
 4168SOL     OW13402   5.165   4.419   6.770
 4168SOL    HW113403   5.205   4.353   6.706
 4168SOL    HW213404   5.096   4.474   6.722
 4169SOL     OW13405   4.996   3.801   5.143
 4169SOL    HW113406   4.926   3.733   5.121
 4169SOL    HW213407   5.070   3.797   5.076
 4170SOL     OW13408   6.129   3.764   4.699
 4170SOL    HW113409   6.146   3.862   4.690
 4170SOL    HW213410   6.046   3.740   4.650
 4171SOL     OW13411   0.877   3.560   0.806
 4171SOL    HW113412   0.858   3.532   0.712
 4171SOL    HW213413   0.847   3.654   0.820
 4172SOL     OW13414   2.602   4.105   0.536
 4172SOL    HW113415   2.536   4.166   0.492
 4172SOL    HW213416   2.622   4.028   0.475
 4173SOL     OW13417   4.993   2.760   5.180
 4173SOL    HW113418   4.903   2.718   5.166
 4173SOL    HW213419   5.027   2.796   5.093
 4174SOL     OW13420   4.147   0.501   4.272
 4174SOL    HW113421   4.202   0.533   4.349
 4174SOL    HW213422   4.153   0.566   4.196
 4175SOL     OW13423   1.641   4.542   6.618
 4175SOL    HW113424   1.546   4.560   6.642
 4175SOL    HW213425   1.651   4.448   6.585
 4176SOL     OW13426   5.280   6.465   6.583
 4176SOL    HW113427   5.309   6.528   6.655
 4176SOL    HW213428   5.358   6.441   6.525
 4177SOL     OW13429   4.548   4.435   3.498
 4177SOL    HW113430   4.490   4.450   3.418
 4177SOL    HW213431   4.504   4.472   3.580
 4178SOL     OW13432   3.558   5.779   2.179
 4178SOL    HW113433   3.519   5.689   2.200
 4178SOL    HW213434   3.492   5.850   2.206
 4179SOL     OW13435   4.948   3.096   4.750
 4179SOL    HW113436   4.923   3.165   4.818
 4179SOL    HW213437   5.041   3.113   4.718
 4180SOL     OW13438   5.083   3.565   0.130
 4180SOL    HW113439   5.163   3.515   0.162
 4180SOL    HW213440   5.005   3.503   0.122
 4181SOL     OW13441   4.992   0.046   5.716
 4181SOL    HW113442   5.019   7.007   5.790
 4181SOL    HW213443   4.999   0.140   5.748
 4182SOL     OW13444   6.798   6.249   4.247
 4182SOL    HW113445   6.710   6.231   4.202
 4182SOL    HW213446   6.788   6.326   4.309
 4183SOL     OW13447   3.045   1.512   1.940
 4183SOL    HW113448   3.024   1.535   2.036
 4183SOL    HW213449   2.960   1.484   1.894
 4184SOL     OW13450   3.061   5.845   3.645
 4184SOL    HW113451   3.046   5.793   3.561
 4184SOL    HW213452   2.975   5.890   3.671
 4185SOL     OW13453   6.158   3.752   3.320
 4185SOL    HW113454   6.190   3.677   3.262
 4185SOL    HW213455   6.191   3.839   3.284
 4186SOL     OW13456   1.368   6.062   0.224
 4186SOL    HW113457   1.444   6.015   0.179
 4186SOL    HW213458   1.314   5.995   0.276
 4187SOL     OW13459   1.692   3.768   0.083
 4187SOL    HW113460   1.614   3.787   0.143
 4187SOL    HW213461   1.743   3.690   0.119
 4188SOL     OW13462   4.726   0.026   6.702
 4188SOL    HW113463   4.659   7.005   6.761
 4188SOL    HW213464   4.732   6.999   6.615
 4189SOL     OW13465   4.766   5.721   2.944
 4189SOL    HW113466   4.701   5.711   3.019
 4189SOL    HW213467   4.859   5.702   2.978
 4190SOL     OW13468   0.352   0.151   0.948
 4190SOL    HW113469   0.279   0.087   0.973
 4190SOL    HW213470   0.332   0.241   0.988
 4191SOL     OW13471   4.549   4.447   6.135
 4191SOL    HW113472   4.473   4.387   6.110
 4191SOL    HW213473   4.562   4.515   6.063
 4192SOL     OW13474   1.680   2.436   2.079
 4192SOL    HW113475   1.776   2.451   2.099
 4192SOL    HW213476   1.662   2.456   1.982
 4193SOL     OW13477   6.654   0.673   0.953
 4193SOL    HW113478   6.592   0.611   0.905
 4193SOL    HW213479   6.619   0.767   0.945
 4194SOL     OW13480   4.522   0.874   5.302
 4194SOL    HW113481   4.563   0.799   5.354
 4194SOL    HW213482   4.527   0.854   5.204
 4195SOL     OW13483   4.440   5.984   1.805
 4195SOL    HW113484   4.427   6.012   1.709
 4195SOL    HW213485   4.537   5.983   1.826
 4196SOL     OW13486   6.926   2.298   3.141
 4196SOL    HW113487   6.910   2.305   3.240
 4196SOL    HW213488   7.001   2.359   3.115
 4197SOL     OW13489   3.453   6.502   6.175
 4197SOL    HW113490   3.386   6.507   6.101
 4197SOL    HW213491   3.414   6.451   6.252
 4198SOL     OW13492   6.560   0.784   2.305
 4198SOL    HW113493   6.560   0.801   2.404
 4198SOL    HW213494   6.589   0.867   2.257
 4199SOL     OW13495   1.438   4.023   6.117
 4199SOL    HW113496   1.375   4.074   6.176
 4199SOL    HW213497   1.387   3.984   6.040
 4200SOL     OW13498   4.699   0.680   4.870
 4200SOL    HW113499   4.769   0.620   4.830
 4200SOL    HW213500   4.649   0.727   4.798
 4201SOL     OW13501   5.635   0.294   3.784
 4201SOL    HW113502   5.619   0.206   3.830
 4201SOL    HW213503   5.668   0.278   3.691
 4202SOL     OW13504   4.140   5.710   0.453
 4202SOL    HW113505   4.205   5.744   0.520
 4202SOL    HW213506   4.157   5.612   0.438
 4203SOL     OW13507   5.897   5.650   0.049
 4203SOL    HW113508   5.814   5.704   0.044
 4203SOL    HW213509   5.950   5.661   6.987
 4204SOL     OW13510   3.275   3.625   5.783
 4204SOL    HW113511   3.259   3.527   5.780
 4204SOL    HW213512   3.367   3.645   5.747
 4205SOL     OW13513   3.720   5.491   5.242
 4205SOL    HW113514   3.713   5.424   5.168
 4205SOL    HW213515   3.631   5.503   5.286
 4206SOL     OW13516   1.838   1.991   4.797
 4206SOL    HW113517   1.773   2.058   4.834
 4206SOL    HW213518   1.842   1.912   4.858
 4207SOL     OW13519   2.217   2.272   1.501
 4207SOL    HW113520   2.180   2.256   1.592
 4207SOL    HW213521   2.284   2.202   1.478
 4208SOL     OW13522   1.941   3.643   5.194
 4208SOL    HW113523   2.035   3.643   5.161
 4208SOL    HW213524   1.884   3.586   5.134
 4209SOL     OW13525   0.284   6.254   2.734
 4209SOL    HW113526   0.302   6.351   2.747
 4209SOL    HW213527   0.185   6.237   2.741
 4210SOL     OW13528   4.115   3.512   4.661
 4210SOL    HW113529   4.115   3.417   4.692
 4210SOL    HW213530   4.086   3.516   4.566
 4211SOL     OW13531   3.627   2.197   5.279
 4211SOL    HW113532   3.551   2.258   5.300
 4211SOL    HW213533   3.591   2.113   5.238
 4212SOL     OW13534   6.693   1.575   3.363
 4212SOL    HW113535   6.760   1.647   3.381
 4212SOL    HW213536   6.723   1.489   3.405
 4213SOL     OW13537   3.428   0.619   2.879
 4213SOL    HW113538   3.480   0.629   2.795
 4213SOL    HW213539   3.447   0.530   2.920
 4214SOL     OW13540   0.914   5.113   4.330
 4214SOL    HW113541   0.962   5.116   4.418
 4214SOL    HW213542   0.918   5.203   4.287
 4215SOL     OW13543   4.662   6.436   5.001
 4215SOL    HW113544   4.612   6.458   4.918
 4215SOL    HW213545   4.679   6.338   5.005
 4216SOL     OW13546   2.305   0.210   2.627
 4216SOL    HW113547   2.281   0.146   2.700
 4216SOL    HW213548   2.386   0.263   2.655
 4217SOL     OW13549   1.003   0.552   2.080
 4217SOL    HW113550   1.065   0.539   2.157
 4217SOL    HW213551   0.992   0.466   2.031
 4218SOL     OW13552   3.523   1.373   1.358
 4218SOL    HW113553   3.549   1.357   1.262
 4218SOL    HW213554   3.545   1.467   1.383
 4219SOL     OW13555   3.838   6.373   3.970
 4219SOL    HW113556   3.848   6.274   3.970
 4219SOL    HW213557   3.755   6.398   4.021
 4220SOL     OW13558   4.589   2.150   1.554
 4220SOL    HW113559   4.677   2.197   1.565
 4220SOL    HW213560   4.604   2.051   1.555
 4221SOL     OW13561   6.480   5.689   6.096
 4221SOL    HW113562   6.466   5.614   6.032
 4221SOL    HW213563   6.548   5.662   6.164
 4222SOL     OW13564   5.311   2.007   3.535
 4222SOL    HW113565   5.328   1.954   3.618
 4222SOL    HW213566   5.342   1.955   3.456
 4223SOL     OW13567   3.894   4.252   1.700
 4223SOL    HW113568   3.988   4.256   1.664
 4223SOL    HW213569   3.867   4.343   1.732
 4224SOL     OW13570   5.057   4.156   4.850
 4224SOL    HW113571   5.148   4.129   4.817
 4224SOL    HW213572   5.068   4.230   4.917
 4225SOL     OW13573   0.825   2.325   5.148
 4225SOL    HW113574   0.863   2.417   5.148
 4225SOL    HW213575   0.725   2.330   5.152
 4226SOL     OW13576   1.042   5.532   4.765
 4226SOL    HW113577   1.073   5.517   4.859
 4226SOL    HW213578   1.010   5.445   4.726
 4227SOL     OW13579   4.904   5.784   1.821
 4227SOL    HW113580   4.974   5.786   1.892
 4227SOL    HW213581   4.854   5.697   1.826
 4228SOL     OW13582   1.187   5.709   4.623
 4228SOL    HW113583   1.130   5.639   4.666
 4228SOL    HW213584   1.167   5.798   4.663
 4229SOL     OW13585   5.786   4.983   6.562
 4229SOL    HW113586   5.776   5.082   6.553
 4229SOL    HW213587   5.852   4.963   6.634
 4230SOL     OW13588   1.496   0.231   2.387
 4230SOL    HW113589   1.458   0.234   2.294
 4230SOL    HW213590   1.446   0.164   2.442
 4231SOL     OW13591   5.495   0.816   5.454
 4231SOL    HW113592   5.399   0.814   5.483
 4231SOL    HW213593   5.539   0.731   5.483
 4232SOL     OW13594   2.307   5.519   3.596
 4232SOL    HW113595   2.267   5.589   3.656
 4232SOL    HW213596   2.400   5.546   3.571
 4233SOL     OW13597   5.879   6.473   3.567
 4233SOL    HW113598   5.866   6.485   3.666
 4233SOL    HW213599   5.948   6.538   3.534
 4234SOL     OW13600   2.265   5.676   5.746
 4234SOL    HW113601   2.243   5.620   5.666
 4234SOL    HW213602   2.351   5.724   5.730
 4235SOL     OW13603   6.611   4.480   5.656
 4235SOL    HW113604   6.513   4.465   5.672
 4235SOL    HW213605   6.631   4.464   5.559
 4236SOL     OW13606   0.386   5.170   2.495
 4236SOL    HW113607   0.414   5.186   2.400
 4236SOL    HW213608   0.395   5.255   2.547
 4237SOL     OW13609   6.604   4.019   4.222
 4237SOL    HW113610   6.681   3.962   4.194
 4237SOL    HW213611   6.550   3.970   4.291
 4238SOL     OW13612   1.581   0.940   2.977
 4238SOL    HW113613   1.622   1.004   2.912
 4238SOL    HW213614   1.487   0.967   2.995
 4239SOL     OW13615   4.141   1.045   3.088
 4239SOL    HW113616   4.164   1.108   3.014
 4239SOL    HW213617   4.074   1.087   3.149
 4240SOL     OW13618   1.168   5.264   0.475
 4240SOL    HW113619   1.253   5.213   0.478
 4240SOL    HW213620   1.114   5.235   0.396
 4241SOL     OW13621   6.841   1.959   0.290
 4241SOL    HW113622   6.924   1.927   0.337
 4241SOL    HW213623   6.775   1.991   0.357
 4242SOL     OW13624   2.700   1.992   4.396
 4242SOL    HW113625   2.632   1.966   4.464
 4242SOL    HW213626   2.733   2.085   4.416
 4243SOL     OW13627   5.231   0.801   2.870
 4243SOL    HW113628   5.204   0.898   2.866
 4243SOL    HW213629   5.240   0.765   2.777
 4244SOL     OW13630   3.772   3.585   2.140
 4244SOL    HW113631   3.698   3.584   2.207
 4244SOL    HW213632   3.738   3.625   2.054
 4245SOL     OW13633   0.222   1.876   5.761
 4245SOL    HW113634   0.155   1.948   5.780
 4245SOL    HW213635   0.303   1.889   5.817
 4246SOL     OW13636   6.479   3.629   3.001
 4246SOL    HW113637   6.476   3.633   3.100
 4246SOL    HW213638   6.418   3.699   2.963
 4247SOL     OW13639   0.095   6.246   5.115
 4247SOL    HW113640   0.134   6.298   5.191
 4247SOL    HW213641   0.164   6.184   5.078
 4248SOL     OW13642   1.519   2.527   5.613
 4248SOL    HW113643   1.515   2.569   5.523
 4248SOL    HW213644   1.612   2.533   5.650
 4249SOL     OW13645   6.448   3.021   5.567
 4249SOL    HW113646   6.384   3.091   5.536
 4249SOL    HW213647   6.507   3.058   5.639
 4250SOL     OW13648   6.908   5.139   3.470
 4250SOL    HW113649   6.897   5.056   3.416
 4250SOL    HW213650   6.852   5.212   3.430
 4251SOL     OW13651   5.717   4.125   0.565
 4251SOL    HW113652   5.700   4.029   0.590
 4251SOL    HW213653   5.811   4.133   0.529
 4252SOL     OW13654   6.429   6.028   5.005
 4252SOL    HW113655   6.470   6.004   5.093
 4252SOL    HW213656   6.337   6.066   5.021
 4253SOL     OW13657   4.648   1.117   1.658
 4253SOL    HW113658   4.570   1.168   1.621
 4253SOL    HW213659   4.619   1.066   1.738
 4254SOL     OW13660   1.669   3.192   1.469
 4254SOL    HW113661   1.571   3.192   1.487
 4254SOL    HW213662   1.686   3.225   1.376
 4255SOL     OW13663   5.874   2.743   3.716
 4255SOL    HW113664   5.875   2.706   3.623
 4255SOL    HW213665   5.889   2.668   3.781
 4256SOL     OW13666   1.368   0.075   1.432
 4256SOL    HW113667   1.368   7.022   1.498
 4256SOL    HW213668   1.456   0.122   1.435
 4257SOL     OW13669   3.311   1.712   5.319
 4257SOL    HW113670   3.374   1.714   5.397
 4257SOL    HW213671   3.277   1.619   5.306
 4258SOL     OW13672   5.746   6.938   2.151
 4258SOL    HW113673   5.768   6.938   2.249
 4258SOL    HW213674   5.677   6.868   2.132
 4259SOL     OW13675   2.512   1.422   6.826
 4259SOL    HW113676   2.435   1.376   6.870
 4259SOL    HW213677   2.478   1.492   6.763
 4260SOL     OW13678   4.098   5.757   3.675
 4260SOL    HW113679   4.056   5.804   3.598
 4260SOL    HW213680   4.069   5.800   3.761
 4261SOL     OW13681   2.465   6.611   1.821
 4261SOL    HW113682   2.401   6.687   1.804
 4261SOL    HW213683   2.417   6.524   1.811
 4262SOL     OW13684   1.803   5.058   6.025
 4262SOL    HW113685   1.810   5.090   5.930
 4262SOL    HW213686   1.746   4.975   6.027
 4263SOL     OW13687   2.205   6.213   4.892
 4263SOL    HW113688   2.221   6.311   4.888
 4263SOL    HW213689   2.158   6.183   4.809
 4264SOL     OW13690   6.634   1.910   0.499
 4264SOL    HW113691   6.561   1.878   0.438
 4264SOL    HW213692   6.616   2.004   0.527
 4265SOL     OW13693   6.371   2.066   0.138
 4265SOL    HW113694   6.390   2.041   0.043
 4265SOL    HW213695   6.434   2.137   0.167
 4266SOL     OW13696   2.852   5.669   0.063
 4266SOL    HW113697   2.946   5.685   0.033
 4266SOL    HW213698   2.853   5.620   0.151
 4267SOL     OW13699   2.156   3.757   5.016
 4267SOL    HW113700   2.197   3.826   4.957
 4267SOL    HW213701   2.206   3.751   5.102
 4268SOL     OW13702   1.457   6.501   0.357
 4268SOL    HW113703   1.431   6.589   0.316
 4268SOL    HW213704   1.557   6.497   0.367
 4269SOL     OW13705   2.762   2.487   0.242
 4269SOL    HW113706   2.820   2.427   0.297
 4269SOL    HW213707   2.678   2.507   0.291
 4270SOL     OW13708   3.678   3.164   4.476
 4270SOL    HW113709   3.768   3.202   4.496
 4270SOL    HW213710   3.647   3.196   4.386
 4271SOL     OW13711   0.186   6.992   5.468
 4271SOL    HW113712   0.251   0.020   5.525
 4271SOL    HW213713   0.234   6.953   5.389
 4272SOL     OW13714   0.042   5.139   5.060
 4272SOL    HW113715   6.993   5.180   5.005
 4272SOL    HW213716   0.130   5.182   5.038
 4273SOL     OW13717   4.468   6.217   4.810
 4273SOL    HW113718   4.391   6.191   4.867
 4273SOL    HW213719   4.510   6.136   4.770
 4274SOL     OW13720   1.012   6.669   3.331
 4274SOL    HW113721   1.098   6.650   3.283
 4274SOL    HW213722   0.945   6.598   3.308
 4275SOL     OW13723   0.010   0.953   5.993
 4275SOL    HW113724   6.994   0.965   5.902
 4275SOL    HW213725   6.986   0.878   6.040
 4276SOL     OW13726   1.705   5.085   2.792
 4276SOL    HW113727   1.693   5.154   2.721
 4276SOL    HW213728   1.625   5.025   2.794
 4277SOL     OW13729   6.622   5.147   3.954
 4277SOL    HW113730   6.632   5.121   4.050
 4277SOL    HW213731   6.598   5.244   3.949
 4278SOL     OW13732   6.670   6.474   5.016
 4278SOL    HW113733   6.586   6.441   5.059
 4278SOL    HW213734   6.724   6.525   5.083
 4279SOL     OW13735   3.592   6.537   5.386
 4279SOL    HW113736   3.615   6.590   5.468
 4279SOL    HW213737   3.528   6.589   5.329
 4280SOL     OW13738   6.342   1.522   5.278
 4280SOL    HW113739   6.310   1.447   5.335
 4280SOL    HW213740   6.352   1.489   5.183
 4281SOL     OW13741   1.765   4.687   4.794
 4281SOL    HW113742   1.706   4.722   4.721
 4281SOL    HW213743   1.823   4.614   4.758
 4282SOL     OW13744   2.893   2.611   0.027
 4282SOL    HW113745   2.959   2.670   0.074
 4282SOL    HW213746   2.846   2.553   0.094
 4283SOL     OW13747   1.468   0.163   3.730
 4283SOL    HW113748   1.513   0.187   3.817
 4283SOL    HW213749   1.369   0.173   3.740
 4284SOL     OW13750   5.557   0.371   2.635
 4284SOL    HW113751   5.538   0.414   2.723
 4284SOL    HW213752   5.484   0.307   2.611
 4285SOL     OW13753   0.050   6.949   5.906
 4285SOL    HW113754   0.038   6.856   5.941
 4285SOL    HW213755   0.127   6.992   5.954
 4286SOL     OW13756   4.904   5.358   0.049
 4286SOL    HW113757   4.961   5.276   0.037
 4286SOL    HW213758   4.950   5.437   0.008
 4287SOL     OW13759   5.922   6.860   5.068
 4287SOL    HW113760   5.988   6.931   5.045
 4287SOL    HW213761   5.874   6.885   5.152
 4288SOL     OW13762   0.566   6.799   3.947
 4288SOL    HW113763   0.479   6.796   3.997
 4288SOL    HW213764   0.556   6.751   3.860
 4289SOL     OW13765   5.310   2.189   1.543
 4289SOL    HW113766   5.388   2.127   1.553
 4289SOL    HW213767   5.226   2.136   1.539
 4290SOL     OW13768   2.255   6.794   1.763
 4290SOL    HW113769   2.178   6.788   1.826
 4290SOL    HW213770   2.228   6.848   1.683
 4291SOL     OW13771   5.034   3.109   1.224
 4291SOL    HW113772   5.069   3.188   1.274
 4291SOL    HW213773   4.965   3.140   1.158
 4292SOL     OW13774   6.349   4.419   5.425
 4292SOL    HW113775   6.381   4.514   5.420
 4292SOL    HW213776   6.257   4.416   5.464
 4293SOL     OW13777   0.091   3.633   6.407
 4293SOL    HW113778   0.118   3.559   6.468
 4293SOL    HW213779   0.129   3.617   6.315
 4294SOL     OW13780   4.128   2.681   6.855
 4294SOL    HW113781   4.063   2.691   6.780
 4294SOL    HW213782   4.153   2.771   6.890
 4295SOL     OW13783   3.349   0.120   4.846
 4295SOL    HW113784   3.398   0.154   4.765
 4295SOL    HW213785   3.405   0.051   4.892
 4296SOL     OW13786   2.723   2.151   0.310
 4296SOL    HW113787   2.645   2.200   0.271
 4296SOL    HW213788   2.702   2.124   0.404
 4297SOL     OW13789   4.836   6.594   4.788
 4297SOL    HW113790   4.833   6.523   4.858
 4297SOL    HW213791   4.754   6.588   4.730
 4298SOL     OW13792   1.429   5.696   0.937
 4298SOL    HW113793   1.449   5.778   0.883
 4298SOL    HW213794   1.509   5.671   0.991
 4299SOL     OW13795   1.126   3.470   5.853
 4299SOL    HW113796   1.072   3.390   5.878
 4299SOL    HW213797   1.101   3.547   5.911
 4300SOL     OW13798   2.818   1.008   6.525
 4300SOL    HW113799   2.720   0.995   6.536
 4300SOL    HW213800   2.849   1.086   6.579
 4301SOL     OW13801   2.368   1.811   0.507
 4301SOL    HW113802   2.452   1.777   0.465
 4301SOL    HW213803   2.337   1.892   0.458
 4302SOL     OW13804   1.510   5.948   6.201
 4302SOL    HW113805   1.559   5.888   6.264
 4302SOL    HW213806   1.468   6.023   6.251
 4303SOL     OW13807   6.355   4.058   3.170
 4303SOL    HW113808   6.339   4.143   3.120
 4303SOL    HW213809   6.315   3.981   3.120
 4304SOL     OW13810   3.513   3.571   4.389
 4304SOL    HW113811   3.440   3.520   4.434
 4304SOL    HW213812   3.494   3.669   4.397
 4305SOL     OW13813   6.102   1.112   3.174
 4305SOL    HW113814   6.134   1.205   3.158
 4305SOL    HW213815   6.134   1.081   3.264
 4306SOL     OW13816   0.112   3.906   6.163
 4306SOL    HW113817   0.145   3.989   6.118
 4306SOL    HW213818   0.190   3.847   6.186
 4307SOL     OW13819   4.827   4.057   5.734
 4307SOL    HW113820   4.748   4.113   5.710
 4307SOL    HW213821   4.800   3.987   5.799
 4308SOL     OW13822   4.713   5.823   5.608
 4308SOL    HW113823   4.618   5.813   5.636
 4308SOL    HW213824   4.735   5.920   5.599
 4309SOL     OW13825   1.360   0.714   0.381
 4309SOL    HW113826   1.407   0.633   0.416
 4309SOL    HW213827   1.300   0.689   0.306
 4310SOL     OW13828   1.961   2.926   3.333
 4310SOL    HW113829   1.969   2.963   3.426
 4310SOL    HW213830   1.890   2.855   3.332
 4311SOL     OW13831   1.341   6.202   2.780
 4311SOL    HW113832   1.306   6.159   2.863
 4311SOL    HW213833   1.419   6.261   2.803
 4312SOL     OW13834   1.623   5.616   1.688
 4312SOL    HW113835   1.595   5.535   1.635
 4312SOL    HW213836   1.708   5.597   1.736
 4313SOL     OW13837   5.801   1.203   1.455
 4313SOL    HW113838   5.862   1.254   1.395
 4313SOL    HW213839   5.854   1.153   1.523
 4314SOL     OW13840   4.740   2.855   2.764
 4314SOL    HW113841   4.721   2.788   2.836
 4314SOL    HW213842   4.689   2.831   2.681
 4315SOL     OW13843   2.788   0.829   2.203
 4315SOL    HW113844   2.753   0.749   2.252
 4315SOL    HW213845   2.715   0.870   2.148
 4316SOL     OW13846   4.851   6.820   1.004
 4316SOL    HW113847   4.925   6.887   1.010
 4316SOL    HW213848   4.767   6.866   0.978
 4317SOL     OW13849   3.396   1.281   5.514
 4317SOL    HW113850   3.302   1.313   5.503
 4317SOL    HW213851   3.420   1.279   5.611
 4318SOL     OW13852   1.023   3.831   3.942
 4318SOL    HW113853   1.119   3.832   3.915
 4318SOL    HW213854   1.016   3.830   4.041
 4319SOL     OW13855   2.376   3.568   6.692
 4319SOL    HW113856   2.447   3.628   6.656
 4319SOL    HW213857   2.297   3.622   6.722
 4320SOL     OW13858   1.495   6.305   2.496
 4320SOL    HW113859   1.532   6.395   2.517
 4320SOL    HW213860   1.395   6.307   2.502
 4321SOL     OW13861   6.048   0.778   4.775
 4321SOL    HW113862   6.103   0.862   4.783
 4321SOL    HW213863   6.069   0.733   4.689
 4322SOL     OW13864   0.013   1.319   6.257
 4322SOL    HW113865   6.993   1.409   6.262
 4322SOL    HW213866   0.052   1.296   6.346
 4323SOL     OW13867   5.629   2.920   1.991
 4323SOL    HW113868   5.567   2.915   2.070
 4323SOL    HW213869   5.706   2.980   2.013
 4324SOL     OW13870   5.914   3.827   6.252
 4324SOL    HW113871   5.977   3.903   6.238
 4324SOL    HW213872   5.854   3.818   6.172
 4325SOL     OW13873   2.071   0.541   0.137
 4325SOL    HW113874   2.049   0.445   0.153
 4325SOL    HW213875   2.101   0.552   0.042
 4326SOL     OW13876   6.717   3.171   5.163
 4326SOL    HW113877   6.803   3.203   5.122
 4326SOL    HW213878   6.713   3.072   5.159
 4327SOL     OW13879   4.955   5.322   2.134
 4327SOL    HW113880   5.004   5.277   2.060
 4327SOL    HW213881   4.995   5.413   2.150
 4328SOL     OW13882   4.537   4.794   5.941
 4328SOL    HW113883   4.525   4.859   6.015
 4328SOL    HW213884   4.572   4.842   5.860
 4329SOL     OW13885   3.464   1.548   6.042
 4329SOL    HW113886   3.549   1.599   6.028
 4329SOL    HW213887   3.484   1.450   6.051
 4330SOL     OW13888   2.576   0.237   5.788
 4330SOL    HW113889   2.672   0.232   5.760
 4330SOL    HW213890   2.522   0.283   5.717
 4331SOL     OW13891   5.222   3.202   0.480
 4331SOL    HW113892   5.147   3.184   0.544
 4331SOL    HW213893   5.304   3.153   0.510
 4332SOL     OW13894   5.221   3.435   2.141
 4332SOL    HW113895   5.319   3.453   2.141
 4332SOL    HW213896   5.199   3.374   2.218
 4333SOL     OW13897   5.232   1.438   5.293
 4333SOL    HW113898   5.223   1.382   5.211
 4333SOL    HW213899   5.162   1.411   5.359
 4334SOL     OW13900   2.955   2.105   2.010
 4334SOL    HW113901   2.931   2.202   2.004
 4334SOL    HW213902   2.876   2.052   2.040
 4335SOL     OW13903   2.953   3.511   3.910
 4335SOL    HW113904   2.972   3.605   3.941
 4335SOL    HW213905   2.910   3.514   3.820
 4336SOL     OW13906   1.455   6.062   5.418
 4336SOL    HW113907   1.501   6.004   5.352
 4336SOL    HW213908   1.453   6.156   5.384
 4337SOL     OW13909   0.744   5.174   0.287
 4337SOL    HW113910   0.673   5.245   0.286
 4337SOL    HW213911   0.707   5.089   0.252
 4338SOL     OW13912   5.527   5.373   4.893
 4338SOL    HW113913   5.444   5.426   4.909
 4338SOL    HW213914   5.606   5.420   4.932
 4339SOL     OW13915   6.000   2.696   4.533
 4339SOL    HW113916   5.983   2.745   4.619
 4339SOL    HW213917   5.950   2.610   4.534
 4340SOL     OW13918   6.756   2.872   2.637
 4340SOL    HW113919   6.685   2.865   2.566
 4340SOL    HW213920   6.825   2.938   2.608
 4341SOL     OW13921   1.737   3.992   2.124
 4341SOL    HW113922   1.681   3.926   2.074
 4341SOL    HW213923   1.802   3.943   2.183
 4342SOL     OW13924   0.244   2.692   3.404
 4342SOL    HW113925   0.286   2.669   3.491
 4342SOL    HW213926   0.171   2.758   3.419
 4343SOL     OW13927   3.728   0.912   7.002
 4343SOL    HW113928   3.685   0.828   6.970
 4343SOL    HW213929   3.760   0.900   0.073
 4344SOL     OW13930   1.683   4.937   3.241
 4344SOL    HW113931   1.645   4.985   3.320
 4344SOL    HW213932   1.760   4.990   3.204
 4345SOL     OW13933   1.789   3.162   5.466
 4345SOL    HW113934   1.819   3.117   5.381
 4345SOL    HW213935   1.698   3.200   5.453
 4346SOL     OW13936   2.530   3.048   1.680
 4346SOL    HW113937   2.609   3.106   1.659
 4346SOL    HW213938   2.449   3.104   1.690
 4347SOL     OW13939   7.015   0.782   1.749
 4347SOL    HW113940   6.961   0.738   1.821
 4347SOL    HW213941   0.079   0.733   1.737
 4348SOL     OW13942   0.300   3.734   1.849
 4348SOL    HW113943   0.394   3.733   1.815
 4348SOL    HW213944   0.300   3.712   1.947
 4349SOL     OW13945   0.522   1.701   3.322
 4349SOL    HW113946   0.492   1.655   3.406
 4349SOL    HW213947   0.462   1.779   3.303
 4350SOL     OW13948   5.325   2.447   4.714
 4350SOL    HW113949   5.251   2.380   4.714
 4350SOL    HW213950   5.290   2.537   4.687
 4351SOL     OW13951   2.560   6.265   2.034
 4351SOL    HW113952   2.604   6.284   2.122
 4351SOL    HW213953   2.546   6.167   2.024
 4352SOL     OW13954   0.474   2.323   1.812
 4352SOL    HW113955   0.523   2.331   1.725
 4352SOL    HW213956   0.517   2.253   1.869
 4353SOL     OW13957   2.092   5.525   1.120
 4353SOL    HW113958   2.173   5.527   1.180
 4353SOL    HW213959   2.092   5.441   1.067
 4354SOL     OW13960   2.132   6.479   0.019
 4354SOL    HW113961   2.153   6.455   0.114
 4354SOL    HW213962   2.128   6.396   6.987
 4355SOL     OW13963   4.128   0.926   1.534
 4355SOL    HW113964   4.166   0.870   1.460
 4355SOL    HW213965   4.029   0.933   1.523
 4356SOL     OW13966   4.479   3.909   1.706
 4356SOL    HW113967   4.490   3.886   1.610
 4356SOL    HW213968   4.487   4.008   1.718
 4357SOL     OW13969   6.054   0.769   0.367
 4357SOL    HW113970   5.958   0.785   0.391
 4357SOL    HW213971   6.072   0.804   0.275
 4358SOL     OW13972   0.269   6.778   1.091
 4358SOL    HW113973   0.232   6.699   1.139
 4358SOL    HW213974   0.360   6.756   1.055
 4359SOL     OW13975   1.594   2.602   4.580
 4359SOL    HW113976   1.614   2.625   4.675
 4359SOL    HW213977   1.620   2.678   4.521
 4360SOL     OW13978   0.540   3.954   2.348
 4360SOL    HW113979   0.588   3.970   2.434
 4360SOL    HW213980   0.607   3.934   2.276
 4361SOL     OW13981   4.117   2.886   1.695
 4361SOL    HW113982   4.114   2.975   1.650
 4361SOL    HW213983   4.029   2.841   1.687
 4362SOL     OW13984   6.117   3.279   5.448
 4362SOL    HW113985   6.159   3.365   5.479
 4362SOL    HW213986   6.050   3.248   5.516
 4363SOL     OW13987   4.582   2.258   5.614
 4363SOL    HW113988   4.674   2.296   5.623
 4363SOL    HW213989   4.555   2.212   5.699
 4364SOL     OW13990   3.154   4.004   5.247
 4364SOL    HW113991   3.076   4.067   5.252
 4364SOL    HW213992   3.184   3.981   5.340
 4365SOL     OW13993   3.535   1.915   2.455
 4365SOL    HW113994   3.513   1.985   2.386
 4365SOL    HW213995   3.610   1.858   2.421
 4366SOL     OW13996   6.133   6.322   1.242
 4366SOL    HW113997   6.229   6.297   1.251
 4366SOL    HW213998   6.125   6.407   1.190
 4367SOL     OW13999   1.194   4.935   5.372
 4367SOL    HW114000   1.159   4.962   5.462
 4367SOL    HW214001   1.283   4.892   5.382
 4368SOL     OW14002   4.625   5.377   1.347
 4368SOL    HW114003   4.641   5.449   1.414
 4368SOL    HW214004   4.617   5.417   1.256
 4369SOL     OW14005   4.867   5.118   2.283
 4369SOL    HW114006   4.785   5.102   2.228
 4369SOL    HW214007   4.928   5.180   2.234
 4370SOL     OW14008   5.963   4.694   2.991
 4370SOL    HW114009   5.974   4.614   3.050
 4370SOL    HW214010   6.053   4.727   2.963
 4371SOL     OW14011   6.681   0.772   1.894
 4371SOL    HW114012   6.601   0.814   1.937
 4371SOL    HW214013   6.736   0.726   1.963
 4372SOL     OW14014   4.596   1.133   3.106
 4372SOL    HW114015   4.590   1.039   3.137
 4372SOL    HW214016   4.549   1.193   3.171
 4373SOL     OW14017   6.382   2.907   6.488
 4373SOL    HW114018   6.333   2.993   6.476
 4373SOL    HW214019   6.398   2.865   6.399
 4374SOL     OW14020   1.415   1.964   2.032
 4374SOL    HW114021   1.472   2.045   2.023
 4374SOL    HW214022   1.467   1.883   2.004
 4375SOL     OW14023   2.507   0.021   3.783
 4375SOL    HW114024   2.496   7.003   3.692
 4375SOL    HW214025   2.562   6.982   3.840
 4376SOL     OW14026   6.418   0.104   2.513
 4376SOL    HW114027   6.331   0.056   2.507
 4376SOL    HW214028   6.414   0.171   2.587
 4377SOL     OW14029   5.432   3.611   0.329
 4377SOL    HW114030   5.378   3.694   0.341
 4377SOL    HW214031   5.373   3.538   0.294
 4378SOL     OW14032   2.377   0.615   3.725
 4378SOL    HW114033   2.335   0.527   3.704
 4378SOL    HW214034   2.307   0.687   3.720
 4379SOL     OW14035   2.568   1.121   4.940
 4379SOL    HW114036   2.563   1.117   5.039
 4379SOL    HW214037   2.598   1.032   4.904
 4380SOL     OW14038   1.160   0.999   1.279
 4380SOL    HW114039   1.136   1.071   1.344
 4380SOL    HW214040   1.192   1.040   1.194
 4381SOL     OW14041   0.752   5.314   4.923
 4381SOL    HW114042   0.813   5.376   4.972
 4381SOL    HW214043   0.763   5.221   4.958
 4382SOL     OW14044   6.670   3.254   5.423
 4382SOL    HW114045   6.581   3.227   5.460
 4382SOL    HW214046   6.673   3.233   5.325
 4383SOL     OW14047   5.780   3.122   6.304
 4383SOL    HW114048   5.687   3.087   6.317
 4383SOL    HW214049   5.824   3.072   6.229
 4384SOL     OW14050   6.980   1.079   3.424
 4384SOL    HW114051   6.924   1.033   3.354
 4384SOL    HW214052   0.025   1.138   3.379
 4385SOL     OW14053   4.888   2.085   4.602
 4385SOL    HW114054   4.811   2.145   4.576
 4385SOL    HW214055   4.967   2.106   4.544
 4386SOL     OW14056   1.255   4.011   5.909
 4386SOL    HW114057   1.168   4.059   5.913
 4386SOL    HW214058   1.328   4.076   5.890
 4387SOL     OW14059   5.990   3.372   0.811
 4387SOL    HW114060   5.899   3.389   0.850
 4387SOL    HW214061   5.999   3.275   0.790
 4388SOL     OW14062   5.387   1.737   6.309
 4388SOL    HW114063   5.443   1.714   6.230
 4388SOL    HW214064   5.446   1.748   6.390
 4389SOL     OW14065   6.932   3.159   1.661
 4389SOL    HW114066   6.865   3.148   1.735
 4389SOL    HW214067   6.936   3.255   1.633
 4390SOL     OW14068   5.606   0.006   0.678
 4390SOL    HW114069   5.513   6.993   0.670
 4390SOL    HW214070   5.662   6.965   0.731
 4391SOL     OW14071   1.879   5.416   6.465
 4391SOL    HW114072   1.782   5.443   6.468
 4391SOL    HW214073   1.923   5.460   6.387
 4392SOL     OW14074   0.876   1.567   4.039
 4392SOL    HW114075   0.970   1.536   4.055
 4392SOL    HW214076   0.849   1.631   4.110
 4393SOL     OW14077   6.388   0.455   1.725
 4393SOL    HW114078   6.360   0.360   1.715
 4393SOL    HW214079   6.318   0.515   1.686
 4394SOL     OW14080   0.967   0.597   1.659
 4394SOL    HW114081   1.054   0.633   1.623
 4394SOL    HW214082   0.945   0.511   1.612
 4395SOL     OW14083   2.177   0.088   2.052
 4395SOL    HW114084   2.166   0.175   2.005
 4395SOL    HW214085   2.265   0.088   2.100
 4396SOL     OW14086   1.600   1.387   3.599
 4396SOL    HW114087   1.523   1.444   3.571
 4396SOL    HW214088   1.636   1.338   3.520
 4397SOL     OW14089   2.362   2.548   3.670
 4397SOL    HW114090   2.279   2.522   3.620
 4397SOL    HW214091   2.426   2.471   3.671
 4398SOL     OW14092   2.299   3.579   6.411
 4398SOL    HW114093   2.390   3.602   6.377
 4398SOL    HW214094   2.306   3.510   6.483
 4399SOL     OW14095   2.126   6.313   2.063
 4399SOL    HW114096   2.158   6.225   2.100
 4399SOL    HW214097   2.027   6.311   2.055
 4400SOL     OW14098   1.227   6.704   3.832
 4400SOL    HW114099   1.206   6.768   3.906
 4400SOL    HW214100   1.173   6.728   3.751
 4401SOL     OW14101   3.692   6.205   5.276
 4401SOL    HW114102   3.602   6.212   5.319
 4401SOL    HW214103   3.707   6.111   5.246
 4402SOL     OW14104   1.380   0.702   2.818
 4402SOL    HW114105   1.455   0.713   2.883
 4402SOL    HW214106   1.416   0.683   2.727
 4403SOL     OW14107   0.785   5.492   1.209
 4403SOL    HW114108   0.809   5.581   1.249
 4403SOL    HW214109   0.757   5.430   1.282
 4404SOL     OW14110   1.399   5.437   5.656
 4404SOL    HW114111   1.412   5.379   5.576
 4404SOL    HW214112   1.359   5.384   5.730
 4405SOL     OW14113   2.760   4.658   3.115
 4405SOL    HW114114   2.710   4.646   3.200
 4405SOL    HW214115   2.701   4.634   3.038
 4406SOL     OW14116   6.200   3.011   2.049
 4406SOL    HW114117   6.186   3.104   2.016
 4406SOL    HW214118   6.284   3.006   2.103
 4407SOL     OW14119   0.248   6.080   2.278
 4407SOL    HW114120   0.305   6.078   2.360
 4407SOL    HW214121   0.276   6.007   2.217
 4408SOL     OW14122   3.672   6.628   6.869
 4408SOL    HW114123   3.746   6.580   6.915
 4408SOL    HW214124   3.617   6.563   6.817
 4409SOL     OW14125   3.791   0.651   2.830
 4409SOL    HW114126   3.824   0.621   2.920
 4409SOL    HW214127   3.844   0.730   2.800
 4410SOL     OW14128   0.168   6.231   1.031
 4410SOL    HW114129   0.124   6.252   0.944
 4410SOL    HW214130   0.191   6.134   1.034
 4411SOL     OW14131   3.331   4.565   5.941
 4411SOL    HW114132   3.327   4.515   6.027
 4411SOL    HW214133   3.415   4.543   5.892
 4412SOL     OW14134   4.920   6.593   4.131
 4412SOL    HW114135   4.970   6.672   4.095
 4412SOL    HW214136   4.882   6.540   4.056
 4413SOL     OW14137   3.163   6.928   4.484
 4413SOL    HW114138   3.135   0.001   4.491
 4413SOL    HW214139   3.257   6.923   4.450
 4414SOL     OW14140   5.057   5.186   1.894
 4414SOL    HW114141   4.994   5.110   1.910
 4414SOL    HW214142   5.069   5.200   1.796
 4415SOL     OW14143   3.357   4.188   1.482
 4415SOL    HW114144   3.385   4.098   1.516
 4415SOL    HW214145   3.412   4.212   1.402
 4416SOL     OW14146   4.015   1.413   4.434
 4416SOL    HW114147   3.961   1.358   4.497
 4416SOL    HW214148   3.954   1.468   4.377
 4417SOL     OW14149   0.296   2.756   4.120
 4417SOL    HW114150   0.369   2.783   4.057
 4417SOL    HW214151   0.214   2.809   4.101
 4418SOL     OW14152   6.441   1.160   1.555
 4418SOL    HW114153   6.495   1.148   1.472
 4418SOL    HW214154   6.502   1.181   1.631
 4419SOL     OW14155   6.690   5.992   5.597
 4419SOL    HW114156   6.636   6.070   5.567
 4419SOL    HW214157   6.782   6.023   5.623
 4420SOL     OW14158   3.832   2.273   1.490
 4420SOL    HW114159   3.816   2.218   1.572
 4420SOL    HW214160   3.906   2.232   1.437
 4421SOL     OW14161   1.356   2.799   4.806
 4421SOL    HW114162   1.297   2.798   4.886
 4421SOL    HW214163   1.305   2.763   4.727
 4422SOL     OW14164   0.817   4.791   0.158
 4422SOL    HW114165   0.776   4.730   0.227
 4422SOL    HW214166   0.831   4.740   0.073
 4423SOL     OW14167   6.445   4.482   6.006
 4423SOL    HW114168   6.535   4.444   6.026
 4423SOL    HW214169   6.376   4.433   6.059
 4424SOL     OW14170   4.915   5.778   4.215
 4424SOL    HW114171   4.983   5.708   4.233
 4424SOL    HW214172   4.944   5.864   4.256
 4425SOL     OW14173   1.692   4.778   1.526
 4425SOL    HW114174   1.687   4.734   1.616
 4425SOL    HW214175   1.686   4.877   1.537
 4426SOL     OW14176   1.064   0.151   4.291
 4426SOL    HW114177   0.975   0.113   4.315
 4426SOL    HW214178   1.086   0.126   4.196
 4427SOL     OW14179   3.274   6.638   2.851
 4427SOL    HW114180   3.373   6.627   2.848
 4427SOL    HW214181   3.235   6.571   2.913
 4428SOL     OW14182   5.314   0.495   4.198
 4428SOL    HW114183   5.352   0.404   4.181
 4428SOL    HW214184   5.384   0.553   4.239
 4429SOL     OW14185   2.844   6.443   3.240
 4429SOL    HW114186   2.793   6.522   3.206
 4429SOL    HW214187   2.780   6.369   3.261
 4430SOL     OW14188   5.584   4.767   3.698
 4430SOL    HW114189   5.644   4.790   3.775
 4430SOL    HW214190   5.499   4.819   3.706
 4431SOL     OW14191   3.603   0.391   3.827
 4431SOL    HW114192   3.534   0.319   3.834
 4431SOL    HW214193   3.662   0.373   3.748
 4432SOL     OW14194   1.693   3.756   6.638
 4432SOL    HW114195   1.604   3.720   6.609
 4432SOL    HW214196   1.738   3.799   6.560
 4433SOL     OW14197   0.820   1.790   4.802
 4433SOL    HW114198   0.777   1.714   4.754
 4433SOL    HW214199   0.918   1.775   4.808
 4434SOL     OW14200   0.077   1.673   1.271
 4434SOL    HW114201   0.168   1.703   1.240
 4434SOL    HW214202   0.087   1.597   1.335
 4435SOL     OW14203   2.803   3.783   0.662
 4435SOL    HW114204   2.810   3.881   0.679
 4435SOL    HW214205   2.869   3.757   0.591
 4436SOL     OW14206   4.403   2.320   0.669
 4436SOL    HW114207   4.433   2.283   0.581
 4436SOL    HW214208   4.483   2.340   0.726
 4437SOL     OW14209   0.111   3.482   2.279
 4437SOL    HW114210   0.050   3.415   2.238
 4437SOL    HW214211   0.099   3.482   2.379
 4438SOL     OW14212   4.450   6.677   5.503
 4438SOL    HW114213   4.450   6.578   5.520
 4438SOL    HW214214   4.502   6.696   5.419
 4439SOL     OW14215   1.613   6.994   3.022
 4439SOL    HW114216   1.590   6.990   2.925
 4439SOL    HW214217   1.557   6.928   3.073
 4440SOL     OW14218   1.916   4.960   0.727
 4440SOL    HW114219   1.882   4.927   0.639
 4440SOL    HW214220   1.916   4.884   0.792
 4441SOL     OW14221   1.237   1.781   0.452
 4441SOL    HW114222   1.258   1.876   0.474
 4441SOL    HW214223   1.321   1.735   0.421
 4442SOL     OW14224   1.588   4.918   5.823
 4442SOL    HW114225   1.493   4.903   5.851
 4442SOL    HW214226   1.598   5.012   5.790
 4443SOL     OW14227   0.605   4.613   6.484
 4443SOL    HW114228   0.573   4.707   6.472
 4443SOL    HW214229   0.575   4.558   6.406
 4444SOL     OW14230   4.769   4.460   0.771
 4444SOL    HW114231   4.868   4.454   0.785
 4444SOL    HW214232   4.724   4.469   0.860
 4445SOL     OW14233   0.249   5.665   6.780
 4445SOL    HW114234   0.262   5.764   6.786
 4445SOL    HW214235   0.296   5.630   6.698
 4446SOL     OW14236   4.933   1.254   0.900
 4446SOL    HW114237   4.853   1.265   0.960
 4446SOL    HW214238   4.939   1.158   0.871
 4447SOL     OW14239   5.322   4.530   4.933
 4447SOL    HW114240   5.378   4.450   4.953
 4447SOL    HW214241   5.378   4.601   4.891
 4448SOL     OW14242   2.902   6.577   1.488
 4448SOL    HW114243   2.843   6.513   1.537
 4448SOL    HW214244   2.896   6.667   1.531
 4449SOL     OW14245   4.663   1.359   6.170
 4449SOL    HW114246   4.730   1.411   6.116
 4449SOL    HW214247   4.679   1.375   6.267
 4450SOL     OW14248   4.304   1.053   0.014
 4450SOL    HW114249   4.279   1.079   6.943
 4450SOL    HW214250   4.257   0.968   0.038
 4451SOL     OW14251   4.902   4.806   3.668
 4451SOL    HW114252   4.816   4.757   3.655
 4451SOL    HW214253   4.951   4.767   3.746
 4452SOL     OW14254   5.342   6.260   4.693
 4452SOL    HW114255   5.399   6.322   4.746
 4452SOL    HW214256   5.313   6.305   4.608
 4453SOL     OW14257   0.377   3.397   1.170
 4453SOL    HW114258   0.438   3.369   1.097
 4453SOL    HW214259   0.366   3.322   1.236
 4454SOL     OW14260   0.700   1.731   6.977
 4454SOL    HW114261   0.604   1.704   6.991
 4454SOL    HW214262   0.725   1.801   0.020
 4455SOL     OW14263   6.027   5.461   4.867
 4455SOL    HW114264   6.120   5.497   4.875
 4455SOL    HW214265   6.018   5.411   4.781
 4456SOL     OW14266   1.637   6.934   3.770
 4456SOL    HW114267   1.659   6.879   3.689
 4456SOL    HW214268   1.592   7.018   3.741
 4457SOL     OW14269   1.304   2.220   4.715
 4457SOL    HW114270   1.219   2.247   4.669
 4457SOL    HW214271   1.350   2.302   4.748
 4458SOL     OW14272   2.442   3.668   1.710
 4458SOL    HW114273   2.381   3.745   1.729
 4458SOL    HW214274   2.423   3.594   1.775
 4459SOL     OW14275   1.405   2.436   4.479
 4459SOL    HW114276   1.434   2.343   4.454
 4459SOL    HW214277   1.477   2.480   4.532
 4460SOL     OW14278   0.254   3.177   4.045
 4460SOL    HW114279   0.199   3.113   4.098
 4460SOL    HW214280   0.195   3.236   3.990
 4461SOL     OW14281   2.590   0.817   1.671
 4461SOL    HW114282   2.577   0.909   1.708
 4461SOL    HW214283   2.688   0.794   1.673
 4462SOL     OW14284   6.394   3.599   1.949
 4462SOL    HW114285   6.397   3.687   1.901
 4462SOL    HW214286   6.314   3.596   2.009
 4463SOL     OW14287   5.479   1.339   0.961
 4463SOL    HW114288   5.482   1.281   1.043
 4463SOL    HW214289   5.406   1.307   0.901
 4464SOL     OW14290   0.490   5.378   0.433
 4464SOL    HW114291   0.456   5.472   0.427
 4464SOL    HW214292   0.513   5.357   0.528
 4465SOL     OW14293   2.068   6.243   0.642
 4465SOL    HW114294   2.117   6.202   0.565
 4465SOL    HW214295   2.130   6.254   0.719
 4466SOL     OW14296   2.095   2.042   4.182
 4466SOL    HW114297   1.999   2.014   4.188
 4466SOL    HW214298   2.100   2.142   4.180
 4467SOL     OW14299   2.841   5.988   3.742
 4467SOL    HW114300   2.774   5.988   3.668
 4467SOL    HW214301   2.906   6.062   3.728
 4468SOL     OW14302   1.132   3.116   1.776
 4468SOL    HW114303   1.111   3.019   1.765
 4468SOL    HW214304   1.207   3.126   1.841
 4469SOL     OW14305   2.833   6.846   1.504
 4469SOL    HW114306   2.734   6.840   1.489
 4469SOL    HW214307   2.871   6.917   1.445
 4470SOL     OW14308   1.281   0.571   2.493
 4470SOL    HW114309   1.237   0.522   2.418
 4470SOL    HW214310   1.271   0.670   2.478
 4471SOL     OW14311   2.212   2.345   6.408
 4471SOL    HW114312   2.235   2.383   6.497
 4471SOL    HW214313   2.286   2.362   6.344
 4472SOL     OW14314   1.817   3.392   1.225
 4472SOL    HW114315   1.882   3.403   1.300
 4472SOL    HW214316   1.859   3.338   1.152
 4473SOL     OW14317   0.369   3.027   3.829
 4473SOL    HW114318   0.366   3.072   3.918
 4473SOL    HW214319   0.436   3.073   3.771
 4474SOL     OW14320   3.478   0.904   1.904
 4474SOL    HW114321   3.508   0.992   1.940
 4474SOL    HW214322   3.557   0.851   1.875
 4475SOL     OW14323   0.977   3.650   2.157
 4475SOL    HW114324   0.937   3.737   2.187
 4475SOL    HW214325   0.913   3.602   2.099
 4476SOL     OW14326   5.436   1.419   4.260
 4476SOL    HW114327   5.391   1.431   4.172
 4476SOL    HW214328   5.397   1.482   4.327
 4477SOL     OW14329   3.272   0.033   5.530
 4477SOL    HW114330   3.212   0.036   5.610
 4477SOL    HW214331   3.256   0.113   5.473
 4478SOL     OW14332   1.289   0.161   0.399
 4478SOL    HW114333   1.261   0.168   0.494
 4478SOL    HW214334   1.332   0.072   0.384
 4479SOL     OW14335   0.559   2.253   0.025
 4479SOL    HW114336   0.589   2.272   0.118
 4479SOL    HW214337   0.487   2.318   7.022
 4480SOL     OW14338   6.644   5.258   4.686
 4480SOL    HW114339   6.736   5.286   4.712
 4480SOL    HW214340   6.578   5.290   4.753
 4481SOL     OW14341   2.504   4.975   5.597
 4481SOL    HW114342   2.570   4.943   5.665
 4481SOL    HW214343   2.455   4.896   5.559
 4482SOL     OW14344   2.761   5.433   6.433
 4482SOL    HW114345   2.858   5.453   6.447
 4482SOL    HW214346   2.753   5.348   6.381
 4483SOL     OW14347   0.607   3.206   2.048
 4483SOL    HW114348   0.658   3.285   2.083
 4483SOL    HW214349   0.637   3.186   1.955
 4484SOL     OW14350   2.413   3.480   6.956
 4484SOL    HW114351   2.370   3.398   6.994
 4484SOL    HW214352   2.351   3.521   6.888
 4485SOL     OW14353   4.549   2.415   4.756
 4485SOL    HW114354   4.510   2.413   4.664
 4485SOL    HW214355   4.592   2.504   4.772
 4486SOL     OW14356   5.455   4.479   5.210
 4486SOL    HW114357   5.535   4.467   5.151
 4486SOL    HW214358   5.386   4.533   5.163
 4487SOL     OW14359   1.682   2.645   0.226
 4487SOL    HW114360   1.705   2.725   0.171
 4487SOL    HW214361   1.685   2.563   0.170
 4488SOL     OW14362   0.803   4.740   4.359
 4488SOL    HW114363   0.831   4.646   4.381
 4488SOL    HW214364   0.783   4.747   4.261
 4489SOL     OW14365   4.486   5.410   5.462
 4489SOL    HW114366   4.407   5.355   5.488
 4489SOL    HW214367   4.520   5.458   5.543
 4490SOL     OW14368   5.496   1.995   1.271
 4490SOL    HW114369   5.487   2.044   1.358
 4490SOL    HW214370   5.434   1.917   1.270
 4491SOL     OW14371   1.185   2.797   2.883
 4491SOL    HW114372   1.103   2.775   2.936
 4491SOL    HW214373   1.235   2.712   2.862
 4492SOL     OW14374   5.623   0.626   1.683
 4492SOL    HW114375   5.693   0.697   1.688
 4492SOL    HW214376   5.537   0.665   1.652
 4493SOL     OW14377   5.190   0.112   4.736
 4493SOL    HW114378   5.259   0.080   4.671
 4493SOL    HW214379   5.114   0.048   4.739
 4494SOL     OW14380   0.576   0.596   6.834
 4494SOL    HW114381   0.601   0.578   6.739
 4494SOL    HW214382   0.548   0.691   6.844
 4495SOL     OW14383   3.708   6.180   1.961
 4495SOL    HW114384   3.752   6.204   2.047
 4495SOL    HW214385   3.708   6.259   1.900
 4496SOL     OW14386   4.272   6.277   6.162
 4496SOL    HW114387   4.298   6.340   6.235
 4496SOL    HW214388   4.195   6.220   6.192
 4497SOL     OW14389   4.061   2.014   6.731
 4497SOL    HW114390   4.060   1.949   6.654
 4497SOL    HW214391   4.080   2.106   6.696
 4498SOL     OW14392   7.014   5.194   5.711
 4498SOL    HW114393   0.071   5.247   5.678
 4498SOL    HW214394   0.010   5.159   5.802
 4499SOL     OW14395   6.449   1.690   2.817
 4499SOL    HW114396   6.467   1.612   2.756
 4499SOL    HW214397   6.527   1.752   2.815
 4500SOL     OW14398   3.804   5.292   0.541
 4500SOL    HW114399   3.729   5.227   0.530
 4500SOL    HW214400   3.793   5.342   0.627
 4501SOL     OW14401   6.012   1.716   1.888
 4501SOL    HW114402   6.099   1.676   1.861
 4501SOL    HW214403   5.969   1.659   1.958
 4502SOL     OW14404   0.897   3.237   6.934
 4502SOL    HW114405   0.871   3.316   6.990
 4502SOL    HW214406   0.886   3.259   6.837
 4503SOL     OW14407   3.120   0.351   2.394
 4503SOL    HW114408   3.184   0.342   2.317
 4503SOL    HW214409   3.043   0.289   2.382
 4504SOL     OW14410   0.180   2.044   3.387
 4504SOL    HW114411   0.220   1.954   3.404
 4504SOL    HW214412   0.096   2.053   3.440
 4505SOL     OW14413   6.397   4.178   2.535
 4505SOL    HW114414   6.373   4.245   2.465
 4505SOL    HW214415   6.358   4.206   2.623
 4506SOL     OW14416   5.070   2.611   4.549
 4506SOL    HW114417   5.046   2.535   4.610
 4506SOL    HW214418   5.084   2.694   4.603
 4507SOL     OW14419   6.456   3.335   3.424
 4507SOL    HW114420   6.474   3.361   3.329
 4507SOL    HW214421   6.358   3.332   3.440
 4508SOL     OW14422   0.366   4.947   0.915
 4508SOL    HW114423   0.276   4.908   0.893
 4508SOL    HW214424   0.390   5.014   0.845
 4509SOL     OW14425   4.248   1.778   2.460
 4509SOL    HW114426   4.327   1.718   2.451
 4509SOL    HW214427   4.278   1.873   2.461
 4510SOL     OW14428   4.638   1.725   4.353
 4510SOL    HW114429   4.725   1.773   4.347
 4510SOL    HW214430   4.650   1.639   4.402
 4511SOL     OW14431   0.304   4.652   1.220
 4511SOL    HW114432   0.290   4.558   1.188
 4511SOL    HW214433   0.216   4.691   1.247
 4512SOL     OW14434   3.907   2.219   5.452
 4512SOL    HW114435   3.959   2.263   5.379
 4512SOL    HW214436   3.949   2.239   5.540
 4513SOL     OW14437   1.376   6.035   6.447
 4513SOL    HW114438   1.441   6.104   6.479
 4513SOL    HW214439   1.316   6.008   6.523
 4514SOL     OW14440   3.260   3.383   6.300
 4514SOL    HW114441   3.334   3.429   6.349
 4514SOL    HW214442   3.182   3.371   6.362
 4515SOL     OW14443   5.424   6.871   5.051
 4515SOL    HW114444   5.415   6.784   5.003
 4515SOL    HW214445   5.365   6.871   5.132
 4516SOL     OW14446   3.429   1.717   5.799
 4516SOL    HW114447   3.404   1.655   5.874
 4516SOL    HW214448   3.448   1.808   5.835
 4517SOL     OW14449   4.574   0.664   5.821
 4517SOL    HW114450   4.573   0.633   5.916
 4517SOL    HW214451   4.636   0.606   5.767
 4518SOL     OW14452   1.814   0.092   1.316
 4518SOL    HW114453   1.849   0.060   1.404
 4518SOL    HW214454   1.809   0.015   1.252
 4519SOL     OW14455   5.773   6.520   0.233
 4519SOL    HW114456   5.762   6.551   0.327
 4519SOL    HW214457   5.716   6.577   0.173
 4520SOL     OW14458   4.138   6.445   5.020
 4520SOL    HW114459   4.203   6.512   4.983
 4520SOL    HW214460   4.066   6.427   4.954
 4521SOL     OW14461   5.085   2.400   5.223
 4521SOL    HW114462   4.994   2.385   5.262
 4521SOL    HW214463   5.134   2.313   5.216
 4522SOL     OW14464   5.179   3.428   3.308
 4522SOL    HW114465   5.118   3.502   3.338
 4522SOL    HW214466   5.204   3.372   3.387
 4523SOL     OW14467   0.443   3.399   6.367
 4523SOL    HW114468   0.429   3.450   6.452
 4523SOL    HW214469   0.495   3.316   6.386
 4524SOL     OW14470   0.409   3.086   2.632
 4524SOL    HW114471   0.331   3.073   2.693
 4524SOL    HW214472   0.414   3.182   2.605
 4525SOL     OW14473   2.300   2.746   5.779
 4525SOL    HW114474   2.209   2.780   5.803
 4525SOL    HW214475   2.358   2.823   5.750
 4526SOL     OW14476   0.771   0.088   6.088
 4526SOL    HW114477   0.691   0.028   6.093
 4526SOL    HW214478   0.794   0.121   6.180
 4527SOL     OW14479   6.481   0.128   2.994
 4527SOL    HW114480   6.488   0.028   2.989
 4527SOL    HW214481   6.506   0.158   3.086
 4528SOL     OW14482   4.642   1.287   5.411
 4528SOL    HW114483   4.635   1.384   5.386
 4528SOL    HW214484   4.567   1.236   5.367
 4529SOL     OW14485   2.729   0.711   5.407
 4529SOL    HW114486   2.640   0.707   5.452
 4529SOL    HW214487   2.717   0.747   5.314
 4530SOL     OW14488   2.395   6.182   5.106
 4530SOL    HW114489   2.315   6.174   5.046
 4530SOL    HW214490   2.389   6.116   5.180
 4531SOL     OW14491   0.879   4.622   6.259
 4531SOL    HW114492   0.781   4.642   6.248
 4531SOL    HW214493   0.890   4.528   6.291
 4532SOL     OW14494   5.600   0.534   2.832
 4532SOL    HW114495   5.603   0.633   2.847
 4532SOL    HW214496   5.650   0.488   2.905
 4533SOL     OW14497   2.401   0.712   2.222
 4533SOL    HW114498   2.323   0.693   2.282
 4533SOL    HW214499   2.383   0.796   2.171
 4534SOL     OW14500   4.753   1.882   4.712
 4534SOL    HW114501   4.809   1.950   4.665
 4534SOL    HW214502   4.780   1.790   4.681
 4535SOL     OW14503   3.015   1.901   1.164
 4535SOL    HW114504   2.951   1.905   1.088
 4535SOL    HW214505   3.045   1.807   1.179
 4536SOL     OW14506   2.724   1.655   5.971
 4536SOL    HW114507   2.680   1.722   6.031
 4536SOL    HW214508   2.759   1.701   5.889
 4537SOL     OW14509   3.340   3.833   4.491
 4537SOL    HW114510   3.272   3.887   4.541
 4537SOL    HW214511   3.337   3.859   4.394
 4538SOL     OW14512   6.801   2.501   1.308
 4538SOL    HW114513   6.713   2.487   1.263
 4538SOL    HW214514   6.848   2.414   1.319
 4539SOL     OW14515   1.433   5.439   5.305
 4539SOL    HW114516   1.484   5.523   5.325
 4539SOL    HW214517   1.490   5.359   5.322
 4540SOL     OW14518   6.975   1.284   0.922
 4540SOL    HW114519   6.887   1.327   0.900
 4540SOL    HW214520   6.959   1.204   0.981
 4541SOL     OW14521   4.116   1.858   6.266
 4541SOL    HW114522   4.215   1.854   6.278
 4541SOL    HW214523   4.088   1.793   6.196
 4542SOL     OW14524   6.917   2.682   1.130
 4542SOL    HW114525   6.871   2.634   1.204
 4542SOL    HW214526   6.949   2.615   1.062
 4543SOL     OW14527   3.460   2.019   0.184
 4543SOL    HW114528   3.514   2.102   0.193
 4543SOL    HW214529   3.402   2.025   0.102
 4544SOL     OW14530   5.697   4.918   0.430
 4544SOL    HW114531   5.738   4.922   0.339
 4544SOL    HW214532   5.652   4.829   0.442
 4545SOL     OW14533   1.147   3.709   4.919
 4545SOL    HW114534   1.169   3.744   4.828
 4545SOL    HW214535   1.124   3.612   4.913
 4546SOL     OW14536   2.577   1.073   5.915
 4546SOL    HW114537   2.609   1.038   6.004
 4546SOL    HW214538   2.547   1.167   5.925
 4547SOL     OW14539   6.204   0.510   0.378
 4547SOL    HW114540   6.181   0.607   0.379
 4547SOL    HW214541   6.262   0.491   0.299
 4548SOL     OW14542   2.178   3.082   2.530
 4548SOL    HW114543   2.195   3.085   2.629
 4548SOL    HW214544   2.165   3.175   2.495
 4549SOL     OW14545   5.721   4.176   2.196
 4549SOL    HW114546   5.717   4.133   2.287
 4549SOL    HW214547   5.632   4.217   2.175
 4550SOL     OW14548   0.470   4.234   2.876
 4550SOL    HW114549   0.374   4.253   2.855
 4550SOL    HW214550   0.485   4.240   2.974
 4551SOL     OW14551   1.728   3.555   5.396
 4551SOL    HW114552   1.748   3.651   5.373
 4551SOL    HW214553   1.809   3.500   5.380
 4552SOL     OW14554   6.079   1.379   1.658
 4552SOL    HW114555   6.026   1.462   1.642
 4552SOL    HW214556   6.139   1.362   1.579
 4553SOL     OW14557   5.377   4.612   6.181
 4553SOL    HW114558   5.418   4.573   6.263
 4553SOL    HW214559   5.282   4.639   6.200
 4554SOL     OW14560   0.495   6.435   1.608
 4554SOL    HW114561   0.577   6.382   1.586
 4554SOL    HW214562   0.485   6.442   1.707
 4555SOL     OW14563   1.045   1.116   6.664
 4555SOL    HW114564   0.951   1.083   6.668
 4555SOL    HW214565   1.049   1.202   6.614
 4556SOL     OW14566   6.102   2.965   5.932
 4556SOL    HW114567   6.181   2.997   5.984
 4556SOL    HW214568   6.104   2.866   5.925
 4557SOL     OW14569   5.954   5.319   3.494
 4557SOL    HW114570   5.952   5.225   3.527
 4557SOL    HW214571   6.048   5.353   3.496
 4558SOL     OW14572   6.551   2.852   5.101
 4558SOL    HW114573   6.574   2.876   5.195
 4558SOL    HW214574   6.487   2.775   5.101
 4559SOL     OW14575   0.793   2.955   2.946
 4559SOL    HW114576   0.851   3.036   2.948
 4559SOL    HW214577   0.750   2.947   2.856
 4560SOL     OW14578   6.383   4.874   2.147
 4560SOL    HW114579   6.459   4.855   2.084
 4560SOL    HW214580   6.343   4.963   2.124
 4561SOL     OW14581   3.320   2.139   4.363
 4561SOL    HW114582   3.225   2.164   4.346
 4561SOL    HW214583   3.364   2.114   4.276
 4562SOL     OW14584   1.770   0.415   1.108
 4562SOL    HW114585   1.681   0.378   1.082
 4562SOL    HW214586   1.841   0.346   1.092
 4563SOL     OW14587   0.415   3.146   1.603
 4563SOL    HW114588   0.348   3.076   1.629
 4563SOL    HW214589   0.463   3.178   1.684
 4564SOL     OW14590   0.199   4.578   2.037
 4564SOL    HW114591   0.193   4.480   2.021
 4564SOL    HW214592   0.220   4.595   2.134
 4565SOL     OW14593   2.304   6.751   4.946
 4565SOL    HW114594   2.358   6.667   4.957
 4565SOL    HW214595   2.212   6.727   4.917
 4566SOL     OW14596   6.962   4.421   1.680
 4566SOL    HW114597   6.908   4.362   1.621
 4566SOL    HW214598   0.035   4.418   1.651
 4567SOL     OW14599   0.217   6.882   6.186
 4567SOL    HW114600   0.142   6.821   6.214
 4567SOL    HW214601   0.179   6.964   6.143
 4568SOL     OW14602   0.674   4.918   3.957
 4568SOL    HW114603   0.697   5.003   4.004
 4568SOL    HW214604   0.583   4.925   3.917
 4569SOL     OW14605   2.936   1.312   3.318
 4569SOL    HW114606   2.964   1.333   3.412
 4569SOL    HW214607   2.924   1.397   3.267
 4570SOL     OW14608   6.483   5.764   1.240
 4570SOL    HW114609   6.472   5.708   1.322
 4570SOL    HW214610   6.523   5.852   1.265
 4571SOL     OW14611   4.085   2.943   6.467
 4571SOL    HW114612   4.055   2.872   6.402
 4571SOL    HW214613   4.008   2.971   6.523
 4572SOL     OW14614   2.330   2.977   0.398
 4572SOL    HW114615   2.368   3.049   0.457
 4572SOL    HW214616   2.293   2.904   0.454
 4573SOL     OW14617   0.922   6.734   1.280
 4573SOL    HW114618   0.841   6.780   1.243
 4573SOL    HW214619   0.909   6.635   1.274
 4574SOL     OW14620   6.297   3.321   0.251
 4574SOL    HW114621   6.213   3.321   0.304
 4574SOL    HW214622   6.373   3.292   0.310
 4575SOL     OW14623   6.185   0.870   4.335
 4575SOL    HW114624   6.156   0.913   4.420
 4575SOL    HW214625   6.160   0.930   4.258
 4576SOL     OW14626   2.650   5.261   4.831
 4576SOL    HW114627   2.678   5.280   4.925
 4576SOL    HW214628   2.591   5.181   4.828
 4577SOL     OW14629   2.067   1.904   2.954
 4577SOL    HW114630   1.979   1.950   2.966
 4577SOL    HW214631   2.136   1.972   2.929
 4578SOL     OW14632   1.835   0.618   2.465
 4578SOL    HW114633   1.886   0.629   2.551
 4578SOL    HW214634   1.868   0.537   2.417
 4579SOL     OW14635   4.119   0.020   2.022
 4579SOL    HW114636   4.190   0.085   1.996
 4579SOL    HW214637   4.149   6.991   2.101
 4580SOL     OW14638   6.263   3.573   0.111
 4580SOL    HW114639   6.355   3.584   0.074
 4580SOL    HW214640   6.260   3.491   0.169
 4581SOL     OW14641   3.534   6.795   2.081
 4581SOL    HW114642   3.499   6.887   2.096
 4581SOL    HW214643   3.561   6.755   2.168
 4582SOL     OW14644   5.618   0.825   2.855
 4582SOL    HW114645   5.705   0.827   2.905
 4582SOL    HW214646   5.546   0.863   2.913
 4583SOL     OW14647   2.137   6.956   6.519
 4583SOL    HW114648   2.142   6.858   6.540
 4583SOL    HW214649   2.048   6.992   6.550
 4584SOL     OW14650   1.802   0.017   6.184
 4584SOL    HW114651   1.771   0.047   6.094
 4584SOL    HW214652   1.895   0.050   6.200
 4585SOL     OW14653   1.267   4.434   3.206
 4585SOL    HW114654   1.233   4.501   3.141
 4585SOL    HW214655   1.302   4.481   3.288
 4586SOL     OW14656   5.107   4.366   0.179
 4586SOL    HW114657   5.128   4.269   0.195
 4586SOL    HW214658   5.036   4.374   0.109
 4587SOL     OW14659   3.244   3.530   4.516
 4587SOL    HW114660   3.219   3.625   4.531
 4587SOL    HW214661   3.163   3.478   4.489
 4588SOL     OW14662   2.736   4.097   6.027
 4588SOL    HW114663   2.654   4.117   6.081
 4588SOL    HW214664   2.796   4.036   6.078
 4589SOL     OW14665   5.357   6.009   2.367
 4589SOL    HW114666   5.443   6.041   2.408
 4589SOL    HW214667   5.319   5.935   2.423
 4590SOL     OW14668   3.392   5.551   2.009
 4590SOL    HW114669   3.322   5.604   2.057
 4590SOL    HW214670   3.365   5.454   2.008
 4591SOL     OW14671   2.681   6.827   5.309
 4591SOL    HW114672   2.603   6.772   5.338
 4591SOL    HW214673   2.692   6.906   5.369
 4592SOL     OW14674   2.487   1.288   4.760
 4592SOL    HW114675   2.504   1.374   4.808
 4592SOL    HW214676   2.513   1.211   4.819
 4593SOL     OW14677   0.055   5.931   3.329
 4593SOL    HW114678   7.003   5.968   3.273
 4593SOL    HW214679   0.023   5.847   3.374
 4594SOL     OW14680   2.306   0.321   3.113
 4594SOL    HW114681   2.345   0.366   3.033
 4594SOL    HW214682   2.341   0.228   3.120
 4595SOL     OW14683   4.978   1.495   6.259
 4595SOL    HW114684   4.981   1.412   6.315
 4595SOL    HW214685   5.017   1.571   6.310
 4596SOL     OW14686   0.841   0.889   2.312
 4596SOL    HW114687   0.887   0.879   2.223
 4596SOL    HW214688   0.747   0.918   2.298
 4597SOL     OW14689   2.321   5.551   0.133
 4597SOL    HW114690   2.311   5.456   0.162
 4597SOL    HW214691   2.417   5.570   0.113
 4598SOL     OW14692   1.799   5.248   0.246
 4598SOL    HW114693   1.734   5.274   0.317
 4598SOL    HW214694   1.880   5.207   0.288
 4599SOL     OW14695   1.406   4.175   2.837
 4599SOL    HW114696   1.410   4.137   2.930
 4599SOL    HW214697   1.495   4.212   2.812
 4600SOL     OW14698   0.338   6.448   5.718
 4600SOL    HW114699   0.290   6.508   5.654
 4600SOL    HW214700   0.324   6.481   5.811
 4601SOL     OW14701   0.501   0.977   4.395
 4601SOL    HW114702   0.579   0.922   4.424
 4601SOL    HW214703   0.509   0.998   4.298
 4602SOL     OW14704   3.288   0.415   6.737
 4602SOL    HW114705   3.260   0.501   6.780
 4602SOL    HW214706   3.293   0.343   6.806
 4603SOL     OW14707   4.453   6.023   1.470
 4603SOL    HW114708   4.533   5.993   1.418
 4603SOL    HW214709   4.373   6.026   1.410
 4604SOL     OW14710   5.058   6.564   5.916
 4604SOL    HW114711   4.963   6.594   5.909
 4604SOL    HW214712   5.061   6.464   5.920
 4605SOL     OW14713   2.516   0.151   1.755
 4605SOL    HW114714   2.572   0.104   1.687
 4605SOL    HW214715   2.483   0.084   1.823
 4606SOL     OW14716   0.079   6.662   3.042
 4606SOL    HW114717   0.176   6.654   3.065
 4606SOL    HW214718   0.070   6.714   2.957
 4607SOL     OW14719   1.749   3.954   3.226
 4607SOL    HW114720   1.847   3.967   3.215
 4607SOL    HW214721   1.727   3.943   3.323
 4608SOL     OW14722   6.982   3.196   4.695
 4608SOL    HW114723   6.885   3.219   4.685
 4608SOL    HW214724   0.015   3.277   4.676
 4609SOL     OW14725   4.187   6.334   6.687
 4609SOL    HW114726   4.153   6.291   6.771
 4609SOL    HW214727   4.156   6.429   6.684
 4610SOL     OW14728   5.494   2.080   0.572
 4610SOL    HW114729   5.531   1.996   0.532
 4610SOL    HW214730   5.570   2.137   0.603
 4611SOL     OW14731   0.961   0.754   5.859
 4611SOL    HW114732   0.880   0.803   5.890
 4611SOL    HW214733   0.978   0.775   5.762
 4612SOL     OW14734   2.237   6.421   2.487
 4612SOL    HW114735   2.277   6.394   2.575
 4612SOL    HW214736   2.295   6.386   2.412
 4613SOL     OW14737   2.059   4.612   1.644
 4613SOL    HW114738   2.043   4.633   1.740
 4613SOL    HW214739   2.060   4.512   1.632
 4614SOL     OW14740   5.880   3.374   4.308
 4614SOL    HW114741   5.861   3.312   4.231
 4614SOL    HW214742   5.926   3.323   4.381
 4615SOL     OW14743   1.266   1.313   1.132
 4615SOL    HW114744   1.338   1.381   1.121
 4615SOL    HW214745   1.293   1.246   1.201
 4616SOL     OW14746   6.283   2.736   4.417
 4616SOL    HW114747   6.268   2.833   4.436
 4616SOL    HW214748   6.216   2.682   4.469
 4617SOL     OW14749   0.395   2.701   1.939
 4617SOL    HW114750   0.368   2.630   1.875
 4617SOL    HW214751   0.369   2.675   2.032
 4618SOL     OW14752   2.439   3.966   5.711
 4618SOL    HW114753   2.461   3.889   5.652
 4618SOL    HW214754   2.517   4.028   5.717
 4619SOL     OW14755   2.895   5.851   4.575
 4619SOL    HW114756   2.923   5.757   4.596
 4619SOL    HW214757   2.887   5.862   4.476
 4620SOL     OW14758   0.736   5.357   1.933
 4620SOL    HW114759   0.815   5.390   1.984
 4620SOL    HW214760   0.744   5.258   1.919
 4621SOL     OW14761   4.980   0.553   2.643
 4621SOL    HW114762   5.051   0.483   2.651
 4621SOL    HW214763   4.915   0.544   2.718
 4622SOL     OW14764   4.172   5.802   1.221
 4622SOL    HW114765   4.095   5.764   1.170
 4622SOL    HW214766   4.253   5.747   1.205
 4623SOL     OW14767   3.310   5.269   1.271
 4623SOL    HW114768   3.310   5.354   1.219
 4623SOL    HW214769   3.295   5.192   1.210
 4624SOL     OW14770   3.612   1.451   3.256
 4624SOL    HW114771   3.533   1.403   3.220
 4624SOL    HW214772   3.693   1.428   3.202
 4625SOL     OW14773   1.554   5.055   1.787
 4625SOL    HW114774   1.637   5.004   1.808
 4625SOL    HW214775   1.572   5.119   1.713
 4626SOL     OW14776   3.855   4.037   1.865
 4626SOL    HW114777   3.871   4.118   1.808
 4626SOL    HW214778   3.942   4.008   1.906
 4627SOL     OW14779   6.873   6.251   4.910
 4627SOL    HW114780   6.955   6.303   4.888
 4627SOL    HW214781   6.841   6.277   5.001
 4628SOL     OW14782   4.702   5.218   3.468
 4628SOL    HW114783   4.669   5.285   3.535
 4628SOL    HW214784   4.670   5.243   3.377
 4629SOL     OW14785   1.733   5.523   6.881
 4629SOL    HW114786   1.697   5.441   6.835
 4629SOL    HW214787   1.808   5.497   6.941
 4630SOL     OW14788   1.467   4.469   2.635
 4630SOL    HW114789   1.506   4.422   2.556
 4630SOL    HW214790   1.379   4.428   2.658
 4631SOL     OW14791   0.014   0.532   3.851
 4631SOL    HW114792   6.990   0.515   3.937
 4631SOL    HW214793   7.011   0.622   3.815
 4632SOL     OW14794   3.015   5.136   2.591
 4632SOL    HW114795   3.103   5.159   2.548
 4632SOL    HW214796   3.022   5.046   2.633
 4633SOL     OW14797   5.009   1.461   4.058
 4633SOL    HW114798   5.040   1.384   4.114
 4633SOL    HW214799   4.909   1.468   4.064
 4634SOL     OW14800   2.952   3.620   4.884
 4634SOL    HW114801   2.933   3.522   4.880
 4634SOL    HW214802   3.030   3.636   4.945
 4635SOL     OW14803   5.412   5.553   0.587
 4635SOL    HW114804   5.336   5.604   0.628
 4635SOL    HW214805   5.388   5.456   0.582
 4636SOL     OW14806   1.957   5.110   0.441
 4636SOL    HW114807   2.020   5.034   0.427
 4636SOL    HW214808   1.978   5.154   0.528
 4637SOL     OW14809   1.937   0.103   2.345
 4637SOL    HW114810   1.999   0.026   2.362
 4637SOL    HW214811   1.909   0.101   2.249
 4638SOL     OW14812   3.851   5.000   0.919
 4638SOL    HW114813   3.814   4.956   0.837
 4638SOL    HW214814   3.943   4.967   0.936
 4639SOL     OW14815   2.000   2.507   0.598
 4639SOL    HW114816   2.089   2.477   0.566
 4639SOL    HW214817   2.012   2.577   0.669
 4640SOL     OW14818   6.102   2.857   5.517
 4640SOL    HW114819   6.053   2.887   5.435
 4640SOL    HW214820   6.190   2.818   5.490
 4641SOL     OW14821   0.566   5.895   3.716
 4641SOL    HW114822   0.630   5.821   3.739
 4641SOL    HW214823   0.614   5.983   3.722
 4642SOL     OW14824   1.935   1.705   3.379
 4642SOL    HW114825   1.991   1.674   3.456
 4642SOL    HW214826   1.903   1.626   3.328
 4643SOL     OW14827   6.926   2.308   6.914
 4643SOL    HW114828   6.934   2.407   6.908
 4643SOL    HW214829   6.924   2.281   7.010
 4644SOL     OW14830   1.732   1.146   6.953
 4644SOL    HW114831   1.783   1.130   6.868
 4644SOL    HW214832   1.679   1.064   6.975
 4645SOL     OW14833   1.085   1.025   3.619
 4645SOL    HW114834   0.992   1.059   3.621
 4645SOL    HW214835   1.088   0.936   3.575
 4646SOL     OW14836   1.863   5.742   3.616
 4646SOL    HW114837   1.879   5.840   3.605
 4646SOL    HW214838   1.950   5.695   3.625
 4647SOL     OW14839   1.890   6.368   2.946
 4647SOL    HW114840   1.933   6.292   2.898
 4647SOL    HW214841   1.851   6.336   3.032
 4648SOL     OW14842   3.469   1.153   3.990
 4648SOL    HW114843   3.395   1.085   3.996
 4648SOL    HW214844   3.444   1.234   4.042
 4649SOL     OW14845   5.918   0.676   0.751
 4649SOL    HW114846   5.870   0.598   0.791
 4649SOL    HW214847   6.016   0.666   0.767
 4650SOL     OW14848   5.149   6.367   1.369
 4650SOL    HW114849   5.137   6.453   1.418
 4650SOL    HW214850   5.245   6.341   1.370
 4651SOL     OW14851   6.898   3.572   6.243
 4651SOL    HW114852   6.974   3.582   6.307
 4651SOL    HW214853   6.884   3.657   6.194
 4652SOL     OW14854   0.064   6.372   4.794
 4652SOL    HW114855   0.051   6.397   4.698
 4652SOL    HW214856   0.142   6.310   4.801
 4653SOL     OW14857   5.226   5.725   0.719
 4653SOL    HW114858   5.278   5.779   0.786
 4653SOL    HW214859   5.131   5.754   0.719
 4654SOL     OW14860   6.916   6.590   4.920
 4654SOL    HW114861   6.963   6.519   4.869
 4654SOL    HW214862   6.818   6.573   4.919
 4655SOL     OW14863   4.648   2.296   0.819
 4655SOL    HW114864   4.658   2.292   0.918
 4655SOL    HW214865   4.672   2.206   0.780
 4656SOL     OW14866   0.717   1.090   1.731
 4656SOL    HW114867   0.639   1.092   1.669
 4656SOL    HW214868   0.769   1.006   1.718
 4657SOL     OW14869   5.250   6.578   2.277
 4657SOL    HW114870   5.235   6.677   2.275
 4657SOL    HW214871   5.300   6.553   2.359
 4658SOL     OW14872   2.639   2.518   5.236
 4658SOL    HW114873   2.622   2.453   5.162
 4658SOL    HW214874   2.563   2.583   5.241
 4659SOL     OW14875   3.574   4.583   0.864
 4659SOL    HW114876   3.662   4.574   0.817
 4659SOL    HW214877   3.500   4.558   0.802
 4660SOL     OW14878   0.829   6.344   3.930
 4660SOL    HW114879   0.912   6.295   3.958
 4660SOL    HW214880   0.854   6.433   3.893
 4661SOL     OW14881   2.185   3.813   5.816
 4661SOL    HW114882   2.226   3.880   5.878
 4661SOL    HW214883   2.094   3.843   5.789
 4662SOL     OW14884   2.947   6.309   4.717
 4662SOL    HW114885   2.869   6.248   4.704
 4662SOL    HW214886   2.934   6.392   4.662
 4663SOL     OW14887   1.172   0.349   6.870
 4663SOL    HW114888   1.082   0.392   6.862
 4663SOL    HW214889   1.238   0.416   6.904
 4664SOL     OW14890   6.506   6.919   0.593
 4664SOL    HW114891   6.484   6.978   0.671
 4664SOL    HW214892   6.606   6.912   0.585
 4665SOL     OW14893   2.253   0.486   5.728
 4665SOL    HW114894   2.266   0.531   5.817
 4665SOL    HW214895   2.236   0.554   5.658
 4666SOL     OW14896   2.055   2.580   6.440
 4666SOL    HW114897   2.120   2.642   6.486
 4666SOL    HW214898   2.082   2.485   6.455
 4667SOL     OW14899   6.487   3.350   1.901
 4667SOL    HW114900   6.440   3.437   1.915
 4667SOL    HW214901   6.439   3.297   1.831
 4668SOL     OW14902   3.979   2.203   4.761
 4668SOL    HW114903   4.045   2.136   4.728
 4668SOL    HW214904   3.950   2.261   4.685
 4669SOL     OW14905   5.543   6.917   0.349
 4669SOL    HW114906   5.624   6.976   0.355
 4669SOL    HW214907   5.571   6.821   0.362
 4670SOL     OW14908   1.314   3.366   0.316
 4670SOL    HW114909   1.241   3.434   0.313
 4670SOL    HW214910   1.394   3.402   0.268
 4671SOL     OW14911   0.760   3.564   0.245
 4671SOL    HW114912   0.841   3.600   0.199
 4671SOL    HW214913   0.781   3.547   0.341
 4672SOL     OW14914   3.631   4.238   5.756
 4672SOL    HW114915   3.623   4.251   5.855
 4672SOL    HW214916   3.562   4.174   5.725
 4673SOL     OW14917   5.524   0.728   6.779
 4673SOL    HW114918   5.557   0.644   6.823
 4673SOL    HW214919   5.528   0.803   6.844
 4674SOL     OW14920   0.302   1.709   0.259
 4674SOL    HW114921   0.354   1.762   0.327
 4674SOL    HW214922   0.342   1.618   0.251
 4675SOL     OW14923   3.322   6.106   0.341
 4675SOL    HW114924   3.290   6.134   0.431
 4675SOL    HW214925   3.331   6.186   0.282
 4676SOL     OW14926   0.820   6.416   4.581
 4676SOL    HW114927   0.746   6.432   4.516
 4676SOL    HW214928   0.822   6.489   4.649
 4677SOL     OW14929   3.996   0.102   6.689
 4677SOL    HW114930   4.012   0.067   6.781
 4677SOL    HW214931   3.902   0.138   6.683
 4678SOL     OW14932   1.979   4.777   0.935
 4678SOL    HW114933   1.885   4.747   0.953
 4678SOL    HW214934   2.007   4.843   1.004
 4679SOL     OW14935   2.629   0.601   6.463
 4679SOL    HW114936   2.565   0.531   6.429
 4679SOL    HW214937   2.588   0.648   6.542
 4680SOL     OW14938   1.708   4.672   1.264
 4680SOL    HW114939   1.692   4.739   1.192
 4680SOL    HW214940   1.670   4.705   1.350
 4681SOL     OW14941   0.518   5.095   5.570
 4681SOL    HW114942   0.574   5.156   5.626
 4681SOL    HW214943   0.517   5.128   5.476
 4682SOL     OW14944   3.953   6.420   0.197
 4682SOL    HW114945   3.947   6.450   0.102
 4682SOL    HW214946   3.936   6.498   0.258
 4683SOL     OW14947   6.116   3.843   2.513
 4683SOL    HW114948   6.172   3.829   2.431
 4683SOL    HW214949   6.119   3.762   2.570
 4684SOL     OW14950   1.380   2.418   4.880
 4684SOL    HW114951   1.391   2.372   4.968
 4684SOL    HW214952   1.426   2.507   4.882
 4685SOL     OW14953   5.617   5.232   4.106
 4685SOL    HW114954   5.692   5.173   4.135
 4685SOL    HW214955   5.613   5.236   4.006
 4686SOL     OW14956   5.268   5.205   6.864
 4686SOL    HW114957   5.348   5.152   6.891
 4686SOL    HW214958   5.280   5.238   6.770
 4687SOL     OW14959   6.488   4.138   4.546
 4687SOL    HW114960   6.442   4.095   4.469
 4687SOL    HW214961   6.460   4.234   4.553
 4688SOL     OW14962   0.526   3.582   6.936
 4688SOL    HW114963   0.571   3.603   6.849
 4688SOL    HW214964   0.554   3.492   6.967
 4689SOL     OW14965   6.972   6.372   5.476
 4689SOL    HW114966   6.896   6.309   5.460
 4689SOL    HW214967   0.014   6.332   5.539
 4690SOL     OW14968   1.733   1.607   6.914
 4690SOL    HW114969   1.642   1.628   6.878
 4690SOL    HW214970   1.800   1.611   6.840
 4691SOL     OW14971   2.462   4.403   0.668
 4691SOL    HW114972   2.445   4.332   0.736
 4691SOL    HW214973   2.522   4.473   0.706
 4692SOL     OW14974   6.987   4.944   3.129
 4692SOL    HW114975   0.012   4.860   3.154
 4692SOL    HW214976   0.020   5.023   3.156
 4693SOL     OW14977   0.540   1.252   4.618
 4693SOL    HW114978   0.585   1.224   4.534
 4693SOL    HW214979   0.453   1.296   4.596
 4694SOL     OW14980   2.100   1.645   0.192
 4694SOL    HW114981   2.190   1.624   0.232
 4694SOL    HW214982   2.080   1.742   0.206
 4695SOL     OW14983   4.061   3.128   1.611
 4695SOL    HW114984   4.065   3.193   1.687
 4695SOL    HW214985   3.970   3.133   1.568
 4696SOL     OW14986   0.408   3.723   6.084
 4696SOL    HW114987   0.358   3.760   6.162
 4696SOL    HW214988   0.348   3.719   6.004
 4697SOL     OW14989   1.296   4.249   0.017
 4697SOL    HW114990   1.290   4.240   0.116
 4697SOL    HW214991   1.389   4.273   7.014
 4698SOL     OW14992   5.482   4.151   1.438
 4698SOL    HW114993   5.401   4.194   1.398
 4698SOL    HW214994   5.469   4.140   1.536
 4699SOL     OW14995   0.201   0.486   2.516
 4699SOL    HW114996   0.285   0.499   2.464
 4699SOL    HW214997   0.209   0.533   2.604
 4700SOL     OW14998   5.262   1.578   1.048
 4700SOL    HW114999   5.243   1.506   1.113
 4700SOL    HW215000   5.228   1.552   0.957
 4701SOL     OW15001   1.162   1.539   0.337
 4701SOL    HW115002   1.202   1.552   0.246
 4701SOL    HW215003   1.178   1.621   0.392
 4702SOL     OW15004   3.611   4.100   6.632
 4702SOL    HW115005   3.562   4.042   6.697
 4702SOL    HW215006   3.692   4.052   6.599
 4703SOL     OW15007   1.956   1.166   2.906
 4703SOL    HW115008   2.024   1.102   2.872
 4703SOL    HW215009   1.978   1.191   3.001
 4704SOL     OW15010   0.594   0.189   0.819
 4704SOL    HW115011   0.619   0.284   0.839
 4704SOL    HW215012   0.502   0.171   0.854
 4705SOL     OW15013   3.329   2.917   3.962
 4705SOL    HW115014   3.279   2.831   3.947
 4705SOL    HW215015   3.404   2.923   3.897
 4706SOL     OW15016   3.688   6.284   6.865
 4706SOL    HW115017   3.747   6.205   6.885
 4706SOL    HW215018   3.645   6.314   6.950
 4707SOL     OW15019   1.700   5.607   1.363
 4707SOL    HW115020   1.714   5.629   1.266
 4707SOL    HW215021   1.674   5.512   1.372
 4708SOL     OW15022   3.402   2.824   1.064
 4708SOL    HW115023   3.499   2.805   1.074
 4708SOL    HW215024   3.360   2.756   1.003
 4709SOL     OW15025   4.149   4.856   5.696
 4709SOL    HW115026   4.249   4.855   5.696
 4709SOL    HW215027   4.115   4.822   5.608
 4710SOL     OW15028   5.202   1.053   0.062
 4710SOL    HW115029   5.108   1.037   0.032
 4710SOL    HW215030   5.248   1.112   7.019
 4711SOL     OW15031   3.087   6.931   2.519
 4711SOL    HW115032   3.078   6.853   2.582
 4711SOL    HW215033   3.166   6.986   2.546
 4712SOL     OW15034   2.135   4.528   0.901
 4712SOL    HW115035   2.079   4.611   0.908
 4712SOL    HW215036   2.145   4.503   0.805
 4713SOL     OW15037   2.267   5.476   1.371
 4713SOL    HW115038   2.197   5.535   1.411
 4713SOL    HW215039   2.265   5.387   1.415
 4714SOL     OW15040   2.688   1.532   1.633
 4714SOL    HW115041   2.594   1.564   1.648
 4714SOL    HW215042   2.744   1.607   1.600
 4715SOL     OW15043   6.540   2.731   2.763
 4715SOL    HW115044   6.483   2.660   2.721
 4715SOL    HW215045   6.613   2.756   2.700
 4716SOL     OW15046   3.459   5.718   0.120
 4716SOL    HW115047   3.415   5.657   0.185
 4716SOL    HW215048   3.456   5.678   0.029
 4717SOL     OW15049   1.094   5.762   2.839
 4717SOL    HW115050   1.046   5.675   2.846
 4717SOL    HW215051   1.189   5.746   2.814
 4718SOL     OW15052   5.542   1.387   6.361
 4718SOL    HW115053   5.563   1.463   6.423
 4718SOL    HW215054   5.613   1.317   6.368
 4719SOL     OW15055   5.472   3.524   2.188
 4719SOL    HW115056   5.564   3.535   2.153
 4719SOL    HW215057   5.476   3.493   2.283
 4720SOL     OW15058   2.522   6.780   5.663
 4720SOL    HW115059   2.546   6.876   5.648
 4720SOL    HW215060   2.598   6.732   5.705
 4721SOL     OW15061   1.625   2.174   1.083
 4721SOL    HW115062   1.637   2.268   1.050
 4721SOL    HW215063   1.529   2.159   1.106
 4722SOL     OW15064   1.467   6.761   0.627
 4722SOL    HW115065   1.532   6.836   0.631
 4722SOL    HW215066   1.503   6.682   0.677
 4723SOL     OW15067   2.625   6.540   6.696
 4723SOL    HW115068   2.566   6.605   6.744
 4723SOL    HW215069   2.652   6.578   6.608
 4724SOL     OW15070   4.062   6.637   2.225
 4724SOL    HW115071   4.027   6.652   2.132
 4724SOL    HW215072   4.000   6.575   2.274
 4725SOL     OW15073   5.298   6.371   2.985
 4725SOL    HW115074   5.279   6.469   2.974
 4725SOL    HW215075   5.234   6.332   3.052
 4726SOL     OW15076   1.218   3.788   6.669
 4726SOL    HW115077   1.167   3.838   6.599
 4726SOL    HW215078   1.197   3.824   6.759
 4727SOL     OW15079   0.153   5.681   0.217
 4727SOL    HW115080   0.169   5.606   0.282
 4727SOL    HW215081   0.104   5.755   0.264
 4728SOL     OW15082   6.670   0.735   6.623
 4728SOL    HW115083   6.701   0.820   6.581
 4728SOL    HW215084   6.727   0.714   6.703
 4729SOL     OW15085   3.111   0.043   2.161
 4729SOL    HW115086   3.113   0.025   2.259
 4729SOL    HW215087   3.140   0.138   2.144
 4730SOL     OW15088   2.413   6.128   5.683
 4730SOL    HW115089   2.439   6.222   5.702
 4730SOL    HW215090   2.485   6.083   5.630
 4731SOL     OW15091   5.667   0.709   5.073
 4731SOL    HW115092   5.682   0.672   4.981
 4731SOL    HW215093   5.604   0.786   5.068
 4732SOL     OW15094   6.878   3.035   6.670
 4732SOL    HW115095   6.889   2.998   6.762
 4732SOL    HW215096   6.785   3.016   6.637
 4733SOL     OW15097   6.912   3.318   3.418
 4733SOL    HW115098   6.840   3.316   3.488
 4733SOL    HW215099   6.905   3.236   3.361
 4734SOL     OW15100   4.403   3.724   0.121
 4734SOL    HW115101   4.437   3.635   0.089
 4734SOL    HW215102   4.428   3.795   0.056
 4735SOL     OW15103   0.728   4.690   4.096
 4735SOL    HW115104   0.704   4.767   4.038
 4735SOL    HW215105   0.719   4.605   4.044
 4736SOL     OW15106   1.280   1.142   6.846
 4736SOL    HW115107   1.190   1.122   6.807
 4736SOL    HW215108   1.281   1.115   6.943
 4737SOL     OW15109   2.547   4.986   1.868
 4737SOL    HW115110   2.626   4.929   1.844
 4737SOL    HW215111   2.574   5.082   1.867
 4738SOL     OW15112   6.984   6.676   1.694
 4738SOL    HW115113   6.959   6.722   1.779
 4738SOL    HW215114   6.929   6.593   1.683
 4739SOL     OW15115   4.282   0.629   2.477
 4739SOL    HW115116   4.293   0.531   2.458
 4739SOL    HW215117   4.214   0.667   2.414
 4740SOL     OW15118   0.909   1.923   2.783
 4740SOL    HW115119   0.906   1.828   2.753
 4740SOL    HW215120   0.817   1.954   2.806
 4741SOL     OW15121   4.395   3.300   1.637
 4741SOL    HW115122   4.391   3.303   1.537
 4741SOL    HW215123   4.475   3.350   1.669
 4742SOL     OW15124   2.968   6.943   0.432
 4742SOL    HW115125   3.030   6.949   0.511
 4742SOL    HW215126   2.874   6.947   0.464
 4743SOL     OW15127   2.216   4.912   1.395
 4743SOL    HW115128   2.134   4.867   1.430
 4743SOL    HW215129   2.193   4.968   1.316
 4744SOL     OW15130   2.019   6.900   0.955
 4744SOL    HW115131   1.999   6.993   0.924
 4744SOL    HW215132   1.958   6.877   1.031
 4745SOL     OW15133   1.848   4.175   0.539
 4745SOL    HW115134   1.864   4.225   0.624
 4745SOL    HW215135   1.866   4.235   0.461
 4746SOL     OW15136   4.730   5.230   4.235
 4746SOL    HW115137   4.823   5.196   4.231
 4746SOL    HW215138   4.720   5.292   4.313
 4747SOL     OW15139   1.741   2.662   0.766
 4747SOL    HW115140   1.840   2.645   0.764
 4747SOL    HW215141   1.706   2.665   0.672
 4748SOL     OW15142   2.166   6.510   3.065
 4748SOL    HW115143   2.110   6.429   3.048
 4748SOL    HW215144   2.129   6.588   3.015
 4749SOL     OW15145   1.679   0.235   0.425
 4749SOL    HW115146   1.723   0.279   0.347
 4749SOL    HW215147   1.679   0.136   0.413
 4750SOL     OW15148   5.479   3.693   5.293
 4750SOL    HW115149   5.544   3.662   5.224
 4750SOL    HW215150   5.528   3.741   5.366
 4751SOL     OW15151   5.004   1.032   2.773
 4751SOL    HW115152   4.993   1.020   2.872
 4751SOL    HW215153   4.977   1.125   2.747
 4752SOL     OW15154   4.020   2.059   7.006
 4752SOL    HW115155   4.018   2.065   6.906
 4752SOL    HW215156   4.097   2.003   0.012
 4753SOL     OW15157   2.644   5.952   4.969
 4753SOL    HW115158   2.629   5.897   5.051
 4753SOL    HW215159   2.589   6.036   4.975
 4754SOL     OW15160   4.459   4.698   6.615
 4754SOL    HW115161   4.507   4.785   6.607
 4754SOL    HW215162   4.516   4.624   6.579
 4755SOL     OW15163   1.129   0.963   1.626
 4755SOL    HW115164   1.136   0.883   1.567
 4755SOL    HW215165   1.219   1.005   1.636
 4756SOL     OW15166   6.330   4.482   6.362
 4756SOL    HW115167   6.343   4.434   6.448
 4756SOL    HW215168   6.393   4.560   6.357
 4757SOL     OW15169   2.091   3.227   1.464
 4757SOL    HW115170   2.075   3.319   1.430
 4757SOL    HW215171   2.188   3.205   1.456
 4758SOL     OW15172   2.240   6.875   2.611
 4758SOL    HW115173   2.202   6.947   2.667
 4758SOL    HW215174   2.302   6.819   2.666
 4759SOL     OW15175   1.086   4.901   1.663
 4759SOL    HW115176   1.042   4.872   1.748
 4759SOL    HW215177   1.036   4.863   1.585
 4760SOL     OW15178   1.889   6.624   1.014
 4760SOL    HW115179   1.899   6.528   0.987
 4760SOL    HW215180   1.937   6.639   1.101
 4761SOL     OW15181   0.682   6.786   1.149
 4761SOL    HW115182   0.617   6.730   1.097
 4761SOL    HW215183   0.642   6.812   1.236
 4762SOL     OW15184   2.192   5.254   2.390
 4762SOL    HW115185   2.140   5.189   2.446
 4762SOL    HW215186   2.185   5.345   2.430
 4763SOL     OW15187   4.706   5.930   1.914
 4763SOL    HW115188   4.711   5.929   2.014
 4763SOL    HW215189   4.778   5.872   1.876
 4764SOL     OW15190   4.205   3.817   6.028
 4764SOL    HW115191   4.299   3.807   5.996
 4764SOL    HW215192   4.152   3.737   6.000
 4765SOL     OW15193   3.881   1.522   5.134
 4765SOL    HW115194   3.979   1.510   5.154
 4765SOL    HW215195   3.856   1.618   5.151
 4766SOL     OW15196   6.869   0.098   4.276
 4766SOL    HW115197   6.783   0.075   4.322
 4766SOL    HW215198   6.945   0.058   4.328
 4767SOL     OW15199   2.339   5.464   4.730
 4767SOL    HW115200   2.317   5.370   4.705
 4767SOL    HW215201   2.387   5.508   4.654
 4768SOL     OW15202   4.586   2.419   0.127
 4768SOL    HW115203   4.670   2.453   0.169
 4768SOL    HW215204   4.609   2.370   0.042
 4769SOL     OW15205   3.178   5.923   1.237
 4769SOL    HW115206   3.233   5.983   1.178
 4769SOL    HW215207   3.132   5.977   1.307
 4770SOL     OW15208   0.604   1.296   5.489
 4770SOL    HW115209   0.687   1.281   5.543
 4770SOL    HW215210   0.545   1.362   5.535
 4771SOL     OW15211   2.445   6.495   5.000
 4771SOL    HW115212   2.418   6.488   5.096
 4771SOL    HW215213   2.540   6.465   4.990
 4772SOL     OW15214   2.202   6.018   1.140
 4772SOL    HW115215   2.220   6.067   1.225
 4772SOL    HW215216   2.235   5.924   1.148
 4773SOL     OW15217   2.555   5.475   5.149
 4773SOL    HW115218   2.535   5.532   5.069
 4773SOL    HW215219   2.639   5.423   5.133
 4774SOL     OW15220   1.755   4.013   0.318
 4774SOL    HW115221   1.737   4.067   0.401
 4774SOL    HW215222   1.828   3.947   0.337
 4775SOL     OW15223   5.922   6.588   5.143
 4775SOL    HW115224   5.929   6.687   5.132
 4775SOL    HW215225   5.980   6.558   5.218
 4776SOL     OW15226   0.975   0.522   6.192
 4776SOL    HW115227   1.045   0.459   6.157
 4776SOL    HW215228   0.887   0.501   6.150
 4777SOL     OW15229   0.771   6.226   1.098
 4777SOL    HW115230   0.677   6.254   1.119
 4777SOL    HW215231   0.810   6.182   1.178
 4778SOL     OW15232   1.454   2.833   5.416
 4778SOL    HW115233   1.368   2.881   5.435
 4778SOL    HW215234   1.513   2.838   5.496
 4779SOL     OW15235   5.434   1.035   3.671
 4779SOL    HW115236   5.370   1.051   3.596
 4779SOL    HW215237   5.407   1.089   3.750
 4780SOL     OW15238   6.397   2.387   5.098
 4780SOL    HW115239   6.320   2.323   5.098
 4780SOL    HW215240   6.439   2.389   5.007
 4781SOL     OW15241   2.023   5.662   2.663
 4781SOL    HW115242   2.088   5.697   2.730
 4781SOL    HW215243   2.054   5.572   2.632
 4782SOL     OW15244   5.746   5.053   4.786
 4782SOL    HW115245   5.772   5.086   4.876
 4782SOL    HW215246   5.672   5.111   4.750
 4783SOL     OW15247   6.457   2.599   0.988
 4783SOL    HW115248   6.498   2.644   1.067
 4783SOL    HW215249   6.465   2.500   0.998
 4784SOL     OW15250   5.663   2.085   6.267
 4784SOL    HW115251   5.581   2.078   6.323
 4784SOL    HW215252   5.737   2.127   6.320
 4785SOL     OW15253   0.681   6.132   3.457
 4785SOL    HW115254   0.682   6.223   3.416
 4785SOL    HW215255   0.747   6.128   3.532
 4786SOL     OW15256   2.550   6.397   0.755
 4786SOL    HW115257   2.552   6.424   0.852
 4786SOL    HW215258   2.566   6.299   0.748
 4787SOL     OW15259   3.739   1.556   4.588
 4787SOL    HW115260   3.663   1.621   4.580
 4787SOL    HW215261   3.747   1.527   4.684
 4788SOL     OW15262   6.396   6.287   6.432
 4788SOL    HW115263   6.478   6.343   6.449
 4788SOL    HW215264   6.375   6.233   6.513
 4789SOL     OW15265   4.987   0.604   2.353
 4789SOL    HW115266   4.987   0.614   2.453
 4789SOL    HW215267   5.064   0.654   2.314
 4790SOL     OW15268   5.836   2.463   5.170
 4790SOL    HW115269   5.822   2.366   5.151
 4790SOL    HW215270   5.858   2.475   5.267
 4791SOL     OW15271   6.887   2.563   0.810
 4791SOL    HW115272   6.832   2.493   0.765
 4791SOL    HW215273   6.958   2.519   0.866
 4792SOL     OW15274   2.134   3.579   4.117
 4792SOL    HW115275   2.171   3.491   4.146
 4792SOL    HW215276   2.070   3.565   4.041
 4793SOL     OW15277   0.837   3.564   5.977
 4793SOL    HW115278   0.869   3.655   6.003
 4793SOL    HW215279   0.743   3.551   6.010
 4794SOL     OW15280   4.437   0.895   4.293
 4794SOL    HW115281   4.421   0.993   4.308
 4794SOL    HW215282   4.400   0.869   4.204
 4795SOL     OW15283   0.969   0.810   5.581
 4795SOL    HW115284   0.962   0.907   5.558
 4795SOL    HW215285   0.888   0.761   5.549
 4796SOL     OW15286   3.855   1.635   5.740
 4796SOL    HW115287   3.889   1.729   5.728
 4796SOL    HW215288   3.802   1.630   5.825
 4797SOL     OW15289   0.883   5.550   4.477
 4797SOL    HW115290   0.801   5.607   4.484
 4797SOL    HW215291   0.870   5.466   4.529
 4798SOL     OW15292   5.115   4.805   6.240
 4798SOL    HW115293   5.024   4.826   6.204
 4798SOL    HW215294   5.183   4.862   6.194
 4799SOL     OW15295   3.486   3.037   6.834
 4799SOL    HW115296   3.456   3.089   6.914
 4799SOL    HW215297   3.471   3.090   6.751
 4800SOL     OW15298   1.247   4.719   6.870
 4800SOL    HW115299   1.188   4.794   6.899
 4800SOL    HW215300   1.202   4.632   6.890
 4801SOL     OW15301   4.877   2.550   1.597
 4801SOL    HW115302   4.841   2.642   1.585
 4801SOL    HW215303   4.971   2.546   1.561
 4802SOL     OW15304   6.925   6.997   2.175
 4802SOL    HW115305   6.838   0.011   2.144
 4802SOL    HW215306   6.944   6.911   2.128
 4803SOL     OW15307   5.821   4.096   5.917
 4803SOL    HW115308   5.880   4.031   5.871
 4803SOL    HW215309   5.727   4.085   5.884
 4804SOL     OW15310   5.513   1.226   0.702
 4804SOL    HW115311   5.557   1.316   0.705
 4804SOL    HW215312   5.450   1.221   0.625
 4805SOL     OW15313   6.151   2.081   1.075
 4805SOL    HW115314   6.241   2.113   1.105
 4805SOL    HW215315   6.084   2.098   1.147
 4806SOL     OW15316   1.089   2.340   3.434
 4806SOL    HW115317   1.060   2.245   3.419
 4806SOL    HW215318   1.140   2.372   3.355
 4807SOL     OW15319   1.455   2.970   6.397
 4807SOL    HW115320   1.453   3.019   6.309
 4807SOL    HW215321   1.392   2.893   6.393
 4808SOL     OW15322   4.417   5.970   0.840
 4808SOL    HW115323   4.367   5.954   0.755
 4808SOL    HW215324   4.395   5.898   0.905
 4809SOL     OW15325   3.660   5.081   1.687
 4809SOL    HW115326   3.578   5.100   1.741
 4809SOL    HW215327   3.658   5.135   1.603
 4810SOL     OW15328   0.976   4.747   3.944
 4810SOL    HW115329   0.885   4.729   3.982
 4810SOL    HW215330   0.967   4.785   3.852
 4811SOL     OW15331   3.041   3.741   4.612
 4811SOL    HW115332   2.967   3.728   4.678
 4811SOL    HW215333   3.018   3.696   4.526
 4812SOL     OW15334   0.287   0.144   2.382
 4812SOL    HW115335   0.362   0.165   2.319
 4812SOL    HW215336   0.324   0.099   2.463
 4813SOL     OW15337   6.218   1.517   0.029
 4813SOL    HW115338   6.207   1.465   6.967
 4813SOL    HW215339   6.310   1.557   0.031
 4814SOL     OW15340   0.220   3.716   1.379
 4814SOL    HW115341   0.234   3.630   1.429
 4814SOL    HW215342   0.280   3.787   1.417
 4815SOL     OW15343   5.787   4.946   2.692
 4815SOL    HW115344   5.875   4.913   2.657
 4815SOL    HW215345   5.787   4.941   2.792
 4816SOL     OW15346   1.687   0.409   2.182
 4816SOL    HW115347   1.766   0.446   2.230
 4816SOL    HW215348   1.710   0.320   2.143
 4817SOL     OW15349   4.251   1.263   1.297
 4817SOL    HW115350   4.285   1.318   1.221
 4817SOL    HW215351   4.267   1.166   1.277
 4818SOL     OW15352   3.253   0.570   4.938
 4818SOL    HW115353   3.179   0.638   4.931
 4818SOL    HW215354   3.340   0.614   4.916
 4819SOL     OW15355   3.406   0.885   0.980
 4819SOL    HW115356   3.455   0.811   0.933
 4819SOL    HW215357   3.336   0.846   1.039
 4820SOL     OW15358   6.673   4.127   2.263
 4820SOL    HW115359   6.652   4.105   2.358
 4820SOL    HW215360   6.763   4.090   2.239
 4821SOL     OW15361   6.619   5.210   1.629
 4821SOL    HW115362   6.535   5.156   1.635
 4821SOL    HW215363   6.696   5.150   1.606
 4822SOL     OW15364   1.676   4.215   3.322
 4822SOL    HW115365   1.756   4.155   3.325
 4822SOL    HW215366   1.621   4.200   3.404
 4823SOL     OW15367   0.896   0.545   4.490
 4823SOL    HW115368   0.831   0.560   4.565
 4823SOL    HW215369   0.852   0.491   4.418
 4824SOL     OW15370   5.184   2.204   2.429
 4824SOL    HW115371   5.263   2.237   2.379
 4824SOL    HW215372   5.166   2.108   2.405
 4825SOL     OW15373   1.540   3.684   3.237
 4825SOL    HW115374   1.470   3.616   3.262
 4825SOL    HW215375   1.538   3.759   3.303
 4826SOL     OW15376   0.430   6.582   0.477
 4826SOL    HW115377   0.412   6.489   0.511
 4826SOL    HW215378   0.469   6.577   0.385
 4827SOL     OW15379   4.825   1.006   1.056
 4827SOL    HW115380   4.887   1.013   0.978
 4827SOL    HW215381   4.790   0.913   1.063
 4828SOL     OW15382   4.881   3.300   1.762
 4828SOL    HW115383   4.946   3.365   1.724
 4828SOL    HW215384   4.881   3.307   1.862
 4829SOL     OW15385   3.137   1.026   6.166
 4829SOL    HW115386   3.188   1.043   6.251
 4829SOL    HW215387   3.201   1.012   6.091
 4830SOL     OW15388   4.938   6.654   3.679
 4830SOL    HW115389   4.956   6.556   3.679
 4830SOL    HW215390   4.877   6.677   3.755
 4831SOL     OW15391   6.741   4.530   5.404
 4831SOL    HW115392   6.809   4.462   5.432
 4831SOL    HW215393   6.779   4.587   5.331
 4832SOL     OW15394   3.121   3.060   5.871
 4832SOL    HW115395   3.093   3.046   5.776
 4832SOL    HW215396   3.059   3.009   5.931
 4833SOL     OW15397   4.086   1.306   3.543
 4833SOL    HW115398   4.006   1.336   3.595
 4833SOL    HW215399   4.118   1.379   3.484
 4834SOL     OW15400   4.563   1.482   1.886
 4834SOL    HW115401   4.503   1.440   1.817
 4834SOL    HW215402   4.542   1.579   1.894
 4835SOL     OW15403   2.275   0.089   6.734
 4835SOL    HW115404   2.232   0.034   6.661
 4835SOL    HW215405   2.273   0.186   6.708
 4836SOL     OW15406   5.014   2.224   4.114
 4836SOL    HW115407   5.038   2.292   4.183
 4836SOL    HW215408   5.081   2.150   4.116
 4837SOL     OW15409   2.513   2.480   0.967
 4837SOL    HW115410   2.565   2.401   1.000
 4837SOL    HW215411   2.439   2.448   0.907
 4838SOL     OW15412   3.699   4.891   2.250
 4838SOL    HW115413   3.799   4.892   2.253
 4838SOL    HW215414   3.668   4.828   2.179
 4839SOL     OW15415   0.305   5.287   5.674
 4839SOL    HW115416   0.402   5.312   5.678
 4839SOL    HW215417   0.295   5.205   5.618
 4840SOL     OW15418   6.286   6.313   7.022
 4840SOL    HW115419   6.349   6.271   6.956
 4840SOL    HW215420   6.338   6.354   0.074
 4841SOL     OW15421   2.993   5.637   2.119
 4841SOL    HW115422   3.044   5.718   2.091
 4841SOL    HW215423   2.995   5.569   2.045
 4842SOL     OW15424   4.109   6.272   1.502
 4842SOL    HW115425   4.206   6.293   1.509
 4842SOL    HW215426   4.081   6.215   1.579
 4843SOL     OW15427   6.791   3.808   0.081
 4843SOL    HW115428   6.781   3.829   7.006
 4843SOL    HW215429   6.875   3.757   0.096
 4844SOL     OW15430   6.455   2.501   6.414
 4844SOL    HW115431   6.391   2.463   6.348
 4844SOL    HW215432   6.405   2.550   6.486
 4845SOL     OW15433   5.680   5.260   3.838
 4845SOL    HW115434   5.760   5.297   3.883
 4845SOL    HW215435   5.664   5.309   3.752
 4846SOL     OW15436   1.515   2.897   1.275
 4846SOL    HW115437   1.473   2.845   1.201
 4846SOL    HW215438   1.580   2.962   1.238
 4847SOL     OW15439   3.485   1.961   5.213
 4847SOL    HW115440   3.424   1.891   5.250
 4847SOL    HW215441   3.441   2.007   5.136
 4848SOL     OW15442   2.290   1.677   3.124
 4848SOL    HW115443   2.195   1.674   3.093
 4848SOL    HW215444   2.345   1.613   3.070
 4849SOL     OW15445   1.663   0.462   0.214
 4849SOL    HW115446   1.637   0.424   0.125
 4849SOL    HW215447   1.581   0.473   0.270
 4850SOL     OW15448   4.263   0.667   1.597
 4850SOL    HW115449   4.172   0.633   1.619
 4850SOL    HW215450   4.298   0.721   1.674
 4851SOL     OW15451   4.084   6.126   5.575
 4851SOL    HW115452   4.106   6.038   5.616
 4851SOL    HW215453   4.146   6.143   5.498
 4852SOL     OW15454   2.361   0.795   7.010
 4852SOL    HW115455   2.336   0.815   0.082
 4852SOL    HW215456   2.413   0.709   7.007
 4853SOL     OW15457   3.656   1.531   2.892
 4853SOL    HW115458   3.564   1.552   2.925
 4853SOL    HW215459   3.709   1.615   2.883
 4854SOL     OW15460   4.742   5.979   2.191
 4854SOL    HW115461   4.817   5.943   2.247
 4854SOL    HW215462   4.725   6.074   2.215
 4855SOL     OW15463   5.854   1.230   1.957
 4855SOL    HW115464   5.951   1.208   1.949
 4855SOL    HW215465   5.819   1.193   2.043
 4856SOL     OW15466   2.797   4.781   3.960
 4856SOL    HW115467   2.746   4.725   4.026
 4856SOL    HW215468   2.734   4.822   3.895
 4857SOL     OW15469   0.959   2.113   6.047
 4857SOL    HW115470   0.990   2.196   6.001
 4857SOL    HW215471   0.938   2.043   5.978
 4858SOL     OW15472   2.052   2.261   4.549
 4858SOL    HW115473   1.961   2.293   4.574
 4858SOL    HW215474   2.079   2.300   4.462
 4859SOL     OW15475   1.820   5.953   5.127
 4859SOL    HW115476   1.856   5.975   5.036
 4859SOL    HW215477   1.814   5.854   5.137
 4860SOL     OW15478   4.679   5.611   1.838
 4860SOL    HW115479   4.643   5.641   1.926
 4860SOL    HW215480   4.692   5.512   1.840
 4861SOL     OW15481   5.072   4.461   6.118
 4861SOL    HW115482   5.152   4.465   6.178
 4861SOL    HW215483   4.997   4.415   6.166
 4862SOL     OW15484   1.020   5.291   2.799
 4862SOL    HW115485   1.066   5.338   2.723
 4862SOL    HW215486   1.088   5.256   2.863
 4863SOL     OW15487   5.666   4.136   0.094
 4863SOL    HW115488   5.626   4.158   0.184
 4863SOL    HW215489   5.592   4.123   0.028
 4864SOL     OW15490   2.716   1.214   3.530
 4864SOL    HW115491   2.744   1.281   3.599
 4864SOL    HW215492   2.789   1.147   3.517
 4865SOL     OW15493   2.760   5.701   4.877
 4865SOL    HW115494   2.671   5.656   4.881
 4865SOL    HW215495   2.747   5.800   4.866
 4866SOL     OW15496   0.315   3.722   0.856
 4866SOL    HW115497   0.228   3.749   0.813
 4866SOL    HW215498   0.296   3.663   0.934
 4867SOL     OW15499   4.594   5.814   2.508
 4867SOL    HW115500   4.576   5.716   2.506
 4867SOL    HW215501   4.674   5.833   2.565
 4868SOL     OW15502   6.206   4.155   1.654
 4868SOL    HW115503   6.193   4.183   1.749
 4868SOL    HW215504   6.302   4.169   1.627
 4869SOL     OW15505   1.021   1.774   6.213
 4869SOL    HW115506   0.960   1.840   6.257
 4869SOL    HW215507   0.967   1.695   6.182
 4870SOL     OW15508   0.548   6.279   2.054
 4870SOL    HW115509   0.646   6.268   2.037
 4870SOL    HW215510   0.534   6.307   2.149
 4871SOL     OW15511   1.379   0.864   4.468
 4871SOL    HW115512   1.357   0.950   4.421
 4871SOL    HW215513   1.390   0.791   4.400
 4872SOL     OW15514   6.904   6.461   3.312
 4872SOL    HW115515   6.884   6.404   3.392
 4872SOL    HW215516   6.940   6.549   3.341
 4873SOL     OW15517   6.530   5.926   4.774
 4873SOL    HW115518   6.600   5.864   4.810
 4873SOL    HW215519   6.494   5.982   4.848
 4874SOL     OW15520   4.819   2.469   3.471
 4874SOL    HW115521   4.915   2.483   3.496
 4874SOL    HW215522   4.797   2.372   3.475
 4875SOL     OW15523   5.209   6.585   0.008
 4875SOL    HW115524   5.245   6.493   0.018
 4875SOL    HW215525   5.203   6.628   0.098
 4876SOL     OW15526   1.591   1.547   3.091
 4876SOL    HW115527   1.611   1.567   2.995
 4876SOL    HW215528   1.591   1.631   3.143
 4877SOL     OW15529   0.566   1.960   4.687
 4877SOL    HW115530   0.665   1.961   4.704
 4877SOL    HW215531   0.523   2.033   4.740
 4878SOL     OW15532   6.581   1.832   1.865
 4878SOL    HW115533   6.669   1.816   1.819
 4878SOL    HW215534   6.557   1.928   1.858
 4879SOL     OW15535   4.889   1.549   2.502
 4879SOL    HW115536   4.952   1.473   2.522
 4879SOL    HW215537   4.835   1.527   2.421
 4880SOL     OW15538   6.101   3.009   6.674
 4880SOL    HW115539   6.111   3.099   6.632
 4880SOL    HW215540   6.188   2.981   6.713
 4881SOL     OW15541   1.644   2.513   1.677
 4881SOL    HW115542   1.612   2.561   1.595
 4881SOL    HW215543   1.585   2.536   1.754
 4882SOL     OW15544   4.071   1.990   5.009
 4882SOL    HW115545   4.158   1.946   4.987
 4882SOL    HW215546   4.038   1.957   5.098
 4883SOL     OW15547   5.483   3.762   1.286
 4883SOL    HW115548   5.544   3.702   1.234
 4883SOL    HW215549   5.389   3.749   1.254
 4884SOL     OW15550   1.248   5.931   1.435
 4884SOL    HW115551   1.172   5.938   1.370
 4884SOL    HW215552   1.224   5.980   1.519
 4885SOL     OW15553   2.514   5.083   1.518
 4885SOL    HW115554   2.420   5.117   1.520
 4885SOL    HW215555   2.514   4.984   1.533
 4886SOL     OW15556   3.701   0.188   2.498
 4886SOL    HW115557   3.697   0.271   2.442
 4886SOL    HW215558   3.796   0.169   2.523
 4887SOL     OW15559   1.421   6.712   1.804
 4887SOL    HW115560   1.466   6.628   1.774
 4887SOL    HW215561   1.352   6.691   1.873
 4888SOL     OW15562   2.705   6.652   3.145
 4888SOL    HW115563   2.647   6.646   3.063
 4888SOL    HW215564   2.777   6.720   3.129
 4889SOL     OW15565   6.498   2.001   3.709
 4889SOL    HW115566   6.427   2.009   3.779
 4889SOL    HW215567   6.494   2.081   3.648
 4890SOL     OW15568   1.157   0.851   5.359
 4890SOL    HW115569   1.251   0.851   5.393
 4890SOL    HW215570   1.100   0.792   5.417
 4891SOL     OW15571   2.173   5.196   6.325
 4891SOL    HW115572   2.249   5.251   6.361
 4891SOL    HW215573   2.195   5.167   6.232
 4892SOL     OW15574   5.805   6.944   2.408
 4892SOL    HW115575   5.788   6.854   2.447
 4892SOL    HW215576   5.788   7.014   2.477
 4893SOL     OW15577   0.303   3.443   2.052
 4893SOL    HW115578   0.247   3.405   1.977
 4893SOL    HW215579   0.264   3.530   2.081
 4894SOL     OW15580   3.429   0.007   2.162
 4894SOL    HW115581   3.419   0.059   2.247
 4894SOL    HW215582   3.429   0.070   2.085
 4895SOL     OW15583   6.832   4.561   3.286
 4895SOL    HW115584   6.805   4.648   3.327
 4895SOL    HW215585   6.931   4.548   3.297
 4896SOL     OW15586   1.450   5.395   3.665
 4896SOL    HW115587   1.376   5.442   3.715
 4896SOL    HW215588   1.504   5.341   3.729
 4897SOL     OW15589   1.751   5.764   5.771
 4897SOL    HW115590   1.789   5.855   5.789
 4897SOL    HW215591   1.823   5.704   5.734
 4898SOL     OW15592   3.920   1.188   4.866
 4898SOL    HW115593   4.007   1.222   4.832
 4898SOL    HW215594   3.919   1.193   4.966
 4899SOL     OW15595   6.197   5.504   2.038
 4899SOL    HW115596   6.115   5.484   1.984
 4899SOL    HW215597   6.262   5.429   2.030
 4900SOL     OW15598   4.232   6.261   5.372
 4900SOL    HW115599   4.279   6.320   5.306
 4900SOL    HW215600   4.299   6.198   5.412
 4901SOL     OW15601   1.032   2.350   5.955
 4901SOL    HW115602   1.098   2.405   6.006
 4901SOL    HW215603   1.037   2.375   5.858
 4902SOL     OW15604   2.136   0.600   6.557
 4902SOL    HW115605   2.163   0.694   6.580
 4902SOL    HW215606   2.042   0.584   6.587
 4903SOL     OW15607   4.952   5.291   1.224
 4903SOL    HW115608   5.051   5.289   1.228
 4903SOL    HW215609   4.918   5.373   1.271
 4904SOL     OW15610   1.924   0.957   6.659
 4904SOL    HW115611   1.984   0.935   6.736
 4904SOL    HW215612   1.831   0.924   6.678
 4905SOL     OW15613   2.891   6.936   2.801
 4905SOL    HW115614   2.968   6.873   2.792
 4905SOL    HW215615   2.922   0.007   2.786
 4906SOL     OW15616   4.598   3.324   5.385
 4906SOL    HW115617   4.501   3.305   5.397
 4906SOL    HW215618   4.609   3.404   5.325
 4907SOL     OW15619   4.570   1.556   0.219
 4907SOL    HW115620   4.669   1.569   0.223
 4907SOL    HW215621   4.545   1.513   0.132
 4908SOL     OW15622   5.001   6.908   0.061
 4908SOL    HW115623   4.986   6.814   0.033
 4908SOL    HW215624   4.912   6.954   0.070
 4909SOL     OW15625   6.341   4.134   3.441
 4909SOL    HW115626   6.332   4.100   3.347
 4909SOL    HW215627   6.438   4.148   3.462
 4910SOL     OW15628   5.390   0.728   4.888
 4910SOL    HW115629   5.314   0.700   4.828
 4910SOL    HW215630   5.475   0.727   4.836
 4911SOL     OW15631   1.760   2.379   2.558
 4911SOL    HW115632   1.711   2.377   2.471
 4911SOL    HW215633   1.718   2.446   2.619
 4912SOL     OW15634   5.519   1.983   5.781
 4912SOL    HW115635   5.581   1.908   5.757
 4912SOL    HW215636   5.559   2.069   5.750
 4913SOL     OW15637   5.367   2.447   5.447
 4913SOL    HW115638   5.310   2.525   5.421
 4913SOL    HW215639   5.324   2.398   5.522
 4914SOL     OW15640   4.869   0.502   4.732
 4914SOL    HW115641   4.920   0.416   4.729
 4914SOL    HW215642   4.834   0.523   4.640
 4915SOL     OW15643   3.130   5.710   5.085
 4915SOL    HW115644   3.043   5.749   5.054
 4915SOL    HW215645   3.184   5.684   5.005
 4916SOL     OW15646   6.105   0.677   4.527
 4916SOL    HW115647   6.103   0.579   4.508
 4916SOL    HW215648   6.118   0.727   4.442
 4917SOL     OW15649   3.483   6.116   0.862
 4917SOL    HW115650   3.505   6.213   0.857
 4917SOL    HW215651   3.510   6.071   0.777
 4918SOL     OW15652   6.490   5.856   2.138
 4918SOL    HW115653   6.586   5.871   2.115
 4918SOL    HW215654   6.468   5.905   2.222
 4919SOL     OW15655   4.175   3.293   1.797
 4919SOL    HW115656   4.264   3.284   1.753
 4919SOL    HW215657   4.159   3.389   1.819
 4920SOL     OW15658   5.850   0.070   5.641
 4920SOL    HW115659   5.840   0.078   5.740
 4920SOL    HW215660   5.813   7.005   5.611
 4921SOL     OW15661   0.503   6.631   0.979
 4921SOL    HW115662   0.522   6.661   0.886
 4921SOL    HW215663   0.422   6.572   0.978
 4922SOL     OW15664   3.067   2.010   5.235
 4922SOL    HW115665   3.151   2.023   5.183
 4922SOL    HW215666   3.001   2.080   5.209
 4923SOL     OW15667   3.297   2.053   3.139
 4923SOL    HW115668   3.282   2.099   3.227
 4923SOL    HW215669   3.316   1.956   3.155
 4924SOL     OW15670   2.705   1.427   5.723
 4924SOL    HW115671   2.628   1.407   5.783
 4924SOL    HW215672   2.774   1.355   5.732
 4925SOL     OW15673   4.444   6.687   3.194
 4925SOL    HW115674   4.504   6.765   3.179
 4925SOL    HW215675   4.372   6.687   3.124
 4926SOL     OW15676   5.389   1.497   1.407
 4926SOL    HW115677   5.452   1.432   1.450
 4926SOL    HW215678   5.322   1.448   1.352
 4927SOL     OW15679   2.865   1.876   6.482
 4927SOL    HW115680   2.888   1.935   6.405
 4927SOL    HW215681   2.873   1.928   6.568
 4928SOL     OW15682   1.360   1.785   1.120
 4928SOL    HW115683   1.308   1.805   1.037
 4928SOL    HW215684   1.389   1.689   1.119
 4929SOL     OW15685   0.115   0.367   3.627
 4929SOL    HW115686   0.102   0.411   3.716
 4929SOL    HW215687   0.147   0.435   3.561
 4930SOL     OW15688   5.912   0.053   1.976
 4930SOL    HW115689   5.868   7.022   2.048
 4930SOL    HW215690   5.851   0.126   1.945
 4931SOL     OW15691   6.420   6.571   2.021
 4931SOL    HW115692   6.394   6.486   1.975
 4931SOL    HW215693   6.375   6.648   1.976
 4932SOL     OW15694   3.013   3.769   2.956
 4932SOL    HW115695   3.107   3.755   2.926
 4932SOL    HW215696   2.955   3.789   2.877
 4933SOL     OW15697   2.380   6.175   4.542
 4933SOL    HW115698   2.345   6.114   4.471
 4933SOL    HW215699   2.480   6.173   4.542
 4934SOL     OW15700   3.239   5.917   2.850
 4934SOL    HW115701   3.166   5.982   2.828
 4934SOL    HW215702   3.285   5.946   2.934
 4935SOL     OW15703   1.348   1.959   6.665
 4935SOL    HW115704   1.330   1.910   6.580
 4935SOL    HW215705   1.299   1.914   6.740
 4936SOL     OW15706   2.140   4.141   1.452
 4936SOL    HW115707   2.044   4.147   1.425
 4936SOL    HW215708   2.195   4.111   1.374
 4937SOL     OW15709   4.885   3.213   4.997
 4937SOL    HW115710   4.792   3.231   4.964
 4937SOL    HW215711   4.884   3.208   5.097
 4938SOL     OW15712   3.870   5.360   5.665
 4938SOL    HW115713   3.882   5.413   5.580
 4938SOL    HW215714   3.935   5.284   5.665
 4939SOL     OW15715   4.681   3.106   5.754
 4939SOL    HW115716   4.588   3.140   5.760
 4939SOL    HW215717   4.689   3.044   5.676
 4940SOL     OW15718   2.071   6.615   4.965
 4940SOL    HW115719   2.114   6.524   4.968
 4940SOL    HW215720   1.995   6.614   4.901
 4941SOL     OW15721   4.815   1.341   6.675
 4941SOL    HW115722   4.782   1.270   6.737
 4941SOL    HW215723   4.887   1.304   6.617
 4942SOL     OW15724   5.035   3.752   5.563
 4942SOL    HW115725   5.089   3.774   5.644
 4942SOL    HW215726   5.015   3.654   5.562
 4943SOL     OW15727   3.866   2.392   0.902
 4943SOL    HW115728   3.820   2.303   0.903
 4943SOL    HW215729   3.948   2.388   0.846
 4944SOL     OW15730   2.132   4.443   3.288
 4944SOL    HW115731   2.108   4.389   3.207
 4944SOL    HW215732   2.101   4.537   3.276
 4945SOL     OW15733   0.361   6.782   4.128
 4945SOL    HW115734   0.341   6.685   4.114
 4945SOL    HW215735   0.277   6.832   4.149
 4946SOL     OW15736   1.713   3.193   2.010
 4946SOL    HW115737   1.728   3.289   2.034
 4946SOL    HW215738   1.796   3.140   2.027
 4947SOL     OW15739   1.005   0.270   0.392
 4947SOL    HW115740   1.029   0.330   0.315
 4947SOL    HW215741   1.078   0.202   0.404
 4948SOL     OW15742   2.451   1.174   2.499
 4948SOL    HW115743   2.487   1.247   2.557
 4948SOL    HW215744   2.481   1.085   2.534
 4949SOL     OW15745   5.672   0.182   5.061
 4949SOL    HW115746   5.725   0.151   5.140
 4949SOL    HW215747   5.632   0.272   5.081
 4950SOL     OW15748   2.700   5.754   5.179
 4950SOL    HW115749   2.732   5.707   5.097
 4950SOL    HW215750   2.748   5.717   5.259
 4951SOL     OW15751   4.335   1.791   4.692
 4951SOL    HW115752   4.267   1.785   4.619
 4951SOL    HW215753   4.342   1.885   4.723
 4952SOL     OW15754   0.265   6.687   5.352
 4952SOL    HW115755   0.208   6.667   5.272
 4952SOL    HW215756   0.328   6.762   5.329
 4953SOL     OW15757   1.582   5.861   1.556
 4953SOL    HW115758   1.604   5.834   1.462
 4953SOL    HW215759   1.615   5.792   1.619
 4954SOL     OW15760   5.509   5.493   0.082
 4954SOL    HW115761   5.547   5.585   0.070
 4954SOL    HW215762   5.577   5.425   0.055
 4955SOL     OW15763   1.162   6.691   1.431
 4955SOL    HW115764   1.092   6.686   1.360
 4955SOL    HW215765   1.252   6.699   1.390
 4956SOL     OW15766   3.995   0.082   4.613
 4956SOL    HW115767   4.033   0.171   4.638
 4956SOL    HW215768   4.069   0.019   4.592
 4957SOL     OW15769   0.888   0.888   3.876
 4957SOL    HW115770   0.900   0.821   3.950
 4957SOL    HW215771   0.927   0.852   3.791
 4958SOL     OW15772   0.418   6.431   6.319
 4958SOL    HW115773   0.362   6.470   6.392
 4958SOL    HW215774   0.458   6.505   6.265
 4959SOL     OW15775   0.927   0.756   0.673
 4959SOL    HW115776   0.952   0.795   0.585
 4959SOL    HW215777   0.898   0.829   0.735
 4960SOL     OW15778   3.494   5.903   4.231
 4960SOL    HW115779   3.454   5.891   4.322
 4960SOL    HW215780   3.475   5.821   4.176
 4961SOL     OW15781   4.974   0.264   4.695
 4961SOL    HW115782   5.051   0.209   4.725
 4961SOL    HW215783   4.950   0.239   4.601
 4962SOL     OW15784   5.902   2.584   1.644
 4962SOL    HW115785   5.930   2.509   1.705
 4962SOL    HW215786   5.864   2.659   1.699
 4963SOL     OW15787   0.762   5.142   1.631
 4963SOL    HW115788   0.725   5.057   1.596
 4963SOL    HW215789   0.771   5.136   1.731
 4964SOL     OW15790   3.293   6.704   3.453
 4964SOL    HW115791   3.287   6.802   3.433
 4964SOL    HW215792   3.386   6.672   3.432
 4965SOL     OW15793   0.017   6.967   4.483
 4965SOL    HW115794   0.082   0.008   4.525
 4965SOL    HW215795   6.985   6.924   4.554
 4966SOL     OW15796   3.203   5.629   5.340
 4966SOL    HW115797   3.114   5.649   5.382
 4966SOL    HW215798   3.198   5.647   5.242
 4967SOL     OW15799   3.807   2.266   6.751
 4967SOL    HW115800   3.778   2.171   6.763
 4967SOL    HW215801   3.852   2.297   6.835
 4968SOL     OW15802   5.094   2.736   3.979
 4968SOL    HW115803   5.186   2.715   4.012
 4968SOL    HW215804   5.095   2.745   3.880
 4969SOL     OW15805   1.644   1.302   1.288
 4969SOL    HW115806   1.659   1.364   1.210
 4969SOL    HW215807   1.723   1.243   1.299
 4970SOL     OW15808   1.112   2.043   4.953
 4970SOL    HW115809   1.165   2.090   4.883
 4970SOL    HW215810   1.129   1.945   4.948
 4971SOL     OW15811   6.433   6.508   3.014
 4971SOL    HW115812   6.521   6.480   3.051
 4971SOL    HW215813   6.359   6.461   3.063
 4972SOL     OW15814   1.687   3.694   0.503
 4972SOL    HW115815   1.618   3.764   0.523
 4972SOL    HW215816   1.667   3.612   0.557
 4973SOL     OW15817   6.232   5.996   2.466
 4973SOL    HW115818   6.320   5.956   2.441
 4973SOL    HW215819   6.161   5.926   2.465
 4974SOL     OW15820   5.425   6.069   2.665
 4974SOL    HW115821   5.488   6.145   2.651
 4974SOL    HW215822   5.463   6.005   2.732
 4975SOL     OW15823   6.184   6.208   0.499
 4975SOL    HW115824   6.239   6.284   0.534
 4975SOL    HW215825   6.152   6.230   0.407
 4976SOL     OW15826   3.592   0.984   5.277
 4976SOL    HW115827   3.580   1.056   5.208
 4976SOL    HW215828   3.618   0.899   5.231
 4977SOL     OW15829   4.175   3.734   1.047
 4977SOL    HW115830   4.162   3.672   0.970
 4977SOL    HW215831   4.190   3.680   1.130
 4978SOL     OW15832   5.785   3.194   5.694
 4978SOL    HW115833   5.709   3.173   5.756
 4978SOL    HW215834   5.862   3.132   5.714
 4979SOL     OW15835   0.751   0.476   6.049
 4979SOL    HW115836   0.732   0.423   5.967
 4979SOL    HW215837   0.665   0.511   6.087
 4980SOL     OW15838   3.566   5.352   2.388
 4980SOL    HW115839   3.561   5.348   2.488
 4980SOL    HW215840   3.514   5.431   2.356
 4981SOL     OW15841   4.545   6.956   5.316
 4981SOL    HW115842   4.544   0.027   5.349
 4981SOL    HW215843   4.458   6.912   5.339
 4982SOL     OW15844   2.231   2.251   0.027
 4982SOL    HW115845   2.312   2.286   7.003
 4982SOL    HW215846   2.236   2.151   0.031
 4983SOL     OW15847   5.417   2.576   4.179
 4983SOL    HW115848   5.504   2.533   4.203
 4983SOL    HW215849   5.409   2.664   4.225
 4984SOL     OW15850   5.021   4.091   4.151
 4984SOL    HW115851   4.995   3.995   4.157
 4984SOL    HW215852   5.025   4.130   4.243
 4985SOL     OW15853   5.184   5.025   2.657
 4985SOL    HW115854   5.129   4.948   2.688
 4985SOL    HW215855   5.130   5.081   2.594
 4986SOL     OW15856   5.497   4.568   3.440
 4986SOL    HW115857   5.557   4.494   3.470
 4986SOL    HW215858   5.528   4.654   3.480
 4987SOL     OW15859   6.791   3.091   1.405
 4987SOL    HW115860   6.864   3.104   1.472
 4987SOL    HW215861   6.735   3.013   1.431
 4988SOL     OW15862   0.281   1.208   4.257
 4988SOL    HW115863   0.244   1.118   4.235
 4988SOL    HW215864   0.355   1.230   4.192
 4989SOL     OW15865   0.001   1.328   0.455
 4989SOL    HW115866   7.011   1.427   0.440
 4989SOL    HW215867   6.937   1.287   0.480
 4990SOL     OW15868   0.298   2.705   5.505
 4990SOL    HW115869   0.377   2.751   5.464
 4990SOL    HW215870   0.326   2.662   5.591
 4991SOL     OW15871   0.771   3.070   4.248
 4991SOL    HW115872   0.788   2.986   4.196
 4991SOL    HW215873   0.675   3.096   4.239
 4992SOL     OW15874   3.378   1.007   5.464
 4992SOL    HW115875   3.357   1.104   5.453
 4992SOL    HW215876   3.462   0.985   5.415
 4993SOL     OW15877   2.745   6.110   4.056
 4993SOL    HW115878   2.665   6.111   3.995
 4993SOL    HW215879   2.807   6.037   4.028
 4994SOL     OW15880   0.546   0.050   2.935
 4994SOL    HW115881   0.519   0.135   2.889
 4994SOL    HW215882   0.646   0.044   2.938
 4995SOL     OW15883   6.478   2.820   6.209
 4995SOL    HW115884   6.399   2.763   6.186
 4995SOL    HW215885   6.554   2.761   6.239
 4996SOL     OW15886   0.781   1.940   2.470
 4996SOL    HW115887   0.788   1.977   2.377
 4996SOL    HW215888   0.719   1.861   2.470
 4997SOL     OW15889   6.844   2.744   3.377
 4997SOL    HW115890   6.769   2.706   3.321
 4997SOL    HW215891   6.866   2.681   3.451
 4998SOL     OW15892   1.153   5.257   4.679
 4998SOL    HW115893   1.248   5.287   4.685
 4998SOL    HW215894   1.120   5.272   4.586
 4999SOL     OW15895   5.725   5.598   0.870
 4999SOL    HW115896   5.808   5.546   0.891
 4999SOL    HW215897   5.646   5.551   0.910
 5000SOL     OW15898   0.665   0.773   4.500
 5000SOL    HW115899   0.591   0.737   4.557
 5000SOL    HW215900   0.724   0.833   4.556
 5001SOL     OW15901   3.126   4.442   5.310
 5001SOL    HW115902   3.089   4.462   5.400
 5001SOL    HW215903   3.077   4.494   5.240
 5002SOL     OW15904   2.520   1.168   2.212
 5002SOL    HW115905   2.554   1.251   2.167
 5002SOL    HW215906   2.503   1.188   2.308
 5003SOL     OW15907   6.882   6.346   2.331
 5003SOL    HW115908   6.893   6.442   2.308
 5003SOL    HW215909   6.807   6.336   2.398
 5004SOL     OW15910   2.360   6.051   6.586
 5004SOL    HW115911   2.452   6.038   6.623
 5004SOL    HW215912   2.317   6.130   6.630
 5005SOL     OW15913   4.402   3.030   0.447
 5005SOL    HW115914   4.489   3.000   0.486
 5005SOL    HW215915   4.340   2.953   0.440
 5006SOL     OW15916   5.204   6.364   5.312
 5006SOL    HW115917   5.230   6.450   5.356
 5006SOL    HW215918   5.109   6.370   5.282
 5007SOL     OW15919   4.638   1.116   5.617
 5007SOL    HW115920   4.611   1.161   5.532
 5007SOL    HW215921   4.711   1.168   5.661
 5008SOL     OW15922   5.849   1.176   3.532
 5008SOL    HW115923   5.815   1.123   3.610
 5008SOL    HW215924   5.940   1.143   3.506
 5009SOL     OW15925   0.692   6.887   2.654
 5009SOL    HW115926   0.772   6.827   2.655
 5009SOL    HW215927   0.714   6.973   2.701
 5010SOL     OW15928   3.923   3.894   3.896
 5010SOL    HW115929   3.934   3.966   3.963
 5010SOL    HW215930   3.946   3.805   3.936
 5011SOL     OW15931   1.068   3.086   2.137
 5011SOL    HW115932   0.991   3.056   2.193
 5011SOL    HW215933   1.131   3.009   2.122
 5012SOL     OW15934   6.784   2.341   5.943
 5012SOL    HW115935   6.750   2.431   5.970
 5012SOL    HW215936   6.824   2.347   5.852
 5013SOL     OW15937   4.699   1.526   5.878
 5013SOL    HW115938   4.706   1.613   5.829
 5013SOL    HW215939   4.614   1.524   5.931
 5014SOL     OW15940   5.987   6.291   0.672
 5014SOL    HW115941   6.055   6.244   0.616
 5014SOL    HW215942   5.968   6.236   0.754
 5015SOL     OW15943   4.294   2.234   3.608
 5015SOL    HW115944   4.389   2.267   3.604
 5015SOL    HW215945   4.232   2.311   3.593
 5016SOL     OW15946   2.333   0.648   2.672
 5016SOL    HW115947   2.313   0.634   2.575
 5016SOL    HW215948   2.432   0.648   2.687
 5017SOL     OW15949   2.776   2.152   0.687
 5017SOL    HW115950   2.764   2.063   0.644
 5017SOL    HW215951   2.826   2.141   0.773
 5018SOL     OW15952   6.224   4.972   3.547
 5018SOL    HW115953   6.296   4.909   3.516
 5018SOL    HW215954   6.152   4.921   3.593
 5019SOL     OW15955   1.954   4.183   0.189
 5019SOL    HW115956   1.880   4.132   0.146
 5019SOL    HW215957   1.991   4.130   0.265
 5020SOL     OW15958   4.348   5.025   6.850
 5020SOL    HW115959   4.379   5.070   6.767
 5020SOL    HW215960   4.316   5.094   6.915
 5021SOL     OW15961   2.152   4.829   5.583
 5021SOL    HW115962   2.178   4.775   5.663
 5021SOL    HW215963   2.201   4.794   5.502
 5022SOL     OW15964   1.607   6.112   0.653
 5022SOL    HW115965   1.527   6.068   0.695
 5022SOL    HW215966   1.587   6.133   0.558
 5023SOL     OW15967   5.983   3.082   0.900
 5023SOL    HW115968   5.948   2.989   0.912
 5023SOL    HW215969   6.059   3.098   0.963
 5024SOL     OW15970   6.246   3.619   4.047
 5024SOL    HW115971   6.191   3.580   4.120
 5024SOL    HW215972   6.221   3.715   4.035
 5025SOL     OW15973   5.077   2.092   3.320
 5025SOL    HW115974   5.074   2.137   3.409
 5025SOL    HW215975   5.046   1.998   3.329
 5026SOL     OW15976   6.698   5.981   4.354
 5026SOL    HW115977   6.689   6.036   4.271
 5026SOL    HW215978   6.745   5.896   4.332
 5027SOL     OW15979   0.717   6.657   3.689
 5027SOL    HW115980   0.648   6.691   3.624
 5027SOL    HW215981   0.714   6.557   3.691
 5028SOL     OW15982   0.513   6.909   3.158
 5028SOL    HW115983   0.501   6.958   3.072
 5028SOL    HW215984   0.568   6.827   3.142
 5029SOL     OW15985   0.061   2.252   1.615
 5029SOL    HW115986   0.133   2.250   1.685
 5029SOL    HW215987   0.048   2.161   1.577
 5030SOL     OW15988   7.016   0.411   6.802
 5030SOL    HW115989   0.062   0.457   6.859
 5030SOL    HW215990   0.013   0.313   6.800
 5031SOL     OW15991   5.882   0.457   4.409
 5031SOL    HW115992   5.959   0.434   4.469
 5031SOL    HW215993   5.897   0.418   4.319
 5032SOL     OW15994   1.292   4.901   0.778
 5032SOL    HW115995   1.318   4.996   0.759
 5032SOL    HW215996   1.269   4.893   0.875
 5033SOL     OW15997   2.680   4.657   5.503
 5033SOL    HW115998   2.755   4.601   5.468
 5033SOL    HW215999   2.708   4.699   5.589
 5034SOL     OW16000   6.293   2.409   1.871
 5034SOL    HW116001   6.365   2.346   1.899
 5034SOL    HW216002   6.297   2.491   1.928
 5035SOL     OW16003   5.501   5.628   0.340
 5035SOL    HW116004   5.449   5.598   0.420
 5035SOL    HW216005   5.530   5.548   0.287
 5036SOL     OW16006   1.285   0.346   1.382
 5036SOL    HW116007   1.313   0.406   1.458
 5036SOL    HW216008   1.306   0.251   1.405
 5037SOL     OW16009   4.664   1.660   3.706
 5037SOL    HW116010   4.650   1.609   3.791
 5037SOL    HW216011   4.578   1.704   3.679
 5038SOL     OW16012   1.030   6.000   5.524
 5038SOL    HW116013   1.098   5.965   5.589
 5038SOL    HW216014   1.008   5.930   5.457
 5039SOL     OW16015   2.440   2.747   5.219
 5039SOL    HW116016   2.446   2.747   5.319
 5039SOL    HW216017   2.458   2.840   5.184
 5040SOL     OW16018   3.417   4.086   5.695
 5040SOL    HW116019   3.393   4.059   5.602
 5040SOL    HW216020   3.350   4.152   5.729
 5041SOL     OW16021   1.010   3.484   1.657
 5041SOL    HW116022   1.013   3.458   1.753
 5041SOL    HW216023   0.915   3.481   1.625
 5042SOL     OW16024   5.541   2.988   6.410
 5042SOL    HW116025   5.448   3.004   6.376
 5042SOL    HW216026   5.582   2.912   6.361
 5043SOL     OW16027   3.745   0.474   3.395
 5043SOL    HW116028   3.769   0.440   3.304
 5043SOL    HW216029   3.771   0.570   3.404
 5044SOL     OW16030   6.082   5.490   3.034
 5044SOL    HW116031   6.161   5.436   3.006
 5044SOL    HW216032   6.002   5.430   3.040
 5045SOL     OW16033   6.224   2.582   6.869
 5045SOL    HW116034   6.190   2.627   6.952
 5045SOL    HW216035   6.158   2.513   6.840
 5046SOL     OW16036   3.582   3.174   5.151
 5046SOL    HW116037   3.623   3.254   5.107
 5046SOL    HW216038   3.654   3.108   5.173
 5047SOL     OW16039   6.763   1.000   2.523
 5047SOL    HW116040   6.831   1.070   2.543
 5047SOL    HW216041   6.762   0.933   2.597
 5048SOL     OW16042   0.104   2.495   1.501
 5048SOL    HW116043   0.192   2.459   1.469
 5048SOL    HW216044   0.053   2.422   1.546
 5049SOL     OW16045   1.328   2.284   1.861
 5049SOL    HW116046   1.350   2.231   1.778
 5049SOL    HW216047   1.229   2.286   1.874
 5050SOL     OW16048   0.686   3.025   1.409
 5050SOL    HW116049   0.610   3.074   1.451
 5050SOL    HW216050   0.663   2.928   1.401
 5051SOL     OW16051   3.104   4.508   0.763
 5051SOL    HW116052   3.016   4.556   0.765
 5051SOL    HW216053   3.093   4.418   0.721
 5052SOL     OW16054   5.069   5.016   1.073
 5052SOL    HW116055   4.989   5.075   1.064
 5052SOL    HW216056   5.151   5.071   1.084
 5053SOL     OW16057   2.611   3.846   1.095
 5053SOL    HW116058   2.640   3.907   1.021
 5053SOL    HW216059   2.673   3.857   1.173
 5054SOL     OW16060   3.715   5.739   4.990
 5054SOL    HW116061   3.748   5.734   5.084
 5054SOL    HW216062   3.686   5.648   4.960
 5055SOL     OW16063   1.035   1.827   5.281
 5055SOL    HW116064   0.994   1.879   5.206
 5055SOL    HW216065   1.101   1.886   5.329
 5056SOL     OW16066   0.565   3.101   5.572
 5056SOL    HW116067   0.624   3.161   5.627
 5056SOL    HW216068   0.492   3.065   5.629
 5057SOL     OW16069   0.327   5.950   3.855
 5057SOL    HW116070   0.279   5.863   3.861
 5057SOL    HW216071   0.404   5.942   3.792
 5058SOL     OW16072   4.809   4.264   6.050
 5058SOL    HW116073   4.837   4.337   5.988
 5058SOL    HW216074   4.722   4.225   6.018
 5059SOL     OW16075   3.454   2.024   4.836
 5059SOL    HW116076   3.480   2.092   4.768
 5059SOL    HW216077   3.531   1.963   4.853
 5060SOL     OW16078   0.560   2.830   5.373
 5060SOL    HW116079   0.501   2.911   5.372
 5060SOL    HW216080   0.650   2.855   5.410
 5061SOL     OW16081   3.889   2.987   4.697
 5061SOL    HW116082   3.906   3.045   4.617
 5061SOL    HW216083   3.810   2.929   4.681
 5062SOL     OW16084   4.871   0.774   3.107
 5062SOL    HW116085   4.828   0.856   3.068
 5062SOL    HW216086   4.924   0.800   3.188
 5063SOL     OW16087   1.415   0.001   2.510
 5063SOL    HW116088   1.325   0.001   2.466
 5063SOL    HW216089   1.484   6.996   2.443
 5064SOL     OW16090   4.822   5.478   0.939
 5064SOL    HW116091   4.787   5.517   0.854
 5064SOL    HW216092   4.915   5.446   0.925
 5065SOL     OW16093   2.594   0.095   3.288
 5065SOL    HW116094   2.625   0.004   3.316
 5065SOL    HW216095   2.506   0.087   3.241
 5066SOL     OW16096   2.079   4.342   1.651
 5066SOL    HW116097   2.065   4.285   1.731
 5066SOL    HW216098   2.032   4.302   1.572
 5067SOL     OW16099   4.343   2.797   1.570
 5067SOL    HW116100   4.252   2.817   1.606
 5067SOL    HW216101   4.407   2.866   1.604
 5068SOL     OW16102   3.474   6.389   0.778
 5068SOL    HW116103   3.379   6.393   0.808
 5068SOL    HW216104   3.478   6.360   0.682
 5069SOL     OW16105   3.080   4.914   6.195
 5069SOL    HW116106   3.010   4.965   6.146
 5069SOL    HW216107   3.059   4.817   6.193
 5070SOL     OW16108   5.961   3.364   3.910
 5070SOL    HW116109   5.942   3.302   3.986
 5070SOL    HW216110   6.051   3.344   3.871
 5071SOL     OW16111   3.525   0.946   3.736
 5071SOL    HW116112   3.522   1.046   3.728
 5071SOL    HW216113   3.526   0.905   3.644
 5072SOL     OW16114   1.757   1.219   0.911
 5072SOL    HW116115   1.685   1.150   0.903
 5072SOL    HW216116   1.844   1.175   0.929
 5073SOL     OW16117   2.555   6.495   2.537
 5073SOL    HW116118   2.548   6.495   2.437
 5073SOL    HW216119   2.651   6.497   2.563
 5074SOL     OW16120   3.855   2.092   1.808
 5074SOL    HW116121   3.836   2.008   1.860
 5074SOL    HW216122   3.818   2.170   1.858
 5075SOL     OW16123   1.504   3.272   6.760
 5075SOL    HW116124   1.405   3.284   6.750
 5075SOL    HW216125   1.547   3.362   6.775
 5076SOL     OW16126   5.435   0.529   0.606
 5076SOL    HW116127   5.527   0.535   0.646
 5076SOL    HW216128   5.412   0.616   0.562
 5077SOL     OW16129   0.832   5.204   3.455
 5077SOL    HW116130   0.863   5.172   3.366
 5077SOL    HW216131   0.895   5.172   3.526
 5078SOL     OW16132   6.931   1.062   3.726
 5078SOL    HW116133   6.961   1.086   3.633
 5078SOL    HW216134   6.835   1.086   3.737
 5079SOL     OW16135   1.899   2.273   5.991
 5079SOL    HW116136   1.827   2.222   5.944
 5079SOL    HW216137   1.894   2.257   6.089
 5080SOL     OW16138   6.317   5.144   5.922
 5080SOL    HW116139   6.281   5.238   5.920
 5080SOL    HW216140   6.270   5.089   5.854
 5081SOL     OW16141   3.609   6.049   5.875
 5081SOL    HW116142   3.586   6.133   5.826
 5081SOL    HW216143   3.590   6.061   5.972
 5082SOL     OW16144   5.102   6.579   1.534
 5082SOL    HW116145   5.196   6.603   1.558
 5082SOL    HW216146   5.058   6.658   1.491
 5083SOL     OW16147   2.609   0.653   3.080
 5083SOL    HW116148   2.538   0.657   3.150
 5083SOL    HW216149   2.639   0.746   3.058
 5084SOL     OW16150   0.997   4.804   5.213
 5084SOL    HW116151   0.904   4.767   5.204
 5084SOL    HW216152   1.003   4.858   5.297
 5085SOL     OW16153   0.915   3.662   6.379
 5085SOL    HW116154   0.849   3.634   6.310
 5085SOL    HW216155   0.976   3.732   6.340
 5086SOL     OW16156   1.540   4.425   2.368
 5086SOL    HW116157   1.637   4.439   2.393
 5086SOL    HW216158   1.533   4.356   2.296
 5087SOL     OW16159   6.592   5.305   2.840
 5087SOL    HW116160   6.649   5.301   2.922
 5087SOL    HW216161   6.650   5.317   2.759
 5088SOL     OW16162   4.076   6.109   2.404
 5088SOL    HW116163   4.080   6.184   2.338
 5088SOL    HW216164   4.072   6.022   2.355
 5089SOL     OW16165   5.450   4.793   4.538
 5089SOL    HW116166   5.481   4.853   4.464
 5089SOL    HW216167   5.360   4.757   4.517
 5090SOL     OW16168   2.345   0.241   4.479
 5090SOL    HW116169   2.269   0.198   4.431
 5090SOL    HW216170   2.312   0.281   4.565
 5091SOL     OW16171   6.301   0.019   0.453
 5091SOL    HW116172   6.363   7.018   0.528
 5091SOL    HW216173   6.245   0.097   0.480
 5092SOL     OW16174   3.689   3.906   4.868
 5092SOL    HW116175   3.787   3.921   4.854
 5092SOL    HW216176   3.675   3.826   4.927
 5093SOL     OW16177   2.047   1.640   2.986
 5093SOL    HW116178   2.045   1.740   2.978
 5093SOL    HW216179   2.016   1.599   2.901
 5094SOL     OW16180   2.119   5.666   6.742
 5094SOL    HW116181   2.123   5.568   6.760
 5094SOL    HW216182   2.168   5.686   6.657
 5095SOL     OW16183   0.361   1.523   2.884
 5095SOL    HW116184   0.397   1.599   2.830
 5095SOL    HW216185   0.372   1.437   2.833
 5096SOL     OW16186   5.083   2.802   6.229
 5096SOL    HW116187   5.072   2.790   6.130
 5096SOL    HW216188   5.016   2.868   6.262
 5097SOL     OW16189   6.940   6.313   6.208
 5097SOL    HW116190   6.895   6.296   6.121
 5097SOL    HW216191   6.967   6.409   6.213
 5098SOL     OW16192   3.535   1.966   1.976
 5098SOL    HW116193   3.459   1.994   1.917
 5098SOL    HW216194   3.586   2.047   2.005
 5099SOL     OW16195   1.029   5.959   1.963
 5099SOL    HW116196   1.043   6.056   1.986
 5099SOL    HW216197   0.986   5.913   2.041
 5100SOL     OW16198   5.123   4.369   2.620
 5100SOL    HW116199   5.221   4.385   2.629
 5100SOL    HW216200   5.090   4.408   2.534
 5101SOL     OW16201   4.592   0.214   5.388
 5101SOL    HW116202   4.532   0.291   5.408
 5101SOL    HW216203   4.684   0.248   5.370
 5102SOL     OW16204   5.351   5.280   4.161
 5102SOL    HW116205   5.446   5.270   4.131
 5102SOL    HW216206   5.346   5.354   4.228
 5103SOL     OW16207   0.891   0.502   5.656
 5103SOL    HW116208   0.978   0.498   5.705
 5103SOL    HW216209   0.816   0.514   5.721
 5104SOL     OW16210   3.954   5.111   1.204
 5104SOL    HW116211   3.909   5.071   1.124
 5104SOL    HW216212   4.014   5.042   1.246
 5105SOL     OW16213   3.374   3.372   6.965
 5105SOL    HW116214   3.381   3.273   6.977
 5105SOL    HW216215   3.374   3.417   0.031
 5106SOL     OW16216   3.928   2.972   0.699
 5106SOL    HW116217   3.861   2.964   0.773
 5106SOL    HW216218   3.964   2.881   0.678
 5107SOL     OW16219   4.902   2.393   1.120
 5107SOL    HW116220   4.987   2.394   1.172
 5107SOL    HW216221   4.850   2.311   1.143
 5108SOL     OW16222   4.522   3.498   6.710
 5108SOL    HW116223   4.456   3.477   6.782
 5108SOL    HW216224   4.474   3.512   6.624
 5109SOL     OW16225   1.817   2.907   0.894
 5109SOL    HW116226   1.799   2.811   0.872
 5109SOL    HW216227   1.912   2.929   0.875
 5110SOL     OW16228   6.062   0.191   6.030
 5110SOL    HW116229   6.004   0.155   6.104
 5110SOL    HW216230   6.057   0.291   6.029
 5111SOL     OW16231   1.557   5.948   5.207
 5111SOL    HW116232   1.656   5.940   5.196
 5111SOL    HW216233   1.512   5.883   5.147
 5112SOL     OW16234   0.085   0.823   3.451
 5112SOL    HW116235   0.047   0.915   3.442
 5112SOL    HW216236   0.013   0.756   3.431
 5113SOL     OW16237   2.115   5.279   1.023
 5113SOL    HW116238   2.036   5.255   0.966
 5113SOL    HW216239   2.199   5.268   0.971
 5114SOL     OW16240   3.970   6.663   0.544
 5114SOL    HW116241   3.919   6.627   0.622
 5114SOL    HW216242   4.068   6.655   0.561
 5115SOL     OW16243   1.707   4.078   1.679
 5115SOL    HW116244   1.647   4.101   1.756
 5115SOL    HW216245   1.668   4.001   1.628
 5116SOL     OW16246   2.625   0.061   6.774
 5116SOL    HW116247   2.698   7.018   6.795
 5116SOL    HW216248   2.539   0.027   6.812
 5117SOL     OW16249   1.557   2.749   4.193
 5117SOL    HW116250   1.582   2.785   4.283
 5117SOL    HW216251   1.556   2.649   4.196
 5118SOL     OW16252   6.408   6.480   0.239
 5118SOL    HW116253   6.495   6.529   0.226
 5118SOL    HW216254   6.333   6.546   0.244
 5119SOL     OW16255   5.375   2.196   0.373
 5119SOL    HW116256   5.404   2.142   0.452
 5119SOL    HW216257   5.277   2.181   0.357
 5120SOL     OW16258   5.541   0.223   4.693
 5120SOL    HW116259   5.635   0.248   4.714
 5120SOL    HW216260   5.519   0.135   4.736
 5121SOL     OW16261   2.947   3.924   6.881
 5121SOL    HW116262   2.955   3.868   6.964
 5121SOL    HW216263   2.893   3.875   6.813
 5122SOL     OW16264   4.429   5.433   3.318
 5122SOL    HW116265   4.501   5.453   3.252
 5122SOL    HW216266   4.370   5.361   3.281
 5123SOL     OW16267   4.368   1.975   2.176
 5123SOL    HW116268   4.292   1.973   2.112
 5123SOL    HW216269   4.400   2.069   2.187
 5124SOL     OW16270   1.864   6.354   3.656
 5124SOL    HW116271   1.892   6.390   3.745
 5124SOL    HW216272   1.841   6.257   3.664
 5125SOL     OW16273   0.754   2.103   4.137
 5125SOL    HW116274   0.682   2.169   4.115
 5125SOL    HW216275   0.802   2.133   4.219
 5126SOL     OW16276   1.791   6.900   1.145
 5126SOL    HW116277   1.709   6.914   1.090
 5126SOL    HW216278   1.772   6.831   1.215
 5127SOL     OW16279   1.919   5.459   0.467
 5127SOL    HW116280   1.958   5.541   0.509
 5127SOL    HW216281   1.960   5.378   0.510
 5128SOL     OW16282   6.392   6.275   1.982
 5128SOL    HW116283   6.480   6.277   2.029
 5128SOL    HW216284   6.386   6.193   1.925
 5129SOL     OW16285   4.523   6.729   1.379
 5129SOL    HW116286   4.536   6.670   1.459
 5129SOL    HW216287   4.601   6.722   1.318
 5130SOL     OW16288   6.076   4.628   3.467
 5130SOL    HW116289   6.100   4.630   3.370
 5130SOL    HW216290   6.143   4.574   3.517
 5131SOL     OW16291   1.373   2.760   3.543
 5131SOL    HW116292   1.450   2.809   3.585
 5131SOL    HW216293   1.396   2.663   3.536
 5132SOL     OW16294   3.280   4.792   6.865
 5132SOL    HW116295   3.368   4.835   6.880
 5132SOL    HW216296   3.207   4.846   6.907
 5133SOL     OW16297   3.727   5.902   6.489
 5133SOL    HW116298   3.743   5.841   6.567
 5133SOL    HW216299   3.798   5.971   6.485
 5134SOL     OW16300   0.708   3.999   1.320
 5134SOL    HW116301   0.785   4.043   1.366
 5134SOL    HW216302   0.734   3.907   1.290
 5135SOL     OW16303   6.981   1.800   4.758
 5135SOL    HW116304   0.041   1.807   4.702
 5135SOL    HW216305   6.999   1.838   4.849
 5136SOL     OW16306   5.043   0.446   4.335
 5136SOL    HW116307   5.130   0.416   4.296
 5136SOL    HW216308   4.999   0.511   4.272
 5137SOL     OW16309   4.865   3.925   6.379
 5137SOL    HW116310   4.786   3.981   6.355
 5137SOL    HW216311   4.891   3.944   6.474
 5138SOL     OW16312   2.926   3.813   6.503
 5138SOL    HW116313   2.956   3.806   6.408
 5138SOL    HW216314   2.971   3.741   6.557
 5139SOL     OW16315   1.224   6.650   4.149
 5139SOL    HW116316   1.283   6.584   4.103
 5139SOL    HW216317   1.223   6.632   4.247
 5140SOL     OW16318   3.221   2.871   0.722
 5140SOL    HW116319   3.257   2.810   0.792
 5140SOL    HW216320   3.164   2.819   0.658
 5141SOL     OW16321   5.573   3.428   0.655
 5141SOL    HW116322   5.586   3.503   0.591
 5141SOL    HW216323   5.618   3.345   0.620
 5142SOL     OW16324   5.604   3.213   4.441
 5142SOL    HW116325   5.677   3.230   4.508
 5142SOL    HW216326   5.575   3.118   4.448
 5143SOL     OW16327   6.902   4.979   4.117
 5143SOL    HW116328   6.805   4.996   4.138
 5143SOL    HW216329   6.923   4.883   4.133
 5144SOL     OW16330   1.584   0.237   6.329
 5144SOL    HW116331   1.612   0.306   6.263
 5144SOL    HW216332   1.661   0.178   6.351
 5145SOL     OW16333   2.354   5.149   5.425
 5145SOL    HW116334   2.393   5.239   5.404
 5145SOL    HW216335   2.405   5.107   5.500
 5146SOL     OW16336   3.646   3.621   6.754
 5146SOL    HW116337   3.596   3.685   6.695
 5146SOL    HW216338   3.696   3.556   6.697
 5147SOL     OW16339   6.864   4.239   0.768
 5147SOL    HW116340   6.769   4.267   0.783
 5147SOL    HW216341   6.884   4.240   0.670
 5148SOL     OW16342   0.072   6.167   1.628
 5148SOL    HW116343   0.045   6.093   1.690
 5148SOL    HW216344   0.085   6.130   1.536
 5149SOL     OW16345   5.908   1.156   2.971
 5149SOL    HW116346   5.947   1.104   3.046
 5149SOL    HW216347   5.981   1.207   2.924
 5150SOL     OW16348   1.202   6.124   3.655
 5150SOL    HW116349   1.207   6.115   3.556
 5150SOL    HW216350   1.156   6.044   3.694
 5151SOL     OW16351   4.933   1.075   6.265
 5151SOL    HW116352   4.954   1.059   6.169
 5151SOL    HW216353   4.834   1.078   6.277
 5152SOL     OW16354   1.156   4.489   6.963
 5152SOL    HW116355   1.118   4.505   0.031
 5152SOL    HW216356   1.227   4.419   6.968
 5153SOL     OW16357   1.927   2.283   0.730
 5153SOL    HW116358   1.972   2.368   0.702
 5153SOL    HW216359   1.956   2.208   0.670
 5154SOL     OW16360   1.948   3.703   6.020
 5154SOL    HW116361   2.019   3.768   6.047
 5154SOL    HW216362   1.896   3.675   6.100
 5155SOL     OW16363   4.147   6.298   2.171
 5155SOL    HW116364   4.189   6.242   2.100
 5155SOL    HW216365   4.048   6.297   2.161
 5156SOL     OW16366   6.868   2.403   5.695
 5156SOL    HW116367   6.909   2.319   5.660
 5156SOL    HW216368   6.938   2.472   5.707
 5157SOL     OW16369   5.217   2.845   3.700
 5157SOL    HW116370   5.200   2.870   3.605
 5157SOL    HW216371   5.233   2.928   3.754
 5158SOL     OW16372   3.752   0.932   1.312
 5158SOL    HW116373   3.812   1.004   1.277
 5158SOL    HW216374   3.753   0.854   1.249
 5159SOL     OW16375   0.817   3.047   3.773
 5159SOL    HW116376   0.916   3.033   3.781
 5159SOL    HW216377   0.798   3.145   3.766
 5160SOL     OW16378   1.448   3.584   4.702
 5160SOL    HW116379   1.424   3.680   4.696
 5160SOL    HW216380   1.379   3.529   4.655
 5161SOL     OW16381   1.038   3.650   5.593
 5161SOL    HW116382   1.087   3.631   5.508
 5161SOL    HW216383   1.077   3.732   5.636
 5162SOL     OW16384   6.777   5.712   4.175
 5162SOL    HW116385   6.801   5.677   4.085
 5162SOL    HW216386   6.682   5.690   4.195
 5163SOL     OW16387   5.623   5.141   0.618
 5163SOL    HW116388   5.701   5.091   0.654
 5163SOL    HW216389   5.587   5.095   0.537
 5164SOL     OW16390   6.080   2.910   5.203
 5164SOL    HW116391   5.991   2.891   5.244
 5164SOL    HW216392   6.077   2.999   5.157
 5165SOL     OW16393   6.194   4.488   4.464
 5165SOL    HW116394   6.121   4.460   4.402
 5165SOL    HW216395   6.262   4.541   4.413
 5166SOL     OW16396   1.294   4.611   2.257
 5166SOL    HW116397   1.292   4.529   2.200
 5166SOL    HW216398   1.296   4.585   2.353
 5167SOL     OW16399   6.893   6.667   5.997
 5167SOL    HW116400   6.835   6.635   6.071
 5167SOL    HW216401   6.975   6.610   5.991
 5168SOL     OW16402   4.145   2.271   2.963
 5168SOL    HW116403   4.202   2.296   3.041
 5168SOL    HW216404   4.190   2.301   2.878
 5169SOL     OW16405   3.154   4.048   6.121
 5169SOL    HW116406   3.246   4.056   6.161
 5169SOL    HW216407   3.162   4.016   6.027
 5170SOL     OW16408   6.291   4.450   4.761
 5170SOL    HW116409   6.205   4.421   4.803
 5170SOL    HW216410   6.352   4.372   4.753
 5171SOL     OW16411   2.259   4.946   4.309
 5171SOL    HW116412   2.301   4.876   4.367
 5171SOL    HW216413   2.297   5.035   4.332
 5172SOL     OW16414   0.506   4.131   2.024
 5172SOL    HW116415   0.449   4.176   2.092
 5172SOL    HW216416   0.498   4.179   1.936
 5173SOL     OW16417   5.297   3.226   6.181
 5173SOL    HW116418   5.227   3.208   6.112
 5173SOL    HW216419   5.308   3.146   6.240
 5174SOL     OW16420   1.618   4.728   5.268
 5174SOL    HW116421   1.682   4.667   5.221
 5174SOL    HW216422   1.533   4.733   5.216
 5175SOL     OW16423   1.625   4.546   0.268
 5175SOL    HW116424   1.545   4.514   0.318
 5175SOL    HW216425   1.596   4.584   0.180
 5176SOL     OW16426   4.028   3.897   1.201
 5176SOL    HW116427   4.090   3.829   1.161
 5176SOL    HW216428   4.070   3.987   1.195
 5177SOL     OW16429   4.447   6.295   5.938
 5177SOL    HW116430   4.507   6.216   5.951
 5177SOL    HW216431   4.376   6.295   6.009
 5178SOL     OW16432   3.067   2.915   1.650
 5178SOL    HW116433   2.979   2.906   1.603
 5178SOL    HW216434   3.118   2.991   1.610
 5179SOL     OW16435   4.167   6.552   5.772
 5179SOL    HW116436   4.134   6.510   5.688
 5179SOL    HW216437   4.115   6.636   5.790
 5180SOL     OW16438   3.411   1.970   0.472
 5180SOL    HW116439   3.494   1.963   0.528
 5180SOL    HW216440   3.436   1.970   0.375
 5181SOL     OW16441   4.316   0.190   2.642
 5181SOL    HW116442   4.401   0.171   2.691
 5181SOL    HW216443   4.275   0.274   2.677
 5182SOL     OW16444   5.764   4.349   1.864
 5182SOL    HW116445   5.695   4.335   1.794
 5182SOL    HW216446   5.791   4.261   1.903
 5183SOL     OW16447   4.252   6.943   2.266
 5183SOL    HW116448   4.351   6.954   2.265
 5183SOL    HW216449   4.212   7.010   2.328
 5184SOL     OW16450   0.986   1.404   3.467
 5184SOL    HW116451   1.034   1.487   3.439
 5184SOL    HW216452   0.972   1.345   3.387
 5185SOL     OW16453   3.523   0.027   2.635
 5185SOL    HW116454   3.424   0.040   2.631
 5185SOL    HW216455   3.569   0.099   2.584
 5186SOL     OW16456   6.823   4.060   1.199
 5186SOL    HW116457   6.793   3.982   1.253
 5186SOL    HW216458   6.917   4.044   1.167
 5187SOL     OW16459   6.243   2.165   3.299
 5187SOL    HW116460   6.216   2.216   3.380
 5187SOL    HW216461   6.291   2.082   3.326
 5188SOL     OW16462   0.473   4.917   6.605
 5188SOL    HW116463   0.519   4.853   6.667
 5188SOL    HW216464   0.485   5.010   6.638
 5189SOL     OW16465   5.187   4.943   6.671
 5189SOL    HW116466   5.130   4.875   6.626
 5189SOL    HW216467   5.213   4.909   6.762
 5190SOL     OW16468   0.896   2.389   4.072
 5190SOL    HW116469   0.837   2.468   4.056
 5190SOL    HW216470   0.848   2.306   4.044
 5191SOL     OW16471   3.579   1.169   1.968
 5191SOL    HW116472   3.657   1.184   2.029
 5191SOL    HW216473   3.604   1.197   1.875
 5192SOL     OW16474   5.628   5.707   2.459
 5192SOL    HW116475   5.544   5.666   2.496
 5192SOL    HW216476   5.699   5.637   2.453
 5193SOL     OW16477   4.902   4.258   3.956
 5193SOL    HW116478   4.874   4.206   3.875
 5193SOL    HW216479   4.884   4.204   4.038
 5194SOL     OW16480   5.545   0.578   5.824
 5194SOL    HW116481   5.484   0.656   5.809
 5194SOL    HW216482   5.493   0.493   5.814
 5195SOL     OW16483   6.556   6.627   5.400
 5195SOL    HW116484   6.563   6.717   5.442
 5195SOL    HW216485   6.470   6.620   5.350
 5196SOL     OW16486   0.623   4.442   1.935
 5196SOL    HW116487   0.582   4.379   1.869
 5196SOL    HW216488   0.577   4.531   1.929
 5197SOL     OW16489   2.119   6.199   4.624
 5197SOL    HW116490   2.078   6.141   4.554
 5197SOL    HW216491   2.219   6.194   4.618
 5198SOL     OW16492   3.627   6.047   5.045
 5198SOL    HW116493   3.642   5.979   4.973
 5198SOL    HW216494   3.578   6.125   5.007
 5199SOL     OW16495   1.969   5.810   1.342
 5199SOL    HW116496   1.870   5.798   1.330
 5199SOL    HW216497   1.987   5.901   1.380
 5200SOL     OW16498   0.714   1.552   4.676
 5200SOL    HW116499   0.813   1.547   4.661
 5200SOL    HW216500   0.685   1.477   4.735
 5201SOL     OW16501   5.339   4.897   3.665
 5201SOL    HW116502   5.297   4.986   3.682
 5201SOL    HW216503   5.271   4.835   3.626
 5202SOL     OW16504   4.137   3.204   6.385
 5202SOL    HW116505   4.133   3.110   6.420
 5202SOL    HW216506   4.115   3.205   6.288
 5203SOL     OW16507   1.991   0.508   0.609
 5203SOL    HW116508   1.964   0.485   0.516
 5203SOL    HW216509   2.014   0.425   0.659
 5204SOL     OW16510   3.397   0.870   6.449
 5204SOL    HW116511   3.443   0.823   6.524
 5204SOL    HW216512   3.299   0.880   6.470
 5205SOL     OW16513   6.954   6.098   1.024
 5205SOL    HW116514   0.023   6.073   0.995
 5205SOL    HW216515   6.887   6.044   0.973
 5206SOL     OW16516   0.566   4.616   5.013
 5206SOL    HW116517   0.514   4.535   4.985
 5206SOL    HW216518   0.606   4.601   5.103
 5207SOL     OW16519   0.428   0.718   4.632
 5207SOL    HW116520   0.384   0.807   4.633
 5207SOL    HW216521   0.373   0.653   4.578
 5208SOL     OW16522   4.514   2.318   0.419
 5208SOL    HW116523   4.533   2.369   0.336
 5208SOL    HW216524   4.482   2.226   0.396
 5209SOL     OW16525   4.799   6.379   2.893
 5209SOL    HW116526   4.847   6.441   2.831
 5209SOL    HW216527   4.704   6.368   2.863
 5210SOL     OW16528   4.951   4.186   0.430
 5210SOL    HW116529   4.964   4.280   0.462
 5210SOL    HW216530   4.854   4.171   0.408
 5211SOL     OW16531   4.664   2.659   4.124
 5211SOL    HW116532   4.752   2.622   4.095
 5211SOL    HW216533   4.679   2.739   4.183
 5212SOL     OW16534   1.131   3.480   0.746
 5212SOL    HW116535   1.160   3.397   0.794
 5212SOL    HW216536   1.045   3.512   0.787
 5213SOL     OW16537   3.959   3.328   2.636
 5213SOL    HW116538   4.005   3.351   2.722
 5213SOL    HW216539   3.967   3.230   2.619
 5214SOL     OW16540   5.600   3.854   6.020
 5214SOL    HW116541   5.523   3.838   5.959
 5214SOL    HW216542   5.674   3.790   5.999
 5215SOL     OW16543   6.623   3.726   4.953
 5215SOL    HW116544   6.671   3.664   5.015
 5215SOL    HW216545   6.684   3.801   4.928
 5216SOL     OW16546   5.672   4.660   0.510
 5216SOL    HW116547   5.716   4.570   0.516
 5216SOL    HW216548   5.624   4.678   0.596
 5217SOL     OW16549   3.834   5.763   3.951
 5217SOL    HW116550   3.839   5.814   3.866
 5217SOL    HW216551   3.877   5.815   4.024
 5218SOL     OW16552   0.676   0.597   0.675
 5218SOL    HW116553   0.586   0.617   0.636
 5218SOL    HW216554   0.737   0.674   0.660
 5219SOL     OW16555   2.195   2.188   4.990
 5219SOL    HW116556   2.121   2.241   5.031
 5219SOL    HW216557   2.164   2.146   4.906
 5220SOL     OW16558   1.623   4.469   3.375
 5220SOL    HW116559   1.648   4.385   3.326
 5220SOL    HW216560   1.680   4.545   3.343
 5221SOL     OW16561   6.863   0.471   1.676
 5221SOL    HW116562   6.919   0.508   1.602
 5221SOL    HW216563   6.768   0.503   1.666
 5222SOL     OW16564   4.761   4.856   1.763
 5222SOL    HW116565   4.797   4.769   1.798
 5222SOL    HW216566   4.663   4.861   1.781
 5223SOL     OW16567   0.407   2.971   0.966
 5223SOL    HW116568   0.378   2.921   0.884
 5223SOL    HW216569   0.487   3.027   0.944
 5224SOL     OW16570   0.806   1.991   3.888
 5224SOL    HW116571   0.789   2.043   3.971
 5224SOL    HW216572   0.750   1.909   3.887
 5225SOL     OW16573   0.317   1.414   5.065
 5225SOL    HW116574   0.402   1.434   5.114
 5225SOL    HW216575   0.280   1.498   5.026
 5226SOL     OW16576   7.021   6.220   4.103
 5226SOL    HW116577   0.010   6.315   4.075
 5226SOL    HW216578   6.937   6.211   4.158
 5227SOL     OW16579   6.993   2.640   4.976
 5227SOL    HW116580   0.061   2.621   5.015
 5227SOL    HW216581   6.976   2.738   4.977
 5228SOL     OW16582   1.842   3.179   5.724
 5228SOL    HW116583   1.824   3.191   5.627
 5228SOL    HW216584   1.924   3.230   5.749
 5229SOL     OW16585   4.296   0.727   6.597
 5229SOL    HW116586   4.253   0.806   6.554
 5229SOL    HW216587   4.365   0.689   6.535
 5230SOL     OW16588   6.927   0.321   1.879
 5230SOL    HW116589   6.919   0.399   1.816
 5230SOL    HW216590   6.899   0.350   1.971
 5231SOL     OW16591   6.103   1.637   2.384
 5231SOL    HW116592   6.024   1.585   2.354
 5231SOL    HW216593   6.182   1.613   2.328
 5232SOL     OW16594   1.849   3.584   5.778
 5232SOL    HW116595   1.864   3.643   5.857
 5232SOL    HW216596   1.902   3.618   5.700
 5233SOL     OW16597   3.086   0.379   2.644
 5233SOL    HW116598   3.107   0.363   2.547
 5233SOL    HW216599   3.155   0.440   2.683
 5234SOL     OW16600   2.113   2.449   1.325
 5234SOL    HW116601   2.018   2.458   1.358
 5234SOL    HW216602   2.158   2.374   1.373
 5235SOL     OW16603   2.804   2.152   1.222
 5235SOL    HW116604   2.869   2.081   1.194
 5235SOL    HW216605   2.821   2.176   1.318
 5236SOL     OW16606   3.108   5.552   2.370
 5236SOL    HW116607   3.031   5.564   2.433
 5236SOL    HW216608   3.077   5.567   2.276
 5237SOL     OW16609   2.096   2.393   4.327
 5237SOL    HW116610   2.109   2.492   4.340
 5237SOL    HW216611   2.114   2.369   4.232
 5238SOL     OW16612   0.925   5.909   2.686
 5238SOL    HW116613   0.865   5.967   2.741
 5238SOL    HW216614   0.989   5.861   2.746
 5239SOL     OW16615   3.200   3.505   1.300
 5239SOL    HW116616   3.118   3.449   1.315
 5239SOL    HW216617   3.198   3.585   1.360
 5240SOL     OW16618   2.785   3.315   5.817
 5240SOL    HW116619   2.744   3.227   5.840
 5240SOL    HW216620   2.737   3.356   5.739
 5241SOL     OW16621   0.854   6.306   2.334
 5241SOL    HW116622   0.797   6.228   2.307
 5241SOL    HW216623   0.884   6.294   2.429
 5242SOL     OW16624   4.954   0.875   0.023
 5242SOL    HW116625   4.893   0.796   0.017
 5242SOL    HW216626   4.987   0.899   6.954
 5243SOL     OW16627   1.851   6.279   2.048
 5243SOL    HW116628   1.878   6.357   1.992
 5243SOL    HW216629   1.793   6.218   1.994
 5244SOL     OW16630   4.565   3.485   0.072
 5244SOL    HW116631   4.594   3.450   0.161
 5244SOL    HW216632   4.644   3.524   0.024
 5245SOL     OW16633   3.780   4.233   1.126
 5245SOL    HW116634   3.755   4.150   1.177
 5245SOL    HW216635   3.877   4.251   1.137
 5246SOL     OW16636   5.680   2.980   1.100
 5246SOL    HW116637   5.623   2.984   1.181
 5246SOL    HW216638   5.754   2.914   1.114
 5247SOL     OW16639   3.971   2.189   5.982
 5247SOL    HW116640   3.982   2.171   6.080
 5247SOL    HW216641   3.874   2.201   5.962
 5248SOL     OW16642   6.151   1.711   3.241
 5248SOL    HW116643   6.248   1.691   3.227
 5248SOL    HW216644   6.098   1.677   3.163
 5249SOL     OW16645   0.362   5.116   6.335
 5249SOL    HW116646   0.298   5.064   6.392
 5249SOL    HW216647   0.421   5.172   6.393
 5250SOL     OW16648   2.042   5.978   0.811
 5250SOL    HW116649   2.004   6.011   0.897
 5250SOL    HW216650   2.140   5.964   0.821
 5251SOL     OW16651   0.720   4.227   0.908
 5251SOL    HW116652   0.766   4.315   0.917
 5251SOL    HW216653   0.632   4.231   0.957
 5252SOL     OW16654   3.984   0.390   2.541
 5252SOL    HW116655   4.055   0.392   2.611
 5252SOL    HW216656   4.023   0.415   2.452
 5253SOL     OW16657   6.059   4.627   4.661
 5253SOL    HW116658   6.128   4.570   4.616
 5253SOL    HW216659   5.970   4.612   4.618
 5254SOL     OW16660   5.901   0.214   2.771
 5254SOL    HW116661   5.904   0.283   2.844
 5254SOL    HW216662   5.844   0.138   2.800
 5255SOL     OW16663   6.379   1.407   4.986
 5255SOL    HW116664   6.405   1.316   4.953
 5255SOL    HW216665   6.292   1.434   4.946
 5256SOL     OW16666   5.953   0.666   3.013
 5256SOL    HW116667   6.020   0.734   2.983
 5256SOL    HW216668   5.892   0.708   3.080
 5257SOL     OW16669   4.446   0.472   6.277
 5257SOL    HW116670   4.459   0.379   6.311
 5257SOL    HW216671   4.349   0.493   6.273
 5258SOL     OW16672   4.558   1.799   2.202
 5258SOL    HW116673   4.644   1.829   2.244
 5258SOL    HW216674   4.499   1.878   2.186
 5259SOL     OW16675   5.052   5.133   3.179
 5259SOL    HW116676   4.989   5.081   3.121
 5259SOL    HW216677   5.137   5.082   3.190
 5260SOL     OW16678   2.384   0.263   0.252
 5260SOL    HW116679   2.412   0.209   0.172
 5260SOL    HW216680   2.456   0.329   0.273
 5261SOL     OW16681   6.535   4.705   0.248
 5261SOL    HW116682   6.438   4.720   0.230
 5261SOL    HW216683   6.581   4.794   0.259
 5262SOL     OW16684   2.583   0.889   2.565
 5262SOL    HW116685   2.611   0.914   2.657
 5262SOL    HW216686   2.658   0.843   2.517
 5263SOL     OW16687   1.636   1.262   3.341
 5263SOL    HW116688   1.605   1.335   3.280
 5263SOL    HW216689   1.734   1.273   3.359
 5264SOL     OW16690   0.302   2.513   1.753
 5264SOL    HW116691   0.211   2.472   1.756
 5264SOL    HW216692   0.371   2.442   1.768
 5265SOL     OW16693   5.921   3.552   4.787
 5265SOL    HW116694   5.933   3.599   4.700
 5265SOL    HW216695   5.873   3.613   4.851
 5266SOL     OW16696   2.390   0.025   0.535
 5266SOL    HW116697   2.448   7.000   0.470
 5266SOL    HW216698   2.428   0.017   0.627
 5267SOL     OW16699   4.363   2.123   4.497
 5267SOL    HW116700   4.390   2.218   4.478
 5267SOL    HW216701   4.396   2.064   4.424
 5268SOL     OW16702   5.736   0.845   6.372
 5268SOL    HW116703   5.661   0.820   6.433
 5268SOL    HW216704   5.712   0.928   6.322
 5269SOL     OW16705   0.371   6.639   3.128
 5269SOL    HW116706   0.461   6.623   3.088
 5269SOL    HW216707   0.359   6.736   3.146
 5270SOL     OW16708   0.055   1.941   6.496
 5270SOL    HW116709   0.013   1.901   6.414
 5270SOL    HW216710   0.083   1.867   6.558
 5271SOL     OW16711   6.186   5.542   3.916
 5271SOL    HW116712   6.115   5.570   3.852
 5271SOL    HW216713   6.204   5.444   3.904
 5272SOL     OW16714   4.158   0.126   0.029
 5272SOL    HW116715   4.216   0.133   6.971
 5272SOL    HW216716   4.206   0.076   0.101
 5273SOL     OW16717   0.988   3.077   2.495
 5273SOL    HW116718   1.052   3.010   2.532
 5273SOL    HW216719   0.942   3.039   2.415
 5274SOL     OW16720   4.501   5.979   2.323
 5274SOL    HW116721   4.565   6.045   2.283
 5274SOL    HW216722   4.544   5.934   2.401
 5275SOL     OW16723   3.469   0.940   6.895
 5275SOL    HW116724   3.424   1.022   6.860
 5275SOL    HW216725   3.554   0.966   6.941
 5276SOL     OW16726   3.035   6.360   2.273
 5276SOL    HW116727   2.974   6.422   2.222
 5276SOL    HW216728   3.130   6.388   2.259
 5277SOL     OW16729   2.137   1.422   1.944
 5277SOL    HW116730   2.052   1.370   1.932
 5277SOL    HW216731   2.205   1.390   1.878
 5278SOL     OW16732   4.306   5.374   1.641
 5278SOL    HW116733   4.325   5.471   1.653
 5278SOL    HW216734   4.300   5.353   1.543
 5279SOL     OW16735   2.947   5.014   1.394
 5279SOL    HW116736   2.903   5.075   1.461
 5279SOL    HW216737   2.928   4.919   1.418
 5280SOL     OW16738   3.817   5.817   4.736
 5280SOL    HW116739   3.738   5.819   4.675
 5280SOL    HW216740   3.787   5.799   4.829
 5281SOL     OW16741   0.741   1.871   1.732
 5281SOL    HW116742   0.729   1.795   1.796
 5281SOL    HW216743   0.835   1.905   1.737
 5282SOL     OW16744   3.427   1.813   3.796
 5282SOL    HW116745   3.349   1.812   3.734
 5282SOL    HW216746   3.443   1.721   3.831
 5283SOL     OW16747   5.496   5.484   6.826
 5283SOL    HW116748   5.465   5.458   6.918
 5283SOL    HW216749   5.500   5.402   6.768
 5284SOL     OW16750   5.794   3.169   2.748
 5284SOL    HW116751   5.817   3.252   2.696
 5284SOL    HW216752   5.799   3.090   2.687
 5285SOL     OW16753   3.113   4.922   3.297
 5285SOL    HW116754   3.049   4.868   3.351
 5285SOL    HW216755   3.205   4.910   3.334
 5286SOL     OW16756   1.646   4.358   1.593
 5286SOL    HW116757   1.695   4.273   1.608
 5286SOL    HW216758   1.653   4.384   1.497
 5287SOL     OW16759   2.447   2.284   0.372
 5287SOL    HW116760   2.447   2.258   0.469
 5287SOL    HW216761   2.452   2.384   0.365
 5288SOL     OW16762   3.561   0.162   1.085
 5288SOL    HW116763   3.590   0.172   1.180
 5288SOL    HW216764   3.476   0.110   1.082
 5289SOL     OW16765   1.104   5.290   1.762
 5289SOL    HW116766   1.088   5.223   1.835
 5289SOL    HW216767   1.079   5.250   1.674
 5290SOL     OW16768   4.688   5.977   0.805
 5290SOL    HW116769   4.704   6.043   0.731
 5290SOL    HW216770   4.590   5.958   0.812
 5291SOL     OW16771   1.952   5.134   5.771
 5291SOL    HW116772   1.874   5.107   5.715
 5291SOL    HW216773   2.028   5.158   5.712
 5292SOL     OW16774   4.667   2.738   5.914
 5292SOL    HW116775   4.723   2.806   5.961
 5292SOL    HW216776   4.595   2.783   5.861
 5293SOL     OW16777   0.608   0.575   4.305
 5293SOL    HW116778   0.598   0.601   4.209
 5293SOL    HW216779   0.628   0.657   4.359
 5294SOL     OW16780   6.264   2.628   6.167
 5294SOL    HW116781   6.177   2.625   6.217
 5294SOL    HW216782   6.295   2.535   6.149
 5295SOL     OW16783   6.605   1.159   2.365
 5295SOL    HW116784   6.607   1.131   2.269
 5295SOL    HW216785   6.661   1.096   2.420
 5296SOL     OW16786   0.501   4.724   1.385
 5296SOL    HW116787   0.433   4.704   1.314
 5296SOL    HW216788   0.581   4.768   1.344
 5297SOL     OW16789   2.290   1.967   1.198
 5297SOL    HW116790   2.194   1.993   1.196
 5297SOL    HW216791   2.342   2.032   1.254
 5298SOL     OW16792   0.682   5.656   1.552
 5298SOL    HW116793   0.742   5.576   1.551
 5298SOL    HW216794   0.600   5.638   1.498
 5299SOL     OW16795   3.101   0.582   2.084
 5299SOL    HW116796   3.045   0.503   2.106
 5299SOL    HW216797   3.196   0.563   2.108
 5300SOL     OW16798   6.438   5.746   3.478
 5300SOL    HW116799   6.525   5.736   3.527
 5300SOL    HW216800   6.439   5.832   3.427
 5301SOL     OW16801   3.982   1.485   6.773
 5301SOL    HW116802   3.938   1.463   6.859
 5301SOL    HW216803   4.073   1.444   6.771
 5302SOL     OW16804   5.868   4.121   2.534
 5302SOL    HW116805   5.835   4.168   2.616
 5302SOL    HW216806   5.791   4.082   2.483
 5303SOL     OW16807   6.923   4.210   3.347
 5303SOL    HW116808   6.889   4.257   3.266
 5303SOL    HW216809   6.967   4.277   3.408
 5304SOL     OW16810   5.475   1.583   5.809
 5304SOL    HW116811   5.437   1.527   5.736
 5304SOL    HW216812   5.453   1.541   5.898
 5305SOL     OW16813   2.371   0.981   3.082
 5305SOL    HW116814   2.461   0.959   3.120
 5305SOL    HW216815   2.302   0.924   3.125
 5306SOL     OW16816   2.851   0.198   5.688
 5306SOL    HW116817   2.859   0.296   5.673
 5306SOL    HW216818   2.938   0.163   5.725
 5307SOL     OW16819   4.708   6.594   0.071
 5307SOL    HW116820   4.790   6.615   0.017
 5307SOL    HW216821   4.693   6.668   0.136
 5308SOL     OW16822   0.489   1.676   2.415
 5308SOL    HW116823   0.502   1.771   2.386
 5308SOL    HW216824   0.572   1.642   2.459
 5309SOL     OW16825   3.460   4.141   3.509
 5309SOL    HW116826   3.413   4.075   3.568
 5309SOL    HW216827   3.405   4.158   3.427
 5310SOL     OW16828   4.875   2.160   0.513
 5310SOL    HW116829   4.917   2.237   0.562
 5310SOL    HW216830   4.788   2.137   0.557
 5311SOL     OW16831   1.089   5.658   6.648
 5311SOL    HW116832   1.000   5.618   6.623
 5311SOL    HW216833   1.138   5.684   6.565
 5312SOL     OW16834   0.297   3.818   3.179
 5312SOL    HW116835   0.392   3.847   3.175
 5312SOL    HW216836   0.291   3.727   3.221
 5313SOL     OW16837   1.174   6.001   0.424
 5313SOL    HW116838   1.120   5.995   0.340
 5313SOL    HW216839   1.190   6.097   0.447
 5314SOL     OW16840   3.900   5.447   1.073
 5314SOL    HW116841   3.954   5.365   1.053
 5314SOL    HW216842   3.808   5.420   1.102
 5315SOL     OW16843   5.363   2.657   2.038
 5315SOL    HW116844   5.348   2.636   2.135
 5315SOL    HW216845   5.283   2.706   2.002
 5316SOL     OW16846   6.408   4.482   3.593
 5316SOL    HW116847   6.381   4.578   3.580
 5316SOL    HW216848   6.495   4.466   3.546
 5317SOL     OW16849   5.624   6.442   2.668
 5317SOL    HW116850   5.601   6.538   2.679
 5317SOL    HW216851   5.670   6.428   2.581
 5318SOL     OW16852   0.829   2.444   4.618
 5318SOL    HW116853   0.733   2.417   4.627
 5318SOL    HW216854   0.884   2.396   4.686
 5319SOL     OW16855   4.930   0.752   0.686
 5319SOL    HW116856   5.007   0.689   0.696
 5319SOL    HW216857   4.845   0.705   0.710
 5320SOL     OW16858   5.835   2.710   6.082
 5320SOL    HW116859   5.905   2.714   6.010
 5320SOL    HW216860   5.768   2.640   6.059
 5321SOL     OW16861   2.487   5.352   5.784
 5321SOL    HW116862   2.394   5.331   5.754
 5321SOL    HW216863   2.501   5.451   5.779
 5322SOL     OW16864   3.321   6.292   0.097
 5322SOL    HW116865   3.267   6.376   0.085
 5322SOL    HW216866   3.311   6.234   0.016
 5323SOL     OW16867   5.204   2.778   0.970
 5323SOL    HW116868   5.267   2.741   0.901
 5323SOL    HW216869   5.122   2.812   0.924
 5324SOL     OW16870   3.878   3.406   1.538
 5324SOL    HW116871   3.841   3.315   1.557
 5324SOL    HW216872   3.818   3.454   1.475
 5325SOL     OW16873   5.320   5.658   3.053
 5325SOL    HW116874   5.383   5.694   2.984
 5325SOL    HW216875   5.348   5.691   3.143
 5326SOL     OW16876   6.897   6.405   1.681
 5326SOL    HW116877   6.953   6.346   1.623
 5326SOL    HW216878   6.930   6.401   1.775
 5327SOL     OW16879   6.416   0.951   3.932
 5327SOL    HW116880   6.350   0.998   3.874
 5327SOL    HW216881   6.482   0.903   3.874
 5328SOL     OW16882   3.956   4.688   0.493
 5328SOL    HW116883   3.913   4.598   0.480
 5328SOL    HW216884   3.902   4.757   0.445
 5329SOL     OW16885   6.968   4.798   0.061
 5329SOL    HW116886   6.915   4.714   0.052
 5329SOL    HW216887   0.029   4.780   0.112
 5330SOL     OW16888   4.944   4.191   1.060
 5330SOL    HW116889   4.865   4.173   1.002
 5330SOL    HW216890   4.927   4.272   1.115
 5331SOL     OW16891   4.361   3.842   6.886
 5331SOL    HW116892   4.293   3.853   6.814
 5331SOL    HW216893   4.453   3.843   6.845
 5332SOL     OW16894   5.949   3.396   0.102
 5332SOL    HW116895   5.979   3.310   0.061
 5332SOL    HW216896   6.029   3.450   0.128
 5333SOL     OW16897   1.924   1.528   3.954
 5333SOL    HW116898   1.918   1.433   3.984
 5333SOL    HW216899   1.832   1.565   3.941
 5334SOL     OW16900   4.170   5.094   2.080
 5334SOL    HW116901   4.172   5.031   2.158
 5334SOL    HW216902   4.252   5.083   2.025
 5335SOL     OW16903   6.733   4.563   1.571
 5335SOL    HW116904   6.797   4.555   1.495
 5335SOL    HW216905   6.781   4.548   1.658
 5336SOL     OW16906   1.396   3.260   4.112
 5336SOL    HW116907   1.297   3.246   4.123
 5336SOL    HW216908   1.435   3.290   4.199
 5337SOL     OW16909   6.669   4.348   0.468
 5337SOL    HW116910   6.702   4.414   0.536
 5337SOL    HW216911   6.737   4.339   0.394
 5338SOL     OW16912   6.721   3.220   0.839
 5338SOL    HW116913   6.769   3.233   0.926
 5338SOL    HW216914   6.624   3.236   0.853
 5339SOL     OW16915   5.781   3.074   3.088
 5339SOL    HW116916   5.787   3.163   3.133
 5339SOL    HW216917   5.688   3.061   3.052
 5340SOL     OW16918   5.263   2.550   2.272
 5340SOL    HW116919   5.171   2.585   2.261
 5340SOL    HW216920   5.283   2.540   2.370
 5341SOL     OW16921   4.172   5.507   3.677
 5341SOL    HW116922   4.108   5.459   3.618
 5341SOL    HW216923   4.153   5.606   3.674
 5342SOL     OW16924   5.931   6.638   4.175
 5342SOL    HW116925   5.884   6.550   4.161
 5342SOL    HW216926   5.886   6.709   4.121
 5343SOL     OW16927   3.935   3.905   6.986
 5343SOL    HW116928   3.973   3.814   7.004
 5343SOL    HW216929   3.987   3.973   0.015
 5344SOL     OW16930   1.502   1.600   5.820
 5344SOL    HW116931   1.541   1.508   5.824
 5344SOL    HW216932   1.569   1.663   5.781
 5345SOL     OW16933   4.789   2.532   0.262
 5345SOL    HW116934   4.817   2.598   0.192
 5345SOL    HW216935   4.779   2.579   0.350
 5346SOL     OW16936   3.048   5.602   3.801
 5346SOL    HW116937   3.049   5.681   3.740
 5346SOL    HW216938   3.136   5.595   3.848
 5347SOL     OW16939   5.804   1.545   4.011
 5347SOL    HW116940   5.775   1.457   4.048
 5347SOL    HW216941   5.891   1.534   3.962
 5348SOL     OW16942   5.094   1.990   2.875
 5348SOL    HW116943   5.132   1.904   2.841
 5348SOL    HW216944   5.167   2.059   2.883
 5349SOL     OW16945   6.929   3.520   2.502
 5349SOL    HW116946   6.952   3.483   2.592
 5349SOL    HW216947   6.945   3.619   2.501
 5350SOL     OW16948   1.500   6.133   6.924
 5350SOL    HW116949   1.562   6.116   6.848
 5350SOL    HW216950   1.537   6.206   6.981
 5351SOL     OW16951   0.112   5.958   2.045
 5351SOL    HW116952   0.147   5.867   2.067
 5351SOL    HW216953   0.048   5.951   1.969
 5352SOL     OW16954   1.762   3.532   4.997
 5352SOL    HW116955   1.771   3.497   4.904
 5352SOL    HW216956   1.668   3.559   5.014
 5353SOL     OW16957   3.989   5.264   3.616
 5353SOL    HW116958   4.014   5.279   3.712
 5353SOL    HW216959   4.049   5.196   3.576
 5354SOL     OW16960   4.521   6.156   1.163
 5354SOL    HW116961   4.431   6.113   1.168
 5354SOL    HW216962   4.591   6.085   1.165
 5355SOL     OW16963   4.977   4.543   5.197
 5355SOL    HW116964   4.903   4.609   5.186
 5355SOL    HW216965   5.062   4.591   5.220
 5356SOL     OW16966   0.395   5.114   1.437
 5356SOL    HW116967   0.465   5.144   1.372
 5356SOL    HW216968   0.338   5.044   1.394
 5357SOL     OW16969   5.478   3.930   2.121
 5357SOL    HW116970   5.428   4.013   2.094
 5357SOL    HW216971   5.413   3.863   2.157
 5358SOL     OW16972   4.400   1.938   0.532
 5358SOL    HW116973   4.459   1.897   0.463
 5358SOL    HW216974   4.326   1.989   0.487
 5359SOL     OW16975   2.836   1.696   6.781
 5359SOL    HW116976   2.919   1.671   6.731
 5359SOL    HW216977   2.858   1.767   6.848
 5360SOL     OW16978   5.105   4.167   3.306
 5360SOL    HW116979   5.104   4.214   3.218
 5360SOL    HW216980   5.134   4.231   3.378
 5361SOL     OW16981   2.774   5.736   2.247
 5361SOL    HW116982   2.785   5.820   2.194
 5361SOL    HW216983   2.855   5.678   2.236
 5362SOL     OW16984   5.950   0.558   1.862
 5362SOL    HW116985   6.005   0.494   1.916
 5362SOL    HW216986   5.908   0.626   1.923
 5363SOL     OW16987   5.664   5.400   3.560
 5363SOL    HW116988   5.746   5.384   3.505
 5363SOL    HW216989   5.590   5.432   3.501
 5364SOL     OW16990   4.315   1.229   2.923
 5364SOL    HW116991   4.397   1.204   2.975
 5364SOL    HW216992   4.289   1.323   2.945
 5365SOL     OW16993   4.008   3.063   3.563
 5365SOL    HW116994   4.014   3.091   3.467
 5365SOL    HW216995   4.098   3.075   3.606
 5366SOL     OW16996   6.596   6.428   2.168
 5366SOL    HW116997   6.527   6.489   2.130
 5366SOL    HW216998   6.667   6.482   2.213
 5367SOL     OW16999   6.537   5.676   1.491
 5367SOL    HW117000   6.598   5.696   1.568
 5367SOL    HW217001   6.517   5.578   1.490
 5368SOL     OW17002   6.590   5.818   3.861
 5368SOL    HW117003   6.503   5.800   3.908
 5368SOL    HW217004   6.631   5.902   3.897
 5369SOL     OW17005   2.746   5.891   2.475
 5369SOL    HW117006   2.770   5.857   2.384
 5369SOL    HW217007   2.825   5.937   2.516
 5370SOL     OW17008   2.095   3.488   1.373
 5370SOL    HW117009   2.030   3.549   1.418
 5370SOL    HW217010   2.188   3.523   1.384
 5371SOL     OW17011   5.583   5.744   4.754
 5371SOL    HW117012   5.682   5.745   4.741
 5371SOL    HW217013   5.546   5.836   4.738
 5372SOL     OW17014   1.082   0.008   3.171
 5372SOL    HW117015   1.157   0.047   3.224
 5372SOL    HW217016   1.070   6.935   3.197
 5373SOL     OW17017   3.722   1.019   6.660
 5373SOL    HW117018   3.774   0.956   6.603
 5373SOL    HW217019   3.624   1.001   6.650
 5374SOL     OW17020   2.218   4.531   2.588
 5374SOL    HW117021   2.177   4.440   2.583
 5374SOL    HW217022   2.192   4.584   2.507
 5375SOL     OW17023   1.353   4.892   4.054
 5375SOL    HW117024   1.254   4.894   4.066
 5375SOL    HW217025   1.376   4.830   3.979
 5376SOL     OW17026   0.647   0.548   6.569
 5376SOL    HW117027   0.567   0.511   6.521
 5376SOL    HW217028   0.730   0.522   6.520
 5377SOL     OW17029   2.384   0.686   3.301
 5377SOL    HW117030   2.355   0.771   3.345
 5377SOL    HW217031   2.304   0.640   3.262
 5378SOL     OW17032   5.010   1.180   2.167
 5378SOL    HW117033   4.912   1.179   2.152
 5378SOL    HW217034   5.056   1.215   2.085
 5379SOL     OW17035   1.826   1.904   6.151
 5379SOL    HW117036   1.773   1.819   6.152
 5379SOL    HW217037   1.908   1.893   6.207
 5380SOL     OW17038   4.173   6.602   1.322
 5380SOL    HW117039   4.107   6.526   1.312
 5380SOL    HW217040   4.265   6.568   1.308
 5381SOL     OW17041   4.403   6.635   4.034
 5381SOL    HW117042   4.425   6.633   3.937
 5381SOL    HW217043   4.399   6.542   4.070
 5382SOL     OW17044   3.777   1.425   1.931
 5382SOL    HW117045   3.750   1.504   1.985
 5382SOL    HW217046   3.732   1.429   1.842
 5383SOL     OW17047   1.936   2.503   4.857
 5383SOL    HW117048   1.926   2.501   4.956
 5383SOL    HW217049   1.854   2.465   4.814
 5384SOL     OW17050   5.622   5.679   4.213
 5384SOL    HW117051   5.669   5.591   4.216
 5384SOL    HW217052   5.674   5.747   4.265
 5385SOL     OW17053   3.856   2.552   5.648
 5385SOL    HW117054   3.839   2.540   5.551
 5385SOL    HW217055   3.788   2.614   5.686
 5386SOL     OW17056   6.156   4.565   3.763
 5386SOL    HW117057   6.182   4.474   3.732
 5386SOL    HW217058   6.196   4.581   3.854
 5387SOL     OW17059   1.228   1.116   3.392
 5387SOL    HW117060   1.320   1.136   3.428
 5387SOL    HW217061   1.167   1.096   3.468
 5388SOL     OW17062   0.988   6.474   2.164
 5388SOL    HW117063   0.940   6.422   2.235
 5388SOL    HW217064   0.929   6.548   2.131
 5389SOL     OW17065   4.785   2.062   4.142
 5389SOL    HW117066   4.860   2.128   4.151
 5389SOL    HW217067   4.816   1.973   4.176
 5390SOL     OW17068   0.343   2.722   2.669
 5390SOL    HW117069   0.437   2.736   2.702
 5390SOL    HW217070   0.335   2.758   2.576
 5391SOL     OW17071   2.536   3.774   0.511
 5391SOL    HW117072   2.570   3.781   0.605
 5391SOL    HW217073   2.613   3.772   0.447
 5392SOL     OW17074   5.653   1.960   3.483
 5392SOL    HW117075   5.572   1.978   3.428
 5392SOL    HW217076   5.709   2.042   3.488
 5393SOL     OW17077   3.666   1.769   5.161
 5393SOL    HW117078   3.608   1.848   5.179
 5393SOL    HW217079   3.631   1.690   5.213
 5394SOL     OW17080   1.445   1.517   1.096
 5394SOL    HW117081   1.404   1.539   1.007
 5394SOL    HW217082   1.539   1.488   1.082
 5395SOL     OW17083   6.645   1.739   0.979
 5395SOL    HW117084   6.735   1.761   1.015
 5395SOL    HW217085   6.597   1.678   1.042
 5396SOL     OW17086   5.491   4.738   2.032
 5396SOL    HW117087   5.435   4.733   2.115
 5396SOL    HW217088   5.554   4.661   2.029
 5397SOL     OW17089   0.736   1.593   2.509
 5397SOL    HW117090   0.746   1.495   2.489
 5397SOL    HW217091   0.813   1.624   2.563
 5398SOL     OW17092   5.378   1.880   2.779
 5398SOL    HW117093   5.417   1.928   2.858
 5398SOL    HW217094   5.450   1.861   2.713
 5399SOL     OW17095   2.126   1.026   6.469
 5399SOL    HW117096   2.057   1.018   6.541
 5399SOL    HW217097   2.199   1.088   6.499
 5400SOL     OW17098   4.641   3.401   1.717
 5400SOL    HW117099   4.728   3.359   1.741
 5400SOL    HW217100   4.650   3.500   1.718
 5401SOL     OW17101   5.702   3.450   1.290
 5401SOL    HW117102   5.687   3.358   1.252
 5401SOL    HW217103   5.644   3.462   1.371
 5402SOL     OW17104   1.215   6.109   1.684
 5402SOL    HW117105   1.314   6.102   1.695
 5402SOL    HW217106   1.171   6.032   1.730
 5403SOL     OW17107   4.765   3.585   6.919
 5403SOL    HW117108   4.792   3.565   6.825
 5403SOL    HW217109   4.714   3.671   6.922
 5404SOL     OW17110   6.767   1.195   0.578
 5404SOL    HW117111   6.708   1.275   0.593
 5404SOL    HW217112   6.710   1.113   0.571
 5405SOL     OW17113   6.348   5.251   6.934
 5405SOL    HW117114   6.437   5.236   6.892
 5405SOL    HW217115   6.277   5.209   6.877
 5406SOL     OW17116   2.798   0.224   5.425
 5406SOL    HW117117   2.820   0.157   5.354
 5406SOL    HW217118   2.825   0.187   5.514
 5407SOL     OW17119   1.870   6.948   3.050
 5407SOL    HW117120   1.905   0.014   3.020
 5407SOL    HW217121   1.770   6.949   3.047
 5408SOL     OW17122   3.488   2.044   4.159
 5408SOL    HW117123   3.564   2.063   4.097
 5408SOL    HW217124   3.476   1.945   4.167
 5409SOL     OW17125   1.175   2.674   1.251
 5409SOL    HW117126   1.200   2.676   1.348
 5409SOL    HW217127   1.250   2.712   1.197
 5410SOL     OW17128   1.340   2.308   0.458
 5410SOL    HW117129   1.360   2.332   0.553
 5410SOL    HW217130   1.425   2.306   0.405
 5411SOL     OW17131   3.257   5.411   0.126
 5411SOL    HW117132   3.169   5.370   0.149
 5411SOL    HW217133   3.304   5.353   0.059
 5412SOL     OW17134   0.012   1.816   6.254
 5412SOL    HW117135   0.087   1.882   6.255
 5412SOL    HW217136   6.965   1.847   6.190
 5413SOL     OW17137   6.617   6.001   5.213
 5413SOL    HW117138   6.568   6.038   5.292
 5413SOL    HW217139   6.706   6.046   5.205
 5414SOL     OW17140   5.856   4.041   5.129
 5414SOL    HW117141   5.927   4.039   5.200
 5414SOL    HW217142   5.890   3.999   5.046
 5415SOL     OW17143   4.449   0.667   0.000
 5415SOL    HW117144   4.478   0.589   0.056
 5415SOL    HW217145   4.402   0.634   6.942
 5416SOL     OW17146   3.070   5.948   6.769
 5416SOL    HW117147   3.044   5.962   6.674
 5416SOL    HW217148   3.122   5.863   6.778
 5417SOL     OW17149   4.257   6.507   4.308
 5417SOL    HW117150   4.159   6.507   4.286
 5417SOL    HW217151   4.301   6.430   4.262
 5418SOL     OW17152   6.173   3.091   4.191
 5418SOL    HW117153   6.228   3.106   4.109
 5418SOL    HW217154   6.233   3.073   4.268
 5419SOL     OW17155   5.074   6.285   6.651
 5419SOL    HW117156   5.144   6.354   6.632
 5419SOL    HW217157   4.995   6.301   6.593
 5420SOL     OW17158   0.964   1.177   1.763
 5420SOL    HW117159   1.001   1.116   1.832
 5420SOL    HW217160   0.866   1.158   1.750
 5421SOL     OW17161   3.967   4.796   2.244
 5421SOL    HW117162   4.041   4.795   2.177
 5421SOL    HW217163   3.993   4.854   2.322
 5422SOL     OW17164   2.921   5.397   3.662
 5422SOL    HW117165   2.929   5.315   3.719
 5422SOL    HW217166   2.966   5.474   3.708
 5423SOL     OW17167   5.619   6.160   1.861
 5423SOL    HW117168   5.534   6.208   1.881
 5423SOL    HW217169   5.680   6.220   1.809
 5424SOL     OW17170   4.210   3.839   5.520
 5424SOL    HW117171   4.281   3.806   5.457
 5424SOL    HW217172   4.252   3.896   5.590
 5425SOL     OW17173   1.489   4.166   5.818
 5425SOL    HW117174   1.550   4.097   5.857
 5425SOL    HW217175   1.519   4.188   5.725
 5426SOL     OW17176   5.992   4.955   1.440
 5426SOL    HW117177   5.999   5.055   1.448
 5426SOL    HW217178   6.040   4.913   1.516
 5427SOL     OW17179   4.744   2.139   6.370
 5427SOL    HW117180   4.685   2.198   6.425
 5427SOL    HW217181   4.838   2.148   6.402
 5428SOL     OW17182   6.327   5.697   2.790
 5428SOL    HW117183   6.407   5.670   2.843
 5428SOL    HW217184   6.338   5.668   2.695
 5429SOL     OW17185   3.478   0.372   4.729
 5429SOL    HW117186   3.414   0.403   4.799
 5429SOL    HW217187   3.555   0.326   4.772
 5430SOL     OW17188   2.699   3.774   5.768
 5430SOL    HW117189   2.766   3.846   5.785
 5430SOL    HW217190   2.666   3.780   5.674
 5431SOL     OW17191   3.208   4.246   0.104
 5431SOL    HW117192   3.145   4.238   0.026
 5431SOL    HW217193   3.250   4.157   0.122
 5432SOL     OW17194   6.751   5.200   0.112
 5432SOL    HW117195   6.679   5.243   0.167
 5432SOL    HW217196   6.813   5.149   0.171
 5433SOL     OW17197   1.650   0.285   1.708
 5433SOL    HW117198   1.650   0.339   1.792
 5433SOL    HW217199   1.581   0.320   1.645
 5434SOL     OW17200   5.997   6.911   5.406
 5434SOL    HW117201   6.017   6.969   5.326
 5434SOL    HW217202   6.043   6.947   5.486
 5435SOL     OW17203   6.946   4.353   0.998
 5435SOL    HW117204   6.953   4.273   1.057
 5435SOL    HW217205   6.936   4.324   0.903
 5436SOL     OW17206   1.183   5.215   2.450
 5436SOL    HW117207   1.115   5.169   2.508
 5436SOL    HW217208   1.272   5.172   2.464
 5437SOL     OW17209   3.541   5.530   1.356
 5437SOL    HW117210   3.490   5.612   1.380
 5437SOL    HW217211   3.483   5.469   1.301
 5438SOL     OW17212   3.967   5.646   2.325
 5438SOL    HW117213   3.935   5.584   2.396
 5438SOL    HW217214   3.995   5.594   2.245
 5439SOL     OW17215   1.042   4.775   1.926
 5439SOL    HW117216   0.950   4.739   1.917
 5439SOL    HW217217   1.047   4.834   2.007
 5440SOL     OW17218   6.382   6.637   3.495
 5440SOL    HW117219   6.434   6.672   3.572
 5440SOL    HW217220   6.285   6.632   3.520
 5441SOL     OW17221   5.865   2.958   3.911
 5441SOL    HW117222   5.895   2.894   3.840
 5441SOL    HW217223   5.814   3.033   3.869
 5442SOL     OW17224   4.381   0.498   5.601
 5442SOL    HW117225   4.332   0.490   5.687
 5442SOL    HW217226   4.321   0.470   5.526
 5443SOL     OW17227   4.384   0.476   3.942
 5443SOL    HW117228   4.402   0.415   4.019
 5443SOL    HW217229   4.414   0.432   3.857
 5444SOL     OW17230   6.117   1.039   4.833
 5444SOL    HW117231   6.028   1.028   4.876
 5444SOL    HW217232   6.184   1.065   4.902
 5445SOL     OW17233   5.860   5.866   4.326
 5445SOL    HW117234   5.935   5.838   4.265
 5445SOL    HW217235   5.877   5.830   4.418
 5446SOL     OW17236   0.096   4.623   5.918
 5446SOL    HW117237   0.068   4.651   5.826
 5446SOL    HW217238   0.164   4.550   5.912
 5447SOL     OW17239   1.453   2.427   0.668
 5447SOL    HW117240   1.481   2.484   0.591
 5447SOL    HW217241   1.534   2.392   0.715
 5448SOL     OW17242   4.178   5.089   3.151
 5448SOL    HW117243   4.179   5.010   3.089
 5448SOL    HW217244   4.092   5.139   3.139
 5449SOL     OW17245   3.142   1.504   1.669
 5449SOL    HW117246   3.116   1.509   1.765
 5449SOL    HW217247   3.199   1.424   1.654
 5450SOL     OW17248   3.996   5.807   1.449
 5450SOL    HW117249   4.051   5.832   1.369
 5450SOL    HW217250   3.957   5.716   1.436
 5451SOL     OW17251   6.895   0.203   2.707
 5451SOL    HW117252   6.978   0.205   2.651
 5451SOL    HW217253   6.828   0.141   2.666
 5452SOL     OW17254   2.204   4.368   1.997
 5452SOL    HW117255   2.248   4.381   2.086
 5452SOL    HW217256   2.136   4.295   2.004
 5453SOL     OW17257   5.488   4.025   2.872
 5453SOL    HW117258   5.541   3.945   2.843
 5453SOL    HW217259   5.527   4.062   2.956
 5454SOL     OW17260   5.579   4.930   2.510
 5454SOL    HW117261   5.659   4.922   2.569
 5454SOL    HW217262   5.576   4.852   2.447
 5455SOL     OW17263   1.694   1.527   3.814
 5455SOL    HW117264   1.632   1.501   3.888
 5455SOL    HW217265   1.651   1.509   3.726
 5456SOL     OW17266   6.180   1.388   0.670
 5456SOL    HW117267   6.216   1.478   0.645
 5456SOL    HW217268   6.179   1.329   0.590
 5457SOL     OW17269   5.605   1.546   6.684
 5457SOL    HW117270   5.650   1.490   6.754
 5457SOL    HW217271   5.506   1.547   6.701
 5458SOL     OW17272   6.264   3.983   0.016
 5458SOL    HW117273   6.363   3.982   0.005
 5458SOL    HW217274   6.239   3.935   0.100
 5459SOL     OW17275   1.620   3.624   5.623
 5459SOL    HW117276   1.664   3.606   5.535
 5459SOL    HW217277   1.689   3.627   5.695
 5460SOL     OW17278   1.653   0.565   1.354
 5460SOL    HW117279   1.704   0.639   1.398
 5460SOL    HW217280   1.636   0.587   1.258
 5461SOL     OW17281   6.668   1.185   5.231
 5461SOL    HW117282   6.663   1.100   5.179
 5461SOL    HW217283   6.691   1.261   5.170
 5462SOL     OW17284   4.775   4.561   6.346
 5462SOL    HW117285   4.802   4.648   6.387
 5462SOL    HW217286   4.761   4.574   6.248
 5463SOL     OW17287   1.572   3.057   6.981
 5463SOL    HW117288   1.502   3.117   7.019
 5463SOL    HW217289   1.538   3.014   6.897
 5464SOL     OW17290   0.565   6.074   5.841
 5464SOL    HW117291   0.516   6.161   5.849
 5464SOL    HW217292   0.499   6.000   5.825
 5465SOL     OW17293   6.636   6.517   3.771
 5465SOL    HW117294   6.581   6.537   3.852
 5465SOL    HW217295   6.697   6.440   3.790
 5466SOL     OW17296   5.924   2.150   5.343
 5466SOL    HW117297   6.002   2.103   5.303
 5466SOL    HW217298   5.854   2.165   5.273
 5467SOL     OW17299   4.905   3.177   4.300
 5467SOL    HW117300   4.921   3.100   4.361
 5467SOL    HW217301   4.950   3.259   4.337
 5468SOL     OW17302   0.551   1.784   1.535
 5468SOL    HW117303   0.568   1.687   1.519
 5468SOL    HW217304   0.615   1.819   1.603
 5469SOL     OW17305   2.879   0.387   5.042
 5469SOL    HW117306   2.951   0.324   5.016
 5469SOL    HW217307   2.863   0.381   5.141
 5470SOL     OW17308   3.477   5.850   3.720
 5470SOL    HW117309   3.407   5.920   3.710
 5470SOL    HW217310   3.437   5.760   3.702
 5471SOL     OW17311   4.882   0.877   3.354
 5471SOL    HW117312   4.888   0.972   3.384
 5471SOL    HW217313   4.867   0.818   3.433
 5472SOL     OW17314   2.604   2.019   6.676
 5472SOL    HW117315   2.703   2.034   6.669
 5472SOL    HW217316   2.556   2.093   6.630
 5473SOL     OW17317   2.586   4.395   1.608
 5473SOL    HW117318   2.491   4.406   1.637
 5473SOL    HW217319   2.624   4.311   1.647
 5474SOL     OW17320   0.909   5.529   3.706
 5474SOL    HW117321   0.876   5.438   3.681
 5474SOL    HW217322   0.985   5.521   3.771
 5475SOL     OW17323   6.952   2.010   5.206
 5475SOL    HW117324   6.974   1.969   5.295
 5475SOL    HW217325   6.854   2.002   5.189
 5476SOL     OW17326   2.721   6.859   6.003
 5476SOL    HW117327   2.662   6.815   6.070
 5476SOL    HW217328   2.672   6.934   5.959
 5477SOL     OW17329   1.674   4.517   3.708
 5477SOL    HW117330   1.659   4.546   3.613
 5477SOL    HW217331   1.654   4.593   3.769
 5478SOL     OW17332   5.809   4.375   5.860
 5478SOL    HW117333   5.875   4.426   5.914
 5478SOL    HW217334   5.827   4.277   5.869
 5479SOL     OW17335   3.432   1.528   4.709
 5479SOL    HW117336   3.497   1.597   4.675
 5479SOL    HW217337   3.347   1.573   4.735
 5480SOL     OW17338   0.180   3.774   4.310
 5480SOL    HW117339   0.178   3.843   4.237
 5480SOL    HW217340   0.091   3.771   4.356
 5481SOL     OW17341   5.029   0.785   6.650
 5481SOL    HW117342   5.099   0.789   6.721
 5481SOL    HW217343   5.070   0.748   6.566
 5482SOL     OW17344   4.767   3.095   1.072
 5482SOL    HW117345   4.720   3.072   1.157
 5482SOL    HW217346   4.738   3.033   0.999
 5483SOL     OW17347   0.275   3.253   5.481
 5483SOL    HW117348   0.199   3.218   5.427
 5483SOL    HW217349   0.272   3.214   5.573
 5484SOL     OW17350   6.191   6.198   3.707
 5484SOL    HW117351   6.280   6.237   3.686
 5484SOL    HW217352   6.170   6.125   3.642
 5485SOL     OW17353   3.767   6.812   5.417
 5485SOL    HW117354   3.667   6.823   5.419
 5485SOL    HW217355   3.806   6.848   5.502
 5486SOL     OW17356   0.576   0.883   3.583
 5486SOL    HW117357   0.510   0.877   3.508
 5486SOL    HW217358   0.605   0.791   3.610
 5487SOL     OW17359   6.078   4.544   0.142
 5487SOL    HW117360   6.015   4.605   0.189
 5487SOL    HW217361   6.054   4.449   0.162
 5488SOL     OW17362   4.908   2.057   6.790
 5488SOL    HW117363   4.935   2.056   6.887
 5488SOL    HW217364   4.942   2.140   6.747
 5489SOL     OW17365   1.219   4.594   2.949
 5489SOL    HW117366   1.141   4.631   2.899
 5489SOL    HW217367   1.302   4.604   2.892
 5490SOL     OW17368   2.320   1.898   0.913
 5490SOL    HW117369   2.305   1.915   1.011
 5490SOL    HW217370   2.270   1.816   0.886
 5491SOL     OW17371   1.236   4.403   0.724
 5491SOL    HW117372   1.330   4.399   0.690
 5491SOL    HW217373   1.204   4.498   0.720
 5492SOL     OW17374   1.015   1.353   6.531
 5492SOL    HW117375   0.941   1.404   6.573
 5492SOL    HW217376   1.009   1.363   6.431
 5493SOL     OW17377   3.712   3.695   7.022
 5493SOL    HW117378   3.776   3.772   7.019
 5493SOL    HW217379   3.683   3.672   6.929
 5494SOL     OW17380   5.466   2.981   1.320
 5494SOL    HW117381   5.444   2.919   1.396
 5494SOL    HW217382   5.389   2.982   1.256
 5495SOL     OW17383   4.126   3.356   2.339
 5495SOL    HW117384   4.122   3.277   2.279
 5495SOL    HW217385   4.111   3.327   2.434
 5496SOL     OW17386   3.693   6.136   1.303
 5496SOL    HW117387   3.723   6.094   1.217
 5496SOL    HW217388   3.725   6.081   1.380
 5497SOL     OW17389   0.059   1.183   2.032
 5497SOL    HW117390   0.058   1.277   1.998
 5497SOL    HW217391   0.073   1.120   1.956
 5498SOL     OW17392   4.786   1.305   5.751
 5498SOL    HW117393   4.752   1.387   5.796
 5498SOL    HW217394   4.863   1.268   5.802
 5499SOL     OW17395   6.921   1.664   3.052
 5499SOL    HW117396   6.976   1.664   3.136
 5499SOL    HW217397   6.979   1.689   2.974
 5500SOL     OW17398   1.843   5.965   0.574
 5500SOL    HW117399   1.760   6.016   0.595
 5500SOL    HW217400   1.917   5.996   0.634
 5501SOL     OW17401   2.899   0.729   1.969
 5501SOL    HW117402   2.972   0.671   2.006
 5501SOL    HW217403   2.839   0.757   2.043
 5502SOL     OW17404   5.959   3.892   5.763
 5502SOL    HW117405   6.009   3.878   5.849
 5502SOL    HW217406   5.984   3.821   5.698
 5503SOL     OW17407   1.123   5.300   3.251
 5503SOL    HW117408   1.166   5.232   3.192
 5503SOL    HW217409   1.153   5.285   3.346
 5504SOL     OW17410   3.213   1.772   4.492
 5504SOL    HW117411   3.218   1.738   4.586
 5504SOL    HW217412   3.123   1.750   4.454
 5505SOL     OW17413   3.549   5.226   5.959
 5505SOL    HW117414   3.564   5.154   6.027
 5505SOL    HW217415   3.624   5.292   5.963
 5506SOL     OW17416   6.120   0.604   5.770
 5506SOL    HW117417   6.020   0.606   5.759
 5506SOL    HW217418   6.144   0.543   5.846
 5507SOL     OW17419   2.325   6.933   3.961
 5507SOL    HW117420   2.385   6.983   3.899
 5507SOL    HW217421   2.378   6.902   4.041
 5508SOL     OW17422   3.072   0.622   6.442
 5508SOL    HW117423   3.089   0.523   6.452
 5508SOL    HW217424   2.981   0.637   6.405
 5509SOL     OW17425   6.111   6.672   0.007
 5509SOL    HW117426   6.070   6.763   0.014
 5509SOL    HW217427   6.169   6.668   6.948
 5510SOL     OW17428   5.489   0.152   6.050
 5510SOL    HW117429   5.548   0.225   6.083
 5510SOL    HW217430   5.481   0.081   6.121
 5511SOL     OW17431   0.971   1.074   2.492
 5511SOL    HW117432   0.921   1.016   2.427
 5511SOL    HW217433   1.001   1.018   2.570
 5512SOL     OW17434   0.979   0.791   6.736
 5512SOL    HW117435   0.993   0.752   6.645
 5512SOL    HW217436   1.067   0.800   6.782
 5513SOL     OW17437   4.825   4.070   4.996
 5513SOL    HW117438   4.824   3.978   5.034
 5513SOL    HW217439   4.874   4.070   4.909
 5514SOL     OW17440   5.122   4.868   2.007
 5514SOL    HW117441   5.031   4.904   2.027
 5514SOL    HW217442   5.185   4.894   2.080
 5515SOL     OW17443   6.561   2.311   1.995
 5515SOL    HW117444   6.548   2.243   1.922
 5515SOL    HW217445   6.649   2.357   1.982
 5516SOL     OW17446   1.167   3.515   6.660
 5516SOL    HW117447   1.087   3.464   6.627
 5516SOL    HW217448   1.156   3.611   6.637
 5517SOL     OW17449   2.772   1.636   1.219
 5517SOL    HW117450   2.717   1.688   1.153
 5517SOL    HW217451   2.864   1.622   1.183
 5518SOL     OW17452   5.899   4.954   5.328
 5518SOL    HW117453   5.872   4.859   5.313
 5518SOL    HW217454   5.823   5.014   5.302
 5519SOL     OW17455   5.766   3.627   3.959
 5519SOL    HW117456   5.687   3.597   3.905
 5519SOL    HW217457   5.824   3.548   3.979
 5520SOL     OW17458   0.862   4.127   2.346
 5520SOL    HW117459   0.953   4.153   2.377
 5520SOL    HW217460   0.837   4.181   2.266
 5521SOL     OW17461   5.869   5.596   1.428
 5521SOL    HW117462   5.953   5.548   1.404
 5521SOL    HW217463   5.891   5.689   1.457
 5522SOL     OW17464   2.621   3.388   1.713
 5522SOL    HW117465   2.638   3.478   1.673
 5522SOL    HW217466   2.537   3.390   1.767
 5523SOL     OW17467   3.253   0.117   2.661
 5523SOL    HW117468   3.190   0.195   2.659
 5523SOL    HW217469   3.264   0.085   2.756
 5524SOL     OW17470   6.935   4.840   6.230
 5524SOL    HW117471   6.937   4.809   6.325
 5524SOL    HW217472   0.004   4.831   6.190
 5525SOL     OW17473   6.507   5.486   5.904
 5525SOL    HW117474   6.437   5.420   5.928
 5525SOL    HW217475   6.485   5.529   5.816
 5526SOL     OW17476   6.469   3.677   4.162
 5526SOL    HW117477   6.390   3.644   4.110
 5526SOL    HW217478   6.474   3.629   4.249
 5527SOL     OW17479   1.862   2.915   1.555
 5527SOL    HW117480   1.868   2.843   1.624
 5527SOL    HW217481   1.844   2.874   1.466
 5528SOL     OW17482   0.377   2.701   4.575
 5528SOL    HW117483   0.309   2.773   4.562
 5528SOL    HW217484   0.397   2.657   4.487
 5529SOL     OW17485   2.499   0.625   4.535
 5529SOL    HW117486   2.486   0.588   4.443
 5529SOL    HW217487   2.410   0.648   4.575
 5530SOL     OW17488   0.567   2.068   0.254
 5530SOL    HW117489   0.577   2.165   0.275
 5530SOL    HW217490   0.567   2.016   0.339
 5531SOL     OW17491   4.327   2.713   5.581
 5531SOL    HW117492   4.242   2.682   5.622
 5531SOL    HW217493   4.311   2.738   5.485
 5532SOL     OW17494   2.131   1.692   0.860
 5532SOL    HW117495   2.117   1.697   0.761
 5532SOL    HW217496   2.194   1.617   0.881
 5533SOL     OW17497   4.045   0.939   2.128
 5533SOL    HW117498   4.004   0.900   2.211
 5533SOL    HW217499   4.019   0.883   2.049
 5534SOL     OW17500   0.687   4.000   6.600
 5534SOL    HW117501   0.754   3.933   6.568
 5534SOL    HW217502   0.685   3.999   6.700
 5535SOL     OW17503   6.221   3.105   3.066
 5535SOL    HW117504   6.179   3.159   2.994
 5535SOL    HW217505   6.320   3.123   3.067
 5536SOL     OW17506   2.096   0.932   4.483
 5536SOL    HW117507   2.186   0.955   4.444
 5536SOL    HW217508   2.034   0.906   4.409
 5537SOL     OW17509   4.595   0.166   4.890
 5537SOL    HW117510   4.505   0.123   4.887
 5537SOL    HW217511   4.592   0.255   4.844
 5538SOL     OW17512   3.975   1.408   6.171
 5538SOL    HW117513   3.895   1.456   6.207
 5538SOL    HW217514   3.971   1.312   6.198
 5539SOL     OW17515   2.399   0.636   1.876
 5539SOL    HW117516   2.498   0.626   1.863
 5539SOL    HW217517   2.377   0.734   1.886
 5540SOL     OW17518   4.919   2.355   6.782
 5540SOL    HW117519   4.831   2.309   6.789
 5540SOL    HW217520   4.917   2.441   6.833
 5541SOL     OW17521   4.610   3.699   6.261
 5541SOL    HW117522   4.533   3.638   6.242
 5541SOL    HW217523   4.673   3.655   6.325
 5542SOL     OW17524   5.629   4.096   6.273
 5542SOL    HW117525   5.611   4.138   6.184
 5542SOL    HW217526   5.714   4.132   6.310
 5543SOL     OW17527   1.985   0.229   1.146
 5543SOL    HW117528   2.051   0.167   1.104
 5543SOL    HW217529   1.932   0.178   1.215
 5544SOL     OW17530   4.758   5.359   6.563
 5544SOL    HW117531   4.830   5.372   6.494
 5544SOL    HW217532   4.756   5.263   6.592
 5545SOL     OW17533   4.269   0.787   2.712
 5545SOL    HW117534   4.182   0.837   2.721
 5545SOL    HW217535   4.276   0.749   2.620
 5546SOL     OW17536   0.571   6.245   4.899
 5546SOL    HW117537   0.630   6.324   4.912
 5546SOL    HW217538   0.514   6.232   4.981
 5547SOL     OW17539   5.135   1.771   5.988
 5547SOL    HW117540   5.127   1.829   6.069
 5547SOL    HW217541   5.062   1.702   5.989
 5548SOL     OW17542   6.989   3.795   5.500
 5548SOL    HW117543   7.001   3.696   5.506
 5548SOL    HW217544   6.945   3.818   5.414
 5549SOL     OW17545   4.247   3.776   1.773
 5549SOL    HW117546   4.218   3.755   1.679
 5549SOL    HW217547   4.343   3.806   1.772
 5550SOL     OW17548   1.715   4.299   3.026
 5550SOL    HW117549   1.746   4.209   2.997
 5550SOL    HW217550   1.679   4.295   3.119
 5551SOL     OW17551   2.187   5.391   3.013
 5551SOL    HW117552   2.160   5.378   2.918
 5551SOL    HW217553   2.261   5.327   3.036
 5552SOL     OW17554   6.821   6.615   6.471
 5552SOL    HW117555   6.911   6.571   6.469
 5552SOL    HW217556   6.831   6.711   6.497
 5553SOL     OW17557   4.778   0.447   6.603
 5553SOL    HW117558   4.710   0.379   6.632
 5553SOL    HW217559   4.819   0.489   6.684
 5554SOL     OW17560   5.033   2.653   0.695
 5554SOL    HW117561   5.034   2.573   0.754
 5554SOL    HW217562   5.014   2.735   0.749
 5555SOL     OW17563   1.094   4.220   3.413
 5555SOL    HW117564   1.168   4.191   3.352
 5555SOL    HW217565   1.040   4.291   3.367
 5556SOL     OW17566   6.118   1.036   4.550
 5556SOL    HW117567   6.027   1.070   4.527
 5556SOL    HW217568   6.135   1.048   4.648
 5557SOL     OW17569   3.264   5.877   1.768
 5557SOL    HW117570   3.344   5.932   1.794
 5557SOL    HW217571   3.295   5.792   1.726
 5558SOL     OW17572   3.498   4.312   0.261
 5558SOL    HW117573   3.527   4.308   0.356
 5558SOL    HW217574   3.431   4.385   0.250
 5559SOL     OW17575   1.094   0.375   2.919
 5559SOL    HW117576   1.103   0.407   2.825
 5559SOL    HW217577   0.998   0.369   2.944
 5560SOL     OW17578   0.051   5.706   2.935
 5560SOL    HW117579   0.079   5.801   2.952
 5560SOL    HW217580   6.978   5.694   2.962
 5561SOL     OW17581   2.899   1.100   4.924
 5561SOL    HW117582   2.952   1.042   4.985
 5561SOL    HW217583   2.813   1.053   4.901
 5562SOL     OW17584   4.340   4.490   6.793
 5562SOL    HW117585   4.358   4.563   6.859
 5562SOL    HW217586   4.282   4.420   6.835
 5563SOL     OW17587   3.149   4.871   2.707
 5563SOL    HW117588   3.249   4.864   2.706
 5563SOL    HW217589   3.112   4.802   2.770
 5564SOL     OW17590   4.761   6.325   6.016
 5564SOL    HW117591   4.674   6.370   5.998
 5564SOL    HW217592   4.824   6.389   6.061
 5565SOL     OW17593   3.933   3.509   0.539
 5565SOL    HW117594   4.016   3.476   0.583
 5565SOL    HW217595   3.919   3.463   0.452
 5566SOL     OW17596   1.333   4.466   0.342
 5566SOL    HW117597   1.243   4.481   0.301
 5566SOL    HW217598   1.367   4.376   0.316
 5567SOL     OW17599   6.726   3.158   1.895
 5567SOL    HW117600   6.647   3.219   1.896
 5567SOL    HW217601   6.696   3.066   1.870
 5568SOL     OW17602   4.577   6.321   2.742
 5568SOL    HW117603   4.510   6.271   2.797
 5568SOL    HW217604   4.546   6.326   2.647
 5569SOL     OW17605   2.736   1.745   3.666
 5569SOL    HW117606   2.723   1.690   3.584
 5569SOL    HW217607   2.655   1.738   3.725
 5570SOL     OW17608   5.861   3.219   3.411
 5570SOL    HW117609   5.792   3.289   3.392
 5570SOL    HW217610   5.846   3.181   3.502
 5571SOL     OW17611   6.299   5.156   2.098
 5571SOL    HW117612   6.253   5.133   2.184
 5571SOL    HW217613   6.376   5.216   2.116
 5572SOL     OW17614   1.738   4.123   4.929
 5572SOL    HW117615   1.660   4.179   4.900
 5572SOL    HW217616   1.810   4.129   4.860
 5573SOL     OW17617   1.540   5.174   5.311
 5573SOL    HW117618   1.541   5.182   5.212
 5573SOL    HW217619   1.594   5.094   5.339
 5574SOL     OW17620   0.908   3.073   6.475
 5574SOL    HW117621   0.962   3.029   6.403
 5574SOL    HW217622   0.888   3.006   6.547
 5575SOL     OW17623   0.484   0.243   1.793
 5575SOL    HW117624   0.451   0.328   1.834
 5575SOL    HW217625   0.530   0.188   1.862
 5576SOL     OW17626   1.461   4.142   3.490
 5576SOL    HW117627   1.441   4.228   3.536
 5576SOL    HW217628   1.411   4.138   3.404
 5577SOL     OW17629   1.719   3.242   0.089
 5577SOL    HW117630   1.656   3.298   0.143
 5577SOL    HW217631   1.667   3.182   0.028
 5578SOL     OW17632   3.615   3.948   2.448
 5578SOL    HW117633   3.627   3.865   2.503
 5578SOL    HW217634   3.592   4.025   2.508
 5579SOL     OW17635   0.282   3.007   0.684
 5579SOL    HW117636   0.263   3.104   0.704
 5579SOL    HW217637   0.210   2.951   0.726
 5580SOL     OW17638   5.058   1.948   6.201
 5580SOL    HW117639   5.040   2.034   6.153
 5580SOL    HW217640   4.972   1.903   6.223
 5581SOL     OW17641   1.315   1.592   1.390
 5581SOL    HW117642   1.347   1.680   1.424
 5581SOL    HW217643   1.390   1.527   1.390
 5582SOL     OW17644   2.675   4.189   6.843
 5582SOL    HW117645   2.601   4.237   6.795
 5582SOL    HW217646   2.747   4.254   6.866
 5583SOL     OW17647   4.524   0.768   2.394
 5583SOL    HW117648   4.446   0.726   2.440
 5583SOL    HW217649   4.559   0.705   2.325
 5584SOL     OW17650   6.249   4.097   4.359
 5584SOL    HW117651   6.289   4.161   4.293
 5584SOL    HW217652   6.154   4.122   4.376
 5585SOL     OW17653   4.923   4.803   3.120
 5585SOL    HW117654   4.857   4.878   3.116
 5585SOL    HW217655   4.903   4.745   3.199
 5586SOL     OW17656   6.745   3.527   5.515
 5586SOL    HW117657   6.697   3.445   5.483
 5586SOL    HW217658   6.842   3.520   5.492
 5587SOL     OW17659   4.587   0.205   7.006
 5587SOL    HW117660   4.510   0.173   6.952
 5587SOL    HW217661   4.666   0.219   6.947
 5588SOL     OW17662   2.301   6.338   2.752
 5588SOL    HW117663   2.277   6.247   2.717
 5588SOL    HW217664   2.346   6.328   2.841
 5589SOL     OW17665   6.149   4.229   6.396
 5589SOL    HW117666   6.140   4.257   6.491
 5589SOL    HW217667   6.245   4.237   6.368
 5590SOL     OW17668   5.878   6.041   3.720
 5590SOL    HW117669   5.875   6.063   3.817
 5590SOL    HW217670   5.785   6.023   3.687
 5591SOL     OW17671   0.391   1.906   1.320
 5591SOL    HW117672   0.440   1.909   1.407
 5591SOL    HW217673   0.392   1.813   1.283
 5592SOL     OW17674   1.483   5.262   3.223
 5592SOL    HW117675   1.398   5.214   3.205
 5592SOL    HW217676   1.531   5.279   3.136
 5593SOL     OW17677   0.149   3.104   6.759
 5593SOL    HW117678   0.075   3.070   6.700
 5593SOL    HW217679   0.120   3.188   6.805
 5594SOL     OW17680   5.171   0.618   4.778
 5594SOL    HW117681   5.226   0.541   4.745
 5594SOL    HW217682   5.131   0.666   4.700
 5595SOL     OW17683   1.409   1.842   5.326
 5595SOL    HW117684   1.434   1.810   5.234
 5595SOL    HW217685   1.492   1.851   5.381
 5596SOL     OW17686   4.160   6.223   2.641
 5596SOL    HW117687   4.094   6.163   2.598
 5596SOL    HW217688   4.180   6.300   2.581
 5597SOL     OW17689   5.047   2.381   4.388
 5597SOL    HW117690   5.105   2.459   4.410
 5597SOL    HW217691   4.953   2.411   4.373
 5598SOL     OW17692   4.994   3.478   3.981
 5598SOL    HW117693   4.951   3.544   3.919
 5598SOL    HW217694   5.092   3.475   3.964
 5599SOL     OW17695   1.235   0.773   4.080
 5599SOL    HW117696   1.237   0.673   4.075
 5599SOL    HW217697   1.148   0.803   4.120
 5600SOL     OW17698   0.987   2.118   2.582
 5600SOL    HW117699   1.068   2.116   2.524
 5600SOL    HW217700   0.951   2.025   2.593
 5601SOL     OW17701   3.072   0.065   5.763
 5601SOL    HW117702   3.024   7.010   5.802
 5601SOL    HW217703   3.162   0.074   5.808
 5602SOL     OW17704   0.692   1.768   0.957
 5602SOL    HW117705   0.778   1.746   1.003
 5602SOL    HW217706   0.624   1.697   0.975
 5603SOL     OW17707   4.904   2.116   0.035
 5603SOL    HW117708   4.985   2.175   0.030
 5603SOL    HW217709   4.884   2.097   0.131
 5604SOL     OW17710   0.022   2.032   5.901
 5604SOL    HW117711   7.011   2.004   5.990
 5604SOL    HW217712   6.971   2.025   5.833
 5605SOL     OW17713   0.833   0.932   4.643
 5605SOL    HW117714   0.928   0.961   4.638
 5605SOL    HW217715   0.802   0.936   4.738
 5606SOL     OW17716   5.827   6.504   1.180
 5606SOL    HW117717   5.776   6.418   1.186
 5606SOL    HW217718   5.836   6.531   1.085
 5607SOL     OW17719   5.406   0.545   2.124
 5607SOL    HW117720   5.480   0.550   2.191
 5607SOL    HW217721   5.337   0.614   2.146
 5608SOL     OW17722   4.444   0.322   4.598
 5608SOL    HW117723   4.495   0.259   4.539
 5608SOL    HW217724   4.362   0.275   4.632
 5609SOL     OW17725   2.412   5.246   0.632
 5609SOL    HW117726   2.486   5.299   0.589
 5609SOL    HW217727   2.383   5.293   0.715
 5610SOL     OW17728   4.999   6.837   0.636
 5610SOL    HW117729   4.935   6.889   0.580
 5610SOL    HW217730   5.056   6.900   0.688
 5611SOL     OW17731   1.717   4.944   2.469
 5611SOL    HW117732   1.671   4.881   2.532
 5611SOL    HW217733   1.691   4.923   2.375
 5612SOL     OW17734   3.634   2.047   6.511
 5612SOL    HW117735   3.699   2.123   6.517
 5612SOL    HW217736   3.548   2.080   6.472
 5613SOL     OW17737   4.821   3.975   2.829
 5613SOL    HW117738   4.840   4.049   2.764
 5613SOL    HW217739   4.788   3.894   2.779
 5614SOL     OW17740   4.429   2.435   4.509
 5614SOL    HW117741   4.333   2.448   4.534
 5614SOL    HW217742   4.447   2.485   4.424
 5615SOL     OW17743   0.614   0.722   6.237
 5615SOL    HW117744   0.704   0.756   6.209
 5615SOL    HW217745   0.554   0.800   6.257
 5616SOL     OW17746   1.939   0.946   5.269
 5616SOL    HW117747   1.865   0.961   5.334
 5616SOL    HW217748   2.022   0.920   5.318
 5617SOL     OW17749   2.682   6.678   6.451
 5617SOL    HW117750   2.774   6.695   6.486
 5617SOL    HW217751   2.670   6.725   6.364
 5618SOL     OW17752   6.452   3.591   4.419
 5618SOL    HW117753   6.479   3.606   4.514
 5618SOL    HW217754   6.384   3.518   4.415
 5619SOL     OW17755   2.725   4.148   6.372
 5619SOL    HW117756   2.776   4.086   6.314
 5619SOL    HW217757   2.733   4.118   6.468
 5620SOL     OW17758   3.714   3.369   0.780
 5620SOL    HW117759   3.799   3.422   0.776
 5620SOL    HW217760   3.712   3.305   0.703
 5621SOL     OW17761   1.473   2.120   5.978
 5621SOL    HW117762   1.401   2.050   5.984
 5621SOL    HW217763   1.432   2.207   5.953
 5622SOL     OW17764   4.398   0.025   5.892
 5622SOL    HW117765   4.417   0.068   5.803
 5622SOL    HW217766   4.460   6.970   5.905
 5623SOL     OW17767   2.092   6.113   6.148
 5623SOL    HW117768   2.069   6.027   6.104
 5623SOL    HW217769   2.129   6.095   6.239
 5624SOL     OW17770   0.958   4.403   3.255
 5624SOL    HW117771   1.033   4.394   3.190
 5624SOL    HW217772   0.966   4.489   3.305
 5625SOL     OW17773   6.040   2.299   4.024
 5625SOL    HW117774   6.015   2.213   4.070
 5625SOL    HW217775   5.978   2.372   4.054
 5626SOL     OW17776   2.561   6.224   4.821
 5626SOL    HW117777   2.618   6.297   4.859
 5626SOL    HW217778   2.466   6.238   4.847
 5627SOL     OW17779   1.018   5.877   0.703
 5627SOL    HW117780   1.049   5.873   0.608
 5627SOL    HW217781   1.042   5.792   0.749
 5628SOL     OW17782   1.633   2.153   6.196
 5628SOL    HW117783   1.694   2.075   6.176
 5628SOL    HW217784   1.566   2.162   6.122
 5629SOL     OW17785   3.301   4.011   1.834
 5629SOL    HW117786   3.352   3.930   1.804
 5629SOL    HW217787   3.351   4.093   1.808
 5630SOL     OW17788   1.363   5.169   0.729
 5630SOL    HW117789   1.392   5.121   0.646
 5630SOL    HW217790   1.437   5.230   0.759
 5631SOL     OW17791   4.431   1.481   7.019
 5631SOL    HW117792   4.480   1.567   7.004
 5631SOL    HW217793   4.345   1.482   6.968
 5632SOL     OW17794   4.053   3.219   6.012
 5632SOL    HW117795   3.983   3.178   6.070
 5632SOL    HW217796   4.024   3.312   5.986
 5633SOL     OW17797   6.461   2.236   3.546
 5633SOL    HW117798   6.363   2.239   3.560
 5633SOL    HW217799   6.483   2.268   3.453
 5634SOL     OW17800   2.978   5.833   5.584
 5634SOL    HW117801   2.966   5.886   5.668
 5634SOL    HW217802   3.045   5.879   5.525
 5635SOL     OW17803   2.048   3.296   4.827
 5635SOL    HW117804   1.975   3.282   4.760
 5635SOL    HW217805   2.124   3.234   4.807
 5636SOL     OW17806   3.496   6.182   2.662
 5636SOL    HW117807   3.433   6.233   2.720
 5636SOL    HW217808   3.584   6.229   2.658
 5637SOL     OW17809   5.379   7.001   3.965
 5637SOL    HW117810   5.319   0.005   3.890
 5637SOL    HW217811   5.340   6.923   4.013
 5638SOL     OW17812   5.429   3.430   1.066
 5638SOL    HW117813   5.340   3.465   1.036
 5638SOL    HW217814   5.499   3.500   1.053
 5639SOL     OW17815   0.404   1.401   0.525
 5639SOL    HW117816   0.458   1.484   0.530
 5639SOL    HW217817   0.440   1.341   0.454
 5640SOL     OW17818   2.734   0.715   4.146
 5640SOL    HW117819   2.667   0.661   4.197
 5640SOL    HW217820   2.825   0.699   4.185
 5641SOL     OW17821   0.167   4.861   6.084
 5641SOL    HW117822   0.135   4.795   6.017
 5641SOL    HW217823   0.253   4.829   6.124
 5642SOL     OW17824   1.720   6.559   0.424
 5642SOL    HW117825   1.733   6.594   0.517
 5642SOL    HW217826   1.802   6.575   0.370
 5643SOL     OW17827   4.945   1.623   5.052
 5643SOL    HW117828   5.010   1.666   4.989
 5643SOL    HW217829   4.945   1.524   5.037
 5644SOL     OW17830   2.916   6.662   5.271
 5644SOL    HW117831   2.965   6.677   5.357
 5644SOL    HW217832   2.822   6.695   5.280
 5645SOL     OW17833   6.485   3.949   3.641
 5645SOL    HW117834   6.486   4.049   3.634
 5645SOL    HW217835   6.476   3.909   3.550
 5646SOL     OW17836   1.947   4.826   2.925
 5646SOL    HW117837   1.864   4.871   2.894
 5646SOL    HW217838   1.993   4.883   2.993
 5647SOL     OW17839   5.409   6.316   1.874
 5647SOL    HW117840   5.392   6.414   1.878
 5647SOL    HW217841   5.324   6.266   1.891
 5648SOL     OW17842   2.186   5.785   2.859
 5648SOL    HW117843   2.171   5.728   2.940
 5648SOL    HW217844   2.270   5.837   2.870
 5649SOL     OW17845   0.976   6.819   4.083
 5649SOL    HW117846   0.883   6.828   4.118
 5649SOL    HW217847   1.026   6.751   4.136
 5650SOL     OW17848   0.475   4.792   0.589
 5650SOL    HW117849   0.513   4.776   0.680
 5650SOL    HW217850   0.533   4.747   0.520
 5651SOL     OW17851   1.707   0.399   0.675
 5651SOL    HW117852   1.783   0.458   0.647
 5651SOL    HW217853   1.699   0.323   0.611
 5652SOL     OW17854   0.173   5.696   2.057
 5652SOL    HW117855   0.202   5.698   1.961
 5652SOL    HW217856   0.186   5.603   2.093
 5653SOL     OW17857   0.333   6.264   0.040
 5653SOL    HW117858   0.388   6.342   0.068
 5653SOL    HW217859   0.242   6.296   0.012
 5654SOL     OW17860   1.109   5.964   4.682
 5654SOL    HW117861   1.043   6.039   4.693
 5654SOL    HW217862   1.187   5.980   4.742
 5655SOL     OW17863   6.410   3.087   4.049
 5655SOL    HW117864   6.451   3.142   3.976
 5655SOL    HW217865   6.467   3.006   4.065
 5656SOL     OW17866   6.635   3.509   6.311
 5656SOL    HW117867   6.613   3.454   6.392
 5656SOL    HW217868   6.734   3.513   6.300
 5657SOL     OW17869   4.553   4.485   4.909
 5657SOL    HW117870   4.589   4.405   4.957
 5657SOL    HW217871   4.476   4.523   4.961
 5658SOL     OW17872   1.894   2.898   6.116
 5658SOL    HW117873   1.851   2.958   6.184
 5658SOL    HW217874   1.928   2.815   6.161
 5659SOL     OW17875   3.182   3.541   6.086
 5659SOL    HW117876   3.194   3.481   6.165
 5659SOL    HW217877   3.114   3.502   6.025
 5660SOL     OW17878   4.422   6.684   6.725
 5660SOL    HW117879   4.454   6.605   6.779
 5660SOL    HW217880   4.451   6.673   6.630
 5661SOL     OW17881   0.714   5.375   5.946
 5661SOL    HW117882   0.785   5.435   5.911
 5661SOL    HW217883   0.749   5.325   6.026
 5662SOL     OW17884   2.551   6.673   2.919
 5662SOL    HW117885   2.609   6.730   2.860
 5662SOL    HW217886   2.473   6.639   2.867
 5663SOL     OW17887   1.456   2.800   0.626
 5663SOL    HW117888   1.484   2.814   0.721
 5663SOL    HW217889   1.498   2.717   0.591
 5664SOL     OW17890   5.102   4.191   4.416
 5664SOL    HW117891   5.161   4.259   4.457
 5664SOL    HW217892   5.019   4.181   4.471
 5665SOL     OW17893   1.260   6.746   0.462
 5665SOL    HW117894   1.339   6.763   0.521
 5665SOL    HW217895   1.290   6.701   0.378
 5666SOL     OW17896   5.653   0.819   4.211
 5666SOL    HW117897   5.683   0.735   4.257
 5666SOL    HW217898   5.730   0.883   4.208
 5667SOL     OW17899   1.620   4.953   4.306
 5667SOL    HW117900   1.556   4.947   4.229
 5667SOL    HW217901   1.591   5.026   4.368
 5668SOL     OW17902   6.174   2.580   2.908
 5668SOL    HW117903   6.121   2.495   2.904
 5668SOL    HW217904   6.145   2.634   2.987
 5669SOL     OW17905   6.374   4.233   6.859
 5669SOL    HW117906   6.370   4.253   6.956
 5669SOL    HW217907   6.305   4.165   6.835
 5670SOL     OW17908   1.325   3.841   3.125
 5670SOL    HW117909   1.317   3.765   3.060
 5670SOL    HW217910   1.291   3.812   3.214
 5671SOL     OW17911   6.383   5.734   4.022
 5671SOL    HW117912   6.307   5.674   3.997
 5671SOL    HW217913   6.426   5.699   4.106
 5672SOL     OW17914   4.690   4.172   5.380
 5672SOL    HW117915   4.778   4.219   5.369
 5672SOL    HW217916   4.698   4.079   5.345
 5673SOL     OW17917   0.740   7.010   1.477
 5673SOL    HW117918   0.837   7.000   1.456
 5673SOL    HW217919   0.720   0.084   1.495
 5674SOL     OW17920   2.046   4.891   4.535
 5674SOL    HW117921   2.051   4.911   4.633
 5674SOL    HW217922   1.984   4.814   4.520
 5675SOL     OW17923   3.238   1.064   0.357
 5675SOL    HW117924   3.298   1.029   0.286
 5675SOL    HW217925   3.261   1.159   0.378
 5676SOL     OW17926   2.953   2.473   1.589
 5676SOL    HW117927   2.880   2.540   1.573
 5676SOL    HW217928   2.980   2.476   1.685
 5677SOL     OW17929   6.918   0.658   0.797
 5677SOL    HW117930   6.995   0.721   0.786
 5677SOL    HW217931   6.868   0.680   0.881
 5678SOL     OW17932   3.322   1.483   2.144
 5678SOL    HW117933   3.349   1.566   2.095
 5678SOL    HW217934   3.327   1.499   2.242
 5679SOL     OW17935   6.041   2.322   4.786
 5679SOL    HW117936   5.942   2.326   4.771
 5679SOL    HW217937   6.059   2.276   4.873
 5680SOL     OW17938   1.721   4.979   5.334
 5680SOL    HW117939   1.713   4.881   5.315
 5680SOL    HW217940   1.794   4.994   5.401
 5681SOL     OW17941   0.425   3.667   2.687
 5681SOL    HW117942   0.467   3.743   2.737
 5681SOL    HW217943   0.472   3.653   2.601
 5682SOL     OW17944   2.731   5.513   2.636
 5682SOL    HW117945   2.716   5.474   2.545
 5682SOL    HW217946   2.760   5.440   2.699
 5683SOL     OW17947   3.962   2.697   6.636
 5683SOL    HW117948   4.017   2.723   6.557
 5683SOL    HW217949   3.889   2.765   6.650
 5684SOL     OW17950   2.203   3.498   6.138
 5684SOL    HW117951   2.167   3.586   6.169
 5684SOL    HW217952   2.262   3.459   6.209
 5685SOL     OW17953   2.043   2.620   4.027
 5685SOL    HW117954   2.094   2.689   3.976
 5685SOL    HW217955   2.059   2.632   4.125
 5686SOL     OW17956   3.205   0.745   5.823
 5686SOL    HW117957   3.278   0.701   5.875
 5686SOL    HW217958   3.227   0.842   5.811
 5687SOL     OW17959   0.762   6.191   5.151
 5687SOL    HW117960   0.680   6.187   5.093
 5687SOL    HW217961   0.843   6.177   5.095
 5688SOL     OW17962   1.886   3.556   3.662
 5688SOL    HW117963   1.924   3.645   3.635
 5688SOL    HW217964   1.925   3.484   3.604
 5689SOL     OW17965   1.338   0.790   1.309
 5689SOL    HW117966   1.275   0.860   1.275
 5689SOL    HW217967   1.420   0.788   1.252
 5690SOL     OW17968   0.876   5.444   6.706
 5690SOL    HW117969   0.878   5.435   6.805
 5690SOL    HW217970   0.811   5.515   6.680
 5691SOL     OW17971   3.292   1.127   2.258
 5691SOL    HW117972   3.285   1.157   2.163
 5691SOL    HW217973   3.332   1.200   2.313
 5692SOL     OW17974   4.941   5.072   0.741
 5692SOL    HW117975   5.026   5.124   0.732
 5692SOL    HW217976   4.906   5.080   0.834
 5693SOL     OW17977   3.922   0.826   0.636
 5693SOL    HW117978   3.910   0.800   0.732
 5693SOL    HW217979   4.008   0.876   0.625
 5694SOL     OW17980   0.659   0.624   2.871
 5694SOL    HW117981   0.604   0.648   2.951
 5694SOL    HW217982   0.600   0.618   2.790
 5695SOL     OW17983   1.027   1.076   2.007
 5695SOL    HW117984   1.035   1.160   2.061
 5695SOL    HW217985   1.117   1.035   1.995
 5696SOL     OW17986   1.550   0.511   4.131
 5696SOL    HW117987   1.545   0.443   4.057
 5696SOL    HW217988   1.642   0.511   4.170
 5697SOL     OW17989   6.227   2.736   1.585
 5697SOL    HW117990   6.253   2.639   1.586
 5697SOL    HW217991   6.252   2.777   1.672
 5698SOL     OW17992   1.625   3.452   3.477
 5698SOL    HW117993   1.605   3.526   3.413
 5698SOL    HW217994   1.565   3.374   3.458
 5699SOL     OW17995   1.952   2.506   3.393
 5699SOL    HW117996   1.961   2.533   3.297
 5699SOL    HW217997   1.888   2.568   3.439
 5700SOL     OW17998   0.174   0.710   2.049
 5700SOL    HW117999   0.194   0.619   2.086
 5700SOL    HW218000   0.248   0.772   2.074
 5701SOL     OW18001   6.623   1.177   0.973
 5701SOL    HW118002   6.670   1.265   0.971
 5701SOL    HW218003   6.539   1.184   1.027
 5702SOL     OW18004   1.587   6.599   4.110
 5702SOL    HW118005   1.518   6.538   4.072
 5702SOL    HW218006   1.563   6.694   4.088
 5703SOL     OW18007   0.336   4.048   5.809
 5703SOL    HW118008   0.262   4.001   5.760
 5703SOL    HW218009   0.308   4.064   5.904
 5704SOL     OW18010   5.512   3.727   3.593
 5704SOL    HW118011   5.558   3.806   3.634
 5704SOL    HW218012   5.414   3.733   3.610
 5705SOL     OW18013   6.182   6.074   6.352
 5705SOL    HW118014   6.219   5.983   6.369
 5705SOL    HW218015   6.257   6.140   6.346
 5706SOL     OW18016   5.747   2.692   0.574
 5706SOL    HW118017   5.825   2.737   0.617
 5706SOL    HW218018   5.664   2.746   0.590
 5707SOL     OW18019   5.116   6.924   1.222
 5707SOL    HW118020   5.138   6.831   1.249
 5707SOL    HW218021   5.067   6.970   1.296
 5708SOL     OW18022   4.894   5.728   3.448
 5708SOL    HW118023   4.923   5.637   3.476
 5708SOL    HW218024   4.876   5.784   3.529
 5709SOL     OW18025   1.608   1.202   2.024
 5709SOL    HW118026   1.632   1.106   2.042
 5709SOL    HW218027   1.512   1.217   2.050
 5710SOL     OW18028   2.803   2.751   0.387
 5710SOL    HW118029   2.764   2.701   0.310
 5710SOL    HW218030   2.737   2.757   0.461
 5711SOL     OW18031   4.989   0.623   1.544
 5711SOL    HW118032   4.922   0.695   1.526
 5711SOL    HW218033   4.943   0.544   1.584
 5712SOL     OW18034   6.906   6.274   1.329
 5712SOL    HW118035   6.990   6.327   1.341
 5712SOL    HW218036   6.930   6.177   1.318
 5713SOL     OW18037   2.362   5.597   0.605
 5713SOL    HW118038   2.338   5.681   0.557
 5713SOL    HW218039   2.461   5.592   0.617
 5714SOL     OW18040   6.329   5.839   1.590
 5714SOL    HW118041   6.415   5.811   1.548
 5714SOL    HW218042   6.272   5.886   1.522
 5715SOL     OW18043   0.877   6.471   1.325
 5715SOL    HW118044   0.871   6.459   1.424
 5715SOL    HW218045   0.785   6.478   1.287
 5716SOL     OW18046   0.613   4.890   6.330
 5716SOL    HW118047   0.538   4.940   6.374
 5716SOL    HW218048   0.623   4.920   6.235
 5717SOL     OW18049   2.044   4.802   2.608
 5717SOL    HW118050   2.092   4.887   2.630
 5717SOL    HW218051   1.948   4.822   2.590
 5718SOL     OW18052   0.778   2.843   0.841
 5718SOL    HW118053   0.831   2.825   0.924
 5718SOL    HW218054   0.720   2.923   0.857
 5719SOL     OW18055   3.117   3.035   1.238
 5719SOL    HW118056   3.186   3.074   1.177
 5719SOL    HW218057   3.080   3.107   1.297
 5720SOL     OW18058   2.508   5.784   5.732
 5720SOL    HW118059   2.534   5.879   5.715
 5720SOL    HW218060   2.514   5.764   5.830
 5721SOL     OW18061   5.256   4.257   6.970
 5721SOL    HW118062   5.301   4.310   0.020
 5721SOL    HW218063   5.217   4.320   6.903
 5722SOL     OW18064   0.699   0.977   5.326
 5722SOL    HW118065   0.762   1.025   5.387
 5722SOL    HW218066   0.686   0.883   5.360
 5723SOL     OW18067   4.142   3.661   0.054
 5723SOL    HW118068   4.160   3.611   6.992
 5723SOL    HW218069   4.226   3.705   0.085
 5724SOL     OW18070   5.720   2.486   2.995
 5724SOL    HW118071   5.649   2.420   3.020
 5724SOL    HW218072   5.810   2.446   3.011
 5725SOL     OW18073   5.307   4.967   3.224
 5725SOL    HW118074   5.347   4.981   3.314
 5725SOL    HW218075   5.253   4.882   3.224
 5726SOL     OW18076   4.832   3.863   3.088
 5726SOL    HW118077   4.804   3.873   2.993
 5726SOL    HW218078   4.806   3.945   3.139
 5727SOL     OW18079   0.886   2.706   4.211
 5727SOL    HW118080   0.965   2.651   4.183
 5727SOL    HW218081   0.876   2.784   4.149
 5728SOL     OW18082   4.538   5.872   5.365
 5728SOL    HW118083   4.529   5.796   5.430
 5728SOL    HW218084   4.514   5.841   5.273
 5729SOL     OW18085   2.403   2.415   6.241
 5729SOL    HW118086   2.495   2.398   6.278
 5729SOL    HW218087   2.401   2.505   6.198
 5730SOL     OW18088   6.846   3.959   5.677
 5730SOL    HW118089   6.868   3.870   5.636
 5730SOL    HW218090   6.763   3.995   5.635
 5731SOL     OW18091   0.245   6.600   1.705
 5731SOL    HW118092   0.152   6.635   1.718
 5731SOL    HW218093   0.251   6.507   1.742
 5732SOL     OW18094   1.218   6.567   4.412
 5732SOL    HW118095   1.261   6.608   4.493
 5732SOL    HW218096   1.119   6.580   4.417
 5733SOL     OW18097   3.979   6.722   5.057
 5733SOL    HW118098   3.952   6.818   5.053
 5733SOL    HW218099   3.958   6.678   4.970
 5734SOL     OW18100   1.606   6.611   3.795
 5734SOL    HW118101   1.587   6.636   3.700
 5734SOL    HW218102   1.705   6.606   3.809
 5735SOL     OW18103   3.379   1.114   1.407
 5735SOL    HW118104   3.291   1.118   1.358
 5735SOL    HW218105   3.438   1.188   1.375
 5736SOL     OW18106   1.130   5.310   6.683
 5736SOL    HW118107   1.037   5.333   6.655
 5736SOL    HW218108   1.192   5.323   6.606
 5737SOL     OW18109   5.031   4.769   6.526
 5737SOL    HW118110   5.103   4.749   6.460
 5737SOL    HW218111   4.954   4.813   6.479
 5738SOL     OW18112   1.661   3.505   6.876
 5738SOL    HW118113   1.596   3.550   6.937
 5738SOL    HW218114   1.658   3.547   6.786
 5739SOL     OW18115   1.756   1.394   0.702
 5739SOL    HW118116   1.656   1.389   0.692
 5739SOL    HW218117   1.783   1.352   0.789
 5740SOL     OW18118   4.159   5.534   6.894
 5740SOL    HW118119   4.250   5.575   6.885
 5740SOL    HW218120   4.089   5.604   6.883
 5741SOL     OW18121   6.571   5.499   4.856
 5741SOL    HW118122   6.549   5.457   4.943
 5741SOL    HW218123   6.621   5.584   4.872
 5742SOL     OW18124   6.233   6.899   2.534
 5742SOL    HW118125   6.190   6.809   2.534
 5742SOL    HW218126   6.163   6.970   2.548
 5743SOL     OW18127   2.430   6.841   4.701
 5743SOL    HW118128   2.363   6.858   4.628
 5743SOL    HW218129   2.385   6.798   4.778
 5744SOL     OW18130   5.748   0.688   0.076
 5744SOL    HW118131   5.835   0.642   0.055
 5744SOL    HW218132   5.700   0.637   0.148
 5745SOL     OW18133   2.090   2.072   4.735
 5745SOL    HW118134   2.092   2.138   4.660
 5745SOL    HW218135   1.996   2.039   4.748
 5746SOL     OW18136   4.455   2.068   0.281
 5746SOL    HW118137   4.467   1.970   0.273
 5746SOL    HW218138   4.430   2.106   0.191
 5747SOL     OW18139   0.398   5.417   3.322
 5747SOL    HW118140   0.366   5.481   3.252
 5747SOL    HW218141   0.378   5.323   3.293
 5748SOL     OW18142   1.937   5.789   1.785
 5748SOL    HW118143   1.997   5.808   1.708
 5748SOL    HW218144   1.937   5.866   1.848
 5749SOL     OW18145   2.197   2.278   3.254
 5749SOL    HW118146   2.152   2.340   3.318
 5749SOL    HW218147   2.185   2.311   3.161
 5750SOL     OW18148   6.064   5.591   3.339
 5750SOL    HW118149   6.119   5.567   3.259
 5750SOL    HW218150   5.980   5.537   3.338
 5751SOL     OW18151   2.509   3.371   5.556
 5751SOL    HW118152   2.521   3.365   5.655
 5751SOL    HW218153   2.463   3.289   5.522
 5752SOL     OW18154   6.927   6.873   6.545
 5752SOL    HW118155   6.870   6.857   6.625
 5752SOL    HW218156   6.919   6.968   6.517
 5753SOL     OW18157   3.342   2.800   0.036
 5753SOL    HW118158   3.424   2.848   0.069
 5753SOL    HW218159   3.349   2.785   6.960
 5754SOL     OW18160   6.131   5.195   1.407
 5754SOL    HW118161   6.111   5.247   1.324
 5754SOL    HW218162   6.087   5.239   1.485
 5755SOL     OW18163   3.090   4.341   6.690
 5755SOL    HW118164   3.004   4.375   6.652
 5755SOL    HW218165   3.143   4.417   6.728
 5756SOL     OW18166   6.681   5.023   3.608
 5756SOL    HW118167   6.726   5.093   3.552
 5756SOL    HW218168   6.605   5.064   3.659
 5757SOL     OW18169   6.760   5.201   0.733
 5757SOL    HW118170   6.689   5.262   0.770
 5757SOL    HW218171   6.784   5.232   0.641
 5758SOL     OW18172   1.779   2.555   5.446
 5758SOL    HW118173   1.843   2.501   5.390
 5758SOL    HW218174   1.685   2.538   5.415
 5759SOL     OW18175   5.268   1.681   6.681
 5759SOL    HW118176   5.189   1.701   6.739
 5759SOL    HW218177   5.236   1.647   6.592
 5760SOL     OW18178   1.611   5.227   2.261
 5760SOL    HW118179   1.608   5.327   2.253
 5760SOL    HW218180   1.692   5.192   2.214
 5761SOL     OW18181   4.601   6.669   4.607
 5761SOL    HW118182   4.557   6.652   4.519
 5761SOL    HW218183   4.557   6.614   4.678
 5762SOL     OW18184   5.802   6.330   1.663
 5762SOL    HW118185   5.780   6.425   1.641
 5762SOL    HW218186   5.852   6.289   1.587
 5763SOL     OW18187   1.593   0.703   1.102
 5763SOL    HW118188   1.573   0.694   1.004
 5763SOL    HW218189   1.624   0.796   1.121
 5764SOL     OW18190   5.149   3.739   5.821
 5764SOL    HW118191   5.160   3.640   5.818
 5764SOL    HW218192   5.186   3.774   5.907
 5765SOL     OW18193   5.862   4.146   6.483
 5765SOL    HW118194   5.959   4.127   6.502
 5765SOL    HW218195   5.805   4.091   6.543
 5766SOL     OW18196   2.918   2.096   2.641
 5766SOL    HW118197   2.856   2.154   2.588
 5766SOL    HW218198   2.873   2.009   2.662
 5767SOL     OW18199   0.285   0.185   1.311
 5767SOL    HW118200   0.364   0.246   1.320
 5767SOL    HW218201   0.278   0.127   1.392
 5768SOL     OW18202   0.022   1.926   2.753
 5768SOL    HW118203   0.037   1.840   2.802
 5768SOL    HW218204   0.036   2.003   2.816
 5769SOL     OW18205   2.526   5.905   4.094
 5769SOL    HW118206   2.525   5.993   4.142
 5769SOL    HW218207   2.569   5.916   4.005
 5770SOL     OW18208   6.719   0.247   1.602
 5770SOL    HW118209   6.729   0.175   1.671
 5770SOL    HW218210   6.775   0.326   1.629
 5771SOL     OW18211   1.564   0.968   1.195
 5771SOL    HW118212   1.514   1.041   1.241
 5771SOL    HW218213   1.655   1.002   1.169
 5772SOL     OW18214   5.264   3.394   0.277
 5772SOL    HW118215   5.307   3.345   0.202
 5772SOL    HW218216   5.247   3.331   0.353
 5773SOL     OW18217   5.450   5.988   4.772
 5773SOL    HW118218   5.399   6.063   4.731
 5773SOL    HW218219   5.430   5.983   4.869
 5774SOL     OW18220   1.588   5.744   3.761
 5774SOL    HW118221   1.514   5.735   3.695
 5774SOL    HW218222   1.676   5.734   3.715
 5775SOL     OW18223   0.355   7.001   5.933
 5775SOL    HW118224   0.433   6.943   5.952
 5775SOL    HW218225   0.383   0.075   5.937
 5776SOL     OW18226   4.806   6.663   5.939
 5776SOL    HW118227   4.729   6.600   5.949
 5776SOL    HW218228   4.772   6.754   5.916
 5777SOL     OW18229   0.249   1.219   4.541
 5777SOL    HW118230   0.237   1.211   4.442
 5777SOL    HW218231   0.199   1.300   4.574
 5778SOL     OW18232   1.116   6.994   3.533
 5778SOL    HW118233   1.026   6.957   3.557
 5778SOL    HW218234   1.186   6.927   3.558
 5779SOL     OW18235   3.791   1.073   2.107
 5779SOL    HW118236   3.878   1.106   2.144
 5779SOL    HW218237   3.773   0.980   2.140
 5780SOL     OW18238   6.547   3.932   1.714
 5780SOL    HW118239   6.565   4.031   1.717
 5780SOL    HW218240   6.468   3.911   1.771
 5781SOL     OW18241   1.849   5.211   4.855
 5781SOL    HW118242   1.935   5.263   4.858
 5781SOL    HW218243   1.774   5.273   4.829
 5782SOL     OW18244   2.936   1.472   2.692
 5782SOL    HW118245   2.884   1.403   2.741
 5782SOL    HW218246   3.032   1.465   2.717
 5783SOL     OW18247   1.189   0.694   1.501
 5783SOL    HW118248   1.234   0.608   1.524
 5783SOL    HW218249   1.235   0.736   1.424
 5784SOL     OW18250   0.790   6.590   0.567
 5784SOL    HW118251   0.709   6.640   0.599
 5784SOL    HW218252   0.842   6.647   0.504
 5785SOL     OW18253   1.595   2.284   6.890
 5785SOL    HW118254   1.640   2.280   6.800
 5785SOL    HW218255   1.500   2.257   6.880
 5786SOL     OW18256   1.403   3.254   1.542
 5786SOL    HW118257   1.435   3.286   1.631
 5786SOL    HW218258   1.308   3.284   1.529
 5787SOL     OW18259   6.212   2.848   4.734
 5787SOL    HW118260   6.201   2.920   4.666
 5787SOL    HW218261   6.123   2.823   4.771
 5788SOL     OW18262   2.847   1.495   2.437
 5788SOL    HW118263   2.920   1.462   2.376
 5788SOL    HW218264   2.878   1.492   2.532
 5789SOL     OW18265   4.183   3.948   6.683
 5789SOL    HW118266   4.139   3.996   6.607
 5789SOL    HW218267   4.140   3.859   6.697
 5790SOL     OW18268   5.514   5.534   4.589
 5790SOL    HW118269   5.536   5.610   4.651
 5790SOL    HW218270   5.433   5.486   4.624
 5791SOL     OW18271   4.031   1.370   2.990
 5791SOL    HW118272   4.057   1.456   2.947
 5791SOL    HW218273   4.090   1.353   3.069
 5792SOL     OW18274   4.880   3.087   2.758
 5792SOL    HW118275   4.804   3.026   2.781
 5792SOL    HW218276   4.911   3.068   2.665
 5793SOL     OW18277   5.007   1.943   5.816
 5793SOL    HW118278   5.059   1.887   5.881
 5793SOL    HW218279   4.927   1.892   5.783
 5794SOL     OW18280   4.077   0.580   6.971
 5794SOL    HW118281   4.108   0.561   6.878
 5794SOL    HW218282   4.058   0.494   7.018
 5795SOL     OW18283   1.341   5.424   1.729
 5795SOL    HW118284   1.250   5.383   1.740
 5795SOL    HW218285   1.367   5.420   1.632
 5796SOL     OW18286   4.492   2.545   6.619
 5796SOL    HW118287   4.457   2.579   6.706
 5796SOL    HW218288   4.548   2.615   6.576
 5797SOL     OW18289   4.700   2.417   0.585
 5797SOL    HW118290   4.627   2.386   0.525
 5797SOL    HW218291   4.697   2.365   0.671
 5798SOL     OW18292   1.342   3.533   5.473
 5798SOL    HW118293   1.415   3.594   5.501
 5798SOL    HW218294   1.280   3.581   5.411
 5799SOL     OW18295   2.207   6.771   3.593
 5799SOL    HW118296   2.192   6.686   3.643
 5799SOL    HW218297   2.152   6.844   3.634
 5800SOL     OW18298   1.010   0.005   0.714
 5800SOL    HW118299   0.965   0.077   0.766
 5800SOL    HW218300   0.974   6.939   0.743
 5801SOL     OW18301   1.871   1.580   2.621
 5801SOL    HW118302   1.954   1.543   2.579
 5801SOL    HW218303   1.795   1.572   2.556
 5802SOL     OW18304   0.198   1.564   1.703
 5802SOL    HW118305   0.174   1.522   1.616
 5802SOL    HW218306   0.173   1.660   1.702
 5803SOL     OW18307   0.445   5.209   4.071
 5803SOL    HW118308   0.446   5.124   4.122
 5803SOL    HW218309   0.365   5.263   4.096
 5804SOL     OW18310   6.251   1.388   3.617
 5804SOL    HW118311   6.345   1.397   3.648
 5804SOL    HW218312   6.207   1.478   3.616
 5805SOL     OW18313   2.370   2.736   1.493
 5805SOL    HW118314   2.401   2.649   1.531
 5805SOL    HW218315   2.282   2.760   1.534
 5806SOL     OW18316   0.046   4.023   2.430
 5806SOL    HW118317   0.122   3.982   2.381
 5806SOL    HW218318   0.081   4.085   2.500
 5807SOL     OW18319   0.903   0.188   0.863
 5807SOL    HW118320   0.813   0.164   0.825
 5807SOL    HW218321   0.916   0.287   0.857
 5808SOL     OW18322   6.367   0.157   5.337
 5808SOL    HW118323   6.340   0.100   5.414
 5808SOL    HW218324   6.336   0.115   5.252
 5809SOL     OW18325   0.369   2.406   5.456
 5809SOL    HW118326   0.437   2.445   5.517
 5809SOL    HW218327   0.358   2.465   5.376
 5810SOL     OW18328   4.113   6.469   5.503
 5810SOL    HW118329   4.168   6.388   5.480
 5810SOL    HW218330   4.105   6.528   5.423
 5811SOL     OW18331   3.091   3.962   5.845
 5811SOL    HW118332   3.147   3.917   5.776
 5811SOL    HW218333   3.050   3.892   5.905
 5812SOL     OW18334   5.723   2.474   0.402
 5812SOL    HW118335   5.735   2.548   0.468
 5812SOL    HW218336   5.738   2.386   0.446
 5813SOL     OW18337   5.295   6.688   1.277
 5813SOL    HW118338   5.371   6.631   1.245
 5813SOL    HW218339   5.315   6.722   1.368
 5814SOL     OW18340   4.957   1.822   1.734
 5814SOL    HW118341   4.977   1.743   1.792
 5814SOL    HW218342   4.862   1.850   1.747
 5815SOL     OW18343   6.240   1.557   4.345
 5815SOL    HW118344   6.231   1.466   4.385
 5815SOL    HW218345   6.332   1.568   4.306
 5816SOL     OW18346   0.208   3.585   2.573
 5816SOL    HW118347   0.130   3.649   2.574
 5816SOL    HW218348   0.286   3.628   2.620
 5817SOL     OW18349   5.893   3.911   3.571
 5817SOL    HW118350   5.991   3.916   3.589
 5817SOL    HW218351   5.877   3.867   3.482
 5818SOL     OW18352   2.291   6.627   5.685
 5818SOL    HW118353   2.211   6.688   5.681
 5818SOL    HW218354   2.374   6.679   5.665
 5819SOL     OW18355   4.345   5.198   0.375
 5819SOL    HW118356   4.350   5.099   0.362
 5819SOL    HW218357   4.252   5.229   0.356
 5820SOL     OW18358   6.288   5.433   2.392
 5820SOL    HW118359   6.215   5.374   2.358
 5820SOL    HW218360   6.356   5.447   2.320
 5821SOL     OW18361   6.807   0.551   1.160
 5821SOL    HW118362   6.784   0.453   1.161
 5821SOL    HW218363   6.770   0.593   1.077
 5822SOL     OW18364   1.693   2.990   2.521
 5822SOL    HW118365   1.684   3.079   2.477
 5822SOL    HW218366   1.723   3.002   2.615
 5823SOL     OW18367   1.888   5.981   4.141
 5823SOL    HW118368   1.945   5.899   4.134
 5823SOL    HW218369   1.911   6.043   4.066
 5824SOL     OW18370   0.434   0.313   2.120
 5824SOL    HW118371   0.405   0.371   2.044
 5824SOL    HW218372   0.477   0.230   2.085
 5825SOL     OW18373   6.013   0.092   4.506
 5825SOL    HW118374   5.934   0.048   4.464
 5825SOL    HW218375   6.091   0.087   4.443
 5826SOL     OW18376   0.314   0.243   4.452
 5826SOL    HW118377   0.307   0.324   4.511
 5826SOL    HW218378   0.369   0.265   4.371
 5827SOL     OW18379   2.391   4.466   4.898
 5827SOL    HW118380   2.327   4.430   4.829
 5827SOL    HW218381   2.345   4.469   4.987
 5828SOL     OW18382   4.081   6.782   4.414
 5828SOL    HW118383   4.094   6.809   4.318
 5828SOL    HW218384   4.008   6.714   4.420
 5829SOL     OW18385   2.271   1.329   3.829
 5829SOL    HW118386   2.178   1.335   3.793
 5829SOL    HW218387   2.269   1.337   3.928
 5830SOL     OW18388   3.536   5.215   4.546
 5830SOL    HW118389   3.454   5.171   4.584
 5830SOL    HW218390   3.614   5.153   4.554
 5831SOL     OW18391   1.476   2.314   5.118
 5831SOL    HW118392   1.566   2.308   5.161
 5831SOL    HW218393   1.419   2.239   5.150
 5832SOL     OW18394   2.927   4.871   1.001
 5832SOL    HW118395   2.960   4.959   1.033
 5832SOL    HW218396   2.884   4.822   1.078
 5833SOL     OW18397   3.908   4.081   6.556
 5833SOL    HW118398   3.836   4.141   6.523
 5833SOL    HW218399   3.989   4.092   6.498
 5834SOL     OW18400   5.663   2.792   6.278
 5834SOL    HW118401   5.751   2.786   6.232
 5834SOL    HW218402   5.611   2.708   6.262
 5835SOL     OW18403   5.434   0.825   1.947
 5835SOL    HW118404   5.465   0.783   2.032
 5835SOL    HW218405   5.491   0.904   1.925
 5836SOL     OW18406   4.542   0.309   2.836
 5836SOL    HW118407   4.581   0.397   2.809
 5836SOL    HW218408   4.539   0.302   2.935
 5837SOL     OW18409   3.037   4.805   0.269
 5837SOL    HW118410   3.088   4.718   0.268
 5837SOL    HW218411   3.010   4.826   0.363
 5838SOL     OW18412   2.969   2.124   0.905
 5838SOL    HW118413   2.929   2.034   0.923
 5838SOL    HW218414   3.062   2.128   0.941
 5839SOL     OW18415   1.713   1.937   0.961
 5839SOL    HW118416   1.683   1.935   1.056
 5839SOL    HW218417   1.693   2.027   0.922
 5840SOL     OW18418   1.331   3.266   3.076
 5840SOL    HW118419   1.336   3.183   3.131
 5840SOL    HW218420   1.299   3.342   3.133
 5841SOL     OW18421   4.825   2.644   0.521
 5841SOL    HW118422   4.764   2.571   0.550
 5841SOL    HW218423   4.912   2.637   0.569
 5842SOL     OW18424   2.620   1.736   1.001
 5842SOL    HW118425   2.537   1.790   1.011
 5842SOL    HW218426   2.609   1.671   0.926
 5843SOL     OW18427   2.350   3.523   1.504
 5843SOL    HW118428   2.388   3.542   1.595
 5843SOL    HW218429   2.413   3.464   1.453
 5844SOL     OW18430   0.909   6.874   5.205
 5844SOL    HW118431   0.908   6.913   5.297
 5844SOL    HW218432   0.998   6.831   5.188
 5845SOL     OW18433   1.352   6.865   1.573
 5845SOL    HW118434   1.374   6.809   1.654
 5845SOL    HW218435   1.297   6.810   1.510
 5846SOL     OW18436   6.805   4.058   5.948
 5846SOL    HW118437   6.827   4.026   5.856
 5846SOL    HW218438   6.710   4.090   5.950
 5847SOL     OW18439   2.583   3.471   0.874
 5847SOL    HW118440   2.653   3.508   0.935
 5847SOL    HW218441   2.498   3.522   0.886
 5848SOL     OW18442   2.285   4.906   2.431
 5848SOL    HW118443   2.260   4.813   2.403
 5848SOL    HW218444   2.383   4.919   2.420
 5849SOL     OW18445   3.517   5.612   5.554
 5849SOL    HW118446   3.431   5.618   5.606
 5849SOL    HW218447   3.531   5.518   5.524
 5850SOL     OW18448   1.505   1.485   2.238
 5850SOL    HW118449   1.598   1.497   2.205
 5850SOL    HW218450   1.458   1.574   2.237
 5851SOL     OW18451   5.854   3.919   4.848
 5851SOL    HW118452   5.891   4.004   4.810
 5851SOL    HW218453   5.761   3.905   4.813
 5852SOL     OW18454   4.717   4.644   2.378
 5852SOL    HW118455   4.634   4.588   2.378
 5852SOL    HW218456   4.719   4.700   2.461
 5853SOL     OW18457   3.500   4.597   5.313
 5853SOL    HW118458   3.520   4.659   5.236
 5853SOL    HW218459   3.583   4.586   5.368
 5854SOL     OW18460   3.016   4.948   5.615
 5854SOL    HW118461   3.099   4.915   5.569
 5854SOL    HW218462   2.963   4.870   5.648
 5855SOL     OW18463   2.021   3.346   3.538
 5855SOL    HW118464   2.085   3.287   3.489
 5855SOL    HW218465   2.026   3.326   3.636
 5856SOL     OW18466   1.353   6.861   3.611
 5856SOL    HW118467   1.332   6.834   3.705
 5856SOL    HW218468   1.450   6.842   3.592
 5857SOL     OW18469   6.967   4.274   6.163
 5857SOL    HW118470   6.984   4.373   6.162
 5857SOL    HW218471   6.939   4.244   6.072
 5858SOL     OW18472   1.970   0.765   3.534
 5858SOL    HW118473   1.919   0.739   3.452
 5858SOL    HW218474   1.964   0.692   3.602
 5859SOL     OW18475   6.103   0.424   2.025
 5859SOL    HW118476   6.123   0.460   2.116
 5859SOL    HW218477   6.179   0.366   1.996
 5860SOL     OW18478   0.143   3.720   3.479
 5860SOL    HW118479   0.122   3.637   3.530
 5860SOL    HW218480   0.058   3.765   3.452
 5861SOL     OW18481   5.163   0.426   5.486
 5861SOL    HW118482   5.101   0.500   5.513
 5861SOL    HW218483   5.225   0.458   5.414
 5862SOL     OW18484   0.202   5.479   2.875
 5862SOL    HW118485   0.129   5.538   2.910
 5862SOL    HW218486   0.162   5.399   2.829
 5863SOL     OW18487   3.808   0.374   5.480
 5863SOL    HW118488   3.791   0.441   5.552
 5863SOL    HW218489   3.724   0.359   5.428
 5864SOL     OW18490   3.083   4.003   2.222
 5864SOL    HW118491   3.176   3.969   2.207
 5864SOL    HW218492   3.078   4.098   2.192
 5865SOL     OW18493   6.143   0.865   5.846
 5865SOL    HW118494   6.160   0.888   5.942
 5865SOL    HW218495   6.112   0.770   5.839
 5866SOL     OW18496   3.557   2.942   3.020
 5866SOL    HW118497   3.552   2.910   3.114
 5866SOL    HW218498   3.489   3.014   3.006
 5867SOL     OW18499   3.361   1.730   2.012
 5867SOL    HW118500   3.333   1.685   1.927
 5867SOL    HW218501   3.401   1.820   1.990
 5868SOL     OW18502   1.558   1.182   6.096
 5868SOL    HW118503   1.559   1.147   6.189
 5868SOL    HW218504   1.563   1.105   6.031
 5869SOL     OW18505   0.950   6.026   4.215
 5869SOL    HW118506   0.961   6.114   4.261
 5869SOL    HW218507   0.956   5.952   4.282
 5870SOL     OW18508   4.462   4.675   4.469
 5870SOL    HW118509   4.483   4.637   4.559
 5870SOL    HW218510   4.447   4.601   4.404
 5871SOL     OW18511   3.223   3.404   3.756
 5871SOL    HW118512   3.129   3.437   3.763
 5871SOL    HW218513   3.283   3.479   3.726
 5872SOL     OW18514   4.011   5.987   1.899
 5872SOL    HW118515   4.076   5.916   1.871
 5872SOL    HW218516   3.935   5.945   1.948
 5873SOL     OW18517   3.690   5.036   1.963
 5873SOL    HW118518   3.752   5.084   2.024
 5873SOL    HW218519   3.636   4.970   2.015
 5874SOL     OW18520   2.962   4.542   5.541
 5874SOL    HW118521   2.988   4.610   5.473
 5874SOL    HW218522   3.018   4.553   5.623
 5875SOL     OW18523   3.078   1.172   0.567
 5875SOL    HW118524   3.027   1.097   0.610
 5875SOL    HW218525   3.146   1.134   0.505
 5876SOL     OW18526   3.685   3.238   1.759
 5876SOL    HW118527   3.662   3.226   1.662
 5876SOL    HW218528   3.621   3.303   1.801
 5877SOL     OW18529   5.780   4.597   7.018
 5877SOL    HW118530   5.763   4.557   0.086
 5877SOL    HW218531   5.757   4.531   6.947
 5878SOL     OW18532   2.420   4.696   2.185
 5878SOL    HW118533   2.488   4.769   2.198
 5878SOL    HW218534   2.454   4.631   2.117
 5879SOL     OW18535   0.033   4.190   5.894
 5879SOL    HW118536   0.009   4.249   5.817
 5879SOL    HW218537   6.979   4.129   5.913
 5880SOL     OW18538   1.992   6.570   1.326
 5880SOL    HW118539   2.021   6.578   1.422
 5880SOL    HW218540   1.934   6.490   1.315
 5881SOL     OW18541   0.238   5.391   4.088
 5881SOL    HW118542   0.248   5.433   3.998
 5881SOL    HW218543   0.227   5.463   4.157
 5882SOL     OW18544   4.732   0.747   1.527
 5882SOL    HW118545   4.682   0.663   1.506
 5882SOL    HW218546   4.669   0.825   1.524
 5883SOL     OW18547   0.073   3.340   5.906
 5883SOL    HW118548   7.010   3.383   5.935
 5883SOL    HW218549   0.129   3.319   5.986
 5884SOL     OW18550   0.920   1.196   2.986
 5884SOL    HW118551   1.000   1.242   3.024
 5884SOL    HW218552   0.929   1.097   2.998
 5885SOL     OW18553   6.615   6.115   1.084
 5885SOL    HW118554   6.604   6.078   0.992
 5885SOL    HW218555   6.625   6.039   1.149
 5886SOL     OW18556   1.003   2.238   5.576
 5886SOL    HW118557   0.926   2.194   5.529
 5886SOL    HW218558   1.077   2.172   5.588
 5887SOL     OW18559   3.686   0.320   4.876
 5887SOL    HW118560   3.748   0.294   4.950
 5887SOL    HW218561   3.736   0.372   4.807
 5888SOL     OW18562   2.110   0.235   3.503
 5888SOL    HW118563   2.203   0.202   3.489
 5888SOL    HW218564   2.050   0.158   3.522
 5889SOL     OW18565   2.641   0.687   1.001
 5889SOL    HW118566   2.726   0.685   0.948
 5889SOL    HW218567   2.564   0.703   0.939
 5890SOL     OW18568   2.692   5.167   5.841
 5890SOL    HW118569   2.765   5.197   5.780
 5890SOL    HW218570   2.612   5.226   5.830
 5891SOL     OW18571   3.381   3.503   0.174
 5891SOL    HW118572   3.344   3.445   0.247
 5891SOL    HW218573   3.465   3.547   0.206
 5892SOL     OW18574   0.527   6.876   1.351
 5892SOL    HW118575   0.463   6.860   1.426
 5892SOL    HW218576   0.603   6.933   1.385
 5893SOL     OW18577   1.151   1.544   4.060
 5893SOL    HW118578   1.215   1.495   4.118
 5893SOL    HW218579   1.183   1.637   4.045
 5894SOL     OW18580   1.114   3.457   3.153
 5894SOL    HW118581   1.134   3.521   3.079
 5894SOL    HW218582   1.035   3.400   3.128
 5895SOL     OW18583   5.718   3.839   3.790
 5895SOL    HW118584   5.770   3.874   3.712
 5895SOL    HW218585   5.766   3.761   3.829
 5896SOL     OW18586   3.434   2.149   6.929
 5896SOL    HW118587   3.468   2.087   6.858
 5896SOL    HW218588   3.459   2.243   6.905
 5897SOL     OW18589   3.941   6.965   1.145
 5897SOL    HW118590   3.928   6.987   1.242
 5897SOL    HW218591   3.899   0.014   1.089
 5898SOL     OW18592   1.999   0.403   2.459
 5898SOL    HW118593   1.987   0.391   2.557
 5898SOL    HW218594   1.971   0.320   2.411
 5899SOL     OW18595   5.993   6.846   4.691
 5899SOL    HW118596   6.001   6.768   4.752
 5899SOL    HW218597   5.915   6.902   4.718
 5900SOL     OW18598   5.154   4.736   3.030
 5900SOL    HW118599   5.087   4.783   3.088
 5900SOL    HW218600   5.110   4.657   2.986
 5901SOL     OW18601   3.149   6.626   5.874
 5901SOL    HW118602   3.200   6.689   5.816
 5901SOL    HW218603   3.205   6.545   5.892
 5902SOL     OW18604   6.627   2.174   6.787
 5902SOL    HW118605   6.709   2.117   6.783
 5902SOL    HW218606   6.633   2.246   6.717
 5903SOL     OW18607   5.947   3.484   6.841
 5903SOL    HW118608   5.993   3.571   6.859
 5903SOL    HW218609   5.915   3.444   6.927
 5904SOL     OW18610   6.953   3.289   1.988
 5904SOL    HW118611   6.868   3.244   1.962
 5904SOL    HW218612   6.934   3.364   2.051
 5905SOL     OW18613   0.054   6.399   2.553
 5905SOL    HW118614   7.015   6.389   2.476
 5905SOL    HW218615   0.006   6.374   2.638
 5906SOL     OW18616   5.409   1.131   3.966
 5906SOL    HW118617   5.366   1.142   4.055
 5906SOL    HW218618   5.420   1.220   3.922
 5907SOL     OW18619   1.052   5.831   1.705
 5907SOL    HW118620   1.024   5.738   1.730
 5907SOL    HW218621   1.052   5.889   1.786
 5908SOL     OW18622   0.130   2.998   5.226
 5908SOL    HW118623   0.086   3.011   5.315
 5908SOL    HW218624   0.162   2.903   5.218
 5909SOL     OW18625   0.303   6.028   0.727
 5909SOL    HW118626   0.401   6.019   0.711
 5909SOL    HW218627   0.280   5.988   0.815
 5910SOL     OW18628   2.090   2.557   3.118
 5910SOL    HW118629   2.187   2.582   3.112
 5910SOL    HW218630   2.064   2.503   3.039
 5911SOL     OW18631   6.837   5.856   6.151
 5911SOL    HW118632   6.933   5.832   6.163
 5911SOL    HW218633   6.807   5.828   6.060
 5912SOL     OW18634   6.505   1.562   4.256
 5912SOL    HW118635   6.560   1.544   4.338
 5912SOL    HW218636   6.504   1.661   4.238
 5913SOL     OW18637   5.413   2.416   0.225
 5913SOL    HW118638   5.380   2.341   0.283
 5913SOL    HW218639   5.339   2.483   0.212
 5914SOL     OW18640   0.381   6.169   6.629
 5914SOL    HW118641   0.431   6.234   6.572
 5914SOL    HW218642   0.434   6.151   6.713
 5915SOL     OW18643   4.189   0.530   6.368
 5915SOL    HW118644   4.131   0.537   6.448
 5915SOL    HW218645   4.133   0.527   6.285
 5916SOL     OW18646   1.139   6.588   2.367
 5916SOL    HW118647   1.110   6.518   2.302
 5916SOL    HW218648   1.218   6.555   2.419
 5917SOL     OW18649   2.899   4.619   6.980
 5917SOL    HW118650   2.991   4.582   6.974
 5917SOL    HW218651   2.832   4.544   6.981
 5918SOL     OW18652   3.126   6.453   6.243
 5918SOL    HW118653   3.134   6.365   6.288
 5918SOL    HW218654   3.195   6.516   6.278
 5919SOL     OW18655   3.506   2.901   3.301
 5919SOL    HW118656   3.483   2.886   3.397
 5919SOL    HW218657   3.525   2.998   3.286
 5920SOL     OW18658   6.624   0.297   6.005
 5920SOL    HW118659   6.603   0.386   6.046
 5920SOL    HW218660   6.642   0.309   5.907
 5921SOL     OW18661   3.091   4.757   6.650
 5921SOL    HW118662   3.007   4.743   6.703
 5921SOL    HW218663   3.169   4.753   6.712
 5922SOL     OW18664   5.268   3.684   2.867
 5922SOL    HW118665   5.260   3.624   2.787
 5922SOL    HW218666   5.281   3.628   2.949
 5923SOL     OW18667   0.041   1.230   1.320
 5923SOL    HW118668   0.083   1.149   1.280
 5923SOL    HW218669   6.975   1.206   1.358
 5924SOL     OW18670   6.184   0.391   3.286
 5924SOL    HW118671   6.212   0.388   3.190
 5924SOL    HW218672   6.251   0.342   3.342
 5925SOL     OW18673   4.685   5.888   1.400
 5925SOL    HW118674   4.722   5.952   1.467
 5925SOL    HW218675   4.759   5.858   1.339
 5926SOL     OW18676   3.932   4.810   2.931
 5926SOL    HW118677   3.852   4.767   2.971
 5926SOL    HW218678   3.904   4.886   2.872
 5927SOL     OW18679   0.765   4.232   2.085
 5927SOL    HW118680   0.674   4.193   2.081
 5927SOL    HW218681   0.758   4.332   2.091
 5928SOL     OW18682   3.669   0.228   0.538
 5928SOL    HW118683   3.598   0.186   0.595
 5928SOL    HW218684   3.642   0.320   0.513
 5929SOL     OW18685   0.524   1.122   5.698
 5929SOL    HW118686   0.529   1.146   5.601
 5929SOL    HW218687   0.430   1.132   5.730
 5930SOL     OW18688   1.654   3.561   2.378
 5930SOL    HW118689   1.556   3.541   2.378
 5930SOL    HW218690   1.691   3.544   2.287
 5931SOL     OW18691   5.715   5.677   3.305
 5931SOL    HW118692   5.782   5.747   3.330
 5931SOL    HW218693   5.759   5.588   3.300
 5932SOL     OW18694   2.892   1.249   6.617
 5932SOL    HW118695   2.954   1.322   6.590
 5932SOL    HW218696   2.890   1.242   6.717
 5933SOL     OW18697   6.357   5.979   4.141
 5933SOL    HW118698   6.300   6.039   4.085
 5933SOL    HW218699   6.367   5.890   4.097
 5934SOL     OW18700   3.128   3.804   5.617
 5934SOL    HW118701   3.148   3.733   5.685
 5934SOL    HW218702   3.041   3.783   5.572
 5935SOL     OW18703   0.127   6.598   5.109
 5935SOL    HW118704   0.128   6.503   5.079
 5935SOL    HW218705   0.047   6.645   5.070
 5936SOL     OW18706   3.077   3.200   2.260
 5936SOL    HW118707   3.101   3.106   2.234
 5936SOL    HW218708   3.019   3.240   2.188
 5937SOL     OW18709   6.675   2.844   1.475
 5937SOL    HW118710   6.636   2.802   1.393
 5937SOL    HW218711   6.740   2.781   1.518
 5938SOL     OW18712   6.690   4.696   4.811
 5938SOL    HW118713   6.786   4.699   4.838
 5938SOL    HW218714   6.660   4.786   4.782
 5939SOL     OW18715   3.519   0.271   4.240
 5939SOL    HW118716   3.608   0.294   4.202
 5939SOL    HW218717   3.447   0.316   4.187
 5940SOL     OW18718   4.544   5.541   2.470
 5940SOL    HW118719   4.611   5.525   2.398
 5940SOL    HW218720   4.506   5.454   2.501
 5941SOL     OW18721   6.934   2.200   1.861
 5941SOL    HW118722   6.959   2.169   1.770
 5941SOL    HW218723   7.011   2.189   1.924
 5942SOL     OW18724   5.907   3.484   5.834
 5942SOL    HW118725   5.894   3.399   5.782
 5942SOL    HW218726   5.972   3.542   5.787
 5943SOL     OW18727   3.800   3.771   1.081
 5943SOL    HW118728   3.864   3.847   1.096
 5943SOL    HW218729   3.710   3.797   1.115
 5944SOL     OW18730   0.674   3.670   6.239
 5944SOL    HW118731   0.623   3.748   6.204
 5944SOL    HW218732   0.612   3.606   6.284
 5945SOL     OW18733   0.100   5.676   5.212
 5945SOL    HW118734   0.194   5.659   5.184
 5945SOL    HW218735   0.054   5.589   5.229
 5946SOL     OW18736   3.609   4.763   0.349
 5946SOL    HW118737   3.510   4.780   0.347
 5946SOL    HW218738   3.632   4.696   0.279
 5947SOL     OW18739   3.141   3.055   4.683
 5947SOL    HW118740   3.182   2.980   4.736
 5947SOL    HW218741   3.146   3.140   4.735
 5948SOL     OW18742   4.854   3.864   2.286
 5948SOL    HW118743   4.900   3.819   2.210
 5948SOL    HW218744   4.921   3.886   2.358
 5949SOL     OW18745   6.853   5.445   1.801
 5949SOL    HW118746   6.810   5.371   1.853
 5949SOL    HW218747   6.814   5.447   1.709
 5950SOL     OW18748   4.815   1.840   6.116
 5950SOL    HW118749   4.810   1.915   6.050
 5950SOL    HW218750   4.857   1.760   6.073
 5951SOL     OW18751   1.108   4.650   6.106
 5951SOL    HW118752   1.174   4.681   6.174
 5951SOL    HW218753   1.015   4.659   6.143
 5952SOL     OW18754   4.048   5.354   1.471
 5952SOL    HW118755   4.011   5.346   1.379
 5952SOL    HW218756   4.133   5.406   1.470
 5953SOL     OW18757   6.303   2.251   5.481
 5953SOL    HW118758   6.343   2.322   5.539
 5953SOL    HW218759   6.363   2.236   5.402
 5954SOL     OW18760   0.632   6.198   4.615
 5954SOL    HW118761   0.643   6.291   4.581
 5954SOL    HW218762   0.622   6.200   4.715
 5955SOL     OW18763   5.892   4.100   0.808
 5955SOL    HW118764   5.830   4.128   0.736
 5955SOL    HW218765   5.846   4.107   0.897
 5956SOL     OW18766   4.782   2.458   4.339
 5956SOL    HW118767   4.821   2.477   4.249
 5956SOL    HW218768   4.739   2.541   4.375
 5957SOL     OW18769   1.570   0.734   2.581
 5957SOL    HW118770   1.641   0.663   2.585
 5957SOL    HW218771   1.614   0.824   2.581
 5958SOL     OW18772   3.560   6.680   2.868
 5958SOL    HW118773   3.582   6.777   2.870
 5958SOL    HW218774   3.638   6.627   2.900
 5959SOL     OW18775   4.735   2.255   4.907
 5959SOL    HW118776   4.685   2.341   4.897
 5959SOL    HW218777   4.670   2.181   4.925
 5960SOL     OW18778   3.596   6.701   6.287
 5960SOL    HW118779   3.520   6.640   6.268
 5960SOL    HW218780   3.569   6.796   6.270
 5961SOL     OW18781   2.946   1.551   3.218
 5961SOL    HW118782   2.935   1.628   3.281
 5961SOL    HW218783   2.979   1.585   3.130
 5962SOL     OW18784   5.613   6.308   0.009
 5962SOL    HW118785   5.661   6.327   0.094
 5962SOL    HW218786   5.670   6.337   6.954
 5963SOL     OW18787   3.353   4.881   0.387
 5963SOL    HW118788   3.269   4.867   0.440
 5963SOL    HW218789   3.401   4.961   0.423
 5964SOL     OW18790   1.938   6.447   2.452
 5964SOL    HW118791   1.884   6.454   2.536
 5964SOL    HW218792   2.027   6.407   2.472
 5965SOL     OW18793   2.160   6.394   0.283
 5965SOL    HW118794   2.222   6.403   0.361
 5965SOL    HW218795   2.126   6.300   0.278
 5966SOL     OW18796   2.477   0.493   5.238
 5966SOL    HW118797   2.554   0.487   5.174
 5966SOL    HW218798   2.422   0.574   5.217
 5967SOL     OW18799   2.115   1.594   4.841
 5967SOL    HW118800   2.095   1.625   4.934
 5967SOL    HW218801   2.159   1.668   4.790
 5968SOL     OW18802   5.664   2.277   0.656
 5968SOL    HW118803   5.747   2.332   0.656
 5968SOL    HW218804   5.636   2.260   0.751
 5969SOL     OW18805   5.838   0.837   6.874
 5969SOL    HW118806   5.896   0.770   6.827
 5969SOL    HW218807   5.796   0.795   6.954
 5970SOL     OW18808   0.082   2.887   0.833
 5970SOL    HW118809   7.018   2.883   0.784
 5970SOL    HW218810   0.064   2.909   0.930
 5971SOL     OW18811   6.534   0.430   3.592
 5971SOL    HW118812   6.516   0.425   3.690
 5971SOL    HW218813   6.464   0.378   3.543
 5972SOL     OW18814   5.080   5.433   0.592
 5972SOL    HW118815   5.047   5.446   0.685
 5972SOL    HW218816   5.176   5.402   0.595
 5973SOL     OW18817   1.789   3.385   2.723
 5973SOL    HW118818   1.698   3.410   2.690
 5973SOL    HW218819   1.781   3.338   2.811
 5974SOL     OW18820   4.651   1.088   6.193
 5974SOL    HW118821   4.554   1.077   6.213
 5974SOL    HW218822   4.667   1.179   6.153
 5975SOL     OW18823   5.885   4.290   7.013
 5975SOL    HW118824   5.949   4.236   0.046
 5975SOL    HW218825   5.794   4.249   7.017
 5976SOL     OW18826   3.483   3.872   5.903
 5976SOL    HW118827   3.428   3.850   5.984
 5976SOL    HW218828   3.433   3.937   5.845
 5977SOL     OW18829   7.016   5.142   0.414
 5977SOL    HW118830   0.093   5.149   0.413
 5977SOL    HW218831   6.984   5.093   0.333
 5978SOL     OW18832   3.258   5.613   0.304
 5978SOL    HW118833   3.242   5.551   0.227
 5978SOL    HW218834   3.219   5.703   0.283
 5979SOL     OW18835   6.624   0.606   1.685
 5979SOL    HW118836   6.552   0.545   1.717
 5979SOL    HW218837   6.646   0.672   1.758
 5980SOL     OW18838   3.822   2.880   1.278
 5980SOL    HW118839   3.922   2.874   1.279
 5980SOL    HW218840   3.787   2.869   1.371
 5981SOL     OW18841   3.878   1.747   0.222
 5981SOL    HW118842   3.958   1.798   0.188
 5981SOL    HW218843   3.799   1.770   0.165
 5982SOL     OW18844   5.922   2.006   1.838
 5982SOL    HW118845   5.884   1.914   1.845
 5982SOL    HW218846   5.867   2.069   1.893
 5983SOL     OW18847   7.018   0.933   4.728
 5983SOL    HW118848   0.012   1.021   4.773
 5983SOL    HW218849   0.013   0.942   4.630
 5984SOL     OW18850   6.506   6.806   2.660
 5984SOL    HW118851   6.503   6.709   2.682
 5984SOL    HW218852   6.413   6.838   2.640
 5985SOL     OW18853   5.997   2.291   2.631
 5985SOL    HW118854   6.015   2.381   2.590
 5985SOL    HW218855   5.958   2.230   2.562
 5986SOL     OW18856   4.120   3.680   5.281
 5986SOL    HW118857   4.157   3.626   5.206
 5986SOL    HW218858   4.127   3.777   5.260
 5987SOL     OW18859   6.352   0.997   5.117
 5987SOL    HW118860   6.364   1.052   5.199
 5987SOL    HW218861   6.366   0.900   5.140
 5988SOL     OW18862   2.590   2.014   0.037
 5988SOL    HW118863   2.632   1.981   6.975
 5988SOL    HW218864   2.600   2.113   0.042
 5989SOL     OW18865   0.268   5.939   6.845
 5989SOL    HW118866   0.351   5.993   6.833
 5989SOL    HW218867   0.194   5.998   6.878
 5990SOL     OW18868   3.794   4.569   1.661
 5990SOL    HW118869   3.742   4.528   1.586
 5990SOL    HW218870   3.731   4.612   1.726
 5991SOL     OW18871   5.456   6.154   1.103
 5991SOL    HW118872   5.514   6.183   1.027
 5991SOL    HW218873   5.509   6.100   1.168
 5992SOL     OW18874   3.396   0.126   1.917
 5992SOL    HW118875   3.352   0.038   1.897
 5992SOL    HW218876   3.464   0.146   1.847
 5993SOL     OW18877   5.947   2.393   0.078
 5993SOL    HW118878   5.987   2.484   0.063
 5993SOL    HW218879   5.880   2.374   0.006
 5994SOL     OW18880   7.003   2.901   0.523
 5994SOL    HW118881   6.960   2.811   0.522
 5994SOL    HW218882   6.959   2.958   0.593
 5995SOL     OW18883   5.070   3.498   1.627
 5995SOL    HW118884   5.028   3.586   1.606
 5995SOL    HW218885   5.066   3.439   1.546
 5996SOL     OW18886   2.710   5.638   1.494
 5996SOL    HW118887   2.746   5.655   1.585
 5996SOL    HW218888   2.702   5.725   1.444
 5997SOL     OW18889   6.755   6.899   3.277
 5997SOL    HW118890   6.832   6.889   3.213
 5997SOL    HW218891   6.711   6.810   3.289
 5998SOL     OW18892   6.821   0.907   1.596
 5998SOL    HW118893   6.898   0.870   1.649
 5998SOL    HW218894   6.744   0.843   1.601
 5999SOL     OW18895   3.960   3.518   1.156
 5999SOL    HW118896   4.007   3.483   1.238
 5999SOL    HW218897   3.907   3.599   1.179
 6000SOL     OW18898   6.888   5.003   0.232
 6000SOL    HW118899   6.809   4.972   0.285
 6000SOL    HW218900   6.905   4.938   0.157
 6001SOL     OW18901   4.904   5.870   4.924
 6001SOL    HW118902   4.988   5.873   4.978
 6001SOL    HW218903   4.886   5.962   4.887
 6002SOL     OW18904   6.263   6.736   4.947
 6002SOL    HW118905   6.222   6.680   4.876
 6002SOL    HW218906   6.279   6.828   4.912
 6003SOL     OW18907   6.582   2.886   4.051
 6003SOL    HW118908   6.560   2.794   4.084
 6003SOL    HW218909   6.632   2.879   3.965
 6004SOL     OW18910   4.977   2.737   3.674
 6004SOL    HW118911   4.916   2.816   3.669
 6004SOL    HW218912   5.071   2.769   3.686
 6005SOL     OW18913   4.026   4.431   5.956
 6005SOL    HW118914   4.110   4.485   5.968
 6005SOL    HW218915   3.949   4.481   5.995
 6006SOL     OW18916   3.585   6.513   5.843
 6006SOL    HW118917   3.490   6.492   5.867
 6006SOL    HW218918   3.638   6.529   5.927
 6007SOL     OW18919   0.966   4.529   5.641
 6007SOL    HW118920   1.021   4.549   5.722
 6007SOL    HW218921   0.987   4.437   5.609
 6008SOL     OW18922   2.115   5.224   5.334
 6008SOL    HW118923   2.188   5.178   5.384
 6008SOL    HW218924   2.084   5.165   5.259
 6009SOL     OW18925   4.066   5.040   3.500
 6009SOL    HW118926   4.127   4.969   3.465
 6009SOL    HW218927   3.971   5.011   3.489
 6010SOL     OW18928   6.965   4.405   4.874
 6010SOL    HW118929   7.022   4.337   4.828
 6010SOL    HW218930   6.935   4.370   4.963
 6011SOL     OW18931   5.881   1.476   2.352
 6011SOL    HW118932   5.902   1.396   2.409
 6011SOL    HW218933   5.782   1.493   2.354
 6012SOL     OW18934   6.802   0.572   6.427
 6012SOL    HW118935   6.742   0.625   6.487
 6012SOL    HW218936   6.895   0.573   6.465
 6013SOL     OW18937   5.487   1.069   2.697
 6013SOL    HW118938   5.492   1.134   2.622
 6013SOL    HW218939   5.392   1.041   2.711
 6014SOL     OW18940   3.816   3.210   4.185
 6014SOL    HW118941   3.801   3.183   4.090
 6014SOL    HW218942   3.750   3.280   4.210
 6015SOL     OW18943   6.324   2.071   4.513
 6015SOL    HW118944   6.354   2.145   4.574
 6015SOL    HW218945   6.351   2.093   4.419
 6016SOL     OW18946   5.138   1.760   4.862
 6016SOL    HW118947   5.218   1.726   4.813
 6016SOL    HW218948   5.057   1.754   4.803
 6017SOL     OW18949   6.933   3.239   5.004
 6017SOL    HW118950   7.012   3.292   5.034
 6017SOL    HW218951   6.907   3.268   4.912
 6018SOL     OW18952   3.773   1.374   5.876
 6018SOL    HW118953   3.840   1.427   5.824
 6018SOL    HW218954   3.820   1.301   5.926
 6019SOL     OW18955   0.324   3.834   6.327
 6019SOL    HW118956   0.296   3.753   6.377
 6019SOL    HW218957   0.326   3.913   6.389
 6020SOL     OW18958   0.818   4.818   0.515
 6020SOL    HW118959   0.745   4.798   0.449
 6020SOL    HW218960   0.805   4.910   0.551
 6021SOL     OW18961   4.074   0.815   3.242
 6021SOL    HW118962   4.073   0.868   3.157
 6021SOL    HW218963   4.072   0.878   3.320
 6022SOL     OW18964   6.738   1.597   2.563
 6022SOL    HW118965   6.756   1.507   2.603
 6022SOL    HW218966   6.761   1.668   2.630
 6023SOL     OW18967   5.136   0.826   1.067
 6023SOL    HW118968   5.097   0.816   0.975
 6023SOL    HW218969   5.163   0.921   1.082
 6024SOL     OW18970   0.562   5.071   0.677
 6024SOL    HW118971   0.654   5.064   0.637
 6024SOL    HW218972   0.502   5.005   0.632
 6025SOL     OW18973   2.376   0.994   4.191
 6025SOL    HW118974   2.365   1.006   4.289
 6025SOL    HW218975   2.472   1.004   4.166
 6026SOL     OW18976   5.998   4.116   4.400
 6026SOL    HW118977   5.932   4.165   4.457
 6026SOL    HW218978   5.983   4.141   4.304
 6027SOL     OW18979   6.005   3.040   5.700
 6027SOL    HW118980   6.040   2.972   5.635
 6027SOL    HW218981   6.041   3.020   5.791
 6028SOL     OW18982   5.505   4.808   6.739
 6028SOL    HW118983   5.492   4.722   6.788
 6028SOL    HW218984   5.463   4.802   6.649
 6029SOL     OW18985   2.575   0.954   3.370
 6029SOL    HW118986   2.651   0.889   3.379
 6029SOL    HW218987   2.608   1.036   3.323
 6030SOL     OW18988   4.918   3.626   4.795
 6030SOL    HW118989   4.907   3.679   4.711
 6030SOL    HW218990   4.880   3.678   4.872
 6031SOL     OW18991   0.494   5.843   4.704
 6031SOL    HW118992   0.551   5.782   4.649
 6031SOL    HW218993   0.453   5.912   4.645
 6032SOL     OW18994   2.793   6.631   3.747
 6032SOL    HW118995   2.861   6.700   3.722
 6032SOL    HW218996   2.715   6.676   3.791
 6033SOL     OW18997   2.211   2.156   2.373
 6033SOL    HW118998   2.211   2.148   2.473
 6033SOL    HW218999   2.175   2.245   2.347
 6034SOL     OW19000   1.737   0.343   7.004
 6034SOL    HW119001   1.791   0.353   6.920
 6034SOL    HW219002   1.673   0.267   6.993
 6035SOL     OW19003   1.299   1.164   3.007
 6035SOL    HW119004   1.248   1.105   2.944
 6035SOL    HW219005   1.326   1.111   3.087
 6036SOL     OW19006   5.745   3.434   0.869
 6036SOL    HW119007   5.701   3.379   0.941
 6036SOL    HW219008   5.682   3.445   0.793
 6037SOL     OW19009   3.923   1.861   0.758
 6037SOL    HW119010   4.006   1.815   0.787
 6037SOL    HW219011   3.862   1.872   0.836
 6038SOL     OW19012   0.531   2.390   6.302
 6038SOL    HW119013   0.532   2.489   6.313
 6038SOL    HW219014   0.436   2.359   6.292
 6039SOL     OW19015   3.372   4.002   3.723
 6039SOL    HW119016   3.355   4.082   3.781
 6039SOL    HW219017   3.289   3.947   3.716
 6040SOL     OW19018   1.488   1.681   6.811
 6040SOL    HW119019   1.427   1.601   6.814
 6040SOL    HW219020   1.439   1.762   6.844
 6041SOL     OW19021   3.345   2.601   5.915
 6041SOL    HW119022   3.441   2.572   5.919
 6041SOL    HW219023   3.338   2.684   5.859
 6042SOL     OW19024   2.877   6.249   4.248
 6042SOL    HW119025   2.976   6.264   4.258
 6042SOL    HW219026   2.860   6.193   4.167
 6043SOL     OW19027   1.800   0.655   4.126
 6043SOL    HW119028   1.818   0.718   4.201
 6043SOL    HW219029   1.759   0.705   4.049
 6044SOL     OW19030   1.869   2.178   1.558
 6044SOL    HW119031   1.887   2.273   1.535
 6044SOL    HW219032   1.800   2.141   1.495
 6045SOL     OW19033   5.310   2.755   3.183
 6045SOL    HW119034   5.378   2.727   3.116
 6045SOL    HW219035   5.276   2.846   3.160
 6046SOL     OW19036   3.661   2.729   1.737
 6046SOL    HW119037   3.567   2.739   1.703
 6046SOL    HW219038   3.688   2.632   1.733
 6047SOL     OW19039   6.051   1.764   0.898
 6047SOL    HW119040   6.145   1.742   0.871
 6047SOL    HW219041   6.003   1.806   0.821
 6048SOL     OW19042   5.485   5.847   5.001
 6048SOL    HW119043   5.495   5.802   4.912
 6048SOL    HW219044   5.554   5.811   5.064
 6049SOL     OW19045   5.261   4.675   5.438
 6049SOL    HW119046   5.287   4.740   5.367
 6049SOL    HW219047   5.341   4.623   5.467
 6050SOL     OW19048   3.084   5.640   1.182
 6050SOL    HW119049   3.106   5.735   1.207
 6050SOL    HW219050   3.162   5.600   1.133
 6051SOL     OW19051   0.626   1.546   3.081
 6051SOL    HW119052   0.603   1.576   3.174
 6051SOL    HW219053   0.607   1.620   3.017
 6052SOL     OW19054   5.779   6.563   0.854
 6052SOL    HW119055   5.719   6.640   0.875
 6052SOL    HW219056   5.804   6.566   0.757
 6053SOL     OW19057   4.382   1.834   6.333
 6053SOL    HW119058   4.459   1.869   6.280
 6053SOL    HW219059   4.410   1.818   6.428
 6054SOL     OW19060   4.354   4.975   1.109
 6054SOL    HW119061   4.271   4.942   1.063
 6054SOL    HW219062   4.407   4.897   1.142
 6055SOL     OW19063   3.332   5.345   0.446
 6055SOL    HW119064   3.248   5.373   0.492
 6055SOL    HW219065   3.372   5.423   0.399
 6056SOL     OW19066   6.100   3.999   5.262
 6056SOL    HW119067   6.196   4.020   5.248
 6056SOL    HW219068   6.091   3.931   5.335
 6057SOL     OW19069   5.286   0.327   2.909
 6057SOL    HW119070   5.364   0.299   2.966
 6057SOL    HW219071   5.257   0.419   2.935
 6058SOL     OW19072   5.783   2.508   6.861
 6058SOL    HW119073   5.722   2.536   6.787
 6058SOL    HW219074   5.754   2.550   6.947
 6059SOL     OW19075   5.072   4.375   5.875
 6059SOL    HW119076   5.069   4.388   5.974
 6059SOL    HW219077   4.980   4.387   5.838
 6060SOL     OW19078   3.071   3.450   6.493
 6060SOL    HW119079   2.983   3.468   6.536
 6060SOL    HW219080   3.128   3.532   6.498
 6061SOL     OW19081   4.606   4.821   0.814
 6061SOL    HW119082   4.669   4.780   0.748
 6061SOL    HW219083   4.562   4.901   0.773
 6062SOL     OW19084   2.548   2.546   0.381
 6062SOL    HW119085   2.578   2.579   0.471
 6062SOL    HW219086   2.464   2.593   0.355
 6063SOL     OW19087   4.008   4.793   5.938
 6063SOL    HW119088   4.075   4.811   5.865
 6063SOL    HW219089   3.930   4.855   5.927
 6064SOL     OW19090   0.139   0.412   1.014
 6064SOL    HW119091   0.205   0.412   0.939
 6064SOL    HW219092   0.145   0.498   1.065
 6065SOL     OW19093   0.531   4.894   2.361
 6065SOL    HW119094   0.432   4.898   2.345
 6065SOL    HW219095   0.567   4.986   2.375
 6066SOL     OW19096   4.910   0.596   3.746
 6066SOL    HW119097   4.896   0.684   3.791
 6066SOL    HW219098   4.823   0.565   3.706
 6067SOL     OW19099   6.078   6.817   5.800
 6067SOL    HW119100   6.105   6.739   5.856
 6067SOL    HW219101   6.148   6.888   5.806
 6068SOL     OW19102   5.063   1.321   5.472
 6068SOL    HW119103   5.005   1.383   5.524
 6068SOL    HW219104   5.006   1.252   5.427
 6069SOL     OW19105   0.115   2.794   5.829
 6069SOL    HW119106   0.055   2.804   5.750
 6069SOL    HW219107   0.155   2.702   5.829
 6070SOL     OW19108   3.665   1.926   1.569
 6070SOL    HW119109   3.688   1.855   1.635
 6070SOL    HW219110   3.690   2.015   1.606
 6071SOL     OW19111   6.333   6.356   5.103
 6071SOL    HW119112   6.269   6.308   5.162
 6071SOL    HW219113   6.359   6.443   5.146
 6072SOL     OW19114   0.492   2.407   0.832
 6072SOL    HW119115   0.549   2.418   0.750
 6072SOL    HW219116   0.536   2.344   0.895
 6073SOL     OW19117   4.580   2.800   0.573
 6073SOL    HW119118   4.630   2.724   0.615
 6073SOL    HW219119   4.572   2.783   0.475
 6074SOL     OW19120   1.211   6.285   2.557
 6074SOL    HW119121   1.255   6.229   2.627
 6074SOL    HW219122   1.115   6.258   2.547
 6075SOL     OW19123   4.352   6.411   6.377
 6075SOL    HW119124   4.268   6.360   6.397
 6075SOL    HW219125   4.396   6.437   6.462
 6076SOL     OW19126   2.555   4.627   3.664
 6076SOL    HW119127   2.488   4.685   3.617
 6076SOL    HW219128   2.589   4.675   3.744
 6077SOL     OW19129   6.241   6.627   1.271
 6077SOL    HW119130   6.308   6.613   1.199
 6077SOL    HW219131   6.253   6.718   1.311
 6078SOL     OW19132   4.655   4.084   0.281
 6078SOL    HW119133   4.678   4.136   0.200
 6078SOL    HW219134   4.556   4.084   0.294
 6079SOL     OW19135   4.415   4.110   6.341
 6079SOL    HW119136   4.491   4.046   6.331
 6079SOL    HW219137   4.392   4.148   6.252
 6080SOL     OW19138   1.369   4.619   1.084
 6080SOL    HW119139   1.386   4.627   1.182
 6080SOL    HW219140   1.328   4.704   1.051
 6081SOL     OW19141   0.366   3.438   4.868
 6081SOL    HW119142   0.426   3.486   4.932
 6081SOL    HW219143   0.315   3.505   4.813
 6082SOL     OW19144   4.574   0.753   1.053
 6082SOL    HW119145   4.573   0.794   0.961
 6082SOL    HW219146   4.482   0.755   1.091
 6083SOL     OW19147   5.158   5.911   6.774
 6083SOL    HW119148   5.233   5.957   6.822
 6083SOL    HW219149   5.176   5.812   6.772
 6084SOL     OW19150   0.465   6.902   2.486
 6084SOL    HW119151   0.501   6.860   2.403
 6084SOL    HW219152   0.530   6.887   2.561
 6085SOL     OW19153   6.985   6.345   0.321
 6085SOL    HW119154   0.033   6.412   0.342
 6085SOL    HW219155   6.995   6.316   0.225
 6086SOL     OW19156   3.842   3.631   6.540
 6086SOL    HW119157   3.827   3.704   6.606
 6086SOL    HW219158   3.926   3.581   6.564
 6087SOL     OW19159   5.010   6.581   0.353
 6087SOL    HW119160   5.100   6.624   0.350
 6087SOL    HW219161   4.988   6.557   0.448
 6088SOL     OW19162   5.296   6.376   4.427
 6088SOL    HW119163   5.364   6.359   4.356
 6088SOL    HW219164   5.204   6.361   4.391
 6089SOL     OW19165   5.834   2.481   1.990
 6089SOL    HW119166   5.865   2.568   2.028
 6089SOL    HW219167   5.911   2.436   1.944
 6090SOL     OW19168   3.903   5.156   4.218
 6090SOL    HW119169   3.999   5.139   4.243
 6090SOL    HW219170   3.848   5.077   4.243
 6091SOL     OW19171   2.757   1.067   1.127
 6091SOL    HW119172   2.816   1.139   1.164
 6091SOL    HW219173   2.666   1.075   1.166
 6092SOL     OW19174   4.247   6.811   1.853
 6092SOL    HW119175   4.213   6.755   1.777
 6092SOL    HW219176   4.178   6.879   1.878
 6093SOL     OW19177   2.431   1.507   2.368
 6093SOL    HW119178   2.385   1.470   2.449
 6093SOL    HW219179   2.384   1.475   2.285
 6094SOL     OW19180   0.524   6.834   4.383
 6094SOL    HW119181   0.480   6.800   4.300
 6094SOL    HW219182   0.461   6.894   4.433
 6095SOL     OW19183   4.121   6.065   0.321
 6095SOL    HW119184   4.128   5.982   0.266
 6095SOL    HW219185   4.158   6.142   0.268
 6096SOL     OW19186   5.969   6.538   2.426
 6096SOL    HW119187   5.888   6.483   2.443
 6096SOL    HW219188   5.999   6.525   2.331
 6097SOL     OW19189   1.814   5.535   2.265
 6097SOL    HW119190   1.768   5.460   2.217
 6097SOL    HW219191   1.912   5.531   2.248
 6098SOL     OW19192   6.740   0.902   4.793
 6098SOL    HW119193   6.832   0.921   4.757
 6098SOL    HW219194   6.672   0.951   4.738
 6099SOL     OW19195   5.421   5.688   5.867
 6099SOL    HW119196   5.435   5.608   5.810
 6099SOL    HW219197   5.497   5.752   5.854
 6100SOL     OW19198   6.803   5.322   3.762
 6100SOL    HW119199   6.774   5.242   3.816
 6100SOL    HW219200   6.736   5.339   3.689
 6101SOL     OW19201   6.144   2.508   0.748
 6101SOL    HW119202   6.109   2.507   0.841
 6101SOL    HW219203   6.155   2.414   0.715
 6102SOL     OW19204   4.246   6.441   2.507
 6102SOL    HW119205   4.341   6.414   2.489
 6102SOL    HW219206   4.226   6.526   2.459
 6103SOL     OW19207   6.418   1.297   2.035
 6103SOL    HW119208   6.439   1.264   1.943
 6103SOL    HW219209   6.458   1.387   2.049
 6104SOL     OW19210   5.782   0.886   4.769
 6104SOL    HW119211   5.854   0.829   4.728
 6104SOL    HW219212   5.695   0.837   4.764
 6105SOL     OW19213   2.960   5.967   6.499
 6105SOL    HW119214   2.887   5.901   6.484
 6105SOL    HW219215   2.921   6.058   6.514
 6106SOL     OW19216   0.825   3.599   6.893
 6106SOL    HW119217   0.788   3.674   6.947
 6106SOL    HW219218   0.885   3.543   6.950
 6107SOL     OW19219   4.827   4.803   4.699
 6107SOL    HW119220   4.832   4.885   4.757
 6107SOL    HW219221   4.763   4.820   4.624
 6108SOL     OW19222   1.385   1.047   1.690
 6108SOL    HW119223   1.365   1.005   1.778
 6108SOL    HW219224   1.484   1.065   1.684
 6109SOL     OW19225   5.370   6.811   3.243
 6109SOL    HW119226   5.325   6.897   3.265
 6109SOL    HW219227   5.424   6.780   3.321
 6110SOL     OW19228   0.758   2.105   5.798
 6110SOL    HW119229   0.662   2.135   5.794
 6110SOL    HW219230   0.761   2.006   5.789
 6111SOL     OW19231   1.261   3.602   1.662
 6111SOL    HW119232   1.314   3.554   1.592
 6111SOL    HW219233   1.168   3.565   1.665
 6112SOL     OW19234   3.924   0.595   2.234
 6112SOL    HW119235   3.857   0.551   2.293
 6112SOL    HW219236   3.990   0.527   2.202
 6113SOL     OW19237   2.076   5.209   0.101
 6113SOL    HW119238   2.009   5.283   0.094
 6113SOL    HW219239   2.149   5.235   0.164
 6114SOL     OW19240   4.897   1.734   1.346
 6114SOL    HW119241   4.847   1.652   1.316
 6114SOL    HW219242   4.969   1.707   1.410
 6115SOL     OW19243   1.171   1.566   5.129
 6115SOL    HW119244   1.266   1.542   5.148
 6115SOL    HW219245   1.112   1.529   5.200
 6116SOL     OW19246   3.874   2.144   5.158
 6116SOL    HW119247   3.798   2.181   5.212
 6116SOL    HW219248   3.912   2.064   5.204
 6117SOL     OW19249   1.513   1.648   2.798
 6117SOL    HW119250   1.608   1.660   2.829
 6117SOL    HW219251   1.509   1.654   2.699
 6118SOL     OW19252   5.917   1.211   0.660
 6118SOL    HW119253   5.939   1.113   0.663
 6118SOL    HW219254   5.988   1.259   0.608
 6119SOL     OW19255   0.419   2.164   0.549
 6119SOL    HW119256   0.395   2.256   0.516
 6119SOL    HW219257   0.477   2.172   0.630
 6120SOL     OW19258   2.468   6.439   5.742
 6120SOL    HW119259   2.379   6.478   5.722
 6120SOL    HW219260   2.505   6.482   5.825
 6121SOL     OW19261   0.820   3.757   5.161
 6121SOL    HW119262   0.759   3.826   5.201
 6121SOL    HW219263   0.809   3.671   5.211
 6122SOL     OW19264   5.046   6.028   5.332
 6122SOL    HW119265   4.948   6.043   5.334
 6122SOL    HW219266   5.068   5.956   5.265
 6123SOL     OW19267   5.818   1.181   5.389
 6123SOL    HW119268   5.771   1.230   5.463
 6123SOL    HW219269   5.756   1.170   5.312
 6124SOL     OW19270   2.397   0.106   4.990
 6124SOL    HW119271   2.397   0.172   5.065
 6124SOL    HW219272   2.331   0.033   5.010
 6125SOL     OW19273   2.512   3.819   0.177
 6125SOL    HW119274   2.417   3.810   0.203
 6125SOL    HW219275   2.518   3.847   0.081
 6126SOL     OW19276   0.328   2.467   4.738
 6126SOL    HW119277   0.311   2.566   4.737
 6126SOL    HW219278   0.425   2.450   4.721
 6127SOL     OW19279   4.410   1.103   2.069
 6127SOL    HW119280   4.312   1.087   2.056
 6127SOL    HW219281   4.423   1.169   2.143
 6128SOL     OW19282   5.572   5.899   0.978
 6128SOL    HW119283   5.517   5.942   0.906
 6128SOL    HW219284   5.666   5.888   0.946
 6129SOL     OW19285   1.705   4.576   3.074
 6129SOL    HW119286   1.718   4.477   3.077
 6129SOL    HW219287   1.744   4.616   3.157
 6130SOL     OW19288   5.091   2.829   1.373
 6130SOL    HW119289   5.132   2.751   1.326
 6130SOL    HW219290   5.045   2.887   1.306
 6131SOL     OW19291   0.369   2.216   2.455
 6131SOL    HW119292   0.307   2.144   2.488
 6131SOL    HW219293   0.410   2.263   2.533
 6132SOL     OW19294   3.722   1.297   6.503
 6132SOL    HW119295   3.763   1.209   6.527
 6132SOL    HW219296   3.768   1.335   6.423
 6133SOL     OW19297   1.598   2.889   3.649
 6133SOL    HW119298   1.638   2.981   3.654
 6133SOL    HW219299   1.591   2.851   3.741
 6134SOL     OW19300   5.380   5.670   6.394
 6134SOL    HW119301   5.294   5.685   6.443
 6134SOL    HW219302   5.417   5.757   6.362
 6135SOL     OW19303   5.590   0.480   0.188
 6135SOL    HW119304   5.643   0.469   0.272
 6135SOL    HW219305   5.533   0.400   0.173
 6136SOL     OW19306   1.067   2.953   1.462
 6136SOL    HW119307   1.161   2.967   1.493
 6136SOL    HW219308   1.065   2.880   1.394
 6137SOL     OW19309   0.570   4.444   3.378
 6137SOL    HW119310   0.624   4.397   3.447
 6137SOL    HW219311   0.627   4.510   3.329
 6138SOL     OW19312   3.805   0.282   2.096
 6138SOL    HW119313   3.794   0.184   2.080
 6138SOL    HW219314   3.901   0.302   2.115
 6139SOL     OW19315   1.242   6.909   5.506
 6139SOL    HW119316   1.249   6.900   5.406
 6139SOL    HW219317   1.311   6.852   5.550
 6140SOL     OW19318   1.614   0.267   3.527
 6140SOL    HW119319   1.669   0.349   3.542
 6140SOL    HW219320   1.552   0.254   3.605
 6141SOL     OW19321   0.439   0.706   5.872
 6141SOL    HW119322   0.354   0.677   5.826
 6141SOL    HW219323   0.423   0.792   5.920
 6142SOL     OW19324   0.636   1.053   0.831
 6142SOL    HW119325   0.644   1.150   0.853
 6142SOL    HW219326   0.640   1.041   0.731
 6143SOL     OW19327   6.595   3.919   6.655
 6143SOL    HW119328   6.630   3.903   6.563
 6143SOL    HW219329   6.607   4.015   6.680
 6144SOL     OW19330   4.495   4.451   2.593
 6144SOL    HW119331   4.531   4.414   2.507
 6144SOL    HW219332   4.557   4.429   2.668
 6145SOL     OW19333   5.257   3.884   3.901
 6145SOL    HW119334   5.356   3.898   3.908
 6145SOL    HW219335   5.213   3.970   3.874
 6146SOL     OW19336   3.412   0.031   4.335
 6146SOL    HW119337   3.451   0.119   4.307
 6146SOL    HW219338   3.467   6.979   4.297
 6147SOL     OW19339   2.204   2.965   4.533
 6147SOL    HW119340   2.134   2.903   4.568
 6147SOL    HW219341   2.163   3.051   4.504
 6148SOL     OW19342   3.794   4.880   0.145
 6148SOL    HW119343   3.856   4.865   0.067
 6148SOL    HW219344   3.755   4.793   0.174
 6149SOL     OW19345   2.784   0.673   2.499
 6149SOL    HW119346   2.751   0.607   2.431
 6149SOL    HW219347   2.876   0.702   2.474
 6150SOL     OW19348   6.591   4.224   6.701
 6150SOL    HW119349   6.643   4.297   6.745
 6150SOL    HW219350   6.500   4.218   6.741
 6151SOL     OW19351   5.512   4.886   4.223
 6151SOL    HW119352   5.578   4.960   4.212
 6151SOL    HW219353   5.526   4.818   4.150
 6152SOL     OW19354   0.947   5.391   4.259
 6152SOL    HW119355   0.909   5.375   4.168
 6152SOL    HW219356   0.896   5.465   4.303
 6153SOL     OW19357   4.830   5.153   1.027
 6153SOL    HW119358   4.873   5.227   1.077
 6153SOL    HW219359   4.733   5.148   1.051
 6154SOL     OW19360   5.185   3.134   1.907
 6154SOL    HW119361   5.146   3.126   1.815
 6154SOL    HW219362   5.285   3.139   1.900
 6155SOL     OW19363   2.510   1.293   3.387
 6155SOL    HW119364   2.589   1.247   3.428
 6155SOL    HW219365   2.460   1.342   3.459
 6156SOL     OW19366   5.612   4.541   1.136
 6156SOL    HW119367   5.586   4.520   1.230
 6156SOL    HW219368   5.620   4.457   1.083
 6157SOL     OW19369   0.536   2.418   3.134
 6157SOL    HW119370   0.507   2.324   3.150
 6157SOL    HW219371   0.455   2.477   3.126
 6158SOL     OW19372   3.174   2.357   5.960
 6158SOL    HW119373   3.194   2.452   5.982
 6158SOL    HW219374   3.155   2.307   6.045
 6159SOL     OW19375   5.477   2.653   6.949
 6159SOL    HW119376   5.561   2.669   7.002
 6159SOL    HW219377   5.500   2.606   6.864
 6160SOL     OW19378   0.414   0.434   6.479
 6160SOL    HW119379   0.327   0.454   6.436
 6160SOL    HW219380   0.459   0.357   6.432
 6161SOL     OW19381   5.010   2.723   6.808
 6161SOL    HW119382   4.923   2.773   6.809
 6161SOL    HW219383   5.049   2.727   6.717
 6162SOL     OW19384   6.301   6.272   2.679
 6162SOL    HW119385   6.269   6.178   2.685
 6162SOL    HW219386   6.307   6.300   2.583
 6163SOL     OW19387   5.420   6.113   3.086
 6163SOL    HW119388   5.485   6.094   3.159
 6163SOL    HW219389   5.456   6.186   3.027
 6164SOL     OW19390   3.657   4.091   4.340
 6164SOL    HW119391   3.618   4.081   4.248
 6164SOL    HW219392   3.594   4.145   4.396
 6165SOL     OW19393   3.775   2.462   0.073
 6165SOL    HW119394   3.851   2.409   0.036
 6165SOL    HW219395   3.792   2.483   0.169
 6166SOL     OW19396   0.182   2.142   7.013
 6166SOL    HW119397   0.228   2.110   0.073
 6166SOL    HW219398   0.147   2.235   0.005
 6167SOL     OW19399   1.757   4.697   3.338
 6167SOL    HW119400   1.797   4.735   3.421
 6167SOL    HW219401   1.708   4.769   3.288
 6168SOL     OW19402   6.963   2.793   3.896
 6168SOL    HW119403   0.020   2.757   3.848
 6168SOL    HW219404   6.908   2.717   3.931
 6169SOL     OW19405   1.153   0.282   6.460
 6169SOL    HW119406   1.190   0.247   6.546
 6169SOL    HW219407   1.225   0.280   6.389
 6170SOL     OW19408   3.702   4.594   0.165
 6170SOL    HW119409   3.672   4.590   0.070
 6170SOL    HW219410   3.728   4.503   0.196
 6171SOL     OW19411   0.628   4.247   2.634
 6171SOL    HW119412   0.689   4.170   2.618
 6171SOL    HW219413   0.573   4.229   2.715
 6172SOL     OW19414   0.819   0.404   2.924
 6172SOL    HW119415   0.762   0.372   3.000
 6172SOL    HW219416   0.781   0.489   2.888
 6173SOL     OW19417   0.698   4.766   2.969
 6173SOL    HW119418   0.677   4.683   3.021
 6173SOL    HW219419   0.740   4.833   3.031
 6174SOL     OW19420   6.051   4.882   2.619
 6174SOL    HW119421   6.072   4.785   2.631
 6174SOL    HW219422   6.048   4.904   2.521
 6175SOL     OW19423   5.839   6.175   2.296
 6175SOL    HW119424   5.841   6.152   2.199
 6175SOL    HW219425   5.794   6.102   2.347
 6176SOL     OW19426   5.968   3.252   6.437
 6176SOL    HW119427   5.897   3.206   6.383
 6176SOL    HW219428   5.925   3.303   6.512
 6177SOL     OW19429   5.062   0.969   1.635
 6177SOL    HW119430   4.987   0.991   1.697
 6177SOL    HW219431   5.118   0.895   1.674
 6178SOL     OW19432   4.968   4.760   1.050
 6178SOL    HW119433   4.992   4.855   1.067
 6178SOL    HW219434   5.029   4.721   0.981
 6179SOL     OW19435   6.903   3.239   4.351
 6179SOL    HW119436   6.894   3.139   4.358
 6179SOL    HW219437   6.840   3.282   4.415
 6180SOL     OW19438   3.467   6.885   1.063
 6180SOL    HW119439   3.543   6.917   1.119
 6180SOL    HW219440   3.501   6.816   0.998
 6181SOL     OW19441   5.068   6.331   0.041
 6181SOL    HW119442   5.158   6.295   0.067
 6181SOL    HW219443   5.004   6.319   0.116
 6182SOL     OW19444   5.329   5.308   5.178
 6182SOL    HW119445   5.308   5.329   5.083
 6182SOL    HW219446   5.251   5.332   5.236
 6183SOL     OW19447   2.137   0.518   2.832
 6183SOL    HW119448   2.137   0.421   2.805
 6183SOL    HW219449   2.218   0.563   2.797
 6184SOL     OW19450   1.374   6.717   0.215
 6184SOL    HW119451   1.409   6.798   0.263
 6184SOL    HW219452   1.414   6.713   0.123
 6185SOL     OW19453   0.635   3.793   0.072
 6185SOL    HW119454   0.610   3.835   0.159
 6185SOL    HW219455   0.604   3.698   0.070
 6186SOL     OW19456   5.775   0.182   4.107
 6186SOL    HW119457   5.737   0.136   4.028
 6186SOL    HW219458   5.786   0.117   4.182
 6187SOL     OW19459   5.162   4.716   3.529
 6187SOL    HW119460   5.079   4.762   3.561
 6187SOL    HW219461   5.146   4.618   3.522
 6188SOL     OW19462   2.120   6.584   1.594
 6188SOL    HW119463   2.092   6.591   1.689
 6188SOL    HW219464   2.209   6.628   1.582
 6189SOL     OW19465   5.057   4.808   2.771
 6189SOL    HW119466   5.066   4.798   2.870
 6189SOL    HW219467   4.967   4.774   2.742
 6190SOL     OW19468   5.153   3.134   5.981
 6190SOL    HW119469   5.069   3.185   5.960
 6190SOL    HW219470   5.172   3.069   5.907
 6191SOL     OW19471   5.409   2.410   0.692
 6191SOL    HW119472   5.332   2.399   0.629
 6191SOL    HW219473   5.487   2.356   0.661
 6192SOL     OW19474   2.886   3.998   0.304
 6192SOL    HW119475   2.956   4.062   0.335
 6192SOL    HW219476   2.822   4.045   0.243
 6193SOL     OW19477   4.983   6.952   2.119
 6193SOL    HW119478   5.044   0.007   2.103
 6193SOL    HW219479   4.980   6.896   2.036
 6194SOL     OW19480   2.369   0.707   1.238
 6194SOL    HW119481   2.461   0.738   1.264
 6194SOL    HW219482   2.317   0.688   1.321
 6195SOL     OW19483   4.319   5.557   6.376
 6195SOL    HW119484   4.419   5.563   6.375
 6195SOL    HW219485   4.289   5.497   6.302
 6196SOL     OW19486   0.915   2.805   6.703
 6196SOL    HW119487   0.960   2.743   6.639
 6196SOL    HW219488   0.965   2.806   6.790
 6197SOL     OW19489   2.678   4.095   0.953
 6197SOL    HW119490   2.592   4.146   0.960
 6197SOL    HW219491   2.753   4.151   0.987
 6198SOL     OW19492   3.409   5.752   3.226
 6198SOL    HW119493   3.454   5.813   3.292
 6198SOL    HW219494   3.345   5.692   3.274
 6199SOL     OW19495   0.912   0.499   1.102
 6199SOL    HW119496   0.984   0.532   1.040
 6199SOL    HW219497   0.954   0.456   1.181
 6200SOL     OW19498   2.545   0.984   6.520
 6200SOL    HW119499   2.489   1.066   6.503
 6200SOL    HW219500   2.485   0.905   6.528
 6201SOL     OW19501   1.782   4.520   6.228
 6201SOL    HW119502   1.870   4.511   6.275
 6201SOL    HW219503   1.780   4.462   6.148
 6202SOL     OW19504   3.949   1.807   1.743
 6202SOL    HW119505   3.934   1.712   1.715
 6202SOL    HW219506   3.967   1.863   1.662
 6203SOL     OW19507   4.887   0.871   3.837
 6203SOL    HW119508   4.810   0.912   3.787
 6203SOL    HW219509   4.933   0.941   3.891
 6204SOL     OW19510   1.069   5.224   5.279
 6204SOL    HW119511   0.978   5.187   5.296
 6204SOL    HW219512   1.138   5.156   5.302
 6205SOL     OW19513   5.814   5.461   6.742
 6205SOL    HW119514   5.875   5.541   6.750
 6205SOL    HW219515   5.748   5.463   6.816
 6206SOL     OW19516   6.902   0.663   2.269
 6206SOL    HW119517   6.903   0.646   2.368
 6206SOL    HW219518   6.915   0.760   2.251
 6207SOL     OW19519   1.467   4.165   5.190
 6207SOL    HW119520   1.451   4.113   5.106
 6207SOL    HW219521   1.523   4.246   5.169
 6208SOL     OW19522   6.544   0.150   5.607
 6208SOL    HW119523   6.542   0.241   5.564
 6208SOL    HW219524   6.453   0.110   5.605
 6209SOL     OW19525   4.222   6.077   0.578
 6209SOL    HW119526   4.312   6.112   0.554
 6209SOL    HW219527   4.169   6.060   0.495
 6210SOL     OW19528   5.536   3.752   2.793
 6210SOL    HW119529   5.454   3.759   2.850
 6210SOL    HW219530   5.510   3.719   2.702
 6211SOL     OW19531   2.665   0.045   6.290
 6211SOL    HW119532   2.671   0.103   6.371
 6211SOL    HW219533   2.755   0.004   6.272
 6212SOL     OW19534   6.689   6.071   3.912
 6212SOL    HW119535   6.640   6.109   3.991
 6212SOL    HW219536   6.787   6.076   3.928
 6213SOL     OW19537   6.061   0.715   6.687
 6213SOL    HW119538   6.059   0.776   6.607
 6213SOL    HW219539   5.982   0.654   6.685
 6214SOL     OW19540   6.168   5.438   2.671
 6214SOL    HW119541   6.149   5.536   2.671
 6214SOL    HW219542   6.189   5.407   2.578
 6215SOL     OW19543   3.284   1.662   0.129
 6215SOL    HW119544   3.208   1.710   0.172
 6215SOL    HW219545   3.311   1.711   0.046
 6216SOL     OW19546   6.463   2.223   1.579
 6216SOL    HW119547   6.561   2.242   1.570
 6216SOL    HW219548   6.414   2.309   1.593
 6217SOL     OW19549   4.769   2.797   1.559
 6217SOL    HW119550   4.764   2.881   1.614
 6217SOL    HW219551   4.698   2.800   1.488
 6218SOL     OW19552   3.004   5.001   4.580
 6218SOL    HW119553   2.959   5.004   4.669
 6218SOL    HW219554   3.100   5.026   4.590
 6219SOL     OW19555   1.657   2.187   4.880
 6219SOL    HW119556   1.599   2.221   4.954
 6219SOL    HW219557   1.599   2.147   4.809
 6220SOL     OW19558   1.760   4.538   5.634
 6220SOL    HW119559   1.821   4.614   5.654
 6220SOL    HW219560   1.803   4.477   5.567
 6221SOL     OW19561   4.753   5.024   4.868
 6221SOL    HW119562   4.761   5.108   4.813
 6221SOL    HW219563   4.825   5.023   4.937
 6222SOL     OW19564   0.631   0.237   1.561
 6222SOL    HW119565   0.585   0.259   1.647
 6222SOL    HW219566   0.584   0.283   1.486
 6223SOL     OW19567   5.587   3.976   4.226
 6223SOL    HW119568   5.678   3.943   4.203
 6223SOL    HW219569   5.522   3.944   4.157
 6224SOL     OW19570   1.808   1.464   6.265
 6224SOL    HW119571   1.833   1.482   6.360
 6224SOL    HW219572   1.820   1.367   6.245
 6225SOL     OW19573   3.682   3.493   1.355
 6225SOL    HW119574   3.617   3.550   1.405
 6225SOL    HW219575   3.674   3.511   1.257
 6226SOL     OW19576   5.968   1.277   3.842
 6226SOL    HW119577   5.954   1.298   3.746
 6226SOL    HW219578   6.053   1.320   3.874
 6227SOL     OW19579   2.895   4.613   5.940
 6227SOL    HW119580   2.861   4.520   5.953
 6227SOL    HW219581   2.845   4.676   6.000
 6228SOL     OW19582   6.811   2.064   3.359
 6228SOL    HW119583   6.811   2.164   3.359
 6228SOL    HW219584   6.759   2.031   3.281
 6229SOL     OW19585   2.460   1.710   3.329
 6229SOL    HW119586   2.377   1.706   3.272
 6229SOL    HW219587   2.541   1.710   3.271
 6230SOL     OW19588   1.973   1.190   4.717
 6230SOL    HW119589   2.053   1.248   4.699
 6230SOL    HW219590   1.979   1.107   4.662
 6231SOL     OW19591   6.777   4.540   1.144
 6231SOL    HW119592   6.842   4.496   1.082
 6231SOL    HW219593   6.716   4.600   1.092
 6232SOL     OW19594   6.902   1.249   0.175
 6232SOL    HW119595   6.948   1.325   0.221
 6232SOL    HW219596   6.920   1.164   0.224
 6233SOL     OW19597   5.558   1.947   0.019
 6233SOL    HW119598   5.529   1.906   6.955
 6233SOL    HW219599   5.568   2.046   0.008
 6234SOL     OW19600   1.166   1.348   4.929
 6234SOL    HW119601   1.076   1.305   4.932
 6234SOL    HW219602   1.159   1.442   4.962
 6235SOL     OW19603   1.876   6.780   3.530
 6235SOL    HW119604   1.886   6.687   3.494
 6235SOL    HW219605   1.884   6.846   3.455
 6236SOL     OW19606   0.065   4.725   1.348
 6236SOL    HW119607   0.078   4.767   1.437
 6236SOL    HW219608   7.018   4.776   1.297
 6237SOL     OW19609   4.555   5.984   0.479
 6237SOL    HW119610   4.640   6.032   0.502
 6237SOL    HW219611   4.485   6.051   0.454
 6238SOL     OW19612   4.595   5.685   2.085
 6238SOL    HW119613   4.520   5.625   2.114
 6238SOL    HW219614   4.576   5.779   2.113
 6239SOL     OW19615   2.678   6.361   2.285
 6239SOL    HW119616   2.707   6.296   2.355
 6239SOL    HW219617   2.756   6.417   2.257
 6240SOL     OW19618   2.983   2.400   1.194
 6240SOL    HW119619   2.932   2.316   1.214
 6240SOL    HW219620   3.026   2.434   1.277
 6241SOL     OW19621   2.996   0.979   2.235
 6241SOL    HW119622   2.991   1.016   2.328
 6241SOL    HW219623   2.919   0.918   2.219
 6242SOL     OW19624   5.429   1.399   3.830
 6242SOL    HW119625   5.499   1.469   3.816
 6242SOL    HW219626   5.385   1.377   3.742
 6243SOL     OW19627   6.081   6.663   3.511
 6243SOL    HW119628   6.056   6.681   3.416
 6243SOL    HW219629   6.075   6.747   3.564
 6244SOL     OW19630   2.339   2.416   2.004
 6244SOL    HW119631   2.392   2.356   1.945
 6244SOL    HW219632   2.362   2.398   2.100
 6245SOL     OW19633   2.940   4.417   1.411
 6245SOL    HW119634   2.931   4.384   1.505
 6245SOL    HW219635   2.850   4.413   1.366
 6246SOL     OW19636   2.813   2.950   6.622
 6246SOL    HW119637   2.853   3.035   6.587
 6246SOL    HW219638   2.824   2.877   6.554
 6247SOL     OW19639   0.090   6.999   3.508
 6247SOL    HW119640   0.154   0.047   3.479
 6247SOL    HW219641   0.075   7.005   3.607
 6248SOL     OW19642   0.821   4.018   1.060
 6248SOL    HW119643   0.792   4.094   1.002
 6248SOL    HW219644   0.752   4.001   1.130
 6249SOL     OW19645   0.160   4.720   0.231
 6249SOL    HW119646   0.138   4.633   0.276
 6249SOL    HW219647   0.190   4.786   0.298
 6250SOL     OW19648   6.745   6.620   1.023
 6250SOL    HW119649   6.822   6.621   0.959
 6250SOL    HW219650   6.726   6.526   1.051
 6251SOL     OW19651   4.057   0.270   1.400
 6251SOL    HW119652   4.112   0.283   1.482
 6251SOL    HW219653   3.975   0.218   1.422
 6252SOL     OW19654   2.618   5.979   5.316
 6252SOL    HW119655   2.607   5.887   5.279
 6252SOL    HW219656   2.528   6.020   5.332
 6253SOL     OW19657   2.281   4.120   2.310
 6253SOL    HW119658   2.340   4.182   2.259
 6253SOL    HW219659   2.233   4.060   2.245
 6254SOL     OW19660   5.604   0.474   6.857
 6254SOL    HW119661   5.612   0.493   6.955
 6254SOL    HW219662   5.593   0.375   6.844
 6255SOL     OW19663   1.330   1.294   1.604
 6255SOL    HW119664   1.262   1.314   1.674
 6255SOL    HW219665   1.395   1.227   1.639
 6256SOL     OW19666   4.122   5.256   2.449
 6256SOL    HW119667   4.111   5.286   2.354
 6256SOL    HW219668   4.173   5.325   2.500
 6257SOL     OW19669   5.057   2.247   0.686
 6257SOL    HW119670   5.116   2.297   0.622
 6257SOL    HW219671   5.026   2.308   0.758
 6258SOL     OW19672   4.928   1.152   3.426
 6258SOL    HW119673   4.861   1.156   3.501
 6258SOL    HW219674   4.955   1.245   3.402
 6259SOL     OW19675   3.255   1.942   1.591
 6259SOL    HW119676   3.305   2.004   1.651
 6259SOL    HW219677   3.190   1.994   1.536
 6260SOL     OW19678   3.362   4.036   0.549
 6260SOL    HW119679   3.369   3.942   0.517
 6260SOL    HW219680   3.444   4.087   0.524
 6261SOL     OW19681   4.076   6.824   6.642
 6261SOL    HW119682   4.112   6.855   6.554
 6261SOL    HW219683   4.131   6.864   6.716
 6262SOL     OW19684   1.705   4.539   0.535
 6262SOL    HW119685   1.668   4.522   0.444
 6262SOL    HW219686   1.710   4.637   0.552
 6263SOL     OW19687   0.053   6.001   6.629
 6263SOL    HW119688   0.066   6.042   6.719
 6263SOL    HW219689   0.070   6.070   6.559
 6264SOL     OW19690   2.015   1.144   0.996
 6264SOL    HW119691   2.070   1.120   0.916
 6264SOL    HW219692   2.050   1.228   1.037
 6265SOL     OW19693   3.448   4.503   1.345
 6265SOL    HW119694   3.498   4.509   1.258
 6265SOL    HW219695   3.350   4.499   1.327
 6266SOL     OW19696   3.591   0.743   4.472
 6266SOL    HW119697   3.501   0.704   4.492
 6266SOL    HW219698   3.599   0.759   4.374
 6267SOL     OW19699   3.137   0.209   0.416
 6267SOL    HW119700   3.050   0.231   0.460
 6267SOL    HW219701   3.211   0.213   0.484
 6268SOL     OW19702   2.828   5.254   3.035
 6268SOL    HW119703   2.903   5.210   3.084
 6268SOL    HW219704   2.755   5.187   3.021
 6269SOL     OW19705   6.039   5.824   2.436
 6269SOL    HW119706   6.011   5.744   2.490
 6269SOL    HW219707   6.059   5.795   2.342
 6270SOL     OW19708   2.271   0.202   6.202
 6270SOL    HW119709   2.364   0.165   6.211
 6270SOL    HW219710   2.266   0.257   6.118
 6271SOL     OW19711   6.940   2.764   5.587
 6271SOL    HW119712   6.842   2.754   5.604
 6271SOL    HW219713   6.978   2.675   5.560
 6272SOL     OW19714   0.606   3.347   3.958
 6272SOL    HW119715   0.582   3.434   4.002
 6272SOL    HW219716   0.593   3.272   4.023
 6273SOL     OW19717   1.263   0.939   1.928
 6273SOL    HW119718   1.261   0.846   1.891
 6273SOL    HW219719   1.307   0.938   2.018
 6274SOL     OW19720   2.830   5.727   6.457
 6274SOL    HW119721   2.907   5.702   6.516
 6274SOL    HW219722   2.747   5.686   6.492
 6275SOL     OW19723   2.964   6.736   5.513
 6275SOL    HW119724   3.058   6.703   5.518
 6275SOL    HW219725   2.904   6.672   5.561
 6276SOL     OW19726   1.166   4.887   3.524
 6276SOL    HW119727   1.250   4.855   3.568
 6276SOL    HW219728   1.166   4.987   3.521
 6277SOL     OW19729   4.680   2.687   2.532
 6277SOL    HW119730   4.602   2.651   2.481
 6277SOL    HW219731   4.764   2.665   2.483
 6278SOL     OW19732   4.533   0.310   3.777
 6278SOL    HW119733   4.472   0.233   3.763
 6278SOL    HW219734   4.622   0.277   3.809
 6279SOL     OW19735   3.718   1.501   0.728
 6279SOL    HW119736   3.693   1.542   0.640
 6279SOL    HW219737   3.637   1.458   0.768
 6280SOL     OW19738   0.280   3.156   5.746
 6280SOL    HW119739   0.263   3.205   5.832
 6280SOL    HW219740   0.321   3.067   5.767
 6281SOL     OW19741   2.827   6.583   5.691
 6281SOL    HW119742   2.812   6.534   5.776
 6281SOL    HW219743   2.773   6.541   5.618
 6282SOL     OW19744   1.208   6.891   5.114
 6282SOL    HW119745   1.245   6.982   5.133
 6282SOL    HW219746   1.255   6.823   5.171
 6283SOL     OW19747   6.293   2.432   4.836
 6283SOL    HW119748   6.339   2.357   4.788
 6283SOL    HW219749   6.194   2.414   4.839
 6284SOL     OW19750   1.912   5.495   5.045
 6284SOL    HW119751   1.883   5.519   4.952
 6284SOL    HW219752   1.972   5.415   5.043
 6285SOL     OW19753   1.555   2.848   4.437
 6285SOL    HW119754   1.609   2.923   4.477
 6285SOL    HW219755   1.458   2.862   4.457
 6286SOL     OW19756   5.988   1.447   3.386
 6286SOL    HW119757   5.957   1.354   3.408
 6286SOL    HW219758   6.024   1.449   3.293
 6287SOL     OW19759   4.395   4.548   1.964
 6287SOL    HW119760   4.330   4.523   1.892
 6287SOL    HW219761   4.430   4.466   2.007
 6288SOL     OW19762   5.248   4.490   1.365
 6288SOL    HW119763   5.210   4.406   1.404
 6288SOL    HW219764   5.348   4.485   1.365
 6289SOL     OW19765   1.970   2.985   3.599
 6289SOL    HW119766   2.040   3.048   3.633
 6289SOL    HW219767   1.915   2.951   3.676
 6290SOL     OW19768   5.298   4.133   4.151
 6290SOL    HW119769   5.202   4.121   4.125
 6290SOL    HW219770   5.353   4.057   4.114
 6291SOL     OW19771   3.519   3.423   3.497
 6291SOL    HW119772   3.521   3.327   3.525
 6291SOL    HW219773   3.610   3.449   3.464
 6292SOL     OW19774   0.624   2.709   3.278
 6292SOL    HW119775   0.607   2.694   3.181
 6292SOL    HW219776   0.718   2.737   3.293
 6293SOL     OW19777   4.950   6.655   6.969
 6293SOL    HW119778   5.034   6.608   6.996
 6293SOL    HW219779   4.959   6.687   6.874
 6294SOL     OW19780   3.535   5.260   3.080
 6294SOL    HW119781   3.445   5.282   3.042
 6294SOL    HW219782   3.562   5.331   3.145
 6295SOL     OW19783   5.089   5.592   5.401
 6295SOL    HW119784   5.079   5.502   5.357
 6295SOL    HW219785   5.004   5.643   5.390
 6296SOL     OW19786   6.496   0.443   4.115
 6296SOL    HW119787   6.476   0.520   4.176
 6296SOL    HW219788   6.423   0.374   4.123
 6297SOL     OW19789   5.557   6.720   6.049
 6297SOL    HW119790   5.489   6.675   5.990
 6297SOL    HW219791   5.614   6.650   6.092
 6298SOL     OW19792   1.180   3.719   5.992
 6298SOL    HW119793   1.143   3.811   6.005
 6298SOL    HW219794   1.245   3.719   5.916
 6299SOL     OW19795   6.196   2.210   6.364
 6299SOL    HW119796   6.270   2.208   6.432
 6299SOL    HW219797   6.135   2.132   6.379
 6300SOL     OW19798   5.292   0.395   4.664
 6300SOL    HW119799   5.235   0.314   4.677
 6300SOL    HW219800   5.382   0.381   4.706
 6301SOL     OW19801   2.701   0.088   1.007
 6301SOL    HW119802   2.741   0.154   0.942
 6301SOL    HW219803   2.708   0.125   1.100
 6302SOL     OW19804   1.356   1.011   3.752
 6302SOL    HW119805   1.377   0.973   3.661
 6302SOL    HW219806   1.259   1.032   3.757
 6303SOL     OW19807   2.628   0.450   4.989
 6303SOL    HW119808   2.720   0.421   5.018
 6303SOL    HW219809   2.586   0.378   4.934
 6304SOL     OW19810   3.187   0.344   0.912
 6304SOL    HW119811   3.266   0.403   0.902
 6304SOL    HW219812   3.144   0.359   1.001
 6305SOL     OW19813   6.290   6.878   1.385
 6305SOL    HW119814   6.195   6.903   1.403
 6305SOL    HW219815   6.334   6.951   1.332
 6306SOL     OW19816   6.890   3.194   3.953
 6306SOL    HW119817   6.932   3.146   4.030
 6306SOL    HW219818   6.816   3.138   3.915
 6307SOL     OW19819   3.440   4.927   5.524
 6307SOL    HW119820   3.365   4.920   5.458
 6307SOL    HW219821   3.407   4.900   5.615
 6308SOL     OW19822   1.922   1.295   5.460
 6308SOL    HW119823   2.019   1.269   5.462
 6308SOL    HW219824   1.904   1.360   5.533
 6309SOL     OW19825   4.890   2.987   3.690
 6309SOL    HW119826   4.956   3.062   3.701
 6309SOL    HW219827   4.830   2.984   3.770
 6310SOL     OW19828   2.065   4.914   4.121
 6310SOL    HW119829   1.983   4.863   4.149
 6310SOL    HW219830   2.132   4.912   4.195
 6311SOL     OW19831   6.746   0.415   5.083
 6311SOL    HW119832   6.838   0.398   5.116
 6311SOL    HW219833   6.748   0.485   5.011
 6312SOL     OW19834   4.574   5.123   6.438
 6312SOL    HW119835   4.478   5.117   6.413
 6312SOL    HW219836   4.630   5.107   6.357
 6313SOL     OW19837   1.960   5.932   3.384
 6313SOL    HW119838   1.890   5.870   3.348
 6313SOL    HW219839   1.973   6.009   3.322
 6314SOL     OW19840   3.499   6.241   2.277
 6314SOL    HW119841   3.425   6.190   2.321
 6314SOL    HW219842   3.573   6.177   2.254
 6315SOL     OW19843   4.209   2.903   6.957
 6315SOL    HW119844   4.168   2.982   7.003
 6315SOL    HW219845   4.308   2.916   6.950
 6316SOL     OW19846   4.993   2.485   6.188
 6316SOL    HW119847   4.951   2.541   6.116
 6316SOL    HW219848   4.935   2.487   6.269
 6317SOL     OW19849   5.211   6.733   2.774
 6317SOL    HW119850   5.170   6.707   2.862
 6317SOL    HW219851   5.144   6.780   2.718
 6318SOL     OW19852   2.567   2.051   5.943
 6318SOL    HW119853   2.526   2.142   5.951
 6318SOL    HW219854   2.524   1.989   6.009
 6319SOL     OW19855   0.536   3.355   3.430
 6319SOL    HW119856   0.454   3.300   3.419
 6319SOL    HW219857   0.551   3.412   3.349
 6320SOL     OW19858   5.812   4.207   2.966
 6320SOL    HW119859   5.730   4.243   2.921
 6320SOL    HW219860   5.793   4.114   3.000
 6321SOL     OW19861   2.842   5.490   0.655
 6321SOL    HW119862   2.924   5.547   0.642
 6321SOL    HW219863   2.859   5.423   0.727
 6322SOL     OW19864   1.559   1.745   6.105
 6322SOL    HW119865   1.534   1.651   6.130
 6322SOL    HW219866   1.550   1.756   6.006
 6323SOL     OW19867   3.580   2.201   1.669
 6323SOL    HW119868   3.647   2.237   1.733
 6323SOL    HW219869   3.513   2.273   1.648
 6324SOL     OW19870   4.618   0.369   5.677
 6324SOL    HW119871   4.526   0.408   5.669
 6324SOL    HW219872   4.684   0.432   5.635
 6325SOL     OW19873   1.267   3.290   2.212
 6325SOL    HW119874   1.351   3.243   2.183
 6325SOL    HW219875   1.190   3.227   2.206
 6326SOL     OW19876   5.537   5.949   0.681
 6326SOL    HW119877   5.481   5.955   0.598
 6326SOL    HW219878   5.602   5.874   0.672
 6327SOL     OW19879   6.201   6.209   5.323
 6327SOL    HW119880   6.168   6.261   5.402
 6327SOL    HW219881   6.124   6.161   5.281
 6328SOL     OW19882   1.810   4.752   6.980
 6328SOL    HW119883   1.901   4.714   6.994
 6328SOL    HW219884   1.790   4.756   6.882
 6329SOL     OW19885   0.934   1.321   3.702
 6329SOL    HW119886   0.837   1.298   3.704
 6329SOL    HW219887   0.956   1.367   3.616
 6330SOL     OW19888   4.562   0.927   0.501
 6330SOL    HW119889   4.533   1.019   0.476
 6330SOL    HW219890   4.554   0.867   0.422
 6331SOL     OW19891   6.530   2.311   0.878
 6331SOL    HW119892   6.502   2.384   0.816
 6331SOL    HW219893   6.458   2.241   0.883
 6332SOL     OW19894   6.217   5.819   1.260
 6332SOL    HW119895   6.239   5.914   1.284
 6332SOL    HW219896   6.301   5.772   1.232
 6333SOL     OW19897   3.380   5.617   3.599
 6333SOL    HW119898   3.356   5.594   3.505
 6333SOL    HW219899   3.325   5.562   3.662
 6334SOL     OW19900   2.490   0.401   2.870
 6334SOL    HW119901   2.555   0.327   2.890
 6334SOL    HW219902   2.482   0.460   2.949
 6335SOL     OW19903   5.912   1.252   0.258
 6335SOL    HW119904   5.883   1.336   0.303
 6335SOL    HW219905   5.996   1.219   0.299
 6336SOL     OW19906   6.795   2.299   4.716
 6336SOL    HW119907   6.704   2.333   4.694
 6336SOL    HW219908   6.820   2.328   4.808
 6337SOL     OW19909   5.449   2.915   6.009
 6337SOL    HW119910   5.497   2.990   6.055
 6337SOL    HW219911   5.371   2.951   5.958
 6338SOL     OW19912   2.658   1.633   2.289
 6338SOL    HW119913   2.730   1.596   2.347
 6338SOL    HW219914   2.570   1.598   2.318
 6339SOL     OW19915   0.591   2.496   3.451
 6339SOL    HW119916   0.547   2.433   3.387
 6339SOL    HW219917   0.596   2.587   3.410
 6340SOL     OW19918   2.601   5.276   3.407
 6340SOL    HW119919   2.555   5.342   3.348
 6340SOL    HW219920   2.578   5.183   3.378
 6341SOL     OW19921   0.107   4.870   3.469
 6341SOL    HW119922   0.197   4.887   3.429
 6341SOL    HW219923   0.117   4.850   3.566
 6342SOL     OW19924   2.349   2.557   2.300
 6342SOL    HW119925   2.253   2.530   2.290
 6342SOL    HW219926   2.408   2.479   2.284
 6343SOL     OW19927   4.375   3.108   6.831
 6343SOL    HW119928   4.439   3.049   6.880
 6343SOL    HW219929   4.377   3.085   6.734
 6344SOL     OW19930   6.688   3.398   5.002
 6344SOL    HW119931   6.692   3.316   5.060
 6344SOL    HW219932   6.692   3.371   4.906
 6345SOL     OW19933   4.242   1.515   2.807
 6345SOL    HW119934   4.200   1.604   2.793
 6345SOL    HW219935   4.211   1.452   2.735
 6346SOL     OW19936   6.181   3.219   3.360
 6346SOL    HW119937   6.216   3.193   3.271
 6346SOL    HW219938   6.081   3.216   3.359
 6347SOL     OW19939   2.904   0.341   1.562
 6347SOL    HW119940   2.827   0.378   1.614
 6347SOL    HW219941   2.981   0.324   1.623
 6348SOL     OW19942   0.731   3.693   4.871
 6348SOL    HW119943   0.782   3.717   4.954
 6348SOL    HW219944   0.771   3.742   4.793
 6349SOL     OW19945   3.150   0.793   1.594
 6349SOL    HW119946   3.187   0.859   1.659
 6349SOL    HW219947   3.157   0.829   1.501
 6350SOL     OW19948   1.219   5.531   3.116
 6350SOL    HW119949   1.159   5.454   3.138
 6350SOL    HW219950   1.285   5.501   3.047
 6351SOL     OW19951   6.357   2.506   2.724
 6351SOL    HW119952   6.319   2.421   2.686
 6351SOL    HW219953   6.293   2.545   2.790
 6352SOL     OW19954   1.340   5.733   3.250
 6352SOL    HW119955   1.440   5.732   3.252
 6352SOL    HW219956   1.307   5.652   3.201
 6353SOL     OW19957   0.012   0.512   6.549
 6353SOL    HW119958   7.001   0.445   6.615
 6353SOL    HW219959   0.044   0.594   6.597
 6354SOL     OW19960   1.164   0.000   2.361
 6354SOL    HW119961   1.128   0.017   2.453
 6354SOL    HW219962   1.108   6.955   2.314
 6355SOL     OW19963   1.266   3.792   4.705
 6355SOL    HW119964   1.308   3.866   4.757
 6355SOL    HW219965   1.285   3.804   4.608
 6356SOL     OW19966   4.782   4.571   1.392
 6356SOL    HW119967   4.837   4.566   1.308
 6356SOL    HW219968   4.826   4.632   1.457
 6357SOL     OW19969   4.206   2.816   0.434
 6357SOL    HW119970   4.131   2.808   0.368
 6357SOL    HW219971   4.235   2.725   0.464
 6358SOL     OW19972   6.908   2.146   4.287
 6358SOL    HW119973   6.890   2.080   4.360
 6358SOL    HW219974   6.996   2.191   4.303
 6359SOL     OW19975   6.879   0.553   5.855
 6359SOL    HW119976   6.899   0.630   5.796
 6359SOL    HW219977   6.797   0.506   5.822
 6360SOL     OW19978   2.458   4.424   3.825
 6360SOL    HW119979   2.506   4.498   3.779
 6360SOL    HW219980   2.436   4.352   3.759
 6361SOL     OW19981   4.776   5.571   6.778
 6361SOL    HW119982   4.786   5.534   6.686
 6361SOL    HW219983   4.865   5.602   6.812
 6362SOL     OW19984   6.367   4.440   6.620
 6362SOL    HW119985   6.397   4.534   6.640
 6362SOL    HW219986   6.423   4.376   6.673
 6363SOL     OW19987   2.468   6.195   4.153
 6363SOL    HW119988   2.435   6.158   4.240
 6363SOL    HW219989   2.516   6.281   4.169
 6364SOL     OW19990   2.790   2.257   5.586
 6364SOL    HW119991   2.824   2.283   5.496
 6364SOL    HW219992   2.858   2.200   5.632
 6365SOL     OW19993   4.894   0.108   3.712
 6365SOL    HW119994   4.917   0.192   3.762
 6365SOL    HW219995   4.847   0.045   3.774
 6366SOL     OW19996   0.914   5.101   5.060
 6366SOL    HW119997   0.983   5.167   5.090
 6366SOL    HW219998   0.894   5.039   5.135
 6367SOL     OW19999   5.121   0.449   3.430
 6367SOL    HW120000   5.196   0.398   3.388
 6367SOL    HW220001   5.135   0.547   3.418
 6368SOL     OW20002   2.828   0.028   4.105
 6368SOL    HW120003   2.895   0.010   4.177
 6368SOL    HW220004   2.753   0.083   4.142
 6369SOL     OW20005   2.673   5.170   4.238
 6369SOL    HW120006   2.677   5.110   4.318
 6369SOL    HW220007   2.592   5.228   4.244
 6370SOL     OW20008   0.267   2.423   2.122
 6370SOL    HW120009   0.249   2.516   2.155
 6370SOL    HW220010   0.365   2.409   2.114
 6371SOL     OW20011   4.949   2.951   3.017
 6371SOL    HW120012   4.945   2.852   3.017
 6371SOL    HW220013   4.922   2.986   2.927
 6372SOL     OW20014   3.331   6.087   1.546
 6372SOL    HW120015   3.318   6.167   1.487
 6372SOL    HW220016   3.249   6.030   1.543
 6373SOL     OW20017   5.695   4.599   5.054
 6373SOL    HW120018   5.750   4.629   4.976
 6373SOL    HW220019   5.717   4.504   5.076
 6374SOL     OW20020   2.935   3.215   3.074
 6374SOL    HW120021   2.995   3.173   3.006
 6374SOL    HW220022   2.863   3.151   3.100
 6375SOL     OW20023   0.976   0.923   3.087
 6375SOL    HW120024   1.060   0.930   3.033
 6375SOL    HW220025   0.960   0.828   3.113
 6376SOL     OW20026   0.419   1.715   4.727
 6376SOL    HW120027   0.429   1.802   4.678
 6376SOL    HW220028   0.501   1.700   4.783
 6377SOL     OW20029   6.958   0.785   5.722
 6377SOL    HW120030   6.991   0.787   5.627
 6377SOL    HW220031   6.899   0.864   5.738
 6378SOL     OW20032   4.838   4.084   3.269
 6378SOL    HW120033   4.791   4.166   3.234
 6378SOL    HW220034   4.937   4.100   3.268
 6379SOL     OW20035   1.832   5.271   4.060
 6379SOL    HW120036   1.754   5.288   4.120
 6379SOL    HW220037   1.916   5.303   4.103
 6380SOL     OW20038   0.890   1.067   5.494
 6380SOL    HW120039   0.867   1.102   5.585
 6380SOL    HW220040   0.973   1.112   5.461
 6381SOL     OW20041   2.911   3.541   2.268
 6381SOL    HW120042   2.893   3.476   2.195
 6381SOL    HW220043   2.929   3.492   2.353
 6382SOL     OW20044   1.293   2.735   6.370
 6382SOL    HW120045   1.329   2.643   6.358
 6382SOL    HW220046   1.263   2.771   6.282
 6383SOL     OW20047   2.114   2.312   4.062
 6383SOL    HW120048   2.191   2.263   4.022
 6383SOL    HW220049   2.107   2.402   4.020
 6384SOL     OW20050   5.981   4.693   2.043
 6384SOL    HW120051   5.909   4.745   2.089
 6384SOL    HW220052   6.051   4.667   2.110
 6385SOL     OW20053   6.219   4.912   3.960
 6385SOL    HW120054   6.148   4.938   3.894
 6385SOL    HW220055   6.291   4.861   3.913
 6386SOL     OW20056   2.798   4.725   1.216
 6386SOL    HW120057   2.851   4.764   1.291
 6386SOL    HW220058   2.700   4.738   1.234
 6387SOL     OW20059   0.566   2.106   6.122
 6387SOL    HW120060   0.469   2.129   6.117
 6387SOL    HW220061   0.621   2.187   6.103
 6388SOL     OW20062   3.872   4.808   1.351
 6388SOL    HW120063   3.878   4.711   1.327
 6388SOL    HW220064   3.793   4.848   1.304
 6389SOL     OW20065   0.625   5.797   2.544
 6389SOL    HW120066   0.603   5.744   2.462
 6389SOL    HW220067   0.700   5.752   2.593
 6390SOL     OW20068   0.045   2.514   3.046
 6390SOL    HW120069   0.075   2.512   2.950
 6390SOL    HW220070   7.002   2.588   3.058
 6391SOL     OW20071   3.649   1.343   0.075
 6391SOL    HW120072   3.684   1.352   7.004
 6391SOL    HW220073   3.713   1.385   0.139
 6392SOL     OW20074   2.111   6.737   3.951
 6392SOL    HW120075   2.163   6.815   3.915
 6392SOL    HW220076   2.013   6.756   3.943
 6393SOL     OW20077   5.657   6.562   1.649
 6393SOL    HW120078   5.642   6.648   1.699
 6393SOL    HW220079   5.569   6.517   1.633
 6394SOL     OW20080   2.397   4.784   0.856
 6394SOL    HW120081   2.314   4.787   0.801
 6394SOL    HW220082   2.434   4.691   0.855
 6395SOL     OW20083   6.579   1.538   1.191
 6395SOL    HW120084   6.588   1.526   1.289
 6395SOL    HW220085   6.483   1.530   1.165
 6396SOL     OW20086   5.258   2.677   6.391
 6396SOL    HW120087   5.251   2.735   6.311
 6396SOL    HW220088   5.266   2.581   6.363
 6397SOL     OW20089   0.053   2.200   6.459
 6397SOL    HW120090   0.043   2.103   6.483
 6397SOL    HW220091   7.009   2.253   6.511
 6398SOL     OW20092   3.447   0.660   1.653
 6398SOL    HW120093   3.442   0.740   1.594
 6398SOL    HW220094   3.541   0.646   1.684
 6399SOL     OW20095   1.539   5.787   6.810
 6399SOL    HW120096   1.510   5.814   6.901
 6399SOL    HW220097   1.603   5.710   6.817
 6400SOL     OW20098   2.156   5.406   3.399
 6400SOL    HW120099   2.125   5.329   3.455
 6400SOL    HW220100   2.193   5.477   3.458
 6401SOL     OW20101   0.372   4.561   3.530
 6401SOL    HW120102   0.425   4.511   3.461
 6401SOL    HW220103   0.357   4.655   3.500
 6402SOL     OW20104   2.665   0.923   3.078
 6402SOL    HW120105   2.679   1.013   3.119
 6402SOL    HW220106   2.744   0.900   3.021
 6403SOL     OW20107   0.900   5.065   6.804
 6403SOL    HW120108   0.905   4.971   6.770
 6403SOL    HW220109   0.992   5.105   6.803
 6404SOL     OW20110   4.396   1.885   3.372
 6404SOL    HW120111   4.450   1.900   3.454
 6404SOL    HW220112   4.352   1.970   3.344
 6405SOL     OW20113   1.940   2.102   2.716
 6405SOL    HW120114   1.988   2.190   2.709
 6405SOL    HW220115   1.976   2.039   2.647
 6406SOL     OW20116   1.488   1.084   3.496
 6406SOL    HW120117   1.551   1.153   3.460
 6406SOL    HW220118   1.536   0.997   3.506
 6407SOL     OW20119   2.905   6.861   4.608
 6407SOL    HW120120   2.990   6.879   4.557
 6407SOL    HW220121   2.830   6.914   4.569
 6408SOL     OW20122   5.863   2.011   6.706
 6408SOL    HW120123   5.814   2.086   6.751
 6408SOL    HW220124   5.912   1.957   6.774
 6409SOL     OW20125   6.094   3.632   2.703
 6409SOL    HW120126   6.059   3.633   2.797
 6409SOL    HW220127   6.184   3.590   2.702
 6410SOL     OW20128   1.990   2.025   0.647
 6410SOL    HW120129   1.892   2.007   0.656
 6410SOL    HW220130   2.022   1.990   0.558
 6411SOL     OW20131   1.070   1.794   3.032
 6411SOL    HW120132   0.996   1.755   3.086
 6411SOL    HW220133   1.094   1.730   2.958
 6412SOL     OW20134   6.680   2.970   5.357
 6412SOL    HW120135   6.748   3.044   5.361
 6412SOL    HW220136   6.618   2.977   5.435
 6413SOL     OW20137   5.862   5.056   2.018
 6413SOL    HW120138   5.891   4.990   1.949
 6413SOL    HW220139   5.772   5.030   2.053
 6414SOL     OW20140   5.959   1.091   1.669
 6414SOL    HW120141   5.995   1.012   1.719
 6414SOL    HW220142   6.028   1.163   1.667
 6415SOL     OW20143   2.451   2.322   2.243
 6415SOL    HW120144   2.410   2.273   2.320
 6415SOL    HW220145   2.519   2.263   2.199
 6416SOL     OW20146   0.785   0.224   6.397
 6416SOL    HW120147   0.830   0.314   6.402
 6416SOL    HW220148   0.854   0.153   6.388
 6417SOL     OW20149   0.538   6.792   3.463
 6417SOL    HW120150   0.574   6.873   3.418
 6417SOL    HW220151   0.561   6.711   3.409
 6418SOL     OW20152   6.157   5.153   2.349
 6418SOL    HW120153   6.150   5.053   2.356
 6418SOL    HW220154   6.065   5.192   2.337
 6419SOL     OW20155   2.861   5.614   1.727
 6419SOL    HW120156   2.800   5.543   1.694
 6419SOL    HW220157   2.922   5.576   1.797
 6420SOL     OW20158   3.025   3.200   6.166
 6420SOL    HW120159   3.108   3.212   6.220
 6420SOL    HW220160   3.017   3.105   6.138
 6421SOL     OW20161   6.139   1.225   1.212
 6421SOL    HW120162   6.048   1.267   1.211
 6421SOL    HW220163   6.199   1.274   1.148
 6422SOL     OW20164   6.583   0.830   3.401
 6422SOL    HW120165   6.533   0.765   3.343
 6422SOL    HW220166   6.529   0.849   3.483
 6423SOL     OW20167   4.880   3.724   1.235
 6423SOL    HW120168   4.839   3.664   1.304
 6423SOL    HW220169   4.928   3.669   1.167
 6424SOL     OW20170   6.701   4.443   6.067
 6424SOL    HW120171   6.759   4.455   6.147
 6424SOL    HW220172   6.728   4.507   5.995
 6425SOL     OW20173   6.880   4.583   3.020
 6425SOL    HW120174   6.840   4.573   3.111
 6425SOL    HW220175   6.979   4.594   3.028
 6426SOL     OW20176   1.269   3.004   4.358
 6426SOL    HW120177   1.185   3.055   4.379
 6426SOL    HW220178   1.339   3.066   4.324
 6427SOL     OW20179   1.454   3.660   6.535
 6427SOL    HW120180   1.371   3.675   6.589
 6427SOL    HW220181   1.435   3.596   6.461
 6428SOL     OW20182   6.603   3.486   2.146
 6428SOL    HW120183   6.511   3.507   2.180
 6428SOL    HW220184   6.606   3.501   2.047
 6429SOL     OW20185   1.781   0.874   4.831
 6429SOL    HW120186   1.830   0.847   4.914
 6429SOL    HW220187   1.708   0.938   4.856
 6430SOL     OW20188   5.102   0.705   1.986
 6430SOL    HW120189   5.143   0.718   1.895
 6430SOL    HW220190   5.041   0.626   1.983
 6431SOL     OW20191   5.463   0.171   3.106
 6431SOL    HW120192   5.394   0.197   3.173
 6431SOL    HW220193   5.433   0.089   3.058
 6432SOL     OW20194   4.315   4.332   0.336
 6432SOL    HW120195   4.219   4.337   0.361
 6432SOL    HW220196   4.340   4.414   0.284
 6433SOL     OW20197   3.167   4.708   1.051
 6433SOL    HW120198   3.112   4.771   0.996
 6433SOL    HW220199   3.260   4.745   1.059
 6434SOL     OW20200   1.078   3.749   1.181
 6434SOL    HW120201   1.039   3.798   1.103
 6434SOL    HW220202   1.177   3.762   1.182
 6435SOL     OW20203   3.433   5.138   0.244
 6435SOL    HW120204   3.395   5.226   0.273
 6435SOL    HW220205   3.361   5.083   0.201
 6436SOL     OW20206   1.794   3.183   3.387
 6436SOL    HW120207   1.879   3.136   3.413
 6436SOL    HW220208   1.772   3.252   3.455
 6437SOL     OW20209   1.893   0.722   7.022
 6437SOL    HW120210   1.885   0.778   0.082
 6437SOL    HW220211   1.906   0.626   0.026
 6438SOL     OW20212   0.613   4.092   5.100
 6438SOL    HW120213   0.601   4.009   5.155
 6438SOL    HW220214   0.568   4.081   5.012
 6439SOL     OW20215   1.072   6.976   0.443
 6439SOL    HW120216   1.159   6.928   0.443
 6439SOL    HW220217   1.057   7.018   0.533
 6440SOL     OW20218   2.217   1.733   1.669
 6440SOL    HW120219   2.200   1.704   1.575
 6440SOL    HW220220   2.173   1.821   1.686
 6441SOL     OW20221   1.886   0.889   2.289
 6441SOL    HW120222   1.840   0.813   2.334
 6441SOL    HW220223   1.880   0.971   2.346
 6442SOL     OW20224   2.504   1.551   4.839
 6442SOL    HW120225   2.470   1.628   4.894
 6442SOL    HW220226   2.529   1.584   4.748
 6443SOL     OW20227   2.903   2.926   0.229
 6443SOL    HW120228   2.902   3.019   0.265
 6443SOL    HW220229   2.858   2.864   0.294
 6444SOL     OW20230   0.675   2.346   2.881
 6444SOL    HW120231   0.723   2.433   2.871
 6444SOL    HW220232   0.615   2.351   2.961
 6445SOL     OW20233   4.458   2.641   5.283
 6445SOL    HW120234   4.377   2.613   5.232
 6445SOL    HW220235   4.465   2.585   5.366
 6446SOL     OW20236   0.388   1.340   6.256
 6446SOL    HW120237   0.345   1.428   6.234
 6446SOL    HW220238   0.342   1.300   6.335
 6447SOL     OW20239   1.182   5.640   2.064
 6447SOL    HW120240   1.140   5.648   2.154
 6447SOL    HW220241   1.210   5.730   2.032
 6448SOL     OW20242   6.099   3.503   2.415
 6448SOL    HW120243   6.014   3.545   2.445
 6448SOL    HW220244   6.122   3.427   2.477
 6449SOL     OW20245   3.614   3.988   1.959
 6449SOL    HW120246   3.712   3.990   1.939
 6449SOL    HW220247   3.573   4.076   1.936
 6450SOL     OW20248   6.349   3.161   1.741
 6450SOL    HW120249   6.311   3.185   1.651
 6450SOL    HW220250   6.426   3.099   1.729
 6451SOL     OW20251   3.465   6.112   5.531
 6451SOL    HW120252   3.440   6.015   5.540
 6451SOL    HW220253   3.515   6.141   5.613
 6452SOL     OW20254   3.874   6.978   4.981
 6452SOL    HW120255   3.890   0.004   5.066
 6452SOL    HW220256   3.777   6.986   4.956
 6453SOL     OW20257   1.193   6.250   0.115
 6453SOL    HW120258   1.196   6.231   0.016
 6453SOL    HW220259   1.252   6.186   0.163
 6454SOL     OW20260   2.591   1.588   4.350
 6454SOL    HW120261   2.597   1.631   4.260
 6454SOL    HW220262   2.495   1.572   4.373
 6455SOL     OW20263   0.880   2.674   4.468
 6455SOL    HW120264   0.881   2.579   4.499
 6455SOL    HW220265   0.891   2.678   4.369
 6456SOL     OW20266   1.270   0.126   3.365
 6456SOL    HW120267   1.201   0.090   3.428
 6456SOL    HW220268   1.361   0.113   3.405
 6457SOL     OW20269   5.601   1.812   1.642
 6457SOL    HW120270   5.661   1.737   1.616
 6457SOL    HW220271   5.653   1.880   1.694
 6458SOL     OW20272   1.390   5.987   2.583
 6458SOL    HW120273   1.451   5.908   2.578
 6458SOL    HW220274   1.415   6.044   2.661
 6459SOL     OW20275   5.798   5.554   0.431
 6459SOL    HW120276   5.807   5.487   0.504
 6459SOL    HW220277   5.705   5.592   0.432
 6460SOL     OW20278   4.302   4.575   0.195
 6460SOL    HW120279   4.303   4.641   0.269
 6460SOL    HW220280   4.362   4.606   0.121
 6461SOL     OW20281   3.290   5.635   5.696
 6461SOL    HW120282   3.305   5.690   5.778
 6461SOL    HW220283   3.251   5.692   5.624
 6462SOL     OW20284   2.131   3.207   5.081
 6462SOL    HW120285   2.216   3.158   5.061
 6462SOL    HW220286   2.099   3.252   4.998
 6463SOL     OW20287   2.220   4.986   6.455
 6463SOL    HW120288   2.162   4.906   6.438
 6463SOL    HW220289   2.180   5.066   6.411
 6464SOL     OW20290   0.543   5.118   3.445
 6464SOL    HW120291   0.476   5.187   3.472
 6464SOL    HW220292   0.635   5.159   3.445
 6465SOL     OW20293   5.975   1.920   3.941
 6465SOL    HW120294   6.036   1.846   3.970
 6465SOL    HW220295   5.981   1.996   4.007
 6466SOL     OW20296   6.671   2.967   4.882
 6466SOL    HW120297   6.766   2.991   4.902
 6466SOL    HW220298   6.628   2.928   4.964
 6467SOL     OW20299   2.303   0.810   6.504
 6467SOL    HW120300   2.319   0.746   6.428
 6467SOL    HW220301   2.248   0.887   6.472
 6468SOL     OW20302   4.249   6.172   1.952
 6468SOL    HW120303   4.164   6.130   1.921
 6468SOL    HW220304   4.327   6.122   1.915
 6469SOL     OW20305   6.403   1.131   5.347
 6469SOL    HW120306   6.497   1.161   5.329
 6469SOL    HW220307   6.359   1.195   5.410
 6470SOL     OW20308   6.825   6.263   5.979
 6470SOL    HW120309   6.762   6.187   5.968
 6470SOL    HW220310   6.787   6.345   5.937
 6471SOL     OW20311   6.750   5.436   6.155
 6471SOL    HW120312   6.845   5.453   6.181
 6471SOL    HW220313   6.689   5.463   6.229
 6472SOL     OW20314   1.144   6.146   1.221
 6472SOL    HW120315   1.131   6.245   1.210
 6472SOL    HW220316   1.095   6.097   1.149
 6473SOL     OW20317   2.108   0.956   6.023
 6473SOL    HW120318   2.010   0.951   6.044
 6473SOL    HW220319   2.124   1.025   5.953
 6474SOL     OW20320   1.465   3.943   6.393
 6474SOL    HW120321   1.478   3.953   6.295
 6474SOL    HW220322   1.506   3.857   6.424
 6475SOL     OW20323   5.667   6.101   3.921
 6475SOL    HW120324   5.630   6.156   3.847
 6475SOL    HW220325   5.632   6.007   3.914
 6476SOL     OW20326   4.340   4.678   3.049
 6476SOL    HW120327   4.328   4.633   2.960
 6476SOL    HW220328   4.429   4.722   3.054
 6477SOL     OW20329   6.406   5.252   6.365
 6477SOL    HW120330   6.495   5.207   6.369
 6477SOL    HW220331   6.405   5.329   6.429
 6478SOL     OW20332   3.771   5.889   2.013
 6478SOL    HW120333   3.696   5.825   1.995
 6478SOL    HW220334   3.739   5.983   1.997
 6479SOL     OW20335   3.908   5.171   2.067
 6479SOL    HW120336   3.996   5.124   2.064
 6479SOL    HW220337   3.895   5.215   2.155
 6480SOL     OW20338   3.802   2.976   5.922
 6480SOL    HW120339   3.803   3.062   5.872
 6480SOL    HW220340   3.739   2.983   5.999
 6481SOL     OW20341   3.542   2.228   1.027
 6481SOL    HW120342   3.544   2.318   0.982
 6481SOL    HW220343   3.543   2.240   1.126
 6482SOL     OW20344   6.397   0.850   0.140
 6482SOL    HW120345   6.401   0.774   0.075
 6482SOL    HW220346   6.401   0.937   0.090
 6483SOL     OW20347   2.420   6.286   2.314
 6483SOL    HW120348   2.454   6.211   2.371
 6483SOL    HW220349   2.495   6.351   2.296
 6484SOL     OW20350   4.512   0.429   2.395
 6484SOL    HW120351   4.580   0.487   2.353
 6484SOL    HW220352   4.556   0.369   2.462
 6485SOL     OW20353   1.440   3.275   3.417
 6485SOL    HW120354   1.449   3.198   3.354
 6485SOL    HW220355   1.405   3.241   3.505
 6486SOL     OW20356   0.938   4.247   4.267
 6486SOL    HW120357   0.956   4.151   4.288
 6486SOL    HW220358   0.926   4.258   4.168
 6487SOL     OW20359   6.964   6.009   4.424
 6487SOL    HW120360   6.968   5.910   4.433
 6487SOL    HW220361   6.876   6.036   4.386
 6488SOL     OW20362   3.345   6.425   5.583
 6488SOL    HW120363   3.307   6.340   5.620
 6488SOL    HW220364   3.419   6.404   5.520
 6489SOL     OW20365   1.779   2.687   6.826
 6489SOL    HW120366   1.710   2.668   6.756
 6489SOL    HW220367   1.767   2.624   6.903
 6490SOL     OW20368   3.772   2.528   0.356
 6490SOL    HW120369   3.757   2.484   0.445
 6490SOL    HW220370   3.770   2.627   0.367
 6491SOL     OW20371   4.657   0.931   6.458
 6491SOL    HW120372   4.669   0.991   6.380
 6491SOL    HW220373   4.624   0.842   6.427
 6492SOL     OW20374   5.979   6.942   0.050
 6492SOL    HW120375   5.904   6.935   7.007
 6492SOL    HW220376   5.952   7.002   0.126
 6493SOL     OW20377   2.031   6.215   5.818
 6493SOL    HW120378   2.054   6.201   5.722
 6493SOL    HW220379   2.106   6.262   5.865
 6494SOL     OW20380   0.733   0.273   3.564
 6494SOL    HW120381   0.787   0.247   3.484
 6494SOL    HW220382   0.649   0.219   3.566
 6495SOL     OW20383   4.968   6.127   3.209
 6495SOL    HW120384   4.885   6.156   3.256
 6495SOL    HW220385   4.972   6.027   3.206
 6496SOL     OW20386   6.994   6.400   1.937
 6496SOL    HW120387   7.002   6.313   1.986
 6496SOL    HW220388   7.016   6.475   2.000
 6497SOL     OW20389   2.332   3.606   0.904
 6497SOL    HW120390   2.279   3.629   0.985
 6497SOL    HW220391   2.306   3.666   0.828
 6498SOL     OW20392   2.185   4.998   3.797
 6498SOL    HW120393   2.088   5.005   3.823
 6498SOL    HW220394   2.235   5.077   3.833
 6499SOL     OW20395   5.302   0.168   5.223
 6499SOL    HW120396   5.225   0.118   5.184
 6499SOL    HW220397   5.330   0.239   5.158
 6500SOL     OW20398   6.659   4.172   3.505
 6500SOL    HW120399   6.692   4.174   3.599
 6500SOL    HW220400   6.735   4.156   3.443
 6501SOL     OW20401   6.279   3.711   1.225
 6501SOL    HW120402   6.297   3.647   1.299
 6501SOL    HW220403   6.287   3.805   1.258
 6502SOL     OW20404   0.380   4.673   3.780
 6502SOL    HW120405   0.381   4.611   3.858
 6502SOL    HW220406   0.404   4.623   3.697
 6503SOL     OW20407   5.605   6.390   3.532
 6503SOL    HW120408   5.593   6.417   3.436
 6503SOL    HW220409   5.701   6.403   3.558
 6504SOL     OW20410   4.374   0.144   6.844
 6504SOL    HW120411   4.348   0.049   6.833
 6504SOL    HW220412   4.336   0.198   6.769
 6505SOL     OW20413   6.197   4.482   0.757
 6505SOL    HW120414   6.187   4.383   0.769
 6505SOL    HW220415   6.166   4.529   0.839
 6506SOL     OW20416   1.149   2.865   1.052
 6506SOL    HW120417   1.103   2.953   1.043
 6506SOL    HW220418   1.082   2.794   1.072
 6507SOL     OW20419   1.066   5.839   1.185
 6507SOL    HW120420   1.125   5.903   1.136
 6507SOL    HW220421   1.115   5.752   1.197
 6508SOL     OW20422   1.683   2.102   3.975
 6508SOL    HW120423   1.601   2.066   3.931
 6508SOL    HW220424   1.713   2.040   4.047
 6509SOL     OW20425   1.129   2.440   4.994
 6509SOL    HW120426   1.214   2.456   4.944
 6509SOL    HW220427   1.065   2.514   4.975
 6510SOL     OW20428   7.015   5.519   6.349
 6510SOL    HW120429   0.007   5.572   6.432
 6510SOL    HW220430   6.933   5.462   6.359
 6511SOL     OW20431   6.299   0.397   5.270
 6511SOL    HW120432   6.377   0.460   5.281
 6511SOL    HW220433   6.325   0.306   5.303
 6512SOL     OW20434   4.509   7.019   2.789
 6512SOL    HW120435   4.444   0.044   2.847
 6512SOL    HW220436   4.598   7.016   2.835
 6513SOL     OW20437   3.486   6.804   4.216
 6513SOL    HW120438   3.551   6.748   4.165
 6513SOL    HW220439   3.399   6.807   4.167
 6514SOL     OW20440   5.059   6.811   4.029
 6514SOL    HW120441   5.068   6.909   4.010
 6514SOL    HW220442   5.145   6.764   4.007
 6515SOL     OW20443   6.657   5.429   4.082
 6515SOL    HW120444   6.678   5.432   4.180
 6515SOL    HW220445   6.726   5.480   4.031
 6516SOL     OW20446   0.588   1.612   6.730
 6516SOL    HW120447   0.575   1.636   6.827
 6516SOL    HW220448   0.501   1.619   6.682
 6517SOL     OW20449   0.075   1.872   0.356
 6517SOL    HW120450   0.141   1.817   0.305
 6517SOL    HW220451   0.102   1.877   0.452
 6518SOL     OW20452   0.912   6.232   0.674
 6518SOL    HW120453   1.004   6.196   0.658
 6518SOL    HW220454   0.869   6.179   0.747
 6519SOL     OW20455   2.198   1.359   4.721
 6519SOL    HW120456   2.296   1.342   4.715
 6519SOL    HW220457   2.181   1.445   4.768
 6520SOL     OW20458   6.402   5.626   2.535
 6520SOL    HW120459   6.352   5.559   2.479
 6520SOL    HW220460   6.497   5.597   2.545
 6521SOL     OW20461   1.395   1.412   4.395
 6521SOL    HW120462   1.328   1.344   4.364
 6521SOL    HW220463   1.487   1.383   4.367
 6522SOL     OW20464   2.095   5.694   0.020
 6522SOL    HW120465   2.181   5.652   0.049
 6522SOL    HW220466   2.084   5.684   6.944
 6523SOL     OW20467   2.815   1.217   6.306
 6523SOL    HW120468   2.826   1.126   6.346
 6523SOL    HW220469   2.739   1.264   6.350
 6524SOL     OW20470   3.731   3.769   3.438
 6524SOL    HW120471   3.790   3.850   3.441
 6524SOL    HW220472   3.641   3.796   3.403
 6525SOL     OW20473   1.181   2.369   2.931
 6525SOL    HW120474   1.101   2.354   2.872
 6525SOL    HW220475   1.202   2.284   2.979
 6526SOL     OW20476   1.112   6.553   4.895
 6526SOL    HW120477   1.151   6.643   4.875
 6526SOL    HW220478   1.023   6.545   4.851
 6527SOL     OW20479   1.724   0.594   5.262
 6527SOL    HW120480   1.677   0.582   5.175
 6527SOL    HW220481   1.801   0.530   5.267
 6528SOL     OW20482   0.040   0.978   4.178
 6528SOL    HW120483   0.055   0.884   4.148
 6528SOL    HW220484   0.039   1.038   4.098
 6529SOL     OW20485   5.572   1.777   2.587
 6529SOL    HW120486   5.574   1.677   2.583
 6529SOL    HW220487   5.664   1.813   2.570
 6530SOL     OW20488   6.584   2.721   0.368
 6530SOL    HW120489   6.557   2.801   0.423
 6530SOL    HW220490   6.613   2.647   0.428
 6531SOL     OW20491   5.712   2.338   3.811
 6531SOL    HW120492   5.774   2.413   3.832
 6531SOL    HW220493   5.700   2.280   3.892
 6532SOL     OW20494   6.557   1.733   6.620
 6532SOL    HW120495   6.576   1.756   6.715
 6532SOL    HW220496   6.617   1.659   6.591
 6533SOL     OW20497   5.593   5.975   1.269
 6533SOL    HW120498   5.600   5.915   1.189
 6533SOL    HW220499   5.598   5.920   1.352
 6534SOL     OW20500   2.446   3.651   1.230
 6534SOL    HW120501   2.488   3.674   1.318
 6534SOL    HW220502   2.491   3.702   1.157
 6535SOL     OW20503   0.070   3.512   5.231
 6535SOL    HW120504   0.107   3.432   5.183
 6535SOL    HW220505   0.082   3.593   5.173
 6536SOL     OW20506   5.995   1.883   6.916
 6536SOL    HW120507   5.972   1.789   6.892
 6536SOL    HW220508   5.988   1.894   7.015
 6537SOL     OW20509   6.486   6.860   6.942
 6537SOL    HW120510   6.525   6.909   7.020
 6537SOL    HW220511   6.390   6.884   6.932
 6538SOL     OW20512   3.335   3.753   0.402
 6538SOL    HW120513   3.292   3.773   0.315
 6538SOL    HW220514   3.422   3.705   0.387
 6539SOL     OW20515   2.491   1.730   6.319
 6539SOL    HW120516   2.518   1.714   6.414
 6539SOL    HW220517   2.443   1.649   6.284
 6540SOL     OW20518   3.761   1.898   4.276
 6540SOL    HW120519   3.675   1.890   4.225
 6540SOL    HW220520   3.810   1.980   4.246
 6541SOL     OW20521   3.153   2.634   5.299
 6541SOL    HW120522   3.057   2.662   5.295
 6541SOL    HW220523   3.162   2.542   5.260
 6542SOL     OW20524   6.210   4.742   3.220
 6542SOL    HW120525   6.145   4.817   3.228
 6542SOL    HW220526   6.217   4.714   3.124
 6543SOL     OW20527   6.230   5.661   0.328
 6543SOL    HW120528   6.228   5.749   0.376
 6543SOL    HW220529   6.136   5.629   0.315
 6544SOL     OW20530   6.508   6.413   4.266
 6544SOL    HW120531   6.601   6.428   4.300
 6544SOL    HW220532   6.442   6.453   4.330
 6545SOL     OW20533   5.489   0.857   6.214
 6545SOL    HW120534   5.537   0.794   6.275
 6545SOL    HW220535   5.547   0.935   6.195
 6546SOL     OW20536   4.221   4.706   6.445
 6546SOL    HW120537   4.310   4.680   6.482
 6546SOL    HW220538   4.185   4.632   6.390
 6547SOL     OW20539   4.657   2.331   6.112
 6547SOL    HW120540   4.672   2.287   6.200
 6547SOL    HW220541   4.573   2.386   6.116
 6548SOL     OW20542   6.867   4.356   5.722
 6548SOL    HW120543   6.818   4.276   5.686
 6548SOL    HW220544   6.802   4.430   5.739
 6549SOL     OW20545   4.099   1.908   1.147
 6549SOL    HW120546   4.029   1.934   1.080
 6549SOL    HW220547   4.188   1.943   1.118
 6550SOL     OW20548   0.432   5.643   3.503
 6550SOL    HW120549   0.434   5.570   3.434
 6550SOL    HW220550   0.524   5.655   3.541
 6551SOL     OW20551   2.334   4.612   1.650
 6551SOL    HW120552   2.346   4.516   1.675
 6551SOL    HW220553   2.236   4.631   1.638
 6552SOL     OW20554   2.731   5.415   5.545
 6552SOL    HW120555   2.632   5.408   5.531
 6552SOL    HW220556   2.771   5.323   5.545
 6553SOL     OW20557   0.685   3.558   1.731
 6553SOL    HW120558   0.740   3.545   1.813
 6553SOL    HW220559   0.711   3.490   1.663
 6554SOL     OW20560   6.289   1.580   5.740
 6554SOL    HW120561   6.214   1.526   5.702
 6554SOL    HW220562   6.270   1.599   5.836
 6555SOL     OW20563   1.698   0.738   1.851
 6555SOL    HW120564   1.654   0.763   1.937
 6555SOL    HW220565   1.763   0.810   1.825
 6556SOL     OW20566   4.567   4.836   5.230
 6556SOL    HW120567   4.521   4.868   5.147
 6556SOL    HW220568   4.665   4.833   5.214
 6557SOL     OW20569   6.033   5.568   0.694
 6557SOL    HW120570   5.936   5.542   0.697
 6557SOL    HW220571   6.041   5.662   0.661
 6558SOL     OW20572   6.692   6.208   0.675
 6558SOL    HW120573   6.654   6.212   0.582
 6558SOL    HW220574   6.656   6.285   0.728
 6559SOL     OW20575   4.850   3.896   0.713
 6559SOL    HW120576   4.837   3.897   0.614
 6559SOL    HW220577   4.761   3.904   0.758
 6560SOL     OW20578   4.091   2.904   1.368
 6560SOL    HW120579   4.122   2.970   1.300
 6560SOL    HW220580   4.110   2.939   1.460
 6561SOL     OW20581   3.891   3.967   2.398
 6561SOL    HW120582   3.791   3.968   2.388
 6561SOL    HW220583   3.932   3.931   2.314
 6562SOL     OW20584   6.511   4.914   5.743
 6562SOL    HW120585   6.473   4.847   5.807
 6562SOL    HW220586   6.447   4.929   5.669
 6563SOL     OW20587   0.430   5.708   0.279
 6563SOL    HW120588   0.506   5.652   0.245
 6563SOL    HW220589   0.359   5.714   0.210
 6564SOL     OW20590   1.206   3.516   2.062
 6564SOL    HW120591   1.117   3.554   2.088
 6564SOL    HW220592   1.229   3.441   2.124
 6565SOL     OW20593   5.534   2.287   4.796
 6565SOL    HW120594   5.517   2.290   4.894
 6565SOL    HW220595   5.477   2.356   4.750
 6566SOL     OW20596   3.111   0.249   1.745
 6566SOL    HW120597   3.037   0.231   1.810
 6566SOL    HW220598   3.155   0.336   1.768
 6567SOL     OW20599   4.703   2.897   0.892
 6567SOL    HW120600   4.686   2.820   0.831
 6567SOL    HW220601   4.636   2.896   0.966
 6568SOL     OW20602   4.593   4.632   1.817
 6568SOL    HW120603   4.557   4.630   1.723
 6568SOL    HW220604   4.525   4.592   1.879
 6569SOL     OW20605   2.334   5.365   0.878
 6569SOL    HW120606   2.333   5.462   0.856
 6569SOL    HW220607   2.377   5.351   0.967
 6570SOL     OW20608   5.231   0.743   2.217
 6570SOL    HW120609   5.296   0.820   2.224
 6570SOL    HW220610   5.182   0.749   2.130
 6571SOL     OW20611   2.166   5.647   3.122
 6571SOL    HW120612   2.083   5.662   3.176
 6571SOL    HW220613   2.159   5.560   3.074
 6572SOL     OW20614   6.490   3.445   5.245
 6572SOL    HW120615   6.433   3.389   5.185
 6572SOL    HW220616   6.580   3.457   5.205
 6573SOL     OW20617   3.620   1.305   2.483
 6573SOL    HW120618   3.664   1.217   2.500
 6573SOL    HW220619   3.666   1.351   2.407
 6574SOL     OW20620   2.038   6.015   2.040
 6574SOL    HW120621   2.122   6.021   2.094
 6574SOL    HW220622   1.959   6.015   2.102
 6575SOL     OW20623   0.990   1.260   1.464
 6575SOL    HW120624   1.017   1.356   1.451
 6575SOL    HW220625   1.030   1.225   1.548
 6576SOL     OW20626   1.251   5.990   6.686
 6576SOL    HW120627   1.171   5.946   6.726
 6576SOL    HW220628   1.332   5.932   6.699
 6577SOL     OW20629   0.331   1.576   3.536
 6577SOL    HW120630   0.396   1.624   3.595
 6577SOL    HW220631   0.347   1.477   3.543
 6578SOL     OW20632   6.214   5.233   3.437
 6578SOL    HW120633   6.280   5.305   3.457
 6578SOL    HW220634   6.237   5.151   3.490
 6579SOL     OW20635   0.092   4.064   3.826
 6579SOL    HW120636   0.038   4.141   3.861
 6579SOL    HW220637   0.064   4.044   3.732
 6580SOL     OW20638   5.752   0.683   1.146
 6580SOL    HW120639   5.778   0.603   1.200
 6580SOL    HW220640   5.663   0.716   1.178
 6581SOL     OW20641   4.078   1.631   6.050
 6581SOL    HW120642   4.131   1.618   5.965
 6581SOL    HW220643   4.055   1.542   6.089
 6582SOL     OW20644   0.908   0.089   2.741
 6582SOL    HW120645   0.840   0.162   2.732
 6582SOL    HW220646   0.910   0.058   2.836
 6583SOL     OW20647   5.663   1.072   6.174
 6583SOL    HW120648   5.592   1.100   6.110
 6583SOL    HW220649   5.750   1.114   6.149
 6584SOL     OW20650   5.491   1.430   6.104
 6584SOL    HW120651   5.506   1.404   6.200
 6584SOL    HW220652   5.513   1.527   6.092
 6585SOL     OW20653   0.453   1.638   6.993
 6585SOL    HW120654   0.405   1.698   0.033
 6585SOL    HW220655   0.387   1.582   6.943
 6586SOL     OW20656   6.188   1.699   5.987
 6586SOL    HW120657   6.216   1.753   6.067
 6586SOL    HW220658   6.141   1.759   5.922
 6587SOL     OW20659   2.306   5.759   4.071
 6587SOL    HW120660   2.400   5.791   4.058
 6587SOL    HW220661   2.289   5.744   4.168
 6588SOL     OW20662   1.317   3.806   0.737
 6588SOL    HW120663   1.323   3.884   0.799
 6588SOL    HW220664   1.295   3.724   0.789
 6589SOL     OW20665   4.906   0.120   6.360
 6589SOL    HW120666   4.892   0.219   6.356
 6589SOL    HW220667   4.995   0.097   6.322
 6590SOL     OW20668   0.131   1.434   4.643
 6590SOL    HW120669   0.160   1.425   4.738
 6590SOL    HW220670   0.037   1.467   4.639
 6591SOL     OW20671   5.385   6.935   2.681
 6591SOL    HW120672   5.454   6.869   2.653
 6591SOL    HW220673   5.304   6.886   2.715
 6592SOL     OW20674   4.078   0.326   4.708
 6592SOL    HW120675   4.083   0.289   4.801
 6592SOL    HW220676   4.004   0.393   4.703
 6593SOL     OW20677   2.999   2.215   3.912
 6593SOL    HW120678   3.098   2.224   3.897
 6593SOL    HW220679   2.982   2.144   3.980
 6594SOL     OW20680   4.890   0.515   6.850
 6594SOL    HW120681   4.987   0.541   6.856
 6594SOL    HW220682   4.881   0.417   6.868
 6595SOL     OW20683   1.778   3.697   0.927
 6595SOL    HW120684   1.735   3.776   0.883
 6595SOL    HW220685   1.859   3.670   0.876
 6596SOL     OW20686   4.745   0.156   5.787
 6596SOL    HW120687   4.818   0.120   5.728
 6596SOL    HW220688   4.695   0.227   5.739
 6597SOL     OW20689   0.397   6.581   4.561
 6597SOL    HW120690   0.314   6.531   4.539
 6597SOL    HW220691   0.378   6.679   4.561
 6598SOL     OW20692   1.636   5.392   4.812
 6598SOL    HW120693   1.569   5.392   4.738
 6598SOL    HW220694   1.703   5.465   4.797
 6599SOL     OW20695   4.183   4.861   6.216
 6599SOL    HW120696   4.085   4.853   6.200
 6599SOL    HW220697   4.210   4.796   6.287
 6600SOL     OW20698   4.964   5.025   5.046
 6600SOL    HW120699   5.005   4.972   5.121
 6600SOL    HW220700   5.035   5.079   5.001
 6601SOL     OW20701   0.267   1.132   0.621
 6601SOL    HW120702   0.325   1.212   0.639
 6601SOL    HW220703   0.181   1.162   0.579
 6602SOL     OW20704   0.384   2.247   1.457
 6602SOL    HW120705   0.449   2.202   1.518
 6602SOL    HW220706   0.298   2.196   1.455
 6603SOL     OW20707   2.005   3.773   3.527
 6603SOL    HW120708   2.069   3.788   3.451
 6603SOL    HW220709   2.009   3.851   3.589
 6604SOL     OW20710   2.231   5.674   1.621
 6604SOL    HW120711   2.260   5.766   1.595
 6604SOL    HW220712   2.143   5.653   1.578
 6605SOL     OW20713   5.103   5.554   0.018
 6605SOL    HW120714   5.157   5.481   0.061
 6605SOL    HW220715   5.154   5.640   0.022
 6606SOL     OW20716   4.833   0.840   2.650
 6606SOL    HW120717   4.834   0.748   2.689
 6606SOL    HW220718   4.921   0.885   2.669
 6607SOL     OW20719   2.075   1.040   1.959
 6607SOL    HW120720   2.034   1.131   1.969
 6607SOL    HW220721   2.148   1.028   2.026
 6608SOL     OW20722   5.486   3.031   2.946
 6608SOL    HW120723   5.495   2.999   2.852
 6608SOL    HW220724   5.425   2.970   2.996
 6609SOL     OW20725   5.520   0.960   6.937
 6609SOL    HW120726   5.481   0.944   0.005
 6609SOL    HW220727   5.616   0.984   6.946
 6610SOL     OW20728   2.158   0.296   0.378
 6610SOL    HW120729   2.252   0.278   0.347
 6610SOL    HW220730   2.099   0.308   0.298
 6611SOL     OW20731   6.144   2.289   2.880
 6611SOL    HW120732   6.091   2.284   2.796
 6611SOL    HW220733   6.233   2.244   2.866
 6612SOL     OW20734   1.223   5.646   6.349
 6612SOL    HW120735   1.174   5.561   6.331
 6612SOL    HW220736   1.319   5.626   6.370
 6613SOL     OW20737   5.019   5.092   2.884
 6613SOL    HW120738   4.997   5.179   2.839
 6613SOL    HW220739   5.116   5.071   2.872
 6614SOL     OW20740   5.051   5.176   6.251
 6614SOL    HW120741   5.082   5.182   6.346
 6614SOL    HW220742   5.120   5.217   6.191
 6615SOL     OW20743   0.452   3.098   5.038
 6615SOL    HW120744   0.447   3.095   5.138
 6615SOL    HW220745   0.522   3.164   5.010
 6616SOL     OW20746   4.589   1.532   5.349
 6616SOL    HW120747   4.607   1.620   5.305
 6616SOL    HW220748   4.525   1.546   5.425
 6617SOL     OW20749   2.966   6.707   4.070
 6617SOL    HW120750   2.921   6.791   4.103
 6617SOL    HW220751   3.060   6.729   4.043
 6618SOL     OW20752   0.868   3.897   2.205
 6618SOL    HW120753   0.871   3.969   2.274
 6618SOL    HW220754   0.810   3.926   2.129
 6619SOL     OW20755   4.401   6.363   3.746
 6619SOL    HW120756   4.329   6.403   3.690
 6619SOL    HW220757   4.363   6.291   3.804
 6620SOL     OW20758   1.652   2.731   6.201
 6620SOL    HW120759   1.727   2.745   6.265
 6620SOL    HW220760   1.587   2.807   6.210
 6621SOL     OW20761   2.330   3.978   0.485
 6621SOL    HW120762   2.298   3.961   0.578
 6621SOL    HW220763   2.394   3.905   0.458
 6622SOL     OW20764   6.646   6.480   0.750
 6622SOL    HW120765   6.614   6.561   0.700
 6622SOL    HW220766   6.725   6.506   0.806
 6623SOL     OW20767   3.650   3.145   2.072
 6623SOL    HW120768   3.630   3.078   2.001
 6623SOL    HW220769   3.592   3.226   2.059
 6624SOL     OW20770   3.353   5.518   4.985
 6624SOL    HW120771   3.271   5.465   4.964
 6624SOL    HW220772   3.374   5.510   5.083
 6625SOL     OW20773   6.220   1.032   6.360
 6625SOL    HW120774   6.173   1.095   6.422
 6625SOL    HW220775   6.248   1.081   6.278
 6626SOL     OW20776   3.183   5.400   3.174
 6626SOL    HW120777   3.125   5.319   3.167
 6626SOL    HW220778   3.257   5.395   3.107
 6627SOL     OW20779   1.843   0.700   6.209
 6627SOL    HW120780   1.768   0.661   6.263
 6627SOL    HW220781   1.930   0.674   6.249
 6628SOL     OW20782   4.541   5.050   2.423
 6628SOL    HW120783   4.549   5.093   2.333
 6628SOL    HW220784   4.503   5.116   2.488
 6629SOL     OW20785   3.052   6.045   1.692
 6629SOL    HW120786   3.130   5.996   1.730
 6629SOL    HW220787   3.056   6.141   1.720
 6630SOL     OW20788   3.658   1.038   0.283
 6630SOL    HW120789   3.747   1.053   0.325
 6630SOL    HW220790   3.634   1.115   0.225
 6631SOL     OW20791   4.687   0.196   2.125
 6631SOL    HW120792   4.684   0.292   2.096
 6631SOL    HW220793   4.776   0.176   2.166
 6632SOL     OW20794   6.995   1.583   0.488
 6632SOL    HW120795   6.908   1.631   0.502
 6632SOL    HW220796   0.039   1.617   0.554
 6633SOL     OW20797   1.216   5.879   6.249
 6633SOL    HW120798   1.206   5.792   6.297
 6633SOL    HW220799   1.291   5.931   6.289
 6634SOL     OW20800   6.366   3.392   5.887
 6634SOL    HW120801   6.353   3.481   5.932
 6634SOL    HW220802   6.344   3.319   5.951
 6635SOL     OW20803   4.341   4.805   3.657
 6635SOL    HW120804   4.385   4.888   3.623
 6635SOL    HW220805   4.292   4.826   3.741
 6636SOL     OW20806   1.165   3.068   5.112
 6636SOL    HW120807   1.220   3.064   5.196
 6636SOL    HW220808   1.221   3.042   5.034
 6637SOL     OW20809   1.388   0.862   0.692
 6637SOL    HW120810   1.464   0.922   0.666
 6637SOL    HW220811   1.422   0.768   0.704
 6638SOL     OW20812   2.131   5.342   4.878
 6638SOL    HW120813   2.189   5.336   4.959
 6638SOL    HW220814   2.166   5.415   4.818
 6639SOL     OW20815   5.609   4.876   6.385
 6639SOL    HW120816   5.673   4.916   6.451
 6639SOL    HW220817   5.515   4.884   6.421
 6640SOL     OW20818   6.854   1.951   4.009
 6640SOL    HW120819   6.880   2.009   4.085
 6640SOL    HW220820   6.935   1.907   3.971
 6641SOL     OW20821   3.542   3.810   6.562
 6641SOL    HW120822   3.462   3.857   6.524
 6641SOL    HW220823   3.589   3.761   6.489
 6642SOL     OW20824   1.499   4.851   0.266
 6642SOL    HW120825   1.486   4.794   0.186
 6642SOL    HW220826   1.577   4.912   0.251
 6643SOL     OW20827   6.340   4.188   6.039
 6643SOL    HW120828   6.366   4.158   6.131
 6643SOL    HW220829   6.240   4.200   6.036
 6644SOL     OW20830   2.820   4.860   1.791
 6644SOL    HW120831   2.824   4.787   1.724
 6644SOL    HW220832   2.852   4.827   1.880
 6645SOL     OW20833   0.216   5.222   6.682
 6645SOL    HW120834   0.309   5.187   6.685
 6645SOL    HW220835   0.179   5.229   6.774
 6646SOL     OW20836   4.185   5.120   4.233
 6646SOL    HW120837   4.237   5.206   4.228
 6646SOL    HW220838   4.217   5.058   4.162
 6647SOL     OW20839   3.600   0.469   2.396
 6647SOL    HW120840   3.568   0.508   2.482
 6647SOL    HW220841   3.537   0.494   2.322
 6648SOL     OW20842   4.065   5.363   3.226
 6648SOL    HW120843   3.994   5.298   3.252
 6648SOL    HW220844   4.091   5.347   3.131
 6649SOL     OW20845   5.119   1.712   6.344
 6649SOL    HW120846   5.095   1.801   6.305
 6649SOL    HW220847   5.218   1.698   6.336
 6650SOL     OW20848   4.054   0.954   3.466
 6650SOL    HW120849   3.976   1.015   3.474
 6650SOL    HW220850   4.115   0.968   3.544
 6651SOL     OW20851   1.233   2.073   0.405
 6651SOL    HW120852   1.141   2.092   0.371
 6651SOL    HW220853   1.285   2.159   0.412
 6652SOL     OW20854   6.655   5.060   0.995
 6652SOL    HW120855   6.637   5.074   1.092
 6652SOL    HW220856   6.570   5.073   0.943
 6653SOL     OW20857   3.108   3.962   3.126
 6653SOL    HW120858   3.051   3.896   3.078
 6653SOL    HW220859   3.183   3.914   3.172
 6654SOL     OW20860   1.874   2.771   1.320
 6654SOL    HW120861   1.836   2.681   1.300
 6654SOL    HW220862   1.841   2.837   1.252
 6655SOL     OW20863   2.982   6.588   1.959
 6655SOL    HW120864   2.987   6.683   1.927
 6655SOL    HW220865   2.912   6.539   1.907
 6656SOL     OW20866   0.075   1.346   2.358
 6656SOL    HW120867   0.163   1.379   2.325
 6656SOL    HW220868   0.005   1.417   2.344
 6657SOL     OW20869   4.312   6.796   6.132
 6657SOL    HW120870   4.316   6.701   6.100
 6657SOL    HW220871   4.404   6.835   6.130
 6658SOL     OW20872   5.550   0.433   5.092
 6658SOL    HW120873   5.451   0.439   5.083
 6658SOL    HW220874   5.590   0.524   5.077
 6659SOL     OW20875   2.873   2.945   6.987
 6659SOL    HW120876   2.971   2.947   6.967
 6659SOL    HW220877   2.859   2.917   0.059
 6660SOL     OW20878   0.029   6.679   2.114
 6660SOL    HW120879   7.009   6.717   2.033
 6660SOL    HW220880   0.110   6.627   2.088
 6661SOL     OW20881   6.422   5.070   3.709
 6661SOL    HW120882   6.423   5.045   3.806
 6661SOL    HW220883   6.344   5.026   3.664
 6662SOL     OW20884   2.392   1.026   0.261
 6662SOL    HW120885   2.415   1.057   0.353
 6662SOL    HW220886   2.326   0.950   0.267
 6663SOL     OW20887   6.845   5.676   3.088
 6663SOL    HW120888   6.790   5.665   3.170
 6663SOL    HW220889   6.792   5.646   3.008
 6664SOL     OW20890   1.183   6.975   2.012
 6664SOL    HW120891   1.278   6.956   2.036
 6664SOL    HW220892   1.123   6.947   2.087
 6665SOL     OW20893   1.285   6.649   3.210
 6665SOL    HW120894   1.276   6.631   3.113
 6665SOL    HW220895   1.341   6.578   3.253
 6666SOL     OW20896   6.138   1.540   4.919
 6666SOL    HW120897   6.111   1.476   4.847
 6666SOL    HW220898   6.130   1.633   4.885
 6667SOL     OW20899   6.120   5.057   4.701
 6667SOL    HW120900   6.126   4.985   4.770
 6667SOL    HW220901   6.024   5.077   4.682
 6668SOL     OW20902   0.027   5.292   2.211
 6668SOL    HW120903   0.026   5.197   2.177
 6668SOL    HW220904   0.110   5.337   2.182
 6669SOL     OW20905   2.315   4.763   3.362
 6669SOL    HW120906   2.220   4.767   3.330
 6669SOL    HW220907   2.364   4.692   3.312
 6670SOL     OW20908   3.239   5.078   0.014
 6670SOL    HW120909   3.321   5.043   6.991
 6670SOL    HW220910   3.171   5.005   0.021
 6671SOL     OW20911   6.066   4.614   6.633
 6671SOL    HW120912   6.120   4.541   6.593
 6671SOL    HW220913   6.071   4.609   6.733
 6672SOL     OW20914   1.659   0.506   5.718
 6672SOL    HW120915   1.630   0.574   5.785
 6672SOL    HW220916   1.682   0.420   5.764
 6673SOL     OW20917   4.578   5.137   2.135
 6673SOL    HW120918   4.569   5.046   2.094
 6673SOL    HW220919   4.518   5.201   2.086
 6674SOL     OW20920   0.601   5.471   5.293
 6674SOL    HW120921   0.549   5.441   5.213
 6674SOL    HW220922   0.582   5.567   5.311
 6675SOL     OW20923   5.342   3.996   0.240
 6675SOL    HW120924   5.249   4.032   0.239
 6675SOL    HW220925   5.402   4.058   0.292
 6676SOL     OW20926   0.655   3.287   5.326
 6676SOL    HW120927   0.592   3.243   5.389
 6676SOL    HW220928   0.722   3.219   5.294
 6677SOL     OW20929   0.331   3.321   0.392
 6677SOL    HW120930   0.343   3.367   0.304
 6677SOL    HW220931   0.249   3.358   0.437
 6678SOL     OW20932   1.478   2.953   6.726
 6678SOL    HW120933   1.445   3.041   6.690
 6678SOL    HW220934   1.403   2.906   6.773
 6679SOL     OW20935   1.305   2.117   5.184
 6679SOL    HW120936   1.241   2.065   5.128
 6679SOL    HW220937   1.330   2.064   5.265
 6680SOL     OW20938   3.882   5.821   6.252
 6680SOL    HW120939   3.898   5.723   6.240
 6680SOL    HW220940   3.791   5.836   6.291
 6681SOL     OW20941   5.683   5.284   6.969
 6681SOL    HW120942   5.779   5.310   6.964
 6681SOL    HW220943   5.672   5.205   0.006
 6682SOL     OW20944   0.120   5.076   2.496
 6682SOL    HW120945   0.143   5.094   2.401
 6682SOL    HW220946   0.198   5.100   2.554
 6683SOL     OW20947   5.175   2.003   5.348
 6683SOL    HW120948   5.122   1.938   5.293
 6683SOL    HW220949   5.212   1.957   5.429
 6684SOL     OW20950   1.626   6.755   2.645
 6684SOL    HW120951   1.628   6.848   2.680
 6684SOL    HW220952   1.688   6.698   2.700
 6685SOL     OW20953   5.339   2.315   6.442
 6685SOL    HW120954   5.263   2.357   6.493
 6685SOL    HW220955   5.422   2.320   6.496
 6686SOL     OW20956   5.787   4.234   4.557
 6686SOL    HW120957   5.742   4.150   4.588
 6686SOL    HW220958   5.800   4.295   4.636
 6687SOL     OW20959   1.295   1.558   0.811
 6687SOL    HW120960   1.251   1.635   0.857
 6687SOL    HW220961   1.230   1.513   0.750
 6688SOL     OW20962   6.964   4.978   2.837
 6688SOL    HW120963   6.918   4.896   2.803
 6688SOL    HW220964   6.965   4.978   2.937
 6689SOL     OW20965   4.635   3.613   0.576
 6689SOL    HW120966   4.703   3.592   0.506
 6689SOL    HW220967   4.638   3.711   0.597
 6690SOL     OW20968   2.635   2.611   1.323
 6690SOL    HW120969   2.544   2.651   1.329
 6690SOL    HW220970   2.691   2.664   1.259
 6691SOL     OW20971   2.256   5.759   1.246
 6691SOL    HW120972   2.303   5.680   1.283
 6691SOL    HW220973   2.157   5.748   1.259
 6692SOL     OW20974   2.958   4.197   5.295
 6692SOL    HW120975   2.957   4.227   5.390
 6692SOL    HW220976   3.012   4.262   5.240
 6693SOL     OW20977   4.534   3.874   5.695
 6693SOL    HW120978   4.508   3.954   5.640
 6693SOL    HW220979   4.494   3.792   5.655
 6694SOL     OW20980   4.706   6.402   0.680
 6694SOL    HW120981   4.795   6.447   0.672
 6694SOL    HW220982   4.680   6.395   0.777
 6695SOL     OW20983   0.798   1.440   6.671
 6695SOL    HW120984   0.852   1.467   6.751
 6695SOL    HW220985   0.733   1.513   6.649
 6696SOL     OW20986   2.093   2.682   1.479
 6696SOL    HW120987   2.138   2.607   1.430
 6696SOL    HW220988   2.014   2.714   1.427
 6697SOL     OW20989   4.645   1.305   2.721
 6697SOL    HW120990   4.629   1.385   2.663
 6697SOL    HW220991   4.741   1.277   2.713
 6698SOL     OW20992   3.893   2.800   7.000
 6698SOL    HW120993   3.938   2.719   6.964
 6698SOL    HW220994   3.924   2.881   6.951
 6699SOL     OW20995   3.484   4.955   6.949
 6699SOL    HW120996   3.535   4.906   6.879
 6699SOL    HW220997   3.544   5.021   6.995
 6700SOL     OW20998   0.561   5.777   1.021
 6700SOL    HW120999   0.568   5.688   1.065
 6700SOL    HW221000   0.653   5.813   1.002
 6701SOL     OW21001   0.111   1.977   0.609
 6701SOL    HW121002   0.117   2.076   0.609
 6701SOL    HW221003   0.025   1.948   0.653
 6702SOL     OW21004   2.853   1.868   0.957
 6702SOL    HW121005   2.922   1.808   0.917
 6702SOL    HW221006   2.771   1.815   0.978
 6703SOL     OW21007   6.303   1.390   6.515
 6703SOL    HW121008   6.378   1.381   6.580
 6703SOL    HW221009   6.277   1.486   6.506
 6704SOL     OW21010   4.534   2.578   2.308
 6704SOL    HW121011   4.540   2.485   2.272
 6704SOL    HW221012   4.579   2.641   2.244
 6705SOL     OW21013   6.302   2.475   1.578
 6705SOL    HW121014   6.294   2.486   1.677
 6705SOL    HW221015   6.253   2.393   1.549
 6706SOL     OW21016   1.269   3.801   0.027
 6706SOL    HW121017   1.249   3.899   0.032
 6706SOL    HW221018   1.184   3.749   0.035
 6707SOL     OW21019   6.251   5.424   4.342
 6707SOL    HW121020   6.227   5.439   4.438
 6707SOL    HW221021   6.176   5.456   4.283
 6708SOL     OW21022   1.420   5.079   2.403
 6708SOL    HW121023   1.368   4.993   2.400
 6708SOL    HW221024   1.476   5.087   2.321
 6709SOL     OW21025   3.753   6.845   1.861
 6709SOL    HW121026   3.733   6.816   1.768
 6709SOL    HW221027   3.672   6.830   1.919
 6710SOL     OW21028   2.927   2.648   6.155
 6710SOL    HW121029   2.943   2.592   6.074
 6710SOL    HW221030   2.839   2.623   6.195
 6711SOL     OW21031   5.192   3.567   6.445
 6711SOL    HW121032   5.177   3.480   6.399
 6711SOL    HW221033   5.156   3.642   6.389
 6712SOL     OW21034   4.209   5.520   0.860
 6712SOL    HW121035   4.210   5.438   0.803
 6712SOL    HW221036   4.186   5.496   0.954
 6713SOL     OW21037   2.574   2.336   1.238
 6713SOL    HW121038   2.638   2.309   1.166
 6713SOL    HW221039   2.577   2.435   1.251
 6714SOL     OW21040   5.273   0.025   4.448
 6714SOL    HW121041   5.174   0.028   4.436
 6714SOL    HW221042   5.298   6.970   4.505
 6715SOL     OW21043   0.577   2.096   0.736
 6715SOL    HW121044   0.614   2.144   0.816
 6715SOL    HW221045   0.651   2.076   0.672
 6716SOL     OW21046   1.905   6.346   0.956
 6716SOL    HW121047   1.895   6.313   0.862
 6716SOL    HW221048   1.819   6.334   1.005
 6717SOL     OW21049   3.389   3.307   0.423
 6717SOL    HW121050   3.412   3.321   0.519
 6717SOL    HW221051   3.379   3.209   0.405
 6718SOL     OW21052   3.574   6.831   0.045
 6718SOL    HW121053   3.551   6.766   0.116
 6718SOL    HW221054   3.625   6.786   6.995
 6719SOL     OW21055   0.460   6.759   5.596
 6719SOL    HW121056   0.364   6.787   5.590
 6719SOL    HW221057   0.515   6.817   5.537
 6720SOL     OW21058   2.043   6.093   1.778
 6720SOL    HW121059   2.137   6.102   1.745
 6720SOL    HW221060   2.044   6.068   1.875
 6721SOL     OW21061   5.491   6.249   4.263
 6721SOL    HW121062   5.534   6.191   4.333
 6721SOL    HW221063   5.556   6.320   4.234
 6722SOL     OW21064   4.355   3.400   6.901
 6722SOL    HW121065   4.403   3.399   6.989
 6722SOL    HW221066   4.352   3.307   6.864
 6723SOL     OW21067   2.450   6.897   3.524
 6723SOL    HW121068   2.393   6.817   3.545
 6723SOL    HW221069   2.508   6.876   3.445
 6724SOL     OW21070   2.997   4.775   5.344
 6724SOL    HW121071   2.954   4.721   5.272
 6724SOL    HW221072   3.002   4.871   5.315
 6725SOL     OW21073   0.779   4.718   2.692
 6725SOL    HW121074   0.785   4.629   2.647
 6725SOL    HW221075   0.748   4.706   2.786
 6726SOL     OW21076   2.351   2.741   4.412
 6726SOL    HW121077   2.342   2.684   4.494
 6726SOL    HW221078   2.365   2.836   4.439
 6727SOL     OW21079   4.847   3.308   6.217
 6727SOL    HW121080   4.824   3.277   6.124
 6727SOL    HW221081   4.790   3.259   6.283
 6728SOL     OW21082   3.836   2.154   4.208
 6728SOL    HW121083   3.916   2.201   4.172
 6728SOL    HW221084   3.753   2.195   4.170
 6729SOL     OW21085   6.508   0.763   2.570
 6729SOL    HW121086   6.550   0.689   2.622
 6729SOL    HW221087   6.493   0.842   2.629
 6730SOL     OW21088   2.668   0.855   0.287
 6730SOL    HW121089   2.762   0.822   0.292
 6730SOL    HW221090   2.634   0.845   0.194
 6731SOL     OW21091   2.611   4.327   1.312
 6731SOL    HW121092   2.546   4.256   1.285
 6731SOL    HW221093   2.596   4.351   1.408
 6732SOL     OW21094   2.178   6.738   0.787
 6732SOL    HW121095   2.105   6.790   0.832
 6732SOL    HW221096   2.139   6.664   0.733
 6733SOL     OW21097   4.376   6.022   5.745
 6733SOL    HW121098   4.443   6.021   5.820
 6733SOL    HW221099   4.288   6.054   5.781
 6734SOL     OW21100   1.423   3.163   5.614
 6734SOL    HW121101   1.337   3.210   5.632
 6734SOL    HW221102   1.490   3.228   5.578
 6735SOL     OW21103   6.816   4.887   5.799
 6735SOL    HW121104   6.784   4.952   5.867
 6735SOL    HW221105   6.778   4.911   5.709
 6736SOL     OW21106   2.804   2.917   1.577
 6736SOL    HW121107   2.780   3.013   1.588
 6736SOL    HW221108   2.750   2.861   1.639
 6737SOL     OW21109   2.285   1.527   2.626
 6737SOL    HW121110   2.320   1.601   2.683
 6737SOL    HW221111   2.294   1.440   2.675
 6738SOL     OW21112   2.785   1.376   2.904
 6738SOL    HW121113   2.732   1.405   2.984
 6738SOL    HW221114   2.877   1.351   2.932
 6739SOL     OW21115   3.899   6.363   4.856
 6739SOL    HW121116   3.853   6.275   4.847
 6739SOL    HW221117   3.877   6.421   4.777
 6740SOL     OW21118   1.664   1.281   4.350
 6740SOL    HW121119   1.752   1.327   4.362
 6740SOL    HW221120   1.651   1.213   4.422
 6741SOL     OW21121   6.649   0.882   5.977
 6741SOL    HW121122   6.738   0.845   6.003
 6741SOL    HW221123   6.636   0.874   5.879
 6742SOL     OW21124   6.318   5.915   5.387
 6742SOL    HW121125   6.266   5.895   5.470
 6742SOL    HW221126   6.374   5.997   5.401
 6743SOL     OW21127   4.108   3.457   1.404
 6743SOL    HW121128   4.193   3.459   1.456
 6743SOL    HW221129   4.032   3.437   1.466
 6744SOL     OW21130   4.255   4.569   5.979
 6744SOL    HW121131   4.236   4.637   6.050
 6744SOL    HW221132   4.310   4.611   5.907
 6745SOL     OW21133   0.711   4.661   3.323
 6745SOL    HW121134   0.721   4.655   3.422
 6745SOL    HW221135   0.732   4.754   3.293
 6746SOL     OW21136   0.188   1.964   1.125
 6746SOL    HW121137   0.267   1.946   1.183
 6746SOL    HW221138   0.218   2.004   1.038
 6747SOL     OW21139   4.833   5.644   5.071
 6747SOL    HW121140   4.851   5.740   5.046
 6747SOL    HW221141   4.781   5.600   4.998
 6748SOL     OW21142   1.028   0.849   2.643
 6748SOL    HW121143   0.947   0.828   2.698
 6748SOL    HW221144   1.047   0.773   2.581
 6749SOL     OW21145   4.563   0.431   0.124
 6749SOL    HW121146   4.575   0.348   0.071
 6749SOL    HW221147   4.639   0.441   0.189
 6750SOL     OW21148   2.643   2.403   4.985
 6750SOL    HW121149   2.571   2.458   4.942
 6750SOL    HW221150   2.611   2.309   4.994
 6751SOL     OW21151   2.415   2.506   4.833
 6751SOL    HW121152   2.388   2.456   4.751
 6751SOL    HW221153   2.420   2.604   4.812
 6752SOL     OW21154   5.421   3.094   0.643
 6752SOL    HW121155   5.414   3.058   0.736
 6752SOL    HW221156   5.486   3.170   0.641
 6753SOL     OW21157   4.356   2.133   6.362
 6753SOL    HW121158   4.337   2.144   6.264
 6753SOL    HW221159   4.354   2.035   6.385
 6754SOL     OW21160   5.933   1.452   6.414
 6754SOL    HW121161   6.013   1.462   6.356
 6754SOL    HW221162   5.956   1.479   6.508
 6755SOL     OW21163   4.866   2.043   3.785
 6755SOL    HW121164   4.925   1.963   3.794
 6755SOL    HW221165   4.917   2.125   3.811
 6756SOL     OW21166   4.838   4.896   4.085
 6756SOL    HW121167   4.747   4.886   4.126
 6756SOL    HW221168   4.829   4.910   3.986
 6757SOL     OW21169   6.145   6.315   2.069
 6757SOL    HW121170   6.241   6.313   2.041
 6757SOL    HW221171   6.137   6.288   2.165
 6758SOL     OW21172   5.464   3.070   1.743
 6758SOL    HW121173   5.417   3.018   1.672
 6758SOL    HW221174   5.489   3.009   1.819
 6759SOL     OW21175   0.681   5.046   2.781
 6759SOL    HW121176   0.649   4.954   2.805
 6759SOL    HW221177   0.764   5.039   2.727
 6760SOL     OW21178   6.837   3.899   4.199
 6760SOL    HW121179   6.887   3.951   4.268
 6760SOL    HW221180   6.890   3.818   4.173
 6761SOL     OW21181   4.977   2.672   5.557
 6761SOL    HW121182   4.881   2.675   5.586
 6761SOL    HW221183   4.986   2.611   5.479
 6762SOL     OW21184   6.631   4.429   3.409
 6762SOL    HW121185   6.643   4.343   3.459
 6762SOL    HW221186   6.710   4.444   3.349
 6763SOL     OW21187   6.468   6.733   5.773
 6763SOL    HW121188   6.564   6.759   5.763
 6763SOL    HW221189   6.445   6.725   5.870
 6764SOL     OW21190   3.112   4.093   6.561
 6764SOL    HW121191   3.020   4.053   6.557
 6764SOL    HW221192   3.105   4.191   6.575
 6765SOL     OW21193   6.007   4.102   2.103
 6765SOL    HW121194   5.915   4.108   2.066
 6765SOL    HW221195   6.015   4.164   2.181
 6766SOL     OW21196   2.173   0.221   5.776
 6766SOL    HW121197   2.098   0.192   5.717
 6766SOL    HW221198   2.209   0.308   5.742
 6767SOL     OW21199   0.063   2.815   6.455
 6767SOL    HW121200   0.054   2.715   6.457
 6767SOL    HW221201   6.998   2.855   6.428
 6768SOL     OW21202   0.136   6.881   4.213
 6768SOL    HW121203   0.059   6.858   4.153
 6768SOL    HW221204   0.101   6.898   4.305
 6769SOL     OW21205   1.871   2.889   5.683
 6769SOL    HW121206   1.828   2.979   5.680
 6769SOL    HW221207   1.801   2.820   5.704
 6770SOL     OW21208   0.263   1.785   3.366
 6770SOL    HW121209   0.192   1.764   3.299
 6770SOL    HW221210   0.280   1.704   3.423
 6771SOL     OW21211   3.986   2.062   3.324
 6771SOL    HW121212   3.948   1.970   3.314
 6771SOL    HW221213   3.966   2.115   3.242
 6772SOL     OW21214   0.027   1.743   2.383
 6772SOL    HW121215   6.978   1.685   2.347
 6772SOL    HW221216   0.110   1.733   2.328
 6773SOL     OW21217   0.733   6.269   1.604
 6773SOL    HW121218   0.764   6.230   1.517
 6773SOL    HW221219   0.811   6.309   1.651
 6774SOL     OW21220   2.051   2.412   5.791
 6774SOL    HW121221   2.014   2.338   5.847
 6774SOL    HW221222   2.084   2.486   5.850
 6775SOL     OW21223   0.530   2.068   5.224
 6775SOL    HW121224   0.496   1.984   5.266
 6775SOL    HW221225   0.553   2.051   5.128
 6776SOL     OW21226   3.051   3.983   2.726
 6776SOL    HW121227   3.099   4.045   2.788
 6776SOL    HW221228   3.073   4.007   2.631
 6777SOL     OW21229   6.006   5.292   6.968
 6777SOL    HW121230   6.018   5.232   0.024
 6777SOL    HW221231   6.061   5.374   6.979
 6778SOL     OW21232   6.706   5.001   2.740
 6778SOL    HW121233   6.778   5.051   2.788
 6778SOL    HW221234   6.746   4.944   2.669
 6779SOL     OW21235   5.639   3.790   5.513
 6779SOL    HW121236   5.624   3.742   5.599
 6779SOL    HW221237   5.595   3.880   5.517
 6780SOL     OW21238   3.053   1.920   3.151
 6780SOL    HW121239   2.988   1.993   3.137
 6780SOL    HW221240   3.146   1.958   3.155
 6781SOL     OW21241   6.662   1.782   4.123
 6781SOL    HW121242   6.719   1.745   4.197
 6781SOL    HW221243   6.711   1.856   4.077
 6782SOL     OW21244   6.839   1.335   2.965
 6782SOL    HW121245   6.808   1.339   3.060
 6782SOL    HW221246   6.938   1.340   2.962
 6783SOL     OW21247   1.540   4.918   4.953
 6783SOL    HW121248   1.639   4.904   4.951
 6783SOL    HW221249   1.494   4.831   4.973
 6784SOL     OW21250   2.590   3.725   1.490
 6784SOL    HW121251   2.653   3.803   1.486
 6784SOL    HW221252   2.549   3.720   1.581
 6785SOL     OW21253   4.940   5.677   4.678
 6785SOL    HW121254   4.866   5.734   4.715
 6785SOL    HW221255   5.025   5.701   4.724
 6786SOL     OW21256   6.154   1.847   6.661
 6786SOL    HW121257   6.207   1.767   6.688
 6786SOL    HW221258   6.104   1.882   6.741
 6787SOL     OW21259   4.016   2.192   6.239
 6787SOL    HW121260   4.073   2.272   6.258
 6787SOL    HW221261   4.073   2.109   6.240
 6788SOL     OW21262   6.257   3.874   2.989
 6788SOL    HW121263   6.318   3.889   2.911
 6788SOL    HW221264   6.169   3.916   2.971
 6789SOL     OW21265   6.093   4.126   3.842
 6789SOL    HW121266   6.097   4.030   3.816
 6789SOL    HW221267   6.138   4.182   3.772
 6790SOL     OW21268   0.449   5.103   6.078
 6790SOL    HW121269   0.420   5.114   6.173
 6790SOL    HW221270   0.384   5.150   6.018
 6791SOL     OW21271   3.313   0.526   3.201
 6791SOL    HW121272   3.258   0.568   3.129
 6791SOL    HW221273   3.359   0.444   3.165
 6792SOL     OW21274   4.115   6.913   4.834
 6792SOL    HW121275   4.023   6.876   4.821
 6792SOL    HW221276   4.122   6.958   4.923
 6793SOL     OW21277   1.723   4.086   0.070
 6793SOL    HW121278   1.720   4.045   0.161
 6793SOL    HW221279   1.680   4.024   0.005
 6794SOL     OW21280   4.777   1.753   5.778
 6794SOL    HW121281   4.787   1.759   5.679
 6794SOL    HW221282   4.689   1.794   5.805
 6795SOL     OW21283   1.241   1.156   0.892
 6795SOL    HW121284   1.153   1.110   0.898
 6795SOL    HW221285   1.243   1.232   0.957
 6796SOL     OW21286   6.157   1.129   2.798
 6796SOL    HW121287   6.178   1.125   2.701
 6796SOL    HW221288   6.230   1.177   2.846
 6797SOL     OW21289   1.220   2.670   1.524
 6797SOL    HW121290   1.176   2.597   1.576
 6797SOL    HW221291   1.300   2.703   1.574
 6798SOL     OW21292   5.678   0.152   1.476
 6798SOL    HW121293   5.755   0.216   1.473
 6798SOL    HW221294   5.649   0.130   1.383
 6799SOL     OW21295   6.298   0.867   3.363
 6799SOL    HW121296   6.355   0.797   3.319
 6799SOL    HW221297   6.226   0.822   3.416
 6800SOL     OW21298   6.827   2.007   1.590
 6800SOL    HW121299   6.901   2.022   1.524
 6800SOL    HW221300   6.771   2.089   1.596
 6801SOL     OW21301   1.140   5.706   5.725
 6801SOL    HW121302   1.177   5.799   5.729
 6801SOL    HW221303   1.166   5.656   5.808
 6802SOL     OW21304   3.330   5.038   1.808
 6802SOL    HW121305   3.235   5.062   1.785
 6802SOL    HW221306   3.330   4.958   1.868
 6803SOL     OW21307   5.428   4.834   5.823
 6803SOL    HW121308   5.384   4.749   5.796
 6803SOL    HW221309   5.527   4.826   5.813
 6804SOL     OW21310   3.413   4.918   2.695
 6804SOL    HW121311   3.493   4.896   2.751
 6804SOL    HW221312   3.381   5.009   2.719
 6805SOL     OW21313   0.172   4.221   4.988
 6805SOL    HW121314   0.095   4.245   5.047
 6805SOL    HW221315   0.228   4.151   5.034
 6806SOL     OW21316   0.044   2.042   2.282
 6806SOL    HW121317   0.108   2.005   2.350
 6806SOL    HW221318   6.989   2.085   2.328
 6807SOL     OW21319   3.094   4.127   1.678
 6807SOL    HW121320   3.115   4.221   1.708
 6807SOL    HW221321   3.157   4.063   1.722
 6808SOL     OW21322   3.651   1.079   4.442
 6808SOL    HW121323   3.563   1.083   4.395
 6808SOL    HW221324   3.650   1.003   4.507
 6809SOL     OW21325   5.653   3.252   1.061
 6809SOL    HW121326   5.556   3.272   1.073
 6809SOL    HW221327   5.665   3.155   1.044
 6810SOL     OW21328   2.591   0.341   4.407
 6810SOL    HW121329   2.628   0.340   4.500
 6810SOL    HW221330   2.500   0.298   4.407
 6811SOL     OW21331   6.726   1.416   0.990
 6811SOL    HW121332   6.667   1.464   1.055
 6811SOL    HW221333   6.765   1.482   0.926
 6812SOL     OW21334   3.570   4.118   5.188
 6812SOL    HW121335   3.517   4.129   5.103
 6812SOL    HW221336   3.552   4.029   5.228
 6813SOL     OW21337   6.008   3.660   1.659
 6813SOL    HW121338   5.912   3.669   1.686
 6813SOL    HW221339   6.050   3.750   1.654
 6814SOL     OW21340   5.342   1.140   6.845
 6814SOL    HW121341   5.430   1.096   6.829
 6814SOL    HW221342   5.356   1.224   6.899
 6815SOL     OW21343   1.896   4.934   5.532
 6815SOL    HW121344   1.992   4.915   5.552
 6815SOL    HW221345   1.838   4.878   5.591
 6816SOL     OW21346   0.832   0.857   2.843
 6816SOL    HW121347   0.839   0.904   2.930
 6816SOL    HW221348   0.787   0.768   2.856
 6817SOL     OW21349   3.889   2.123   2.221
 6817SOL    HW121350   3.801   2.118   2.174
 6817SOL    HW221351   3.951   2.181   2.168
 6818SOL     OW21352   1.793   0.114   5.339
 6818SOL    HW121353   1.758   0.096   5.247
 6818SOL    HW221354   1.815   0.027   5.383
 6819SOL     OW21355   4.997   4.440   1.906
 6819SOL    HW121356   5.030   4.376   1.976
 6819SOL    HW221357   4.899   4.425   1.891
 6820SOL     OW21358   3.145   5.824   1.992
 6820SOL    HW121359   3.161   5.904   2.051
 6820SOL    HW221360   3.170   5.846   1.898
 6821SOL     OW21361   4.158   2.773   5.336
 6821SOL    HW121362   4.166   2.690   5.280
 6821SOL    HW221363   4.202   2.849   5.287
 6822SOL     OW21364   6.680   2.618   6.276
 6822SOL    HW121365   6.742   2.555   6.229
 6822SOL    HW221366   6.609   2.565   6.322
 6823SOL     OW21367   6.249   3.250   6.188
 6823SOL    HW121368   6.315   3.310   6.143
 6823SOL    HW221369   6.159   3.294   6.189
 6824SOL     OW21370   1.112   0.257   5.758
 6824SOL    HW121371   1.161   0.344   5.767
 6824SOL    HW221372   1.065   0.236   5.844
 6825SOL     OW21373   5.798   4.418   0.533
 6825SOL    HW121374   5.793   4.415   0.633
 6825SOL    HW221375   5.888   4.384   0.503
 6826SOL     OW21376   6.351   4.540   3.973
 6826SOL    HW121377   6.448   4.547   3.950
 6826SOL    HW221378   6.339   4.545   4.072
 6827SOL     OW21379   4.227   5.774   4.462
 6827SOL    HW121380   4.157   5.769   4.533
 6827SOL    HW221381   4.187   5.755   4.373
 6828SOL     OW21382   2.909   2.201   2.918
 6828SOL    HW121383   2.887   2.147   2.837
 6828SOL    HW221384   2.999   2.242   2.907
 6829SOL     OW21385   3.694   6.785   3.989
 6829SOL    HW121386   3.639   6.815   3.911
 6829SOL    HW221387   3.763   6.854   4.011
 6830SOL     OW21388   4.904   6.792   3.120
 6830SOL    HW121389   4.850   6.708   3.128
 6830SOL    HW221390   4.883   6.837   3.033
 6831SOL     OW21391   1.498   1.493   6.168
 6831SOL    HW121392   1.570   1.500   6.237
 6831SOL    HW221393   1.450   1.406   6.180
 6832SOL     OW21394   3.365   2.490   0.125
 6832SOL    HW121395   3.303   2.454   0.194
 6832SOL    HW221396   3.344   2.586   0.108
 6833SOL     OW21397   3.332   4.955   5.996
 6833SOL    HW121398   3.413   4.910   6.034
 6833SOL    HW221399   3.309   5.035   6.051
 6834SOL     OW21400   5.506   6.565   1.119
 6834SOL    HW121401   5.589   6.538   1.169
 6834SOL    HW221402   5.528   6.642   1.059
 6835SOL     OW21403   2.463   2.175   4.998
 6835SOL    HW121404   2.365   2.188   4.990
 6835SOL    HW221405   2.490   2.175   5.094
 6836SOL     OW21406   2.206   4.451   6.168
 6836SOL    HW121407   2.158   4.423   6.251
 6836SOL    HW221408   2.230   4.370   6.114
 6837SOL     OW21409   0.496   0.600   1.760
 6837SOL    HW121410   0.512   0.605   1.661
 6837SOL    HW221411   0.582   0.616   1.809
 6838SOL     OW21412   2.831   3.807   5.070
 6838SOL    HW121413   2.809   3.891   5.020
 6838SOL    HW221414   2.867   3.739   5.007
 6839SOL     OW21415   5.890   3.185   4.113
 6839SOL    HW121416   5.975   3.143   4.146
 6839SOL    HW221417   5.815   3.119   4.121
 6840SOL     OW21418   2.818   6.967   5.539
 6840SOL    HW121419   2.864   6.879   5.533
 6840SOL    HW221420   2.857   7.021   5.614
 6841SOL     OW21421   4.263   6.341   1.097
 6841SOL    HW121422   4.355   6.307   1.079
 6841SOL    HW221423   4.247   6.423   1.042
 6842SOL     OW21424   0.569   3.955   5.699
 6842SOL    HW121425   0.480   3.995   5.723
 6842SOL    HW221426   0.623   3.942   5.782
 6843SOL     OW21427   3.558   2.107   2.283
 6843SOL    HW121428   3.566   2.129   2.186
 6843SOL    HW221429   3.645   2.122   2.329
 6844SOL     OW21430   4.393   4.587   4.013
 6844SOL    HW121431   4.420   4.576   3.918
 6844SOL    HW221432   4.464   4.549   4.072
 6845SOL     OW21433   4.526   4.863   2.027
 6845SOL    HW121434   4.502   4.778   1.980
 6845SOL    HW221435   4.477   4.869   2.114
 6846SOL     OW21436   3.506   2.804   2.166
 6846SOL    HW121437   3.539   2.887   2.210
 6846SOL    HW221438   3.584   2.746   2.141
 6847SOL     OW21439   6.133   3.546   1.450
 6847SOL    HW121440   6.229   3.571   1.437
 6847SOL    HW221441   6.105   3.570   1.543
 6848SOL     OW21442   0.593   6.560   3.294
 6848SOL    HW121443   0.672   6.505   3.321
 6848SOL    HW221444   0.534   6.507   3.233
 6849SOL     OW21445   3.246   6.685   3.816
 6849SOL    HW121446   3.344   6.693   3.831
 6849SOL    HW221447   3.223   6.591   3.791
 6850SOL     OW21448   5.429   2.938   2.315
 6850SOL    HW121449   5.333   2.924   2.289
 6850SOL    HW221450   5.461   3.026   2.280
 6851SOL     OW21451   1.148   5.473   5.310
 6851SOL    HW121452   1.121   5.377   5.301
 6851SOL    HW221453   1.245   5.480   5.331
 6852SOL     OW21454   0.381   4.292   2.211
 6852SOL    HW121455   0.388   4.303   2.310
 6852SOL    HW221456   0.289   4.318   2.181
 6853SOL     OW21457   1.061   3.482   5.166
 6853SOL    HW121458   0.974   3.485   5.118
 6853SOL    HW221459   1.050   3.523   5.257
 6854SOL     OW21460   6.331   2.126   6.630
 6854SOL    HW121461   6.361   2.030   6.639
 6854SOL    HW221462   6.261   2.146   6.697
 6855SOL     OW21463   2.491   6.389   1.351
 6855SOL    HW121464   2.453   6.362   1.262
 6855SOL    HW221465   2.559   6.321   1.380
 6856SOL     OW21466   6.104   3.613   5.305
 6856SOL    HW121467   6.031   3.574   5.361
 6856SOL    HW221468   6.079   3.608   5.209
 6857SOL     OW21469   4.057   1.616   5.496
 6857SOL    HW121470   4.062   1.617   5.596
 6857SOL    HW221471   3.969   1.654   5.467
 6858SOL     OW21472   4.097   3.219   4.737
 6858SOL    HW121473   4.127   3.268   4.819
 6858SOL    HW221474   4.076   3.125   4.761
 6859SOL     OW21475   3.875   0.252   0.681
 6859SOL    HW121476   3.889   0.351   0.689
 6859SOL    HW221477   3.785   0.235   0.642
 6860SOL     OW21478   5.412   3.293   6.731
 6860SOL    HW121479   5.480   3.335   6.791
 6860SOL    HW221480   5.459   3.249   6.654
 6861SOL     OW21481   6.500   4.927   6.975
 6861SOL    HW121482   6.491   5.000   6.907
 6861SOL    HW221483   6.471   4.962   0.042
 6862SOL     OW21484   3.283   5.531   3.958
 6862SOL    HW121485   3.258   5.500   4.050
 6862SOL    HW221486   3.310   5.452   3.903
 6863SOL     OW21487   5.421   2.832   4.303
 6863SOL    HW121488   5.390   2.927   4.305
 6863SOL    HW221489   5.520   2.829   4.316
 6864SOL     OW21490   3.514   5.866   5.215
 6864SOL    HW121491   3.577   5.788   5.211
 6864SOL    HW221492   3.551   5.942   5.162
 6865SOL     OW21493   6.437   4.821   3.820
 6865SOL    HW121494   6.523   4.815   3.870
 6865SOL    HW221495   6.419   4.735   3.772
 6866SOL     OW21496   0.083   3.190   2.270
 6866SOL    HW121497   0.084   3.108   2.327
 6866SOL    HW221498   0.139   3.174   2.189
 6867SOL     OW21499   2.401   4.376   2.206
 6867SOL    HW121500   2.482   4.331   2.170
 6867SOL    HW221501   2.422   4.471   2.229
 6868SOL     OW21502   2.126   5.681   4.681
 6868SOL    HW121503   2.085   5.727   4.602
 6868SOL    HW221504   2.147   5.586   4.656
 6869SOL     OW21505   5.821   2.771   5.353
 6869SOL    HW121506   5.781   2.838   5.416
 6869SOL    HW221507   5.838   2.685   5.402
 6870SOL     OW21508   5.585   3.406   2.430
 6870SOL    HW121509   5.671   3.357   2.413
 6870SOL    HW221510   5.558   3.392   2.526
 6871SOL     OW21511   5.509   5.716   1.183
 6871SOL    HW121512   5.520   5.764   1.096
 6871SOL    HW221513   5.436   5.760   1.236
 6872SOL     OW21514   1.966   3.544   6.597
 6872SOL    HW121515   1.900   3.550   6.671
 6872SOL    HW221516   2.022   3.627   6.596
 6873SOL     OW21517   5.756   3.639   6.038
 6873SOL    HW121518   5.795   3.579   5.969
 6873SOL    HW221519   5.730   3.585   6.118
 6874SOL     OW21520   0.631   2.815   4.631
 6874SOL    HW121521   0.549   2.764   4.606
 6874SOL    HW221522   0.703   2.799   4.564
 6875SOL     OW21523   2.808   1.326   3.760
 6875SOL    HW121524   2.737   1.363   3.821
 6875SOL    HW221525   2.888   1.300   3.814
 6876SOL     OW21526   4.101   6.021   0.032
 6876SOL    HW121527   4.164   5.986   6.986
 6876SOL    HW221528   4.102   5.961   0.112
 6877SOL     OW21529   2.208   4.478   6.846
 6877SOL    HW121530   2.183   4.572   6.871
 6877SOL    HW221531   2.241   4.430   6.927
 6878SOL     OW21532   1.573   1.422   5.477
 6878SOL    HW121533   1.515   1.478   5.536
 6878SOL    HW221534   1.669   1.435   5.502
 6879SOL     OW21535   1.593   2.319   6.601
 6879SOL    HW121536   1.538   2.277   6.529
 6879SOL    HW221537   1.619   2.411   6.574
 6880SOL     OW21538   2.225   3.882   4.578
 6880SOL    HW121539   2.130   3.889   4.547
 6880SOL    HW221540   2.262   3.793   4.553
 6881SOL     OW21541   6.953   3.702   2.133
 6881SOL    HW121542   0.017   3.715   2.085
 6881SOL    HW221543   6.947   3.608   2.166
 6882SOL     OW21544   2.222   0.262   5.223
 6882SOL    HW121545   2.291   0.334   5.236
 6882SOL    HW221546   2.250   0.180   5.272
 6883SOL     OW21547   4.256   0.062   1.585
 6883SOL    HW121548   4.170   0.012   1.585
 6883SOL    HW221549   4.318   0.022   1.517
 6884SOL     OW21550   2.025   5.754   4.068
 6884SOL    HW121551   1.984   5.665   4.045
 6884SOL    HW221552   2.119   5.756   4.033
 6885SOL     OW21553   2.871   5.525   4.342
 6885SOL    HW121554   2.832   5.465   4.412
 6885SOL    HW221555   2.940   5.475   4.290
 6886SOL     OW21556   5.627   1.495   2.610
 6886SOL    HW121557   5.609   1.399   2.591
 6886SOL    HW221558   5.716   1.504   2.654
 6887SOL     OW21559   5.657   0.602   4.376
 6887SOL    HW121560   5.728   0.538   4.406
 6887SOL    HW221561   5.571   0.579   4.422
 6888SOL     OW21562   5.772   6.918   4.830
 6888SOL    HW121563   5.684   6.964   4.835
 6888SOL    HW221564   5.800   6.889   4.921
 6889SOL     OW21565   1.491   4.397   5.965
 6889SOL    HW121566   1.470   4.446   5.881
 6889SOL    HW221567   1.492   4.298   5.946
 6890SOL     OW21568   1.692   0.003   1.623
 6890SOL    HW121569   1.616   7.002   1.562
 6890SOL    HW221570   1.681   0.097   1.656
 6891SOL     OW21571   1.094   4.494   3.941
 6891SOL    HW121572   1.026   4.423   3.959
 6891SOL    HW221573   1.050   4.584   3.938
 6892SOL     OW21574   3.164   0.835   3.600
 6892SOL    HW121575   3.201   0.828   3.693
 6892SOL    HW221576   3.224   0.787   3.537
 6893SOL     OW21577   4.636   6.103   2.965
 6893SOL    HW121578   4.733   6.128   2.963
 6893SOL    HW221579   4.617   6.036   2.894
 6894SOL     OW21580   6.593   5.076   6.445
 6894SOL    HW121581   6.646   5.012   6.500
 6894SOL    HW221582   6.518   5.028   6.400
 6895SOL     OW21583   2.990   5.038   6.728
 6895SOL    HW121584   2.957   5.043   6.634
 6895SOL    HW221585   2.954   4.956   6.772
 6896SOL     OW21586   3.309   0.680   3.420
 6896SOL    HW121587   3.386   0.631   3.460
 6896SOL    HW221588   3.268   0.626   3.346
 6897SOL     OW21589   3.429   3.622   0.759
 6897SOL    HW121590   3.354   3.639   0.695
 6897SOL    HW221591   3.395   3.623   0.852
 6898SOL     OW21592   4.130   2.043   2.033
 6898SOL    HW121593   4.156   2.057   1.937
 6898SOL    HW221594   4.046   1.989   2.038
 6899SOL     OW21595   4.607   5.986   6.790
 6899SOL    HW121596   4.589   5.891   6.817
 6899SOL    HW221597   4.579   6.000   6.696
 6900SOL     OW21598   5.251   0.190   6.403
 6900SOL    HW121599   5.219   0.116   6.344
 6900SOL    HW221600   5.209   0.276   6.374
 6901SOL     OW21601   1.656   0.007   6.734
 6901SOL    HW121602   1.606   7.021   6.647
 6901SOL    HW221603   1.642   6.947   6.788
 6902SOL     OW21604   6.964   6.327   0.879
 6902SOL    HW121605   6.963   6.263   0.956
 6902SOL    HW221606   6.922   6.284   0.799
 6903SOL     OW21607   4.332   4.470   0.640
 6903SOL    HW121608   4.266   4.402   0.608
 6903SOL    HW221609   4.345   4.461   0.739
 6904SOL     OW21610   6.449   1.652   3.437
 6904SOL    HW121611   6.539   1.635   3.397
 6904SOL    HW221612   6.437   1.596   3.519
 6905SOL     OW21613   5.660   6.269   0.962
 6905SOL    HW121614   5.663   6.368   0.978
 6905SOL    HW221615   5.752   6.235   0.944
 6906SOL     OW21616   4.302   0.588   3.247
 6906SOL    HW121617   4.347   0.597   3.335
 6906SOL    HW221618   4.264   0.676   3.219
 6907SOL     OW21619   3.691   1.514   1.655
 6907SOL    HW121620   3.663   1.586   1.718
 6907SOL    HW221621   3.695   1.551   1.562
 6908SOL     OW21622   1.843   6.714   5.502
 6908SOL    HW121623   1.862   6.635   5.560
 6908SOL    HW221624   1.912   6.719   5.429
 6909SOL     OW21625   4.513   4.246   6.901
 6909SOL    HW121626   4.472   4.336   6.884
 6909SOL    HW221627   4.509   4.191   6.817
 6910SOL     OW21628   6.479   1.640   2.024
 6910SOL    HW121629   6.541   1.565   2.000
 6910SOL    HW221630   6.512   1.724   1.981
 6911SOL     OW21631   4.170   1.274   4.730
 6911SOL    HW121632   4.251   1.217   4.748
 6911SOL    HW221633   4.122   1.239   4.649
 6912SOL     OW21634   5.538   4.803   0.712
 6912SOL    HW121635   5.601   4.858   0.768
 6912SOL    HW221636   5.484   4.744   0.772
 6913SOL     OW21637   5.450   5.122   4.796
 6913SOL    HW121638   5.474   5.215   4.822
 6913SOL    HW221639   5.369   5.093   4.848
 6914SOL     OW21640   5.992   5.603   0.970
 6914SOL    HW121641   6.006   5.591   0.872
 6914SOL    HW221642   6.023   5.694   0.998
 6915SOL     OW21643   0.417   5.051   2.733
 6915SOL    HW121644   0.413   5.081   2.638
 6915SOL    HW221645   0.512   5.046   2.763
 6916SOL     OW21646   6.118   2.650   0.086
 6916SOL    HW121647   6.183   2.717   0.121
 6916SOL    HW221648   6.025   2.687   0.091
 6917SOL     OW21649   4.947   5.841   5.981
 6917SOL    HW121650   5.042   5.860   6.003
 6917SOL    HW221651   4.904   5.923   5.944
 6918SOL     OW21652   0.127   3.238   3.534
 6918SOL    HW121653   0.052   3.264   3.473
 6918SOL    HW221654   0.090   3.211   3.623
 6919SOL     OW21655   1.952   5.952   2.947
 6919SOL    HW121656   1.872   5.946   2.888
 6919SOL    HW221657   2.032   5.915   2.899
 6920SOL     OW21658   4.727   6.525   4.324
 6920SOL    HW121659   4.775   6.559   4.244
 6920SOL    HW221660   4.716   6.599   4.391
 6921SOL     OW21661   0.310   1.082   3.597
 6921SOL    HW121662   0.269   1.011   3.655
 6921SOL    HW221663   0.361   1.039   3.523
 6922SOL     OW21664   2.159   6.444   0.941
 6922SOL    HW121665   2.175   6.500   0.860
 6922SOL    HW221666   2.066   6.409   0.940
 6923SOL     OW21667   4.543   0.729   4.504
 6923SOL    HW121668   4.595   0.789   4.565
 6923SOL    HW221669   4.512   0.782   4.424
 6924SOL     OW21670   0.286   5.697   1.573
 6924SOL    HW121671   0.280   5.742   1.662
 6924SOL    HW221672   0.262   5.762   1.501
 6925SOL     OW21673   4.337   5.919   2.914
 6925SOL    HW121674   4.252   5.902   2.965
 6925SOL    HW221675   4.335   6.012   2.878
 6926SOL     OW21676   3.220   3.143   4.422
 6926SOL    HW121677   3.169   3.112   4.502
 6926SOL    HW221678   3.218   3.072   4.352
 6927SOL     OW21679   4.534   4.096   5.986
 6927SOL    HW121680   4.501   4.003   5.970
 6927SOL    HW221681   4.467   4.161   5.949
 6928SOL     OW21682   5.070   0.836   6.313
 6928SOL    HW121683   4.992   0.894   6.335
 6928SOL    HW221684   5.140   0.890   6.266
 6929SOL     OW21685   4.321   5.701   0.669
 6929SOL    HW121686   4.415   5.689   0.639
 6929SOL    HW221687   4.294   5.624   0.727
 6930SOL     OW21688   0.611   0.118   3.311
 6930SOL    HW121689   0.591   0.035   3.258
 6930SOL    HW221690   0.571   0.110   3.402
 6931SOL     OW21691   1.899   1.262   1.913
 6931SOL    HW121692   1.811   1.262   1.960
 6931SOL    HW221693   1.884   1.273   1.815
 6932SOL     OW21694   3.051   1.786   0.513
 6932SOL    HW121695   3.089   1.846   0.443
 6932SOL    HW221696   3.083   1.693   0.498
 6933SOL     OW21697   4.199   5.530   6.062
 6933SOL    HW121698   4.271   5.557   5.998
 6933SOL    HW221699   4.210   5.434   6.087
 6934SOL     OW21700   5.156   3.275   6.832
 6934SOL    HW121701   5.241   3.270   6.779
 6934SOL    HW221702   5.099   3.350   6.798
 6935SOL     OW21703   4.451   5.813   3.320
 6935SOL    HW121704   4.459   5.771   3.410
 6935SOL    HW221705   4.536   5.797   3.268
 6936SOL     OW21706   1.038   3.331   1.227
 6936SOL    HW121707   1.050   3.373   1.137
 6936SOL    HW221708   0.960   3.269   1.225
 6937SOL     OW21709   4.554   6.900   6.159
 6937SOL    HW121710   4.612   6.867   6.084
 6937SOL    HW221711   4.587   6.989   6.190
 6938SOL     OW21712   5.380   2.798   5.425
 6938SOL    HW121713   5.306   2.739   5.394
 6938SOL    HW221714   5.346   2.891   5.435
 6939SOL     OW21715   6.828   4.314   2.499
 6939SOL    HW121716   6.778   4.236   2.536
 6939SOL    HW221717   6.805   4.325   2.402
 6940SOL     OW21718   5.011   0.328   5.768
 6940SOL    HW121719   5.111   0.332   5.760
 6940SOL    HW221720   4.978   0.413   5.809
 6941SOL     OW21721   3.958   3.865   3.612
 6941SOL    HW121722   3.970   3.877   3.710
 6941SOL    HW221723   3.954   3.768   3.589
 6942SOL     OW21724   0.029   2.556   6.947
 6942SOL    HW121725   0.049   2.612   0.004
 6942SOL    HW221726   0.110   2.553   6.888
 6943SOL     OW21727   5.329   5.562   6.139
 6943SOL    HW121728   5.368   5.607   6.220
 6943SOL    HW221729   5.333   5.625   6.061
 6944SOL     OW21730   0.891   5.202   6.111
 6944SOL    HW121731   0.969   5.201   6.048
 6944SOL    HW221732   0.873   5.110   6.144
 6945SOL     OW21733   6.624   2.848   5.912
 6945SOL    HW121734   6.590   2.863   6.005
 6945SOL    HW221735   6.636   2.936   5.866
 6946SOL     OW21736   5.564   3.698   2.493
 6946SOL    HW121737   5.477   3.697   2.445
 6946SOL    HW221738   5.607   3.608   2.487
 6947SOL     OW21739   3.173   6.772   3.081
 6947SOL    HW121740   3.163   6.701   3.150
 6947SOL    HW221741   3.211   6.732   2.997
 6948SOL     OW21742   4.843   0.401   6.339
 6948SOL    HW121743   4.825   0.429   6.433
 6948SOL    HW221744   4.887   0.477   6.290
 6949SOL     OW21745   5.186   6.685   3.091
 6949SOL    HW121746   5.264   6.721   3.143
 6949SOL    HW221747   5.111   6.752   3.093
 6950SOL     OW21748   2.114   1.385   3.394
 6950SOL    HW121749   2.173   1.331   3.334
 6950SOL    HW221750   2.073   1.459   3.342
 6951SOL     OW21751   6.726   5.706   5.930
 6951SOL    HW121752   6.633   5.704   5.967
 6951SOL    HW221753   6.742   5.624   5.875
 6952SOL     OW21754   0.309   5.152   4.906
 6952SOL    HW121755   0.390   5.168   4.850
 6952SOL    HW221756   0.330   5.083   4.976
 6953SOL     OW21757   4.762   0.847   5.551
 6953SOL    HW121758   4.840   0.859   5.489
 6953SOL    HW221759   4.729   0.937   5.581
 6954SOL     OW21760   6.452   2.908   3.401
 6954SOL    HW121761   6.362   2.946   3.420
 6954SOL    HW221762   6.458   2.815   3.437
 6955SOL     OW21763   0.282   6.162   1.990
 6955SOL    HW121764   0.213   6.092   2.009
 6955SOL    HW221765   0.324   6.192   2.075
 6956SOL     OW21766   4.368   5.314   1.398
 6956SOL    HW121767   4.357   5.217   1.377
 6956SOL    HW221768   4.463   5.341   1.380
 6957SOL     OW21769   0.044   5.009   1.427
 6957SOL    HW121770   0.103   5.001   1.347
 6957SOL    HW221771   0.073   4.943   1.497
 6958SOL     OW21772   2.640   2.903   6.250
 6958SOL    HW121773   2.609   2.973   6.186
 6958SOL    HW221774   2.596   2.917   6.339
 6959SOL     OW21775   3.565   1.783   4.666
 6959SOL    HW121776   3.595   1.808   4.758
 6959SOL    HW221777   3.579   1.861   4.605
 6960SOL     OW21778   0.271   4.659   6.753
 6960SOL    HW121779   0.189   4.612   6.784
 6960SOL    HW221780   0.267   4.755   6.781
 6961SOL     OW21781   1.098   0.779   3.498
 6961SOL    HW121782   1.116   0.701   3.558
 6961SOL    HW221783   1.152   0.770   3.414
 6962SOL     OW21784   5.024   4.733   1.557
 6962SOL    HW121785   4.953   4.790   1.514
 6962SOL    HW221786   5.019   4.744   1.657
 6963SOL     OW21787   6.866   4.963   1.830
 6963SOL    HW121788   6.828   5.016   1.906
 6963SOL    HW221789   6.948   4.916   1.861
 6964SOL     OW21790   4.282   5.354   4.621
 6964SOL    HW121791   4.271   5.255   4.615
 6964SOL    HW221792   4.235   5.398   4.544
 6965SOL     OW21793   6.977   3.035   6.098
 6965SOL    HW121794   0.035   2.979   6.115
 6965SOL    HW221795   6.898   2.994   6.143
 6966SOL     OW21796   4.905   2.258   2.663
 6966SOL    HW121797   4.880   2.213   2.748
 6966SOL    HW221798   4.997   2.231   2.636
 6967SOL     OW21799   1.281   1.676   5.951
 6967SOL    HW121800   1.367   1.635   5.922
 6967SOL    HW221801   1.209   1.607   5.951
 6968SOL     OW21802   4.978   5.948   1.588
 6968SOL    HW121803   4.912   6.023   1.594
 6968SOL    HW221804   4.959   5.881   1.660
 6969SOL     OW21805   3.515   1.631   0.379
 6969SOL    HW121806   3.467   1.694   0.317
 6969SOL    HW221807   3.597   1.676   0.415
 6970SOL     OW21808   4.636   4.444   0.534
 6970SOL    HW121809   4.684   4.439   0.622
 6970SOL    HW221810   4.539   4.461   0.550
 6971SOL     OW21811   5.715   1.591   1.548
 6971SOL    HW121812   5.635   1.538   1.576
 6971SOL    HW221813   5.722   1.589   1.448
 6972SOL     OW21814   5.429   5.023   3.925
 6972SOL    HW121815   5.368   4.964   3.977
 6972SOL    HW221816   5.378   5.067   3.850
 6973SOL     OW21817   1.757   4.702   4.032
 6973SOL    HW121818   1.833   4.669   3.976
 6973SOL    HW221819   1.793   4.752   4.111
 6974SOL     OW21820   3.335   3.749   4.118
 6974SOL    HW121821   3.394   3.731   4.039
 6974SOL    HW221822   3.353   3.680   4.188
 6975SOL     OW21823   4.037   0.594   5.597
 6975SOL    HW121824   4.003   0.584   5.691
 6975SOL    HW221825   3.975   0.652   5.545
 6976SOL     OW21826   2.193   5.210   6.865
 6976SOL    HW121827   2.181   5.283   6.797
 6976SOL    HW221828   2.124   5.221   6.937
 6977SOL     OW21829   3.318   1.598   2.439
 6977SOL    HW121830   3.386   1.634   2.504
 6977SOL    HW221831   3.232   1.648   2.449
 6978SOL     OW21832   0.624   1.034   2.276
 6978SOL    HW121833   0.577   1.121   2.286
 6978SOL    HW221834   0.661   1.026   2.183
 6979SOL     OW21835   0.585   4.514   2.783
 6979SOL    HW121836   0.556   4.423   2.755
 6979SOL    HW221837   0.602   4.515   2.882
 6980SOL     OW21838   2.198   1.195   4.092
 6980SOL    HW121839   2.284   1.149   4.117
 6980SOL    HW221840   2.126   1.127   4.080
 6981SOL     OW21841   2.060   5.275   0.643
 6981SOL    HW121842   2.151   5.317   0.639
 6981SOL    HW221843   2.016   5.299   0.730
 6982SOL     OW21844   0.624   0.052   3.965
 6982SOL    HW121845   0.612   6.975   3.959
 6982SOL    HW221846   0.539   0.097   3.939
 6983SOL     OW21847   6.986   0.408   4.422
 6983SOL    HW121848   6.887   0.404   4.433
 6983SOL    HW221849   7.009   0.405   4.325
 6984SOL     OW21850   2.302   1.967   5.772
 6984SOL    HW121851   2.385   2.021   5.787
 6984SOL    HW221852   2.305   1.926   5.681
 6985SOL     OW21853   4.776   5.826   2.703
 6985SOL    HW121854   4.775   5.772   2.787
 6985SOL    HW221855   4.869   5.859   2.686
 6986SOL     OW21856   1.662   6.052   5.626
 6986SOL    HW121857   1.616   6.095   5.548
 6986SOL    HW221858   1.593   6.021   5.691
 6987SOL     OW21859   0.385   3.053   6.582
 6987SOL    HW121860   0.460   3.111   6.614
 6987SOL    HW221861   0.321   3.037   6.657
 6988SOL     OW21862   4.983   1.460   3.711
 6988SOL    HW121863   4.919   1.446   3.786
 6988SOL    HW221864   5.067   1.408   3.729
 6989SOL     OW21865   1.243   1.855   3.446
 6989SOL    HW121866   1.219   1.803   3.528
 6989SOL    HW221867   1.300   1.933   3.472
 6990SOL     OW21868   3.823   3.088   0.175
 6990SOL    HW121869   3.828   3.100   0.274
 6990SOL    HW221870   3.753   3.018   0.154
 6991SOL     OW21871   2.770   4.758   5.735
 6991SOL    HW121872   2.713   4.799   5.807
 6991SOL    HW221873   2.829   4.688   5.775
 6992SOL     OW21874   5.783   6.329   4.292
 6992SOL    HW121875   5.855   6.260   4.302
 6992SOL    HW221876   5.762   6.369   4.382
 6993SOL     OW21877   0.209   0.190   3.129
 6993SOL    HW121878   0.208   0.204   3.030
 6993SOL    HW221879   0.115   0.188   3.163
 6994SOL     OW21880   1.820   3.102   6.274
 6994SOL    HW121881   1.905   3.153   6.267
 6994SOL    HW221882   1.799   3.085   6.370
 6995SOL     OW21883   5.429   5.344   3.130
 6995SOL    HW121884   5.423   5.408   3.054
 6995SOL    HW221885   5.455   5.253   3.096
 6996SOL     OW21886   3.119   0.242   5.300
 6996SOL    HW121887   3.040   0.180   5.303
 6996SOL    HW221888   3.120   0.290   5.213
 6997SOL     OW21889   4.255   6.122   4.947
 6997SOL    HW121890   4.171   6.174   4.930
 6997SOL    HW221891   4.242   6.027   4.919
 6998SOL     OW21892   1.785   3.637   2.601
 6998SOL    HW121893   1.725   3.624   2.523
 6998SOL    HW221894   1.812   3.547   2.638
 6999SOL     OW21895   3.111   1.853   6.116
 6999SOL    HW121896   3.090   1.758   6.092
 6999SOL    HW221897   3.154   1.899   6.038
 7000SOL     OW21898   0.941   6.176   2.615
 7000SOL    HW121899   0.944   6.078   2.633
 7000SOL    HW221900   0.879   6.220   2.680
 7001SOL     OW21901   2.311   3.078   5.940
 7001SOL    HW121902   2.228   3.056   5.990
 7001SOL    HW221903   2.311   3.031   5.852
 7002SOL     OW21904   0.940   5.482   3.341
 7002SOL    HW121905   1.003   5.428   3.284
 7002SOL    HW221906   0.867   5.424   3.375
 7003SOL     OW21907   2.873   6.552   1.028
 7003SOL    HW121908   2.875   6.612   0.947
 7003SOL    HW221909   2.929   6.592   1.100
 7004SOL     OW21910   1.277   4.071   1.327
 7004SOL    HW121911   1.207   4.081   1.257
 7004SOL    HW221912   1.240   4.022   1.406
 7005SOL     OW21913   5.349   6.114   6.833
 7005SOL    HW121914   5.333   6.212   6.849
 7005SOL    HW221915   5.435   6.087   6.875
 7006SOL     OW21916   4.520   4.475   4.644
 7006SOL    HW121917   4.521   4.467   4.743
 7006SOL    HW221918   4.436   4.435   4.608
 7007SOL     OW21919   4.359   6.252   2.867
 7007SOL    HW121920   4.326   6.258   2.961
 7007SOL    HW221921   4.284   6.230   2.805
 7008SOL     OW21922   1.624   5.302   4.253
 7008SOL    HW121923   1.570   5.385   4.258
 7008SOL    HW221924   1.571   5.229   4.210
 7009SOL     OW21925   6.904   5.834   2.262
 7009SOL    HW121926   6.842   5.770   2.307
 7009SOL    HW221927   6.866   5.861   2.174
 7010SOL     OW21928   3.471   5.034   6.392
 7010SOL    HW121929   3.470   5.047   6.491
 7010SOL    HW221930   3.532   5.100   6.350
 7011SOL     OW21931   2.957   6.867   5.881
 7011SOL    HW121932   2.866   6.858   5.922
 7011SOL    HW221933   2.991   6.777   5.855
 7012SOL     OW21934   1.431   6.940   2.072
 7012SOL    HW121935   1.481   6.985   1.998
 7012SOL    HW221936   1.479   6.951   2.158
 7013SOL     OW21937   1.041   0.342   1.265
 7013SOL    HW121938   0.982   0.328   1.344
 7013SOL    HW221939   1.135   0.359   1.296
 7014SOL     OW21940   2.892   4.258   1.013
 7014SOL    HW121941   2.836   4.341   1.006
 7014SOL    HW221942   2.988   4.283   1.020
 7015SOL     OW21943   4.855   2.440   2.281
 7015SOL    HW121944   4.870   2.504   2.356
 7015SOL    HW221945   4.934   2.380   2.272
 7016SOL     OW21946   4.430   4.927   1.623
 7016SOL    HW121947   4.350   4.910   1.680
 7016SOL    HW221948   4.407   4.994   1.551
 7017SOL     OW21949   2.984   1.644   3.724
 7017SOL    HW121950   3.018   1.685   3.809
 7017SOL    HW221951   2.901   1.692   3.695
 7018SOL     OW21952   0.296   3.629   4.701
 7018SOL    HW121953   0.202   3.658   4.715
 7018SOL    HW221954   0.321   3.639   4.604
 7019SOL     OW21955   2.622   5.645   6.896
 7019SOL    HW121956   2.661   5.708   6.964
 7019SOL    HW221957   2.608   5.555   6.938
 7020SOL     OW21958   6.067   0.006   6.720
 7020SOL    HW121959   6.095   0.066   6.645
 7020SOL    HW221960   6.001   0.053   6.778
 7021SOL     OW21961   2.301   0.681   5.931
 7021SOL    HW121962   2.300   0.747   6.006
 7021SOL    HW221963   2.272   0.726   5.847
 7022SOL     OW21964   5.345   3.584   6.843
 7022SOL    HW121965   5.322   3.495   6.882
 7022SOL    HW221966   5.346   3.652   6.916
 7023SOL     OW21967   6.097   2.942   1.466
 7023SOL    HW121968   6.132   2.858   1.508
 7023SOL    HW221969   6.151   3.020   1.497
 7024SOL     OW21970   1.549   5.921   0.046
 7024SOL    HW121971   1.523   5.995   7.006
 7024SOL    HW221972   1.646   5.929   0.069
 7025SOL     OW21973   2.918   1.891   6.966
 7025SOL    HW121974   2.883   1.896   0.036
 7025SOL    HW221975   3.006   1.938   6.960
 7026SOL     OW21976   4.063   1.675   1.316
 7026SOL    HW121977   4.156   1.667   1.279
 7026SOL    HW221978   4.004   1.720   1.249
 7027SOL     OW21979   3.686   5.535   3.951
 7027SOL    HW121980   3.590   5.551   3.977
 7027SOL    HW221981   3.737   5.620   3.961
 7028SOL     OW21982   4.463   6.037   3.583
 7028SOL    HW121983   4.440   5.997   3.495
 7028SOL    HW221984   4.435   5.975   3.656
 7029SOL     OW21985   3.683   6.175   0.296
 7029SOL    HW121986   3.732   6.091   0.320
 7029SOL    HW221987   3.718   6.251   0.350
 7030SOL     OW21988   0.189   3.321   5.065
 7030SOL    HW121989   0.239   3.368   4.993
 7030SOL    HW221990   0.225   3.228   5.076
 7031SOL     OW21991   1.817   5.588   4.244
 7031SOL    HW121992   1.760   5.570   4.165
 7031SOL    HW221993   1.824   5.505   4.300
 7032SOL     OW21994   6.247   0.638   2.844
 7032SOL    HW121995   6.311   0.571   2.882
 7032SOL    HW221996   6.267   0.729   2.881
 7033SOL     OW21997   0.132   1.420   3.974
 7033SOL    HW121998   0.074   1.476   3.915
 7033SOL    HW221999   0.208   1.475   4.008
 7034SOL     OW22000   6.414   0.649   3.248
 7034SOL    HW122001   6.497   0.606   3.211
 7034SOL    HW222002   6.339   0.583   3.248
 7035SOL     OW22003   6.850   5.759   2.607
 7035SOL    HW122004   6.852   5.811   2.521
 7035SOL    HW222005   6.853   5.823   2.684
 7036SOL     OW22006   6.546   5.227   1.894
 7036SOL    HW122007   6.626   5.215   1.952
 7036SOL    HW222008   6.575   5.241   1.799
 7037SOL     OW22009   1.382   6.133   5.817
 7037SOL    HW122010   1.363   6.044   5.776
 7037SOL    HW222011   1.296   6.181   5.834
 7038SOL     OW22012   0.716   4.545   3.723
 7038SOL    HW122013   0.680   4.631   3.686
 7038SOL    HW222014   0.739   4.483   3.648
 7039SOL     OW22015   4.362   0.919   5.982
 7039SOL    HW122016   4.423   0.850   5.945
 7039SOL    HW222017   4.354   0.995   5.918
 7040SOL     OW22018   5.152   2.433   6.593
 7040SOL    HW122019   5.154   2.532   6.596
 7040SOL    HW222020   5.078   2.399   6.652
 7041SOL     OW22021   1.765   1.703   2.844
 7041SOL    HW122022   1.826   1.672   2.771
 7041SOL    HW222023   1.765   1.803   2.847
 7042SOL     OW22024   3.899   5.683   7.009
 7042SOL    HW122025   3.862   5.632   6.932
 7042SOL    HW222026   3.834   5.755   0.013
 7043SOL     OW22027   2.244   2.018   3.359
 7043SOL    HW122028   2.266   1.956   3.284
 7043SOL    HW222029   2.220   2.108   3.322
 7044SOL     OW22030   4.494   4.822   2.782
 7044SOL    HW122031   4.447   4.889   2.840
 7044SOL    HW222032   4.431   4.747   2.760
 7045SOL     OW22033   5.716   6.251   1.280
 7045SOL    HW122034   5.682   6.159   1.263
 7045SOL    HW222035   5.802   6.247   1.330
 7046SOL     OW22036   3.835   0.522   4.717
 7046SOL    HW122037   3.780   0.489   4.640
 7046SOL    HW222038   3.825   0.621   4.725
 7047SOL     OW22039   0.851   0.712   4.095
 7047SOL    HW122040   0.888   0.752   4.178
 7047SOL    HW222041   0.915   0.642   4.060
 7048SOL     OW22042   0.285   6.485   0.959
 7048SOL    HW122043   0.260   6.493   0.862
 7048SOL    HW222044   0.233   6.409   0.999
 7049SOL     OW22045   2.440   1.001   0.586
 7049SOL    HW122046   2.524   1.018   0.534
 7049SOL    HW222047   2.454   1.029   0.681
 7050SOL     OW22048   3.151   3.989   4.631
 7050SOL    HW122049   3.154   4.029   4.722
 7050SOL    HW222050   3.113   3.897   4.636
 7051SOL     OW22051   0.185   0.293   1.714
 7051SOL    HW122052   0.105   0.303   1.774
 7051SOL    HW222053   0.268   0.311   1.766
 7052SOL     OW22054   0.136   2.268   4.310
 7052SOL    HW122055   0.234   2.258   4.293
 7052SOL    HW222056   0.117   2.362   4.337
 7053SOL     OW22057   0.576   3.735   6.709
 7053SOL    HW122058   0.649   3.766   6.649
 7053SOL    HW222059   0.556   3.806   6.776
 7054SOL     OW22060   5.970   6.526   1.960
 7054SOL    HW122061   6.019   6.441   1.980
 7054SOL    HW222062   5.962   6.538   1.861
 7055SOL     OW22063   4.325   0.560   4.471
 7055SOL    HW122064   4.388   0.638   4.465
 7055SOL    HW222065   4.369   0.485   4.521
 7056SOL     OW22066   5.696   5.062   3.649
 7056SOL    HW122067   5.635   4.991   3.685
 7056SOL    HW222068   5.715   5.129   3.721
 7057SOL     OW22069   6.881   4.854   3.395
 7057SOL    HW122070   6.974   4.879   3.423
 7057SOL    HW222071   6.825   4.837   3.476
 7058SOL     OW22072   0.717   4.714   5.273
 7058SOL    HW122073   0.690   4.798   5.320
 7058SOL    HW222074   0.702   4.636   5.333
 7059SOL     OW22075   0.891   0.394   2.642
 7059SOL    HW122076   0.990   0.407   2.631
 7059SOL    HW222077   0.868   0.393   2.739
 7060SOL     OW22078   3.488   6.338   1.694
 7060SOL    HW122079   3.424   6.272   1.735
 7060SOL    HW222080   3.436   6.404   1.639
 7061SOL     OW22081   0.636   1.277   3.011
 7061SOL    HW122082   0.728   1.244   2.986
 7061SOL    HW222083   0.641   1.373   3.039
 7062SOL     OW22084   5.676   1.520   5.086
 7062SOL    HW122085   5.766   1.542   5.122
 7062SOL    HW222086   5.605   1.559   5.145
 7063SOL     OW22087   1.974   6.859   1.455
 7063SOL    HW122088   1.914   6.781   1.476
 7063SOL    HW222089   1.984   6.916   1.537
 7064SOL     OW22090   4.130   2.181   1.748
 7064SOL    HW122091   4.179   2.148   1.667
 7064SOL    HW222092   4.040   2.139   1.752
 7065SOL     OW22093   4.464   3.752   1.485
 7065SOL    HW122094   4.482   3.805   1.402
 7065SOL    HW222095   4.371   3.715   1.481
 7066SOL     OW22096   4.271   6.879   0.494
 7066SOL    HW122097   4.319   6.801   0.453
 7066SOL    HW222098   4.177   6.882   0.459
 7067SOL     OW22099   0.839   3.488   5.672
 7067SOL    HW122100   0.850   3.476   5.770
 7067SOL    HW222101   0.901   3.560   5.640
 7068SOL     OW22102   1.764   1.914   3.348
 7068SOL    HW122103   1.838   1.848   3.340
 7068SOL    HW222104   1.759   1.948   3.442
 7069SOL     OW22105   6.906   4.263   5.411
 7069SOL    HW122106   6.968   4.195   5.371
 7069SOL    HW222107   6.838   4.217   5.468
 7070SOL     OW22108   6.399   4.501   5.029
 7070SOL    HW122109   6.340   4.547   5.095
 7070SOL    HW222110   6.360   4.508   4.937
 7071SOL     OW22111   1.409   5.716   5.159
 7071SOL    HW122112   1.462   5.691   5.239
 7071SOL    HW222113   1.429   5.653   5.084
 7072SOL     OW22114   6.445   6.467   5.884
 7072SOL    HW122115   6.543   6.485   5.887
 7072SOL    HW222116   6.426   6.378   5.926
 7073SOL     OW22117   0.166   0.968   5.597
 7073SOL    HW122118   0.198   1.062   5.581
 7073SOL    HW222119   0.067   0.963   5.582
 7074SOL     OW22120   3.334   2.316   1.602
 7074SOL    HW122121   3.302   2.360   1.518
 7074SOL    HW222122   3.258   2.270   1.646
 7075SOL     OW22123   1.981   6.018   4.468
 7075SOL    HW122124   1.977   5.928   4.425
 7075SOL    HW222125   1.914   6.022   4.542
 7076SOL     OW22126   3.724   1.508   6.272
 7076SOL    HW122127   3.641   1.458   6.249
 7076SOL    HW222128   3.700   1.600   6.305
 7077SOL     OW22129   2.537   5.693   5.469
 7077SOL    HW122130   2.549   5.731   5.560
 7077SOL    HW222131   2.625   5.688   5.422
 7078SOL     OW22132   6.413   6.958   3.239
 7078SOL    HW122133   6.436   6.931   3.146
 7078SOL    HW222134   6.490   6.939   3.300
 7079SOL     OW22135   6.372   6.220   5.966
 7079SOL    HW122136   6.424   6.187   6.044
 7079SOL    HW222137   6.357   6.146   5.901
 7080SOL     OW22138   4.310   2.375   3.878
 7080SOL    HW122139   4.341   2.323   3.958
 7080SOL    HW222140   4.314   2.316   3.797
 7081SOL     OW22141   3.079   1.557   5.731
 7081SOL    HW122142   3.025   1.642   5.731
 7081SOL    HW222143   3.172   1.577   5.760
 7082SOL     OW22144   5.775   1.656   0.089
 7082SOL    HW122145   5.798   1.603   0.170
 7082SOL    HW222146   5.675   1.662   0.080
 7083SOL     OW22147   3.511   0.899   6.018
 7083SOL    HW122148   3.507   0.915   6.117
 7083SOL    HW222149   3.488   0.984   5.970
 7084SOL     OW22150   6.691   6.049   5.886
 7084SOL    HW122151   6.733   6.009   5.804
 7084SOL    HW222152   6.592   6.057   5.872
 7085SOL     OW22153   2.336   2.610   3.108
 7085SOL    HW122154   2.360   2.637   3.015
 7085SOL    HW222155   2.417   2.575   3.155
 7086SOL     OW22156   5.400   1.033   6.554
 7086SOL    HW122157   5.463   1.091   6.606
 7086SOL    HW222158   5.451   0.959   6.510
 7087SOL     OW22159   0.389   3.679   4.464
 7087SOL    HW122160   0.470   3.650   4.411
 7087SOL    HW222161   0.318   3.710   4.401
 7088SOL     OW22162   5.062   2.776   4.310
 7088SOL    HW122163   5.027   2.716   4.382
 7088SOL    HW222164   5.127   2.841   4.350
 7089SOL     OW22165   3.411   2.021   6.200
 7089SOL    HW122166   3.424   2.056   6.293
 7089SOL    HW222167   3.416   1.921   6.202
 7090SOL     OW22168   1.975   1.995   5.374
 7090SOL    HW122169   2.038   2.058   5.327
 7090SOL    HW222170   1.977   2.013   5.472
 7091SOL     OW22171   6.991   1.006   0.562
 7091SOL    HW122172   0.012   0.992   0.651
 7091SOL    HW222173   6.919   1.075   0.571
 7092SOL     OW22174   3.913   4.058   0.660
 7092SOL    HW122175   3.957   3.971   0.683
 7092SOL    HW222176   3.901   4.064   0.561
 7093SOL     OW22177   3.401   4.199   4.486
 7093SOL    HW122178   3.321   4.252   4.514
 7093SOL    HW222179   3.454   4.174   4.567
 7094SOL     OW22180   1.147   6.538   5.735
 7094SOL    HW122181   1.220   6.559   5.670
 7094SOL    HW222182   1.073   6.490   5.688
 7095SOL     OW22183   1.458   3.501   6.309
 7095SOL    HW122184   1.450   3.566   6.234
 7095SOL    HW222185   1.544   3.450   6.299
 7096SOL     OW22186   4.584   2.105   3.818
 7096SOL    HW122187   4.603   2.171   3.891
 7096SOL    HW222188   4.668   2.088   3.766
 7097SOL     OW22189   0.359   1.485   2.289
 7097SOL    HW122190   0.410   1.561   2.331
 7097SOL    HW222191   0.288   1.522   2.229
 7098SOL     OW22192   1.600   5.749   5.981
 7098SOL    HW122193   1.599   5.830   6.041
 7098SOL    HW222194   1.676   5.757   5.916
 7099SOL     OW22195   1.615   1.078   4.896
 7099SOL    HW122196   1.519   1.108   4.897
 7099SOL    HW222197   1.660   1.109   4.980
 7100SOL     OW22198   5.047   4.394   0.780
 7100SOL    HW122199   5.009   4.302   0.765
 7100SOL    HW222200   5.101   4.394   0.864
 7101SOL     OW22201   3.073   0.084   4.722
 7101SOL    HW122202   3.070   7.008   4.706
 7101SOL    HW222203   3.144   0.105   4.789
 7102SOL     OW22204   4.087   1.335   0.894
 7102SOL    HW122205   3.988   1.331   0.907
 7102SOL    HW222206   4.108   1.332   0.797
 7103SOL     OW22207   3.587   6.333   0.096
 7103SOL    HW122208   3.623   6.277   0.170
 7103SOL    HW222209   3.487   6.332   0.100
 7104SOL     OW22210   1.622   2.792   3.173
 7104SOL    HW122211   1.714   2.756   3.160
 7104SOL    HW222212   1.595   2.846   3.094
 7105SOL     OW22213   3.442   3.280   4.582
 7105SOL    HW122214   3.374   3.242   4.520
 7105SOL    HW222215   3.531   3.237   4.565
 7106SOL     OW22216   3.703   3.212   4.837
 7106SOL    HW122217   3.777   3.154   4.871
 7106SOL    HW222218   3.630   3.154   4.800
 7107SOL     OW22219   2.925   1.311   0.255
 7107SOL    HW122220   2.942   1.214   0.276
 7107SOL    HW222221   2.999   1.367   0.294
 7108SOL     OW22222   5.136   6.188   0.939
 7108SOL    HW122223   5.196   6.268   0.950
 7108SOL    HW222224   5.041   6.216   0.952
 7109SOL     OW22225   3.932   0.128   6.043
 7109SOL    HW122226   4.016   0.075   6.029
 7109SOL    HW222227   3.856   0.066   6.061
 7110SOL     OW22228   5.098   5.251   4.032
 7110SOL    HW122229   5.110   5.259   3.933
 7110SOL    HW222230   5.187   5.236   4.075
 7111SOL     OW22231   1.566   3.600   4.197
 7111SOL    HW122232   1.579   3.609   4.098
 7111SOL    HW222233   1.580   3.504   4.223
 7112SOL     OW22234   0.921   6.071   3.935
 7112SOL    HW122235   0.973   6.043   4.015
 7112SOL    HW222236   0.824   6.056   3.951
 7113SOL     OW22237   3.858   4.040   4.550
 7113SOL    HW122238   3.795   4.068   4.478
 7113SOL    HW222239   3.912   3.962   4.518
 7114SOL     OW22240   4.603   0.992   1.907
 7114SOL    HW122241   4.688   0.956   1.945
 7114SOL    HW222242   4.541   1.020   1.980
 7115SOL     OW22243   4.906   1.930   1.151
 7115SOL    HW122244   4.881   1.851   1.206
 7115SOL    HW222245   4.968   1.989   1.203
 7116SOL     OW22246   5.241   3.711   3.696
 7116SOL    HW122247   5.158   3.709   3.642
 7116SOL    HW222248   5.230   3.774   3.773
 7117SOL     OW22249   6.238   6.084   2.968
 7117SOL    HW122250   6.168   6.030   3.015
 7117SOL    HW222251   6.262   6.039   2.882
 7118SOL     OW22252   5.073   3.953   1.035
 7118SOL    HW122253   5.017   4.036   1.041
 7118SOL    HW222254   5.145   3.967   0.966
 7119SOL     OW22255   5.910   1.375   2.652
 7119SOL    HW122256   5.940   1.280   2.661
 7119SOL    HW222257   5.987   1.436   2.671
 7120SOL     OW22258   4.936   1.710   3.618
 7120SOL    HW122259   4.963   1.629   3.670
 7120SOL    HW222260   4.840   1.729   3.634
 7121SOL     OW22261   2.047   7.011   3.662
 7121SOL    HW122262   1.953   7.017   3.629
 7121SOL    HW222263   2.049   0.009   3.760
 7122SOL     OW22264   6.612   1.274   0.147
 7122SOL    HW122265   6.581   1.364   0.176
 7122SOL    HW222266   6.710   1.276   0.130
 7123SOL     OW22267   2.502   5.570   1.281
 7123SOL    HW122268   2.418   5.523   1.310
 7123SOL    HW222269   2.562   5.582   1.360
 7124SOL     OW22270   0.363   5.296   0.192
 7124SOL    HW122271   0.436   5.316   0.126
 7124SOL    HW222272   0.379   5.349   0.275
 7125SOL     OW22273   6.351   6.653   2.298
 7125SOL    HW122274   6.339   6.751   2.315
 7125SOL    HW222275   6.388   6.640   2.206
 7126SOL     OW22276   2.093   4.042   0.366
 7126SOL    HW122277   2.059   3.951   0.390
 7126SOL    HW222278   2.186   4.052   0.400
 7127SOL     OW22279   3.168   5.705   4.201
 7127SOL    HW122280   3.238   5.749   4.145
 7127SOL    HW222281   3.200   5.614   4.230
 7128SOL     OW22282   3.665   4.246   0.723
 7128SOL    HW122283   3.741   4.180   0.715
 7128SOL    HW222284   3.640   4.256   0.819
 7129SOL     OW22285   3.236   0.787   1.156
 7129SOL    HW122286   3.200   0.867   1.203
 7129SOL    HW222287   3.163   0.743   1.104
 7130SOL     OW22288   2.910   4.798   3.469
 7130SOL    HW122289   2.840   4.736   3.433
 7130SOL    HW222290   2.866   4.868   3.526
 7131SOL     OW22291   3.018   1.393   2.233
 7131SOL    HW122292   3.112   1.408   2.203
 7131SOL    HW222293   2.972   1.329   2.171
 7132SOL     OW22294   3.950   3.786   2.893
 7132SOL    HW122295   3.912   3.712   2.837
 7132SOL    HW222296   3.977   3.862   2.833
 7133SOL     OW22297   4.988   5.864   3.191
 7133SOL    HW122298   4.924   5.831   3.260
 7133SOL    HW222299   5.006   5.792   3.124
 7134SOL     OW22300   6.225   6.131   3.952
 7134SOL    HW122301   6.238   6.214   4.007
 7134SOL    HW222302   6.187   6.156   3.863
 7135SOL     OW22303   1.211   1.292   4.237
 7135SOL    HW122304   1.230   1.274   4.140
 7135SOL    HW222305   1.139   1.231   4.269
 7136SOL     OW22306   2.265   0.798   0.528
 7136SOL    HW122307   2.317   0.883   0.525
 7136SOL    HW222308   2.214   0.793   0.614
 7137SOL     OW22309   4.696   0.912   4.659
 7137SOL    HW122310   4.626   0.984   4.663
 7137SOL    HW222311   4.786   0.952   4.671
 7138SOL     OW22312   3.231   3.405   1.041
 7138SOL    HW122313   3.219   3.434   1.136
 7138SOL    HW222314   3.237   3.305   1.037
 7139SOL     OW22315   4.814   3.048   1.701
 7139SOL    HW122316   4.843   3.141   1.720
 7139SOL    HW222317   4.783   3.004   1.786
 7140SOL     OW22318   6.649   4.453   4.932
 7140SOL    HW122319   6.561   4.461   4.979
 7140SOL    HW222320   6.683   4.544   4.909
 7141SOL     OW22321   2.786   0.264   0.829
 7141SOL    HW122322   2.702   0.314   0.807
 7141SOL    HW222323   2.851   0.275   0.753
 7142SOL     OW22324   4.289   5.812   3.954
 7142SOL    HW122325   4.338   5.745   3.898
 7142SOL    HW222326   4.228   5.866   3.895
 7143SOL     OW22327   1.748   4.378   6.005
 7143SOL    HW122328   1.656   4.400   5.972
 7143SOL    HW222329   1.815   4.399   5.934
 7144SOL     OW22330   1.215   1.624   2.866
 7144SOL    HW122331   1.280   1.622   2.790
 7144SOL    HW222332   1.159   1.541   2.865
 7145SOL     OW22333   4.287   6.885   6.845
 7145SOL    HW122334   4.245   6.866   6.934
 7145SOL    HW222335   4.336   6.805   6.813
 7146SOL     OW22336   2.927   6.791   0.846
 7146SOL    HW122337   2.976   6.867   0.889
 7146SOL    HW222338   2.841   6.824   0.807
 7147SOL     OW22339   6.963   0.518   3.231
 7147SOL    HW122340   6.968   0.422   3.202
 7147SOL    HW222341   6.948   0.522   3.330
 7148SOL     OW22342   1.028   6.488   1.565
 7148SOL    HW122343   1.074   6.573   1.537
 7148SOL    HW222344   1.066   6.411   1.514
 7149SOL     OW22345   6.272   1.132   3.743
 7149SOL    HW122346   6.235   1.161   3.831
 7149SOL    HW222347   6.273   1.210   3.680
 7150SOL     OW22348   5.214   2.926   0.313
 7150SOL    HW122349   5.155   2.987   0.366
 7150SOL    HW222350   5.230   2.842   0.365
 7151SOL     OW22351   1.946   6.005   1.078
 7151SOL    HW122352   2.037   6.013   1.119
 7151SOL    HW222353   1.877   6.005   1.150
 7152SOL     OW22354   0.651   3.213   4.907
 7152SOL    HW122355   0.670   3.116   4.921
 7152SOL    HW222356   0.614   3.227   4.816
 7153SOL     OW22357   4.527   0.433   4.852
 7153SOL    HW122358   4.592   0.509   4.848
 7153SOL    HW222359   4.496   0.411   4.760
 7154SOL     OW22360   3.760   5.389   4.183
 7154SOL    HW122361   3.746   5.410   4.086
 7154SOL    HW222362   3.826   5.315   4.192
 7155SOL     OW22363   1.382   6.154   2.053
 7155SOL    HW122364   1.367   6.072   1.997
 7155SOL    HW222365   1.417   6.127   2.142
 7156SOL     OW22366   6.459   5.304   5.079
 7156SOL    HW122367   6.427   5.270   4.991
 7156SOL    HW222368   6.408   5.258   5.153
 7157SOL     OW22369   5.939   5.811   0.382
 7157SOL    HW122370   5.899   5.868   0.310
 7157SOL    HW222371   5.882   5.729   0.394
 7158SOL     OW22372   7.020   6.721   3.397
 7158SOL    HW122373   0.083   6.759   3.430
 7158SOL    HW222374   6.985   6.778   3.323
 7159SOL     OW22375   0.588   5.183   0.918
 7159SOL    HW122376   0.491   5.201   0.932
 7159SOL    HW222377   0.600   5.124   0.838
 7160SOL     OW22378   6.312   0.212   1.994
 7160SOL    HW122379   6.362   0.135   1.956
 7160SOL    HW222380   6.344   0.230   2.088
 7161SOL     OW22381   3.782   3.004   3.667
 7161SOL    HW122382   3.711   2.973   3.604
 7161SOL    HW222383   3.869   3.012   3.618
 7162SOL     OW22384   3.421   4.935   3.954
 7162SOL    HW122385   3.337   4.886   3.978
 7162SOL    HW222386   3.428   5.018   4.009
 7163SOL     OW22387   3.291   0.329   3.472
 7163SOL    HW122388   3.364   0.397   3.461
 7163SOL    HW222389   3.296   0.264   3.397
 7164SOL     OW22390   2.295   1.239   3.200
 7164SOL    HW122391   2.381   1.276   3.236
 7164SOL    HW222392   2.312   1.149   3.159
 7165SOL     OW22393   5.738   1.427   0.920
 7165SOL    HW122394   5.785   1.340   0.934
 7165SOL    HW222395   5.641   1.417   0.944
 7166SOL     OW22396   4.638   4.452   1.036
 7166SOL    HW122397   4.612   4.418   1.126
 7166SOL    HW222398   4.645   4.552   1.038
 7167SOL     OW22399   4.699   3.614   5.422
 7167SOL    HW122400   4.695   3.601   5.323
 7167SOL    HW222401   4.786   3.579   5.457
 7168SOL     OW22402   1.041   1.092   4.029
 7168SOL    HW122403   0.989   1.023   3.978
 7168SOL    HW222404   1.076   1.161   3.965
 7169SOL     OW22405   1.699   3.352   5.920
 7169SOL    HW122406   1.748   3.281   5.869
 7169SOL    HW222407   1.702   3.438   5.870
 7170SOL     OW22408   5.545   5.050   3.416
 7170SOL    HW122409   5.472   5.112   3.447
 7170SOL    HW222410   5.616   5.046   3.486
 7171SOL     OW22411   4.267   3.061   5.641
 7171SOL    HW122412   4.338   2.994   5.662
 7171SOL    HW222413   4.272   3.136   5.707
 7172SOL     OW22414   1.658   6.717   0.890
 7172SOL    HW122415   1.606   6.766   0.960
 7172SOL    HW222416   1.755   6.715   0.915
 7173SOL     OW22417   0.209   5.785   4.125
 7173SOL    HW122418   0.132   5.805   4.063
 7173SOL    HW222419   0.180   5.716   4.191
 7174SOL     OW22420   1.995   4.800   0.401
 7174SOL    HW122421   1.903   4.797   0.441
 7174SOL    HW222422   1.990   4.841   0.311
 7175SOL     OW22423   4.903   3.687   0.397
 7175SOL    HW122424   4.995   3.722   0.414
 7175SOL    HW222425   4.901   3.641   0.308
 7176SOL     OW22426   6.805   4.630   1.891
 7176SOL    HW122427   6.823   4.565   1.964
 7176SOL    HW222428   6.891   4.671   1.860
 7177SOL     OW22429   0.790   5.852   3.367
 7177SOL    HW122430   0.886   5.834   3.343
 7177SOL    HW222431   0.773   5.951   3.363
 7178SOL     OW22432   1.152   2.787   4.975
 7178SOL    HW122433   1.081   2.729   4.936
 7178SOL    HW222434   1.147   2.784   5.075
 7179SOL     OW22435   2.892   3.741   5.467
 7179SOL    HW122436   2.820   3.789   5.417
 7179SOL    HW222437   2.933   3.672   5.408
 7180SOL     OW22438   0.650   6.243   0.218
 7180SOL    HW122439   0.629   6.312   0.149
 7180SOL    HW222440   0.671   6.288   0.305
 7181SOL     OW22441   4.232   0.793   1.325
 7181SOL    HW122442   4.273   0.733   1.393
 7181SOL    HW222443   4.237   0.751   1.234
 7182SOL     OW22444   2.088   4.423   5.504
 7182SOL    HW122445   2.128   4.432   5.413
 7182SOL    HW222446   2.161   4.419   5.572
 7183SOL     OW22447   1.464   4.917   2.822
 7183SOL    HW122448   1.496   4.864   2.900
 7183SOL    HW222449   1.393   4.980   2.852
 7184SOL     OW22450   1.104   6.352   4.003
 7184SOL    HW122451   1.089   6.425   3.936
 7184SOL    HW222452   1.182   6.296   3.974
 7185SOL     OW22453   4.879   3.079   6.762
 7185SOL    HW122454   4.816   3.002   6.774
 7185SOL    HW222455   4.951   3.074   6.830
 7186SOL     OW22456   6.489   6.131   5.457
 7186SOL    HW122457   6.569   6.170   5.410
 7186SOL    HW222458   6.443   6.202   5.510
 7187SOL     OW22459   1.452   4.048   1.848
 7187SOL    HW122460   1.505   4.126   1.879
 7187SOL    HW222461   1.490   3.964   1.886
 7188SOL     OW22462   4.992   0.437   1.987
 7188SOL    HW122463   5.085   0.418   1.958
 7188SOL    HW222464   4.968   0.381   2.066
 7189SOL     OW22465   6.815   1.034   5.766
 7189SOL    HW122466   6.846   1.112   5.712
 7189SOL    HW222467   6.759   1.066   5.842
 7190SOL     OW22468   5.316   4.019   2.669
 7190SOL    HW122469   5.376   4.016   2.749
 7190SOL    HW222470   5.221   4.003   2.697
 7191SOL     OW22471   1.242   3.727   2.594
 7191SOL    HW122472   1.281   3.806   2.641
 7191SOL    HW222473   1.184   3.758   2.519
 7192SOL     OW22474   2.287   5.105   6.056
 7192SOL    HW122475   2.207   5.080   6.001
 7192SOL    HW222476   2.336   5.023   6.083
 7193SOL     OW22477   3.195   1.662   4.754
 7193SOL    HW122478   3.216   1.733   4.821
 7193SOL    HW222479   3.097   1.645   4.753
 7194SOL     OW22480   2.559   1.533   1.321
 7194SOL    HW122481   2.649   1.569   1.297
 7194SOL    HW222482   2.489   1.602   1.298
 7195SOL     OW22483   0.250   5.409   0.707
 7195SOL    HW122484   0.317   5.461   0.760
 7195SOL    HW222485   0.162   5.410   0.754
 7196SOL     OW22486   2.964   3.445   2.715
 7196SOL    HW122487   2.936   3.539   2.691
 7196SOL    HW222488   2.953   3.386   2.635
 7197SOL     OW22489   6.891   1.542   4.698
 7197SOL    HW122490   6.884   1.482   4.777
 7197SOL    HW222491   6.918   1.634   4.727
 7198SOL     OW22492   1.798   6.729   5.912
 7198SOL    HW122493   1.776   6.650   5.854
 7198SOL    HW222494   1.781   6.813   5.862
 7199SOL     OW22495   0.240   1.067   2.665
 7199SOL    HW122496   0.296   1.131   2.718
 7199SOL    HW222497   0.254   0.974   2.698
 7200SOL     OW22498   2.442   0.769   0.832
 7200SOL    HW122499   2.424   0.714   0.750
 7200SOL    HW222500   2.358   0.783   0.883
 7201SOL     OW22501   1.370   4.567   3.429
 7201SOL    HW122502   1.459   4.530   3.403
 7201SOL    HW222503   1.381   4.663   3.453
 7202SOL     OW22504   4.359   0.163   6.127
 7202SOL    HW122505   4.344   0.114   6.041
 7202SOL    HW222506   4.446   0.135   6.166
 7203SOL     OW22507   5.737   0.381   0.406
 7203SOL    HW122508   5.731   0.450   0.478
 7203SOL    HW222509   5.826   0.386   0.362
 7204SOL     OW22510   6.128   0.751   3.548
 7204SOL    HW122511   6.052   0.685   3.551
 7204SOL    HW222512   6.169   0.758   3.639
 7205SOL     OW22513   1.695   5.317   2.974
 7205SOL    HW122514   1.770   5.343   3.035
 7205SOL    HW222515   1.706   5.220   2.949
 7206SOL     OW22516   0.076   1.649   0.939
 7206SOL    HW122517   7.011   1.644   0.891
 7206SOL    HW222518   0.068   1.602   1.027
 7207SOL     OW22519   3.283   6.606   1.285
 7207SOL    HW122520   3.326   6.603   1.194
 7207SOL    HW222521   3.184   6.602   1.274
 7208SOL     OW22522   3.162   0.323   4.989
 7208SOL    HW122523   3.238   0.262   4.964
 7208SOL    HW222524   3.189   0.418   4.969
 7209SOL     OW22525   3.901   3.566   3.711
 7209SOL    HW122526   3.936   3.599   3.798
 7209SOL    HW222527   3.925   3.470   3.699
 7210SOL     OW22528   4.502   1.157   4.077
 7210SOL    HW122529   4.533   1.067   4.046
 7210SOL    HW222530   4.427   1.188   4.018
 7211SOL     OW22531   1.202   5.819   4.149
 7211SOL    HW122532   1.279   5.831   4.085
 7211SOL    HW222533   1.197   5.898   4.209
 7212SOL     OW22534   6.269   5.277   4.587
 7212SOL    HW122535   6.281   5.250   4.491
 7212SOL    HW222536   6.188   5.232   4.624
 7213SOL     OW22537   5.310   0.321   5.716
 7213SOL    HW122538   5.340   0.227   5.703
 7213SOL    HW222539   5.273   0.356   5.630
 7214SOL     OW22540   2.539   5.568   4.584
 7214SOL    HW122541   2.597   5.553   4.504
 7214SOL    HW222542   2.558   5.659   4.622
 7215SOL     OW22543   0.793   3.685   4.143
 7215SOL    HW122544   0.729   3.715   4.072
 7215SOL    HW222545   0.861   3.756   4.158
 7216SOL     OW22546   2.334   6.771   0.344
 7216SOL    HW122547   2.396   6.718   0.401
 7216SOL    HW222548   2.271   6.823   0.402
 7217SOL     OW22549   1.415   3.797   2.234
 7217SOL    HW122550   1.397   3.698   2.238
 7217SOL    HW222551   1.471   3.824   2.312
 7218SOL     OW22552   4.514   2.147   5.861
 7218SOL    HW122553   4.585   2.149   5.932
 7218SOL    HW222554   4.448   2.075   5.882
 7219SOL     OW22555   4.275   6.283   3.126
 7219SOL    HW122556   4.208   6.223   3.169
 7219SOL    HW222557   4.367   6.253   3.151
 7220SOL     OW22558   6.385   1.440   2.655
 7220SOL    HW122559   6.289   1.467   2.662
 7220SOL    HW222560   6.402   1.401   2.565
 7221SOL     OW22561   5.468   4.022   5.511
 7221SOL    HW122562   5.416   3.973   5.582
 7221SOL    HW222563   5.501   4.108   5.548
 7222SOL     OW22564   6.539   6.535   1.453
 7222SOL    HW122565   6.505   6.447   1.419
 7222SOL    HW222566   6.586   6.582   1.379
 7223SOL     OW22567   3.253   1.143   6.379
 7223SOL    HW122568   3.242   1.093   6.465
 7223SOL    HW222569   3.191   1.221   6.378
 7224SOL     OW22570   5.572   0.755   4.687
 7224SOL    HW122571   5.607   0.670   4.649
 7224SOL    HW222572   5.503   0.793   4.626
 7225SOL     OW22573   1.794   5.744   0.165
 7225SOL    HW122574   1.850   5.755   0.247
 7225SOL    HW222575   1.842   5.684   0.100
 7226SOL     OW22576   0.492   0.065   0.402
 7226SOL    HW122577   0.402   0.108   0.392
 7226SOL    HW222578   0.560   0.120   0.353
 7227SOL     OW22579   0.399   2.548   6.643
 7227SOL    HW122580   0.372   2.613   6.572
 7227SOL    HW222581   0.415   2.458   6.601
 7228SOL     OW22582   6.584   6.987   2.216
 7228SOL    HW122583   6.599   0.041   2.154
 7228SOL    HW222584   6.487   6.966   2.219
 7229SOL     OW22585   1.645   6.693   4.351
 7229SOL    HW122586   1.723   6.640   4.382
 7229SOL    HW222587   1.609   6.654   4.266
 7230SOL     OW22588   4.598   5.460   3.543
 7230SOL    HW122589   4.515   5.440   3.490
 7230SOL    HW222590   4.612   5.559   3.547
 7231SOL     OW22591   5.826   1.410   6.146
 7231SOL    HW122592   5.763   1.485   6.128
 7231SOL    HW222593   5.867   1.421   6.237
 7232SOL     OW22594   4.265   4.618   2.387
 7232SOL    HW122595   4.237   4.630   2.482
 7232SOL    HW222596   4.196   4.564   2.339
 7233SOL     OW22597   0.401   2.920   5.821
 7233SOL    HW122598   0.319   2.866   5.804
 7233SOL    HW222599   0.481   2.872   5.783
 7234SOL     OW22600   6.466   2.098   1.857
 7234SOL    HW122601   6.430   2.111   1.764
 7234SOL    HW222602   6.399   2.047   1.911
 7235SOL     OW22603   5.171   3.708   4.928
 7235SOL    HW122604   5.240   3.655   4.978
 7235SOL    HW222605   5.127   3.649   4.860
 7236SOL     OW22606   3.949   1.193   3.253
 7236SOL    HW122607   3.922   1.128   3.323
 7236SOL    HW222608   3.873   1.207   3.189
 7237SOL     OW22609   5.817   5.723   5.798
 7237SOL    HW122610   5.777   5.811   5.823
 7237SOL    HW222611   5.763   5.649   5.838
 7238SOL     OW22612   2.635   1.848   2.436
 7238SOL    HW122613   2.537   1.854   2.418
 7238SOL    HW222614   2.671   1.763   2.396
 7239SOL     OW22615   2.680   1.384   2.089
 7239SOL    HW122616   2.719   1.461   2.139
 7239SOL    HW222617   2.753   1.338   2.037
 7240SOL     OW22618   2.688   4.107   0.133
 7240SOL    HW122619   2.667   4.024   0.081
 7240SOL    HW222620   2.703   4.183   0.070
 7241SOL     OW22621   3.616   6.983   5.245
 7241SOL    HW122622   3.593   6.989   5.343
 7241SOL    HW222623   3.632   6.887   5.221
 7242SOL     OW22624   6.142   4.439   6.148
 7242SOL    HW122625   6.085   4.365   6.184
 7242SOL    HW222626   6.221   4.453   6.208
 7243SOL     OW22627   0.892   5.661   6.896
 7243SOL    HW122628   0.920   5.755   6.915
 7243SOL    HW222629   0.973   5.604   6.883
 7244SOL     OW22630   5.687   1.983   1.076
 7244SOL    HW122631   5.720   1.901   1.121
 7244SOL    HW222632   5.612   2.022   1.129
 7245SOL     OW22633   0.253   1.621   4.457
 7245SOL    HW122634   0.210   1.535   4.484
 7245SOL    HW222635   0.329   1.642   4.518
 7246SOL     OW22636   6.573   6.882   5.447
 7246SOL    HW122637   6.570   6.966   5.502
 7246SOL    HW222638   6.667   6.864   5.418
 7247SOL     OW22639   2.537   5.989   2.058
 7247SOL    HW122640   2.519   5.905   2.008
 7247SOL    HW222641   2.630   5.986   2.096
 7248SOL     OW22642   4.028   1.185   4.197
 7248SOL    HW122643   3.941   1.234   4.207
 7248SOL    HW222644   4.099   1.250   4.167
 7249SOL     OW22645   6.057   4.471   6.879
 7249SOL    HW122646   5.978   4.437   6.929
 7249SOL    HW222647   6.128   4.500   6.945
 7250SOL     OW22648   2.768   4.797   6.091
 7250SOL    HW122649   2.686   4.795   6.148
 7250SOL    HW222650   2.820   4.881   6.111
 7251SOL     OW22651   6.939   6.799   4.754
 7251SOL    HW122652   6.881   6.870   4.796
 7251SOL    HW222653   6.956   6.726   4.821
 7252SOL     OW22654   3.506   3.030   4.764
 7252SOL    HW122655   3.475   3.105   4.706
 7252SOL    HW222656   3.428   2.974   4.791
 7253SOL     OW22657   3.703   6.445   0.954
 7253SOL    HW122658   3.648   6.406   0.881
 7253SOL    HW222659   3.706   6.382   1.032
 7254SOL     OW22660   4.494   5.768   4.170
 7254SOL    HW122661   4.482   5.866   4.180
 7254SOL    HW222662   4.416   5.729   4.121
 7255SOL     OW22663   3.329   3.259   2.387
 7255SOL    HW122664   3.242   3.215   2.364
 7255SOL    HW222665   3.328   3.288   2.482
 7256SOL     OW22666   4.479   4.564   3.735
 7256SOL    HW122667   4.575   4.573   3.760
 7256SOL    HW222668   4.442   4.654   3.709
 7257SOL     OW22669   6.259   2.619   3.437
 7257SOL    HW122670   6.236   2.545   3.374
 7257SOL    HW222671   6.359   2.624   3.447
 7258SOL     OW22672   3.487   0.727   4.993
 7258SOL    HW122673   3.441   0.707   5.079
 7258SOL    HW222674   3.581   0.755   5.011
 7259SOL     OW22675   2.271   4.399   0.078
 7259SOL    HW122676   2.367   4.369   0.084
 7259SOL    HW222677   2.239   4.427   0.168
 7260SOL     OW22678   3.330   2.110   2.855
 7260SOL    HW122679   3.245   2.097   2.804
 7260SOL    HW222680   3.310   2.118   2.953
 7261SOL     OW22681   2.098   3.555   1.734
 7261SOL    HW122682   2.153   3.526   1.655
 7261SOL    HW222683   2.134   3.513   1.817
 7262SOL     OW22684   6.023   1.875   4.839
 7262SOL    HW122685   5.979   1.943   4.781
 7262SOL    HW222686   5.961   1.797   4.852
 7263SOL     OW22687   1.683   6.238   1.543
 7263SOL    HW122688   1.598   6.286   1.560
 7263SOL    HW222689   1.756   6.276   1.601
 7264SOL     OW22690   0.213   0.755   6.205
 7264SOL    HW122691   0.157   0.697   6.145
 7264SOL    HW222692   0.259   0.825   6.150
 7265SOL     OW22693   4.316   4.509   5.464
 7265SOL    HW122694   4.336   4.412   5.447
 7265SOL    HW222695   4.269   4.518   5.552
 7266SOL     OW22696   4.879   0.425   1.714
 7266SOL    HW122697   4.894   0.326   1.713
 7266SOL    HW222698   4.922   0.465   1.796
 7267SOL     OW22699   0.054   4.057   4.325
 7267SOL    HW122700   0.108   4.009   4.395
 7267SOL    HW222701   0.045   4.153   4.349
 7268SOL     OW22702   4.054   6.882   1.599
 7268SOL    HW122703   4.130   6.823   1.625
 7268SOL    HW222704   3.979   6.826   1.564
 7269SOL     OW22705   1.230   5.357   2.062
 7269SOL    HW122706   1.176   5.440   2.078
 7269SOL    HW222707   1.321   5.383   2.030
 7270SOL     OW22708   2.691   1.058   2.762
 7270SOL    HW122709   2.784   1.062   2.798
 7270SOL    HW222710   2.665   1.148   2.726
 7271SOL     OW22711   0.241   3.387   2.980
 7271SOL    HW122712   0.184   3.379   3.062
 7271SOL    HW222713   0.227   3.477   2.939
 7272SOL     OW22714   5.399   2.293   2.232
 7272SOL    HW122715   5.350   2.380   2.243
 7272SOL    HW222716   5.422   2.281   2.135
 7273SOL     OW22717   5.738   4.446   0.259
 7273SOL    HW122718   5.757   4.431   0.357
 7273SOL    HW222719   5.737   4.358   0.212
 7274SOL     OW22720   6.505   4.826   5.175
 7274SOL    HW122721   6.581   4.891   5.178
 7274SOL    HW222722   6.504   4.771   5.258
 7275SOL     OW22723   6.948   0.180   0.955
 7275SOL    HW122724   0.020   0.211   0.955
 7275SOL    HW222725   6.924   0.146   1.046
 7276SOL     OW22726   2.192   2.864   4.007
 7276SOL    HW122727   2.258   2.839   3.937
 7276SOL    HW222728   2.238   2.878   4.095
 7277SOL     OW22729   4.417   2.061   4.767
 7277SOL    HW122730   4.373   2.145   4.797
 7277SOL    HW222731   4.472   2.080   4.685
 7278SOL     OW22732   3.369   1.510   3.011
 7278SOL    HW122733   3.310   1.554   3.078
 7278SOL    HW222734   3.404   1.424   3.048
 7279SOL     OW22735   5.318   5.057   0.230
 7279SOL    HW122736   5.240   5.079   0.289
 7279SOL    HW222737   5.397   5.035   0.288
 7280SOL     OW22738   5.955   2.712   5.008
 7280SOL    HW122739   6.013   2.654   5.066
 7280SOL    HW222740   5.862   2.714   5.046
 7281SOL     OW22741   3.617   6.699   2.353
 7281SOL    HW122742   3.711   6.732   2.351
 7281SOL    HW222743   3.578   6.713   2.444
 7282SOL     OW22744   6.795   4.967   2.192
 7282SOL    HW122745   6.735   4.888   2.205
 7282SOL    HW222746   6.833   4.995   2.280
 7283SOL     OW22747   4.127   4.751   2.623
 7283SOL    HW122748   4.027   4.748   2.619
 7283SOL    HW222749   4.158   4.845   2.634
 7284SOL     OW22750   6.624   1.757   3.670
 7284SOL    HW122751   6.550   1.729   3.609
 7284SOL    HW222752   6.600   1.842   3.717
 7285SOL     OW22753   4.896   2.834   1.927
 7285SOL    HW122754   4.885   2.741   1.962
 7285SOL    HW222755   4.836   2.896   1.977
 7286SOL     OW22756   0.738   1.157   1.404
 7286SOL    HW122757   0.829   1.193   1.427
 7286SOL    HW222758   0.736   1.059   1.425
 7287SOL     OW22759   1.268   2.632   3.983
 7287SOL    HW122760   1.261   2.633   4.082
 7287SOL    HW222761   1.357   2.668   3.955
 7288SOL     OW22762   3.006   2.207   3.234
 7288SOL    HW122763   3.092   2.195   3.283
 7288SOL    HW222764   2.943   2.260   3.291
 7289SOL     OW22765   6.287   2.799   0.758
 7289SOL    HW122766   6.378   2.838   0.776
 7289SOL    HW222767   6.266   2.732   0.829
 7290SOL     OW22768   3.157   1.888   5.513
 7290SOL    HW122769   3.093   1.912   5.440
 7290SOL    HW222770   3.211   1.809   5.485
 7291SOL     OW22771   4.486   1.488   0.472
 7291SOL    HW122772   4.518   1.525   0.385
 7291SOL    HW222773   4.565   1.472   0.532
 7292SOL     OW22774   2.651   0.337   2.329
 7292SOL    HW122775   2.646   0.426   2.283
 7292SOL    HW222776   2.587   0.335   2.406
 7293SOL     OW22777   1.317   0.515   5.479
 7293SOL    HW122778   1.378   0.572   5.424
 7293SOL    HW222779   1.260   0.459   5.419
 7294SOL     OW22780   2.316   6.141   1.747
 7294SOL    HW122781   2.343   6.224   1.797
 7294SOL    HW222782   2.398   6.091   1.720
 7295SOL     OW22783   5.918   5.302   2.321
 7295SOL    HW122784   5.856   5.248   2.378
 7295SOL    HW222785   5.869   5.336   2.241
 7296SOL     OW22786   5.157   4.968   2.267
 7296SOL    HW122787   5.090   4.911   2.314
 7296SOL    HW222788   5.232   4.989   2.329
 7297SOL     OW22789   3.906   6.659   1.496
 7297SOL    HW122790   3.927   6.645   1.400
 7297SOL    HW222791   3.815   6.624   1.516
 7298SOL     OW22792   4.673   5.388   6.953
 7298SOL    HW122793   4.748   5.338   6.997
 7298SOL    HW222794   4.709   5.470   6.908
 7299SOL     OW22795   1.726   2.841   0.036
 7299SOL    HW122796   1.662   2.915   0.016
 7299SOL    HW222797   1.734   2.781   6.980
 7300SOL     OW22798   0.472   5.410   2.013
 7300SOL    HW122799   0.432   5.476   1.950
 7300SOL    HW222800   0.571   5.408   1.999
 7301SOL     OW22801   5.356   6.891   5.901
 7301SOL    HW122802   5.368   6.954   5.978
 7301SOL    HW222803   5.445   6.860   5.869
 7302SOL     OW22804   5.347   1.195   6.274
 7302SOL    HW122805   5.356   1.161   6.367
 7302SOL    HW222806   5.411   1.270   6.259
 7303SOL     OW22807   2.875   1.298   1.237
 7303SOL    HW122808   2.885   1.351   1.321
 7303SOL    HW222809   2.901   1.354   1.159
 7304SOL     OW22810   2.635   5.825   1.751
 7304SOL    HW122811   2.561   5.774   1.796
 7304SOL    HW222812   2.720   5.815   1.802
 7305SOL     OW22813   6.339   1.994   0.788
 7305SOL    HW122814   6.317   1.899   0.765
 7305SOL    HW222815   6.400   1.995   0.867
 7306SOL     OW22816   2.432   2.128   1.391
 7306SOL    HW122817   2.494   2.179   1.332
 7306SOL    HW222818   2.479   2.101   1.475
 7307SOL     OW22819   1.918   0.233   1.867
 7307SOL    HW122820   1.869   0.312   1.829
 7307SOL    HW222821   2.016   0.253   1.870
 7308SOL     OW22822   5.294   1.105   3.011
 7308SOL    HW122823   5.349   1.083   3.092
 7308SOL    HW222824   5.338   1.178   2.959
 7309SOL     OW22825   1.435   5.430   2.928
 7309SOL    HW122826   1.530   5.407   2.952
 7309SOL    HW222827   1.434   5.470   2.836
 7310SOL     OW22828   2.228   2.748   6.594
 7310SOL    HW122829   2.277   2.833   6.577
 7310SOL    HW222830   2.167   2.759   6.673
 7311SOL     OW22831   0.062   6.711   6.329
 7311SOL    HW122832   0.072   6.612   6.338
 7311SOL    HW222833   7.002   6.741   6.375
 7312SOL     OW22834   6.875   1.917   4.442
 7312SOL    HW122835   6.805   1.925   4.514
 7312SOL    HW222836   6.874   1.824   4.406
 7313SOL     OW22837   3.246   0.969   1.770
 7313SOL    HW122838   3.344   0.947   1.772
 7313SOL    HW222839   3.210   0.967   1.863
 7314SOL     OW22840   0.018   3.697   0.039
 7314SOL    HW122841   0.042   3.788   0.004
 7314SOL    HW222842   0.094   3.634   0.022
 7315SOL     OW22843   1.210   4.367   2.698
 7315SOL    HW122844   1.138   4.377   2.629
 7315SOL    HW222845   1.168   4.358   2.789
 7316SOL     OW22846   3.194   2.074   1.067
 7316SOL    HW122847   3.119   2.014   1.095
 7316SOL    HW222848   3.269   2.065   1.132
 7317SOL     OW22849   3.998   1.882   1.496
 7317SOL    HW122850   4.032   1.970   1.464
 7317SOL    HW222851   4.001   1.816   1.421
 7318SOL     OW22852   4.344   6.629   0.370
 7318SOL    HW122853   4.323   6.598   0.277
 7318SOL    HW222854   4.417   6.573   0.408
 7319SOL     OW22855   6.101   4.248   6.694
 7319SOL    HW122856   6.099   4.335   6.743
 7319SOL    HW222857   6.056   4.178   6.749
 7320SOL     OW22858   6.848   2.690   1.836
 7320SOL    HW122859   6.832   2.598   1.872
 7320SOL    HW222860   6.869   2.685   1.739
 7321SOL     OW22861   1.599   0.138   6.955
 7321SOL    HW122862   1.611   0.098   6.864
 7321SOL    HW222863   1.510   0.111   6.992
 7322SOL     OW22864   0.753   2.564   2.518
 7322SOL    HW122865   0.786   2.572   2.612
 7322SOL    HW222866   0.681   2.632   2.502
 7323SOL     OW22867   1.441   2.393   1.377
 7323SOL    HW122868   1.456   2.440   1.291
 7323SOL    HW222869   1.343   2.382   1.393
 7324SOL     OW22870   5.303   5.245   3.476
 7324SOL    HW122871   5.218   5.250   3.424
 7324SOL    HW222872   5.367   5.314   3.443
 7325SOL     OW22873   4.747   0.851   6.062
 7325SOL    HW122874   4.713   0.768   6.105
 7325SOL    HW222875   4.726   0.930   6.120
 7326SOL     OW22876   3.352   0.428   0.024
 7326SOL    HW122877   3.253   0.428   0.036
 7326SOL    HW222878   3.385   0.334   0.016
 7327SOL     OW22879   6.888   3.396   3.041
 7327SOL    HW122880   6.823   3.323   3.018
 7327SOL    HW222881   6.976   3.356   3.066
 7328SOL     OW22882   4.330   4.753   4.853
 7328SOL    HW122883   4.309   4.687   4.925
 7328SOL    HW222884   4.403   4.814   4.883
 7329SOL     OW22885   2.938   3.030   0.929
 7329SOL    HW122886   2.988   3.053   0.845
 7329SOL    HW222887   2.911   3.114   0.976
 7330SOL     OW22888   3.012   3.229   1.398
 7330SOL    HW122889   2.988   3.282   1.479
 7330SOL    HW222890   2.929   3.211   1.344
 7331SOL     OW22891   4.745   0.508   3.148
 7331SOL    HW122892   4.790   0.597   3.157
 7331SOL    HW222893   4.646   0.521   3.145
 7332SOL     OW22894   2.949   5.090   6.466
 7332SOL    HW122895   3.017   5.050   6.406
 7332SOL    HW222896   2.888   5.149   6.412
 7333SOL     OW22897   6.766   2.238   0.990
 7333SOL    HW122898   6.685   2.277   0.946
 7333SOL    HW222899   6.766   2.261   1.087
 7334SOL     OW22900   2.715   0.065   4.955
 7334SOL    HW122901   2.619   0.063   4.982
 7334SOL    HW222902   2.721   0.078   4.856
 7335SOL     OW22903   6.989   2.830   2.046
 7335SOL    HW122904   0.039   2.856   1.981
 7335SOL    HW222905   6.911   2.793   1.995
 7336SOL     OW22906   1.484   6.503   1.526
 7336SOL    HW122907   1.451   6.547   1.443
 7336SOL    HW222908   1.410   6.498   1.593
 7337SOL     OW22909   2.076   2.554   2.843
 7337SOL    HW122910   2.010   2.626   2.821
 7337SOL    HW222911   2.166   2.594   2.856
 7338SOL     OW22912   5.763   3.045   1.426
 7338SOL    HW122913   5.806   2.958   1.402
 7338SOL    HW222914   5.667   3.043   1.397
 7339SOL     OW22915   6.344   4.928   4.568
 7339SOL    HW122916   6.295   4.977   4.640
 7339SOL    HW222917   6.356   4.832   4.595
 7340SOL     OW22918   2.883   0.429   0.235
 7340SOL    HW122919   2.804   0.455   0.180
 7340SOL    HW222920   2.852   0.374   0.313
 7341SOL     OW22921   6.063   4.824   3.712
 7341SOL    HW122922   6.005   4.790   3.786
 7341SOL    HW222923   6.059   4.760   3.635
 7342SOL     OW22924   0.048   6.873   0.215
 7342SOL    HW122925   6.986   6.825   0.189
 7342SOL    HW222926   0.028   6.938   0.288
 7343SOL     OW22927   6.212   3.391   2.179
 7343SOL    HW122928   6.144   3.429   2.241
 7343SOL    HW222929   6.169   3.322   2.121
 7344SOL     OW22930   1.621   6.319   0.064
 7344SOL    HW122931   1.685   6.379   0.016
 7344SOL    HW222932   1.601   6.358   0.154
 7345SOL     OW22933   3.747   5.537   6.811
 7345SOL    HW122934   3.777   5.604   6.743
 7345SOL    HW222935   3.753   5.445   6.773
 7346SOL     OW22936   3.921   4.777   1.908
 7346SOL    HW122937   3.977   4.706   1.866
 7346SOL    HW222938   3.946   4.786   2.005
 7347SOL     OW22939   6.515   1.769   2.410
 7347SOL    HW122940   6.544   1.707   2.483
 7347SOL    HW222941   6.595   1.808   2.365
 7348SOL     OW22942   1.552   1.763   3.248
 7348SOL    HW122943   1.463   1.808   3.257
 7348SOL    HW222944   1.621   1.817   3.296
 7349SOL     OW22945   3.327   1.474   1.159
 7349SOL    HW122946   3.365   1.450   1.248
 7349SOL    HW222947   3.402   1.499   1.097
 7350SOL     OW22948   2.065   1.923   3.590
 7350SOL    HW122949   2.112   1.946   3.504
 7350SOL    HW222950   2.020   1.834   3.581
 7351SOL     OW22951   4.710   4.386   6.579
 7351SOL    HW122952   4.707   4.414   6.483
 7351SOL    HW222953   4.803   4.397   6.614
 7352SOL     OW22954   0.944   1.715   2.621
 7352SOL    HW122955   0.945   1.789   2.554
 7352SOL    HW222956   1.017   1.650   2.601
 7353SOL     OW22957   5.552   1.818   4.391
 7353SOL    HW122958   5.592   1.847   4.478
 7353SOL    HW222959   5.623   1.818   4.320
 7354SOL     OW22960   6.055   5.234   5.696
 7354SOL    HW122961   6.083   5.138   5.690
 7354SOL    HW222962   5.963   5.243   5.656
 7355SOL     OW22963   1.766   5.282   1.689
 7355SOL    HW122964   1.818   5.284   1.604
 7355SOL    HW222965   1.774   5.370   1.735
 7356SOL     OW22966   6.051   1.438   5.972
 7356SOL    HW122967   5.971   1.438   6.032
 7356SOL    HW222968   6.095   1.528   5.975
 7357SOL     OW22969   6.104   1.855   0.326
 7357SOL    HW122970   6.052   1.790   0.382
 7357SOL    HW222971   6.137   1.929   0.385
 7358SOL     OW22972   3.239   0.989   4.002
 7358SOL    HW122973   3.279   0.899   3.986
 7358SOL    HW222974   3.148   0.979   4.043
 7359SOL     OW22975   4.087   3.514   3.460
 7359SOL    HW122976   4.007   3.567   3.429
 7359SOL    HW222977   4.138   3.481   3.380
 7360SOL     OW22978   0.700   2.509   4.904
 7360SOL    HW122979   0.668   2.604   4.914
 7360SOL    HW222980   0.647   2.450   4.965
 7361SOL     OW22981   5.345   5.967   2.108
 7361SOL    HW122982   5.335   5.985   2.206
 7361SOL    HW222983   5.429   5.914   2.092
 7362SOL     OW22984   2.151   5.859   5.939
 7362SOL    HW122985   2.053   5.870   5.923
 7362SOL    HW222986   2.182   5.773   5.901
 7363SOL     OW22987   5.033   3.464   6.685
 7363SOL    HW122988   4.947   3.488   6.642
 7363SOL    HW222989   5.106   3.524   6.651
 7364SOL     OW22990   4.529   6.432   1.258
 7364SOL    HW122991   4.535   6.333   1.258
 7364SOL    HW222992   4.604   6.470   1.311
 7365SOL     OW22993   2.896   0.219   2.350
 7365SOL    HW122994   2.878   0.126   2.380
 7365SOL    HW222995   2.809   0.263   2.325
 7366SOL     OW22996   0.305   5.410   6.899
 7366SOL    HW122997   0.334   5.446   6.810
 7366SOL    HW222998   0.238   5.472   6.940
 7367SOL     OW22999   5.036   4.028   1.583
 7367SOL    HW123000   5.109   3.963   1.605
 7367SOL    HW223001   4.949   3.995   1.620
 7368SOL     OW23002   3.185   3.320   4.804
 7368SOL    HW123003   3.095   3.331   4.762
 7368SOL    HW223004   3.179   3.337   4.903
 7369SOL     OW23005   4.776   3.917   0.449
 7369SOL    HW123006   4.801   3.828   0.410
 7369SOL    HW223007   4.737   3.975   0.377
 7370SOL     OW23008   2.614   6.796   0.699
 7370SOL    HW123009   2.573   6.781   0.609
 7370SOL    HW223010   2.541   6.805   0.768
 7371SOL     OW23011   2.793   5.043   4.000
 7371SOL    HW123012   2.806   4.944   4.007
 7371SOL    HW223013   2.748   5.077   4.082
 7372SOL     OW23014   3.674   0.598   5.603
 7372SOL    HW123015   3.595   0.647   5.563
 7372SOL    HW223016   3.641   0.530   5.668
 7373SOL     OW23017   3.786   0.831   2.229
 7373SOL    HW123018   3.686   0.832   2.224
 7373SOL    HW223019   3.818   0.736   2.223
 7374SOL     OW23020   1.591   3.204   6.496
 7374SOL    HW123021   1.561   3.220   6.590
 7374SOL    HW223022   1.558   3.115   6.465
 7375SOL     OW23023   0.984   0.835   4.306
 7375SOL    HW123024   0.956   0.794   4.393
 7375SOL    HW223025   0.995   0.934   4.318
 7376SOL     OW23026   2.152   3.629   6.833
 7376SOL    HW123027   2.064   3.581   6.840
 7376SOL    HW223028   2.149   3.712   6.890
 7377SOL     OW23029   4.709   4.371   1.862
 7377SOL    HW123030   4.678   4.461   1.832
 7377SOL    HW223031   4.635   4.325   1.913
 7378SOL     OW23032   0.006   1.058   5.136
 7378SOL    HW123033   0.092   1.094   5.174
 7378SOL    HW223034   7.021   1.086   5.040
 7379SOL     OW23035   4.193   1.348   2.600
 7379SOL    HW123036   4.184   1.398   2.514
 7379SOL    HW223037   4.277   1.294   2.598
 7380SOL     OW23038   0.459   3.222   5.980
 7380SOL    HW123039   0.465   3.303   6.039
 7380SOL    HW223040   0.536   3.221   5.917
 7381SOL     OW23041   4.843   2.111   2.201
 7381SOL    HW123042   4.827   2.026   2.252
 7381SOL    HW223043   4.786   2.184   2.238
 7382SOL     OW23044   6.638   4.951   4.748
 7382SOL    HW123045   6.690   4.930   4.665
 7382SOL    HW223046   6.663   5.042   4.782
 7383SOL     OW23047   6.884   6.233   3.553
 7383SOL    HW123048   6.812   6.177   3.595
 7383SOL    HW223049   6.914   6.302   3.619
 7384SOL     OW23050   5.194   6.827   2.254
 7384SOL    HW123051   5.178   6.830   2.352
 7384SOL    HW223052   5.123   6.880   2.207
 7385SOL     OW23053   4.747   6.382   1.451
 7385SOL    HW123054   4.822   6.398   1.386
 7385SOL    HW223055   4.778   6.319   1.522
 7386SOL     OW23056   0.605   2.256   5.390
 7386SOL    HW123057   0.517   2.297   5.412
 7386SOL    HW223058   0.593   2.160   5.365
 7387SOL     OW23059   3.597   5.165   3.899
 7387SOL    HW123060   3.631   5.077   3.868
 7387SOL    HW223061   3.634   5.238   3.841
 7388SOL     OW23062   6.456   4.836   3.466
 7388SOL    HW123063   6.522   4.860   3.539
 7388SOL    HW223064   6.499   4.851   3.377
 7389SOL     OW23065   1.686   4.296   6.482
 7389SOL    HW123066   1.681   4.244   6.397
 7389SOL    HW223067   1.692   4.232   6.559
 7390SOL     OW23068   1.113   0.135   5.517
 7390SOL    HW123069   1.169   0.053   5.520
 7390SOL    HW223070   1.123   0.186   5.603
 7391SOL     OW23071   6.274   3.158   6.451
 7391SOL    HW123072   6.179   3.182   6.468
 7391SOL    HW223073   6.297   3.175   6.355
 7392SOL     OW23074   1.432   5.143   4.136
 7392SOL    HW123075   1.418   5.051   4.099
 7392SOL    HW223076   1.362   5.205   4.100
 7393SOL     OW23077   6.800   4.819   2.576
 7393SOL    HW123078   6.752   4.803   2.490
 7393SOL    HW223079   6.814   4.732   2.624
 7394SOL     OW23080   4.106   3.480   6.849
 7394SOL    HW123081   4.174   3.431   6.903
 7394SOL    HW223082   4.027   3.421   6.832
 7395SOL     OW23083   1.020   0.442   0.184
 7395SOL    HW123084   0.930   0.402   0.166
 7395SOL    HW223085   1.086   0.404   0.119
 7396SOL     OW23086   1.113   6.618   6.417
 7396SOL    HW123087   1.174   6.538   6.416
 7396SOL    HW223088   1.074   6.629   6.508
 7397SOL     OW23089   6.799   4.709   5.208
 7397SOL    HW123090   6.832   4.794   5.248
 7397SOL    HW223091   6.750   4.729   5.123
 7398SOL     OW23092   4.722   4.168   4.147
 7398SOL    HW123093   4.732   4.072   4.120
 7398SOL    HW223094   4.729   4.175   4.246
 7399SOL     OW23095   5.092   3.786   6.320
 7399SOL    HW123096   5.006   3.835   6.329
 7399SOL    HW223097   5.164   3.850   6.292
 7400SOL     OW23098   2.703   5.210   6.855
 7400SOL    HW123099   2.686   5.130   6.912
 7400SOL    HW223100   2.801   5.228   6.851
 7401SOL     OW23101   0.114   1.887   3.998
 7401SOL    HW123102   0.205   1.919   4.025
 7401SOL    HW223103   0.075   1.832   4.072
 7402SOL     OW23104   2.836   0.511   3.704
 7402SOL    HW123105   2.893   0.581   3.747
 7402SOL    HW223106   2.871   0.421   3.726
 7403SOL     OW23107   2.189   3.779   3.261
 7403SOL    HW123108   2.284   3.785   3.290
 7403SOL    HW223109   2.159   3.684   3.264
 7404SOL     OW23110   1.330   0.530   1.132
 7404SOL    HW123111   1.332   0.464   1.207
 7404SOL    HW223112   1.418   0.577   1.126
 7405SOL     OW23113   2.892   5.054   6.030
 7405SOL    HW123114   2.825   5.059   5.957
 7405SOL    HW223115   2.942   5.140   6.036
 7406SOL     OW23116   1.004   4.432   2.460
 7406SOL    HW123117   1.027   4.343   2.421
 7406SOL    HW223118   0.914   4.426   2.505
 7407SOL     OW23119   1.650   6.059   5.949
 7407SOL    HW123120   1.596   6.053   6.032
 7407SOL    HW223121   1.590   6.075   5.870
 7408SOL     OW23122   1.489   4.517   5.695
 7408SOL    HW123123   1.461   4.610   5.669
 7408SOL    HW223124   1.589   4.513   5.701
 7409SOL     OW23125   1.820   6.668   4.775
 7409SOL    HW123126   1.822   6.744   4.710
 7409SOL    HW223127   1.877   6.593   4.742
 7410SOL     OW23128   6.981   5.429   1.394
 7410SOL    HW123129   6.918   5.354   1.374
 7410SOL    HW223130   0.052   5.397   1.386
 7411SOL     OW23131   3.148   5.991   4.537
 7411SOL    HW123132   3.165   5.987   4.635
 7411SOL    HW223133   3.058   5.954   4.517
 7412SOL     OW23134   1.528   1.050   0.907
 7412SOL    HW123135   1.485   0.971   0.952
 7412SOL    HW223136   1.460   1.122   0.896
 7413SOL     OW23137   5.991   4.125   4.786
 7413SOL    HW123138   5.984   4.222   4.808
 7413SOL    HW223139   6.073   4.109   4.730
 7414SOL     OW23140   6.328   6.929   2.272
 7414SOL    HW123141   6.263   6.951   2.198
 7414SOL    HW223142   6.277   6.908   2.355
 7415SOL     OW23143   2.010   3.310   3.179
 7415SOL    HW123144   2.039   3.395   3.223
 7415SOL    HW223145   1.959   3.254   3.245
 7416SOL     OW23146   3.744   1.131   4.015
 7416SOL    HW123147   3.645   1.118   4.016
 7416SOL    HW223148   3.765   1.228   4.022
 7417SOL     OW23149   1.145   6.535   0.088
 7417SOL    HW123150   1.216   6.595   0.125
 7417SOL    HW223151   1.166   6.440   0.111
 7418SOL     OW23152   2.794   3.612   1.300
 7418SOL    HW123153   2.778   3.708   1.278
 7418SOL    HW223154   2.830   3.604   1.393
 7419SOL     OW23155   6.058   1.016   5.136
 7419SOL    HW123156   6.030   0.938   5.193
 7419SOL    HW223157   6.151   1.001   5.103
 7420SOL     OW23158   6.738   5.920   2.040
 7420SOL    HW123159   6.793   5.900   1.959
 7420SOL    HW223160   6.729   6.019   2.051
 7421SOL     OW23161   3.737   4.138   1.525
 7421SOL    HW123162   3.798   4.177   1.593
 7421SOL    HW223163   3.765   4.044   1.505
 7422SOL     OW23164   6.636   3.385   0.078
 7422SOL    HW123165   6.662   3.404   0.173
 7422SOL    HW223166   6.588   3.297   0.073
 7423SOL     OW23167   1.359   4.879   5.972
 7423SOL    HW123168   1.373   4.781   5.988
 7423SOL    HW223169   1.367   4.928   6.059
 7424SOL     OW23170   5.470   0.956   4.380
 7424SOL    HW123171   5.405   0.914   4.443
 7424SOL    HW223172   5.530   0.886   4.343
 7425SOL     OW23173   3.294   5.202   6.137
 7425SOL    HW123174   3.341   5.268   6.078
 7425SOL    HW223175   3.341   5.196   6.225
 7426SOL     OW23176   1.176   1.187   6.279
 7426SOL    HW123177   1.080   1.212   6.266
 7426SOL    HW223178   1.205   1.212   6.371
 7427SOL     OW23179   3.592   5.374   4.963
 7427SOL    HW123180   3.636   5.365   4.874
 7427SOL    HW223181   3.510   5.431   4.955
 7428SOL     OW23182   3.575   2.458   5.932
 7428SOL    HW123183   3.535   2.373   5.967
 7428SOL    HW223184   3.659   2.479   5.982
 7429SOL     OW23185   0.240   0.564   2.784
 7429SOL    HW123186   0.293   0.561   2.868
 7429SOL    HW223187   0.149   0.528   2.800
 7430SOL     OW23188   6.630   3.780   5.537
 7430SOL    HW123189   6.653   3.835   5.457
 7430SOL    HW223190   6.647   3.684   5.518
 7431SOL     OW23191   0.223   3.968   2.194
 7431SOL    HW123192   0.318   3.998   2.190
 7431SOL    HW223193   0.181   3.979   2.104
 7432SOL     OW23194   6.961   6.465   4.565
 7432SOL    HW123195   6.919   6.556   4.561
 7432SOL    HW223196   6.894   6.396   4.540
 7433SOL     OW23197   6.253   5.387   0.620
 7433SOL    HW123198   6.193   5.464   0.645
 7433SOL    HW223199   6.198   5.313   0.582
 7434SOL     OW23200   3.102   1.656   6.708
 7434SOL    HW123201   3.178   1.675   6.646
 7434SOL    HW223202   3.113   1.564   6.747
 7435SOL     OW23203   2.817   6.524   0.367
 7435SOL    HW123204   2.865   6.602   0.327
 7435SOL    HW223205   2.819   6.531   0.467
 7436SOL     OW23206   5.000   3.179   6.514
 7436SOL    HW123207   4.929   3.164   6.583
 7436SOL    HW223208   5.049   3.264   6.534
 7437SOL     OW23209   0.391   5.885   5.762
 7437SOL    HW123210   0.388   5.838   5.674
 7437SOL    HW223211   0.305   5.936   5.775
 7438SOL     OW23212   0.064   4.810   1.934
 7438SOL    HW123213   0.112   4.724   1.950
 7438SOL    HW223214   0.057   4.861   2.020
 7439SOL     OW23215   1.825   0.087   3.532
 7439SOL    HW123216   1.737   0.134   3.543
 7439SOL    HW223217   1.856   0.096   3.437
 7440SOL     OW23218   1.270   2.746   4.231
 7440SOL    HW123219   1.362   2.750   4.192
 7440SOL    HW223220   1.243   2.838   4.261
 7441SOL     OW23221   5.765   1.247   4.015
 7441SOL    HW123222   5.779   1.178   4.086
 7441SOL    HW223223   5.829   1.231   3.940
 7442SOL     OW23224   1.216   0.907   6.214
 7442SOL    HW123225   1.235   0.974   6.286
 7442SOL    HW223226   1.300   0.858   6.191
 7443SOL     OW23227   0.756   0.962   6.355
 7443SOL    HW123228   0.789   1.047   6.396
 7443SOL    HW223229   0.834   0.907   6.325
 7444SOL     OW23230   0.723   3.093   6.285
 7444SOL    HW123231   0.663   3.015   6.301
 7444SOL    HW223232   0.786   3.103   6.363
 7445SOL     OW23233   5.212   1.306   1.937
 7445SOL    HW123234   5.129   1.322   1.883
 7445SOL    HW223235   5.237   1.209   1.932
 7446SOL     OW23236   6.761   3.794   1.306
 7446SOL    HW123237   6.725   3.835   1.389
 7446SOL    HW223238   6.690   3.737   1.263
 7447SOL     OW23239   0.931   4.181   6.799
 7447SOL    HW123240   0.910   4.248   6.728
 7447SOL    HW223241   0.851   4.169   6.858
 7448SOL     OW23242   6.203   0.035   5.833
 7448SOL    HW123243   6.124   0.072   5.883
 7448SOL    HW223244   6.287   0.061   5.880
 7449SOL     OW23245   5.067   1.909   2.114
 7449SOL    HW123246   5.073   1.939   2.209
 7449SOL    HW223247   5.025   1.981   2.059
 7450SOL     OW23248   4.750   2.124   2.488
 7450SOL    HW123249   4.811   2.194   2.524
 7450SOL    HW223250   4.667   2.121   2.543
 7451SOL     OW23251   2.053   0.881   4.734
 7451SOL    HW123252   2.075   0.898   4.638
 7451SOL    HW223253   1.954   0.879   4.745
 7452SOL     OW23254   2.199   6.925   4.552
 7452SOL    HW123255   2.115   6.979   4.554
 7452SOL    HW223256   2.247   6.941   4.466
 7453SOL     OW23257   5.675   6.191   4.758
 7453SOL    HW123258   5.639   6.104   4.722
 7453SOL    HW223259   5.770   6.202   4.730
 7454SOL     OW23260   0.675   3.446   1.295
 7454SOL    HW123261   0.584   3.438   1.256
 7454SOL    HW223262   0.738   3.484   1.227
 7455SOL     OW23263   4.630   2.799   0.304
 7455SOL    HW123264   4.647   2.885   0.255
 7455SOL    HW223265   4.589   2.733   0.242
 7456SOL     OW23266   1.738   3.489   4.707
 7456SOL    HW123267   1.792   3.570   4.685
 7456SOL    HW223268   1.642   3.508   4.690
 7457SOL     OW23269   6.123   0.485   5.458
 7457SOL    HW123270   6.194   0.521   5.520
 7457SOL    HW223271   6.167   0.444   5.378
 7458SOL     OW23272   2.976   1.035   0.262
 7458SOL    HW123273   3.072   1.030   0.288
 7458SOL    HW223274   2.930   0.950   0.287
 7459SOL     OW23275   4.813   0.357   5.327
 7459SOL    HW123276   4.801   0.363   5.228
 7459SOL    HW223277   4.890   0.296   5.347
 7460SOL     OW23278   0.627   4.671   0.363
 7460SOL    HW123279   0.640   4.573   0.353
 7460SOL    HW223280   0.553   4.701   0.302
 7461SOL     OW23281   5.236   1.110   5.362
 7461SOL    HW123282   5.200   1.187   5.415
 7461SOL    HW223283   5.322   1.079   5.401
 7462SOL     OW23284   2.378   1.761   2.697
 7462SOL    HW123285   2.445   1.749   2.624
 7462SOL    HW223286   2.405   1.837   2.755
 7463SOL     OW23287   4.138   3.540   1.867
 7463SOL    HW123288   4.121   3.549   1.965
 7463SOL    HW223289   4.165   3.628   1.828
 7464SOL     OW23290   5.036   6.103   0.676
 7464SOL    HW123291   5.033   6.150   0.764
 7464SOL    HW223292   5.071   6.165   0.606
 7465SOL     OW23293   2.993   0.348   2.119
 7465SOL    HW123294   2.938   0.313   2.195
 7465SOL    HW223295   2.952   0.319   2.032
 7466SOL     OW23296   0.414   0.362   6.905
 7466SOL    HW123297   0.392   0.400   6.995
 7466SOL    HW223298   0.491   0.413   6.866
 7467SOL     OW23299   0.157   1.653   0.664
 7467SOL    HW123300   0.128   1.711   0.741
 7467SOL    HW223301   0.171   1.559   0.696
 7468SOL     OW23302   5.465   1.348   2.840
 7468SOL    HW123303   5.475   1.344   2.740
 7468SOL    HW223304   5.541   1.300   2.883
 7469SOL     OW23305   1.225   0.935   0.488
 7469SOL    HW123306   1.273   0.906   0.571
 7469SOL    HW223307   1.240   0.867   0.415
 7470SOL     OW23308   0.277   1.880   1.624
 7470SOL    HW123309   0.299   1.949   1.693
 7470SOL    HW223310   0.361   1.832   1.598
 7471SOL     OW23311   5.916   6.351   5.906
 7471SOL    HW123312   5.958   6.442   5.897
 7471SOL    HW223313   5.851   6.352   5.981
 7472SOL     OW23314   3.353   0.235   3.854
 7472SOL    HW123315   3.364   0.137   3.842
 7472SOL    HW223316   3.267   0.254   3.900
 7473SOL     OW23317   6.421   3.895   4.368
 7473SOL    HW123318   6.411   3.796   4.376
 7473SOL    HW223319   6.331   3.938   4.361
 7474SOL     OW23320   3.562   0.873   3.483
 7474SOL    HW123321   3.574   0.777   3.456
 7474SOL    HW223322   3.561   0.930   3.401
 7475SOL     OW23323   3.815   0.495   0.973
 7475SOL    HW123324   3.720   0.463   0.971
 7475SOL    HW223325   3.843   0.519   0.880
 7476SOL     OW23326   4.005   5.794   4.237
 7476SOL    HW123327   3.949   5.731   4.290
 7476SOL    HW223328   3.983   5.888   4.264
 7477SOL     OW23329   4.288   1.150   3.879
 7477SOL    HW123330   4.252   1.219   3.942
 7477SOL    HW223331   4.315   1.194   3.793
 7478SOL     OW23332   2.141   4.174   6.999
 7478SOL    HW123333   2.225   4.225   7.020
 7478SOL    HW223334   2.077   4.184   0.052
 7479SOL     OW23335   4.783   0.673   0.006
 7479SOL    HW123336   4.834   0.603   6.978
 7479SOL    HW223337   4.697   0.693   6.982
 7480SOL     OW23338   6.353   6.053   1.312
 7480SOL    HW123339   6.386   6.083   1.402
 7480SOL    HW223340   6.392   6.112   1.241
 7481SOL     OW23341   5.931   4.737   0.394
 7481SOL    HW123342   5.836   4.708   0.406
 7481SOL    HW223343   5.989   4.686   0.458
 7482SOL     OW23344   4.772   0.986   2.958
 7482SOL    HW123345   4.751   0.966   2.863
 7482SOL    HW223346   4.732   1.073   2.984
 7483SOL     OW23347   3.773   1.395   4.174
 7483SOL    HW123348   3.752   1.491   4.154
 7483SOL    HW223349   3.724   1.367   4.256
 7484SOL     OW23350   2.230   5.948   2.451
 7484SOL    HW123351   2.312   5.941   2.394
 7484SOL    HW223352   2.148   5.944   2.393
 7485SOL     OW23353   3.325   5.462   5.922
 7485SOL    HW123354   3.307   5.462   5.824
 7485SOL    HW223355   3.409   5.410   5.941
 7486SOL     OW23356   3.230   5.951   5.162
 7486SOL    HW123357   3.179   5.873   5.128
 7486SOL    HW223358   3.327   5.927   5.169
 7487SOL     OW23359   3.148   6.264   3.521
 7487SOL    HW123360   3.089   6.259   3.602
 7487SOL    HW223361   3.131   6.186   3.462
 7488SOL     OW23362   3.319   6.945   5.912
 7488SOL    HW123363   3.407   6.987   5.889
 7488SOL    HW223364   3.304   6.865   5.853
 7489SOL     OW23365   4.801   2.882   4.258
 7489SOL    HW123366   4.800   2.982   4.252
 7489SOL    HW223367   4.894   2.849   4.247
 7490SOL     OW23368   6.144   1.354   0.945
 7490SOL    HW123369   6.052   1.317   0.961
 7490SOL    HW223370   6.157   1.368   0.847
 7491SOL     OW23371   6.655   5.801   6.367
 7491SOL    HW123372   6.726   5.818   6.298
 7491SOL    HW223373   6.598   5.882   6.377
 7492SOL     OW23374   1.948   2.828   5.314
 7492SOL    HW123375   2.002   2.876   5.383
 7492SOL    HW223376   1.990   2.739   5.295
 7493SOL     OW23377   5.873   3.808   6.521
 7493SOL    HW123378   5.965   3.784   6.553
 7493SOL    HW223379   5.879   3.844   6.428
 7494SOL     OW23380   5.693   0.207   1.949
 7494SOL    HW123381   5.670   0.154   2.030
 7494SOL    HW223382   5.669   0.303   1.963
 7495SOL     OW23383   2.514   1.696   0.741
 7495SOL    HW123384   2.599   1.747   0.752
 7495SOL    HW223385   2.451   1.748   0.684
 7496SOL     OW23386   1.105   5.133   6.392
 7496SOL    HW123387   1.085   5.228   6.366
 7496SOL    HW223388   1.020   5.085   6.409
 7497SOL     OW23389   1.586   4.721   2.576
 7497SOL    HW123390   1.543   4.632   2.584
 7497SOL    HW223391   1.553   4.781   2.649
 7498SOL     OW23392   2.838   1.334   5.017
 7498SOL    HW123393   2.852   1.242   4.980
 7498SOL    HW223394   2.754   1.336   5.070
 7499SOL     OW23395   5.659   6.541   4.526
 7499SOL    HW123396   5.672   6.636   4.552
 7499SOL    HW223397   5.589   6.499   4.585
 7500SOL     OW23398   4.248   5.855   1.936
 7500SOL    HW123399   4.317   5.907   1.886
 7500SOL    HW223400   4.269   5.857   2.034
 7501SOL     OW23401   0.813   3.720   3.740
 7501SOL    HW123402   0.889   3.766   3.785
 7501SOL    HW223403   0.830   3.622   3.737
 7502SOL     OW23404   2.745   0.922   4.805
 7502SOL    HW123405   2.732   0.845   4.868
 7502SOL    HW223406   2.714   0.895   4.714
 7503SOL     OW23407   3.162   0.925   6.879
 7503SOL    HW123408   3.080   0.970   6.915
 7503SOL    HW223409   3.202   0.981   6.807
 7504SOL     OW23410   4.205   6.438   3.565
 7504SOL    HW123411   4.171   6.514   3.622
 7504SOL    HW223412   4.268   6.474   3.497
 7505SOL     OW23413   1.695   1.128   5.139
 7505SOL    HW123414   1.776   1.148   5.084
 7505SOL    HW223415   1.722   1.103   5.232
 7506SOL     OW23416   3.244   0.899   2.396
 7506SOL    HW123417   3.265   0.932   2.488
 7506SOL    HW223418   3.263   0.972   2.330
 7507SOL     OW23419   0.754   6.121   5.574
 7507SOL    HW123420   0.794   6.035   5.605
 7507SOL    HW223421   0.699   6.161   5.648
 7508SOL     OW23422   5.506   6.668   2.871
 7508SOL    HW123423   5.417   6.714   2.872
 7508SOL    HW223424   5.525   6.632   2.963
 7509SOL     OW23425   5.104   3.388   6.258
 7509SOL    HW123426   5.015   3.342   6.254
 7509SOL    HW223427   5.177   3.320   6.246
 7510SOL     OW23428   3.470   4.061   4.910
 7510SOL    HW123429   3.549   4.002   4.895
 7510SOL    HW223430   3.447   4.108   4.825
 7511SOL     OW23431   1.602   6.947   2.273
 7511SOL    HW123432   1.698   6.965   2.296
 7511SOL    HW223433   1.591   6.850   2.251
 7512SOL     OW23434   2.773   3.206   1.589
 7512SOL    HW123435   2.716   3.267   1.644
 7512SOL    HW223436   2.746   3.213   1.493
 7513SOL     OW23437   1.645   1.838   5.748
 7513SOL    HW123438   1.736   1.800   5.762
 7513SOL    HW223439   1.640   1.929   5.788
 7514SOL     OW23440   3.126   6.030   2.159
 7514SOL    HW123441   3.093   6.001   2.249
 7514SOL    HW223442   3.123   6.130   2.153
 7515SOL     OW23443   6.766   0.227   2.945
 7515SOL    HW123444   6.816   0.226   2.858
 7515SOL    HW223445   6.669   0.210   2.927
 7516SOL     OW23446   0.209   0.913   3.890
 7516SOL    HW123447   0.192   1.010   3.905
 7516SOL    HW223448   0.149   0.859   3.948
 7517SOL     OW23449   0.534   3.468   0.780
 7517SOL    HW123450   0.579   3.423   0.703
 7517SOL    HW223451   0.522   3.565   0.761
 7518SOL     OW23452   4.312   5.164   3.566
 7518SOL    HW123453   4.232   5.123   3.521
 7518SOL    HW223454   4.332   5.252   3.525
 7519SOL     OW23455   1.278   6.361   4.668
 7519SOL    HW123456   1.210   6.326   4.604
 7519SOL    HW223457   1.234   6.420   4.735
 7520SOL     OW23458   1.054   6.682   3.610
 7520SOL    HW123459   0.972   6.661   3.664
 7520SOL    HW223460   1.030   6.685   3.513
 7521SOL     OW23461   4.688   4.295   5.060
 7521SOL    HW123462   4.751   4.217   5.053
 7521SOL    HW223463   4.635   4.287   5.144
 7522SOL     OW23464   1.978   1.416   0.247
 7522SOL    HW123465   1.883   1.429   0.217
 7522SOL    HW223466   2.026   1.504   0.242
 7523SOL     OW23467   5.692   0.079   5.870
 7523SOL    HW123468   5.597   0.109   5.883
 7523SOL    HW223469   5.732   0.055   5.958
 7524SOL     OW23470   0.344   1.490   5.527
 7524SOL    HW123471   0.250   1.487   5.493
 7524SOL    HW223472   0.345   1.533   5.618
 7525SOL     OW23473   1.635   0.922   0.064
 7525SOL    HW123474   1.727   0.922   0.104
 7525SOL    HW223475   1.567   0.940   0.136
 7526SOL     OW23476   3.581   2.887   3.844
 7526SOL    HW123477   3.656   2.952   3.829
 7526SOL    HW223478   3.611   2.814   3.905
 7527SOL     OW23479   5.415   4.170   2.476
 7527SOL    HW123480   5.425   4.258   2.522
 7527SOL    HW223481   5.376   4.104   2.539
 7528SOL     OW23482   4.487   2.950   7.011
 7528SOL    HW123483   4.562   3.007   0.022
 7528SOL    HW223484   4.485   2.865   0.040
 7529SOL     OW23485   4.282   1.411   4.402
 7529SOL    HW123486   4.188   1.382   4.417
 7529SOL    HW223487   4.285   1.485   4.335
 7530SOL     OW23488   6.850   3.449   2.225
 7530SOL    HW123489   6.875   3.472   2.319
 7530SOL    HW223490   6.755   3.476   2.208
 7531SOL     OW23491   4.371   1.931   3.877
 7531SOL    HW123492   4.459   1.975   3.860
 7531SOL    HW223493   4.344   1.944   3.972
 7532SOL     OW23494   5.591   5.631   2.060
 7532SOL    HW123495   5.666   5.569   2.037
 7532SOL    HW223496   5.626   5.703   2.120
 7533SOL     OW23497   3.387   1.165   4.356
 7533SOL    HW123498   3.383   1.244   4.295
 7533SOL    HW223499   3.358   1.083   4.305
 7534SOL     OW23500   3.943   6.057   5.105
 7534SOL    HW123501   3.846   6.065   5.085
 7534SOL    HW223502   3.972   6.133   5.163
 7535SOL     OW23503   2.908   2.542   5.882
 7535SOL    HW123504   2.971   2.530   5.805
 7535SOL    HW223505   2.837   2.471   5.879
 7536SOL     OW23506   4.701   5.430   4.445
 7536SOL    HW123507   4.616   5.378   4.442
 7536SOL    HW223508   4.684   5.523   4.411
 7537SOL     OW23509   1.805   4.946   4.914
 7537SOL    HW123510   1.805   5.046   4.906
 7537SOL    HW223511   1.854   4.906   4.837
 7538SOL     OW23512   3.300   3.131   2.746
 7538SOL    HW123513   3.354   3.198   2.694
 7538SOL    HW223514   3.353   3.047   2.756
 7539SOL     OW23515   1.919   3.087   5.220
 7539SOL    HW123516   1.926   2.990   5.240
 7539SOL    HW223517   2.006   3.120   5.181
 7540SOL     OW23518   2.698   1.525   6.993
 7540SOL    HW123519   2.612   1.489   6.956
 7540SOL    HW223520   2.750   1.568   6.919
 7541SOL     OW23521   6.170   2.186   4.997
 7541SOL    HW123522   6.160   2.102   5.050
 7541SOL    HW223523   6.261   2.189   4.956
 7542SOL     OW23524   1.033   0.151   5.985
 7542SOL    HW123525   1.082   0.065   5.971
 7542SOL    HW223526   0.963   0.138   6.055
 7543SOL     OW23527   3.735   3.168   0.596
 7543SOL    HW123528   3.756   3.089   0.654
 7543SOL    HW223529   3.808   3.181   0.529
 7544SOL     OW23530   1.768   2.052   3.112
 7544SOL    HW123531   1.783   2.140   3.157
 7544SOL    HW223532   1.760   1.980   3.182
 7545SOL     OW23533   4.778   6.998   2.921
 7545SOL    HW123534   4.834   0.058   2.914
 7545SOL    HW223535   4.730   6.997   3.009
 7546SOL     OW23536   5.292   0.497   0.072
 7546SOL    HW123537   5.299   0.549   0.157
 7546SOL    HW223538   5.232   0.419   0.085
 7547SOL     OW23539   3.583   0.455   0.442
 7547SOL    HW123540   3.638   0.534   0.413
 7547SOL    HW223541   3.493   0.460   0.400
 7548SOL     OW23542   2.612   1.851   1.588
 7548SOL    HW123543   2.646   1.831   1.680
 7548SOL    HW223544   2.688   1.848   1.523
 7549SOL     OW23545   5.170   1.736   2.830
 7549SOL    HW123546   5.171   1.662   2.897
 7549SOL    HW223547   5.262   1.773   2.819
 7550SOL     OW23548   2.192   6.081   2.671
 7550SOL    HW123549   2.101   6.049   2.696
 7550SOL    HW223550   2.215   6.049   2.579
 7551SOL     OW23551   4.634   3.188   6.627
 7551SOL    HW123552   4.642   3.287   6.626
 7551SOL    HW223553   4.706   3.149   6.686
 7552SOL     OW23554   2.394   5.470   3.997
 7552SOL    HW123555   2.375   5.566   3.978
 7552SOL    HW223556   2.488   5.448   3.969
 7553SOL     OW23557   3.614   5.283   6.353
 7553SOL    HW123558   3.713   5.281   6.370
 7553SOL    HW223559   3.584   5.378   6.346
 7554SOL     OW23560   4.837   1.026   0.487
 7554SOL    HW123561   4.890   0.946   0.461
 7554SOL    HW223562   4.744   0.997   0.512
 7555SOL     OW23563   0.078   5.947   4.866
 7555SOL    HW123564   0.112   5.902   4.783
 7555SOL    HW223565   7.022   6.004   4.843
 7556SOL     OW23566   0.772   3.054   4.698
 7556SOL    HW123567   0.729   2.965   4.708
 7556SOL    HW223568   0.850   3.060   4.760
 7557SOL     OW23569   5.528   4.360   6.513
 7557SOL    HW123570   5.615   4.316   6.489
 7557SOL    HW223571   5.544   4.457   6.532
 7558SOL     OW23572   2.216   3.146   3.445
 7558SOL    HW123573   2.194   3.104   3.533
 7558SOL    HW223574   2.291   3.097   3.401
 7559SOL     OW23575   0.193   4.414   1.075
 7559SOL    HW123576   0.094   4.410   1.060
 7559SOL    HW223577   0.240   4.360   1.005
 7560SOL     OW23578   5.590   6.785   0.952
 7560SOL    HW123579   5.530   6.801   0.873
 7560SOL    HW223580   5.650   6.864   0.965
 7561SOL     OW23581   6.672   3.514   0.329
 7561SOL    HW123582   6.708   3.468   0.410
 7561SOL    HW223583   6.629   3.601   0.356
 7562SOL     OW23584   5.249   6.115   5.516
 7562SOL    HW123585   5.299   6.189   5.472
 7562SOL    HW223586   5.179   6.079   5.454
 7563SOL     OW23587   2.902   0.760   1.684
 7563SOL    HW123588   2.994   0.780   1.648
 7563SOL    HW223589   2.908   0.743   1.782
 7564SOL     OW23590   4.940   0.203   2.883
 7564SOL    HW123591   4.988   0.265   2.945
 7564SOL    HW223592   4.947   0.237   2.789
 7565SOL     OW23593   4.425   5.351   0.096
 7565SOL    HW123594   4.503   5.377   0.039
 7565SOL    HW223595   4.459   5.309   0.181
 7566SOL     OW23596   0.186   5.708   4.604
 7566SOL    HW123597   0.246   5.744   4.533
 7566SOL    HW223598   0.091   5.735   4.584
 7567SOL     OW23599   2.573   4.928   5.857
 7567SOL    HW123600   2.619   5.016   5.867
 7567SOL    HW223601   2.532   4.902   5.945
 7568SOL     OW23602   5.480   5.851   2.881
 7568SOL    HW123603   5.538   5.907   2.939
 7568SOL    HW223604   5.384   5.871   2.900
 7569SOL     OW23605   4.361   5.631   0.098
 7569SOL    HW123606   4.372   5.532   0.109
 7569SOL    HW223607   4.391   5.658   0.006
 7570SOL     OW23608   5.946   5.325   3.930
 7570SOL    HW123609   5.925   5.422   3.942
 7570SOL    HW223610   6.031   5.315   3.877
 7571SOL     OW23611   6.097   3.897   1.388
 7571SOL    HW123612   6.034   3.971   1.411
 7571SOL    HW223613   6.053   3.835   1.323
 7572SOL     OW23614   4.090   0.900   4.193
 7572SOL    HW123615   4.043   0.826   4.242
 7572SOL    HW223616   4.069   0.988   4.236
 7573SOL     OW23617   6.921   6.077   4.730
 7573SOL    HW123618   6.875   6.149   4.782
 7573SOL    HW223619   6.921   6.102   4.633
 7574SOL     OW23620   5.601   0.698   3.445
 7574SOL    HW123621   5.590   0.675   3.542
 7574SOL    HW223622   5.667   0.634   3.403
 7575SOL     OW23623   4.344   1.368   5.652
 7575SOL    HW123624   4.309   1.313   5.577
 7575SOL    HW223625   4.374   1.457   5.617
 7576SOL     OW23626   6.508   3.878   6.943
 7576SOL    HW123627   6.526   3.805   7.009
 7576SOL    HW223628   6.525   3.844   6.851
 7577SOL     OW23629   6.387   1.159   4.848
 7577SOL    HW123630   6.414   1.116   4.934
 7577SOL    HW223631   6.395   1.092   4.774
 7578SOL     OW23632   1.805   6.031   4.682
 7578SOL    HW123633   1.868   6.020   4.759
 7578SOL    HW223634   1.774   6.127   4.678
 7579SOL     OW23635   3.898   1.720   2.817
 7579SOL    HW123636   3.933   1.736   2.910
 7579SOL    HW223637   3.961   1.760   2.751
 7580SOL     OW23638   1.766   4.045   2.929
 7580SOL    HW123639   1.826   4.052   2.849
 7580SOL    HW223640   1.721   3.955   2.928
 7581SOL     OW23641   5.299   1.568   0.679
 7581SOL    HW123642   5.250   1.592   0.595
 7581SOL    HW223643   5.384   1.521   0.656
 7582SOL     OW23644   3.464   1.864   1.407
 7582SOL    HW123645   3.382   1.911   1.441
 7582SOL    HW223646   3.545   1.899   1.454
 7583SOL     OW23647   5.872   3.233   1.847
 7583SOL    HW123648   5.785   3.249   1.800
 7583SOL    HW223649   5.912   3.320   1.874
 7584SOL     OW23650   2.566   6.842   1.101
 7584SOL    HW123651   2.618   6.927   1.093
 7584SOL    HW223652   2.548   6.823   1.198
 7585SOL     OW23653   1.382   4.574   6.673
 7585SOL    HW123654   1.313   4.531   6.616
 7585SOL    HW223655   1.339   4.612   6.755
 7586SOL     OW23656   2.684   0.254   3.060
 7586SOL    HW123657   2.655   0.238   3.155
 7586SOL    HW223658   2.744   0.334   3.057
 7587SOL     OW23659   0.999   1.898   7.013
 7587SOL    HW123660   0.939   1.878   0.068
 7587SOL    HW223661   0.960   1.973   6.960
 7588SOL     OW23662   0.226   4.776   2.690
 7588SOL    HW123663   0.163   4.853   2.686
 7588SOL    HW223664   0.293   4.792   2.762
 7589SOL     OW23665   6.261   5.930   0.561
 7589SOL    HW123666   6.249   6.025   0.530
 7589SOL    HW223667   6.178   5.900   0.608
 7590SOL     OW23668   2.704   1.943   5.508
 7590SOL    HW123669   2.698   1.852   5.548
 7590SOL    HW223670   2.710   2.011   5.581
 7591SOL     OW23671   0.112   5.210   0.159
 7591SOL    HW123672   0.204   5.248   0.168
 7591SOL    HW223673   0.045   5.277   0.193
 7592SOL     OW23674   6.656   5.303   6.891
 7592SOL    HW123675   6.675   5.261   6.980
 7592SOL    HW223676   6.730   5.366   6.868
 7593SOL     OW23677   4.690   2.281   6.934
 7593SOL    HW123678   4.609   2.234   6.900
 7593SOL    HW223679   4.751   2.215   6.977
 7594SOL     OW23680   0.890   6.197   3.633
 7594SOL    HW123681   0.892   6.178   3.731
 7594SOL    HW223682   0.966   6.257   3.609
 7595SOL     OW23683   0.079   3.265   6.201
 7595SOL    HW123684   0.111   3.228   6.288
 7595SOL    HW223685   0.038   3.191   6.147
 7596SOL     OW23686   5.001   4.359   2.162
 7596SOL    HW123687   4.904   4.339   2.150
 7596SOL    HW223688   5.050   4.275   2.183
 7597SOL     OW23689   3.413   5.369   1.715
 7597SOL    HW123690   3.440   5.390   1.809
 7597SOL    HW223691   3.318   5.338   1.714
 7598SOL     OW23692   6.593   0.231   3.235
 7598SOL    HW123693   6.639   0.313   3.202
 7598SOL    HW223694   6.661   0.162   3.260
 7599SOL     OW23695   6.162   1.662   3.509
 7599SOL    HW123696   6.195   1.697   3.421
 7599SOL    HW223697   6.092   1.592   3.493
 7600SOL     OW23698   1.480   0.534   2.051
 7600SOL    HW123699   1.506   0.629   2.036
 7600SOL    HW223700   1.541   0.494   2.120
 7601SOL     OW23701   2.005   6.170   3.929
 7601SOL    HW123702   2.000   6.270   3.937
 7601SOL    HW223703   2.096   6.139   3.956
 7602SOL     OW23704   1.779   4.301   4.498
 7602SOL    HW123705   1.757   4.398   4.500
 7602SOL    HW223706   1.827   4.275   4.582
 7603SOL     OW23707   0.731   5.983   0.161
 7603SOL    HW123708   0.696   5.949   0.074
 7603SOL    HW223709   0.718   6.082   0.166
 7604SOL     OW23710   3.376   5.853   4.470
 7604SOL    HW123711   3.295   5.901   4.504
 7604SOL    HW223712   3.393   5.773   4.527
 7605SOL     OW23713   0.634   4.727   6.730
 7605SOL    HW123714   0.693   4.697   6.804
 7605SOL    HW223715   0.594   4.648   6.684
 7606SOL     OW23716   0.238   2.913   1.961
 7606SOL    HW123717   0.303   2.837   1.961
 7606SOL    HW223718   0.269   2.983   2.026
 7607SOL     OW23719   5.072   6.947   6.724
 7607SOL    HW123720   4.995   6.988   6.676
 7607SOL    HW223721   5.153   7.006   6.716
 7608SOL     OW23722   2.915   3.320   3.377
 7608SOL    HW123723   2.933   3.258   3.301
 7608SOL    HW223724   2.921   3.269   3.463
 7609SOL     OW23725   0.264   3.624   4.059
 7609SOL    HW123726   0.286   3.647   4.154
 7609SOL    HW223727   0.298   3.697   4.000
 7610SOL     OW23728   5.558   0.390   1.094
 7610SOL    HW123729   5.556   0.310   1.034
 7610SOL    HW223730   5.609   0.369   1.177
 7611SOL     OW23731   0.999   2.122   0.253
 7611SOL    HW123732   0.913   2.072   0.241
 7611SOL    HW223733   1.027   2.161   0.165
 7612SOL     OW23734   4.060   1.692   4.142
 7612SOL    HW123735   4.008   1.703   4.058
 7612SOL    HW223736   3.999   1.662   4.216
 7613SOL     OW23737   4.884   1.159   1.556
 7613SOL    HW123738   4.964   1.101   1.574
 7613SOL    HW223739   4.804   1.121   1.601
 7614SOL     OW23740   3.593   1.738   1.781
 7614SOL    HW123741   3.597   1.802   1.858
 7614SOL    HW223742   3.497   1.721   1.758
 7615SOL     OW23743   3.753   5.263   6.699
 7615SOL    HW123744   3.798   5.275   6.610
 7615SOL    HW223745   3.662   5.224   6.685
 7616SOL     OW23746   6.972   3.777   4.005
 7616SOL    HW123747   6.942   3.684   3.985
 7616SOL    HW223748   0.049   3.780   4.007
 7617SOL     OW23749   3.018   5.169   3.221
 7617SOL    HW123750   2.967   5.227   3.285
 7617SOL    HW223751   3.073   5.104   3.272
 7618SOL     OW23752   1.365   2.171   6.864
 7618SOL    HW123753   1.379   2.107   6.789
 7618SOL    HW223754   1.310   2.248   6.832
 7619SOL     OW23755   5.595   2.996   5.532
 7619SOL    HW123756   5.593   2.914   5.589
 7619SOL    HW223757   5.541   3.068   5.575
 7620SOL     OW23758   3.877   6.673   0.297
 7620SOL    HW123759   3.934   6.680   0.378
 7620SOL    HW223760   3.820   6.756   0.289
 7621SOL     OW23761   1.684   0.964   0.656
 7621SOL    HW123762   1.721   0.975   0.748
 7621SOL    HW223763   1.692   0.868   0.629
 7622SOL     OW23764   4.457   2.918   1.064
 7622SOL    HW123765   4.379   2.968   1.101
 7622SOL    HW223766   4.449   2.821   1.087
 7623SOL     OW23767   4.473   6.067   6.541
 7623SOL    HW123768   4.412   6.017   6.479
 7623SOL    HW223769   4.475   6.164   6.515
 7624SOL     OW23770   0.503   1.939   3.119
 7624SOL    HW123771   0.463   2.030   3.127
 7624SOL    HW223772   0.602   1.946   3.114
 7625SOL     OW23773   5.419   0.577   0.954
 7625SOL    HW123774   5.349   0.607   1.019
 7625SOL    HW223775   5.479   0.510   0.999
 7626SOL     OW23776   1.186   6.806   4.836
 7626SOL    HW123777   1.178   6.837   4.930
 7626SOL    HW223778   1.119   6.853   4.779
 7627SOL     OW23779   6.528   2.898   0.817
 7627SOL    HW123780   6.531   2.985   0.866
 7627SOL    HW223781   6.586   2.832   0.864
 7628SOL     OW23782   2.559   0.969   1.394
 7628SOL    HW123783   2.637   1.000   1.447
 7628SOL    HW223784   2.577   0.879   1.356
 7629SOL     OW23785   6.646   6.378   2.462
 7629SOL    HW123786   6.591   6.397   2.380
 7629SOL    HW223787   6.621   6.441   2.535
 7630SOL     OW23788   6.423   0.254   2.249
 7630SOL    HW123789   6.505   0.277   2.198
 7630SOL    HW223790   6.448   0.206   2.333
 7631SOL     OW23791   0.827   2.110   5.389
 7631SOL    HW123792   0.879   2.099   5.304
 7631SOL    HW223793   0.772   2.193   5.384
 7632SOL     OW23794   4.246   2.019   0.770
 7632SOL    HW123795   4.256   1.985   0.677
 7632SOL    HW223796   4.235   2.118   0.768
 7633SOL     OW23797   5.678   3.603   6.507
 7633SOL    HW123798   5.588   3.618   6.547
 7633SOL    HW223799   5.731   3.687   6.514
 7634SOL     OW23800   1.573   0.828   2.077
 7634SOL    HW123801   1.659   0.877   2.087
 7634SOL    HW223802   1.499   0.884   2.115
 7635SOL     OW23803   2.497   5.655   5.990
 7635SOL    HW123804   2.463   5.745   6.016
 7635SOL    HW223805   2.517   5.602   6.072
 7636SOL     OW23806   1.140   1.296   3.880
 7636SOL    HW123807   1.065   1.312   3.816
 7636SOL    HW223808   1.223   1.340   3.845
 7637SOL     OW23809   1.338   0.047   4.303
 7637SOL    HW123810   1.254   0.097   4.324
 7637SOL    HW223811   1.347   6.992   4.366
 7638SOL     OW23812   5.793   5.709   1.807
 7638SOL    HW123813   5.733   5.788   1.798
 7638SOL    HW223814   5.763   5.637   1.743
 7639SOL     OW23815   1.260   1.961   5.937
 7639SOL    HW123816   1.164   1.989   5.941
 7639SOL    HW223817   1.266   1.864   5.960
 7640SOL     OW23818   2.343   2.367   0.804
 7640SOL    HW123819   2.339   2.373   0.704
 7640SOL    HW223820   2.282   2.295   0.836
 7641SOL     OW23821   6.882   4.592   2.245
 7641SOL    HW123822   6.924   4.592   2.336
 7641SOL    HW223823   6.912   4.512   2.194
 7642SOL     OW23824   2.727   1.893   2.692
 7642SOL    HW123825   2.706   1.875   2.596
 7642SOL    HW223826   2.644   1.922   2.740
 7643SOL     OW23827   4.635   2.581   3.122
 7643SOL    HW123828   4.573   2.512   3.158
 7643SOL    HW223829   4.624   2.587   3.022
 7644SOL     OW23830   0.285   3.207   3.291
 7644SOL    HW123831   0.367   3.159   3.260
 7644SOL    HW223832   0.252   3.165   3.375
 7645SOL     OW23833   4.454   4.677   6.990
 7645SOL    HW123834   4.404   4.722   6.916
 7645SOL    HW223835   4.535   4.731   7.014
 7646SOL     OW23836   2.393   1.660   2.101
 7646SOL    HW123837   2.470   1.692   2.155
 7646SOL    HW223838   2.318   1.633   2.162
 7647SOL     OW23839   1.843   3.710   1.964
 7647SOL    HW123840   1.902   3.753   2.032
 7647SOL    HW223841   1.898   3.680   1.886
 7648SOL     OW23842   4.547   1.489   3.958
 7648SOL    HW123843   4.487   1.493   3.878
 7648SOL    HW223844   4.535   1.571   4.013
 7649SOL     OW23845   2.095   0.731   2.251
 7649SOL    HW123846   2.018   0.795   2.254
 7649SOL    HW223847   2.164   0.760   2.316
 7650SOL     OW23848   6.642   3.196   2.248
 7650SOL    HW123849   6.622   3.274   2.188
 7650SOL    HW223850   6.711   3.138   2.205
 7651SOL     OW23851   2.885   7.003   7.016
 7651SOL    HW123852   2.976   6.985   0.030
 7651SOL    HW223853   2.884   6.986   6.917
 7652SOL     OW23854   6.396   3.460   3.841
 7652SOL    HW123855   6.332   3.478   3.916
 7652SOL    HW223856   6.440   3.545   3.813
 7653SOL     OW23857   2.725   2.314   0.984
 7653SOL    HW123858   2.781   2.397   0.983
 7653SOL    HW223859   2.785   2.234   0.983
 7654SOL     OW23860   4.770   2.957   3.444
 7654SOL    HW123861   4.751   2.861   3.422
 7654SOL    HW223862   4.817   2.962   3.532
 7655SOL     OW23863   3.221   6.793   4.801
 7655SOL    HW123864   3.178   6.704   4.816
 7655SOL    HW223865   3.212   6.849   4.884
 7656SOL     OW23866   6.870   6.137   5.221
 7656SOL    HW123867   6.946   6.188   5.180
 7656SOL    HW223868   6.906   6.051   5.260
 7657SOL     OW23869   2.572   2.506   3.447
 7657SOL    HW123870   2.507   2.578   3.470
 7657SOL    HW223871   2.599   2.458   3.530
 7658SOL     OW23872   4.793   0.305   6.012
 7658SOL    HW123873   4.876   0.271   6.057
 7658SOL    HW223874   4.790   0.270   5.918
 7659SOL     OW23875   6.469   0.032   0.830
 7659SOL    HW123876   6.497   0.115   0.878
 7659SOL    HW223877   6.488   6.975   0.888
 7660SOL     OW23878   5.496   5.091   3.037
 7660SOL    HW123879   5.432   5.033   3.087
 7660SOL    HW223880   5.483   5.078   2.939
 7661SOL     OW23881   5.966   2.549   4.131
 7661SOL    HW123882   5.981   2.647   4.136
 7661SOL    HW223883   5.962   2.511   4.223
 7662SOL     OW23884   1.477   3.101   2.183
 7662SOL    HW123885   1.473   3.050   2.269
 7662SOL    HW223886   1.570   3.132   2.166
 7663SOL     OW23887   0.488   5.237   6.526
 7663SOL    HW123888   0.487   5.332   6.554
 7663SOL    HW223889   0.575   5.195   6.553
 7664SOL     OW23890   2.950   6.465   2.988
 7664SOL    HW123891   2.899   6.457   3.074
 7664SOL    HW223892   3.047   6.480   3.007
 7665SOL     OW23893   2.714   0.797   4.574
 7665SOL    HW123894   2.628   0.747   4.563
 7665SOL    HW223895   2.791   0.735   4.559
 7666SOL     OW23896   0.810   0.034   1.134
 7666SOL    HW123897   0.738   6.988   1.130
 7666SOL    HW223898   0.774   0.122   1.103
 7667SOL     OW23899   4.770   6.498   6.665
 7667SOL    HW123900   4.813   6.451   6.589
 7667SOL    HW223901   4.810   6.590   6.675
 7668SOL     OW23902   3.670   4.424   1.460
 7668SOL    HW123903   3.589   4.443   1.405
 7668SOL    HW223904   3.679   4.325   1.473
 7669SOL     OW23905   4.842   0.303   3.985
 7669SOL    HW123906   4.815   0.395   4.012
 7669SOL    HW223907   4.930   0.306   3.939
 7670SOL     OW23908   1.309   5.780   0.059
 7670SOL    HW123909   1.381   5.848   0.071
 7670SOL    HW223910   1.300   5.726   0.143
 7671SOL     OW23911   5.175   1.432   4.655
 7671SOL    HW123912   5.156   1.486   4.574
 7671SOL    HW223913   5.090   1.416   4.706
 7672SOL     OW23914   5.925   0.706   3.955
 7672SOL    HW123915   5.877   0.632   4.001
 7672SOL    HW223916   6.023   0.683   3.949
 7673SOL     OW23917   0.958   4.672   1.036
 7673SOL    HW123918   0.900   4.742   1.077
 7673SOL    HW223919   0.980   4.697   0.942
 7674SOL     OW23920   6.707   1.777   4.652
 7674SOL    HW123921   6.806   1.781   4.663
 7674SOL    HW223922   6.667   1.726   4.728
 7675SOL     OW23923   4.932   0.150   1.757
 7675SOL    HW123924   4.909   0.064   1.712
 7675SOL    HW223925   4.980   0.133   1.843
 7676SOL     OW23926   1.453   1.043   6.668
 7676SOL    HW123927   1.404   1.082   6.746
 7676SOL    HW223928   1.388   1.021   6.595
 7677SOL     OW23929   2.117   3.609   2.434
 7677SOL    HW123930   2.139   3.636   2.340
 7677SOL    HW223931   2.033   3.554   2.435
 7678SOL     OW23932   0.851   0.908   0.159
 7678SOL    HW123933   0.930   0.969   0.156
 7678SOL    HW223934   0.870   0.827   0.103
 7679SOL     OW23935   1.212   5.154   5.004
 7679SOL    HW123936   1.194   5.235   4.949
 7679SOL    HW223937   1.309   5.154   5.031
 7680SOL     OW23938   3.326   3.442   6.720
 7680SOL    HW123939   3.369   3.407   6.803
 7680SOL    HW223940   3.306   3.539   6.731
 7681SOL     OW23941   2.633   1.752   0.396
 7681SOL    HW123942   2.601   1.723   0.306
 7681SOL    HW223943   2.652   1.671   0.452
 7682SOL     OW23944   2.978   6.797   1.742
 7682SOL    HW123945   2.923   6.846   1.674
 7682SOL    HW223946   3.062   6.764   1.699
 7683SOL     OW23947   6.202   1.810   2.767
 7683SOL    HW123948   6.293   1.774   2.789
 7683SOL    HW223949   6.161   1.847   2.850
 7684SOL     OW23950   4.993   2.217   6.450
 7684SOL    HW123951   4.970   2.307   6.488
 7684SOL    HW223952   5.075   2.225   6.393
 7685SOL     OW23953   3.496   2.893   0.337
 7685SOL    HW123954   3.445   2.948   0.404
 7685SOL    HW223955   3.477   2.796   0.352
 7686SOL     OW23956   4.690   0.264   3.300
 7686SOL    HW123957   4.698   0.321   3.218
 7686SOL    HW223958   4.779   0.260   3.346
 7687SOL     OW23959   4.981   5.073   5.479
 7687SOL    HW123960   5.000   4.975   5.475
 7687SOL    HW223961   4.896   5.088   5.530
 7688SOL     OW23962   6.848   6.847   5.419
 7688SOL    HW123963   6.891   6.864   5.508
 7688SOL    HW223964   6.875   6.919   5.355
 7689SOL     OW23965   4.261   6.066   4.524
 7689SOL    HW123966   4.355   6.077   4.556
 7689SOL    HW223967   4.236   5.969   4.525
 7690SOL     OW23968   5.429   4.438   2.614
 7690SOL    HW123969   5.445   4.535   2.633
 7690SOL    HW223970   5.501   4.383   2.658
 7691SOL     OW23971   5.210   2.464   4.039
 7691SOL    HW123972   5.282   2.507   4.094
 7691SOL    HW223973   5.208   2.507   3.948
 7692SOL     OW23974   1.299   6.305   1.460
 7692SOL    HW123975   1.251   6.344   1.538
 7692SOL    HW223976   1.396   6.297   1.480
 7693SOL     OW23977   4.364   1.010   6.269
 7693SOL    HW123978   4.307   1.080   6.225
 7693SOL    HW223979   4.376   0.933   6.205
 7694SOL     OW23980   6.710   4.704   4.209
 7694SOL    HW123981   6.657   4.707   4.294
 7694SOL    HW223982   6.807   4.708   4.230
 7695SOL     OW23983   4.429   0.341   0.799
 7695SOL    HW123984   4.416   0.265   0.736
 7695SOL    HW223985   4.346   0.355   0.853
 7696SOL     OW23986   0.159   1.943   4.290
 7696SOL    HW123987   0.113   2.028   4.265
 7696SOL    HW223988   0.257   1.961   4.302
 7697SOL     OW23989   2.468   1.687   3.784
 7697SOL    HW123990   2.449   1.755   3.714
 7697SOL    HW223991   2.436   1.721   3.873
 7698SOL     OW23992   6.702   2.667   4.745
 7698SOL    HW123993   6.790   2.625   4.766
 7698SOL    HW223994   6.700   2.760   4.782
 7699SOL     OW23995   2.610   5.841   0.526
 7699SOL    HW123996   2.629   5.798   0.614
 7699SOL    HW223997   2.672   5.919   0.513
 7700SOL     OW23998   5.016   6.925   4.772
 7700SOL    HW123999   5.052   6.886   4.857
 7700SOL    HW224000   5.028   6.860   4.698
 7701SOL     OW24001   0.029   0.695   5.474
 7701SOL    HW124002   0.033   0.766   5.404
 7701SOL    HW224003   6.971   0.638   5.458
 7702SOL     OW24004   3.333   6.424   5.872
 7702SOL    HW124005   3.323   6.431   5.772
 7702SOL    HW224006   3.335   6.328   5.899
 7703SOL     OW24007   0.481   1.133   5.294
 7703SOL    HW124008   0.558   1.077   5.265
 7703SOL    HW224009   0.511   1.193   5.369
 7704SOL     OW24010   4.216   4.320   6.957
 7704SOL    HW124011   4.172   4.327   0.023
 7704SOL    HW224012   4.148   4.301   6.886
 7705SOL     OW24013   3.704   5.025   5.238
 7705SOL    HW124014   3.721   5.050   5.143
 7705SOL    HW224015   3.649   5.096   5.282
 7706SOL     OW24016   6.303   0.048   5.595
 7706SOL    HW124017   6.242   0.048   5.675
 7706SOL    HW224018   6.322   6.976   5.568
 7707SOL     OW24019   0.334   5.770   6.250
 7707SOL    HW124020   0.364   5.676   6.267
 7707SOL    HW224021   0.382   5.806   6.170
 7708SOL     OW24022   5.020   6.474   4.378
 7708SOL    HW124023   4.989   6.486   4.284
 7708SOL    HW224024   4.950   6.427   4.431
 7709SOL     OW24025   4.458   2.504   1.814
 7709SOL    HW124026   4.490   2.588   1.859
 7709SOL    HW224027   4.467   2.513   1.715
 7710SOL     OW24028   2.703   6.985   0.534
 7710SOL    HW124029   2.667   6.958   0.623
 7710SOL    HW224030   2.683   0.059   0.519
 7711SOL     OW24031   5.712   6.001   5.844
 7711SOL    HW124032   5.623   5.984   5.888
 7711SOL    HW224033   5.700   6.066   5.769
 7712SOL     OW24034   5.976   4.756   1.235
 7712SOL    HW124035   5.924   4.675   1.262
 7712SOL    HW224036   5.983   4.818   1.313
 7713SOL     OW24037   1.862   4.351   6.784
 7713SOL    HW124038   1.833   4.414   6.856
 7713SOL    HW224039   1.961   4.352   6.777
 7714SOL     OW24040   5.823   4.629   4.543
 7714SOL    HW124041   5.795   4.723   4.563
 7714SOL    HW224042   5.746   4.580   4.501
 7715SOL     OW24043   5.239   0.574   1.424
 7715SOL    HW124044   5.269   0.548   1.516
 7715SOL    HW224045   5.141   0.592   1.425
 7716SOL     OW24046   4.461   2.224   2.158
 7716SOL    HW124047   4.398   2.215   2.082
 7716SOL    HW224048   4.540   2.278   2.130
 7717SOL     OW24049   2.932   1.619   5.374
 7717SOL    HW124050   2.882   1.673   5.442
 7717SOL    HW224051   2.949   1.675   5.293
 7718SOL     OW24052   2.365   1.437   3.003
 7718SOL    HW124053   2.317   1.387   3.075
 7718SOL    HW224054   2.463   1.435   3.021
 7719SOL     OW24055   0.117   2.460   4.517
 7719SOL    HW124056   0.055   2.517   4.571
 7719SOL    HW224057   0.206   2.454   4.562
 7720SOL     OW24058   6.416   6.596   1.065
 7720SOL    HW124059   6.502   6.592   1.116
 7720SOL    HW224060   6.419   6.530   0.989
 7721SOL     OW24061   2.433   4.462   3.370
 7721SOL    HW124062   2.342   4.432   3.343
 7721SOL    HW224063   2.452   4.430   3.463
 7722SOL     OW24064   6.215   4.771   2.883
 7722SOL    HW124065   6.251   4.703   2.818
 7722SOL    HW224066   6.254   4.861   2.862
 7723SOL     OW24067   6.970   3.128   0.343
 7723SOL    HW124068   6.877   3.162   0.329
 7723SOL    HW224069   6.966   3.037   0.383
 7724SOL     OW24070   1.529   3.979   1.260
 7724SOL    HW124071   1.574   3.969   1.349
 7724SOL    HW224072   1.435   4.011   1.274
 7725SOL     OW24073   5.752   2.443   3.438
 7725SOL    HW124074   5.845   2.479   3.437
 7725SOL    HW224075   5.688   2.514   3.409
 7726SOL     OW24076   0.422   3.952   2.818
 7726SOL    HW124077   0.326   3.941   2.840
 7726SOL    HW224078   0.438   4.045   2.784
 7727SOL     OW24079   6.497   2.769   3.756
 7727SOL    HW124080   6.587   2.812   3.759
 7727SOL    HW224081   6.427   2.836   3.782
 7728SOL     OW24082   1.599   3.378   3.093
 7728SOL    HW124083   1.637   3.446   3.156
 7728SOL    HW224084   1.499   3.380   3.099
 7729SOL     OW24085   4.889   2.084   0.834
 7729SOL    HW124086   4.923   2.075   0.927
 7729SOL    HW224087   4.959   2.126   0.776
 7730SOL     OW24088   4.989   6.130   2.836
 7730SOL    HW124089   5.073   6.168   2.799
 7730SOL    HW224090   4.962   6.180   2.918
 7731SOL     OW24091   6.215   0.948   0.608
 7731SOL    HW124092   6.174   0.869   0.561
 7731SOL    HW224093   6.290   0.916   0.666
 7732SOL     OW24094   4.795   5.588   0.691
 7732SOL    HW124095   4.869   5.594   0.625
 7732SOL    HW224096   4.711   5.623   0.649
 7733SOL     OW24097   3.942   0.531   1.377
 7733SOL    HW124098   3.977   0.543   1.470
 7733SOL    HW224099   3.943   0.433   1.354
 7734SOL     OW24100   1.341   2.934   3.317
 7734SOL    HW124101   1.362   2.870   3.391
 7734SOL    HW224102   1.425   2.979   3.287
 7735SOL     OW24103   5.150   4.437   6.400
 7735SOL    HW124104   5.059   4.404   6.376
 7735SOL    HW224105   5.188   4.379   6.473
 7736SOL     OW24106   5.470   4.060   6.947
 7736SOL    HW124107   5.378   4.094   6.964
 7736SOL    HW224108   5.470   4.001   6.867
 7737SOL     OW24109   4.642   2.043   0.623
 7737SOL    HW124110   4.554   2.014   0.587
 7737SOL    HW224111   4.690   1.964   0.662
 7738SOL     OW24112   2.918   5.781   0.490
 7738SOL    HW124113   2.922   5.879   0.473
 7738SOL    HW224114   2.887   5.733   0.408
 7739SOL     OW24115   0.946   2.418   0.914
 7739SOL    HW124116   1.032   2.430   0.963
 7739SOL    HW224117   0.947   2.474   0.831
 7740SOL     OW24118   6.756   0.152   2.399
 7740SOL    HW124119   6.706   0.155   2.312
 7740SOL    HW224120   6.816   0.232   2.406
 7741SOL     OW24121   2.382   6.252   3.803
 7741SOL    HW124122   2.322   6.197   3.862
 7741SOL    HW224123   2.435   6.315   3.860
 7742SOL     OW24124   5.975   1.933   3.324
 7742SOL    HW124125   5.900   1.868   3.341
 7742SOL    HW224126   6.045   1.888   3.269
 7743SOL     OW24127   4.696   2.931   5.545
 7743SOL    HW124128   4.697   2.843   5.592
 7743SOL    HW224129   4.607   2.945   5.502
 7744SOL     OW24130   6.435   6.771   3.723
 7744SOL    HW124131   6.351   6.777   3.776
 7744SOL    HW224132   6.507   6.824   3.768
 7745SOL     OW24133   3.309   2.693   6.492
 7745SOL    HW124134   3.239   2.622   6.484
 7745SOL    HW224135   3.324   2.712   6.589
 7746SOL     OW24136   1.731   7.016   0.359
 7746SOL    HW124137   1.744   7.007   0.260
 7746SOL    HW224138   1.820   7.017   0.405
 7747SOL     OW24139   5.150   6.499   0.836
 7747SOL    HW124140   5.214   6.478   0.910
 7747SOL    HW224141   5.186   6.464   0.749
 7748SOL     OW24142   2.479   4.006   6.266
 7748SOL    HW124143   2.556   4.065   6.292
 7748SOL    HW224144   2.438   3.967   6.348
 7749SOL     OW24145   5.241   2.927   5.811
 7749SOL    HW124146   5.249   2.828   5.802
 7749SOL    HW224147   5.189   2.963   5.734
 7750SOL     OW24148   0.494   6.071   1.820
 7750SOL    HW124149   0.522   6.126   1.741
 7750SOL    HW224150   0.442   6.129   1.883
 7751SOL     OW24151   0.921   2.272   1.429
 7751SOL    HW124152   1.006   2.224   1.452
 7751SOL    HW224153   0.930   2.316   1.340
 7752SOL     OW24154   4.535   1.126   4.635
 7752SOL    HW124155   4.460   1.134   4.570
 7752SOL    HW224156   4.504   1.155   4.726
 7753SOL     OW24157   2.407   1.067   5.454
 7753SOL    HW124158   2.475   1.125   5.499
 7753SOL    HW224159   2.324   1.120   5.435
 7754SOL     OW24160   4.237   6.408   1.724
 7754SOL    HW124161   4.297   6.360   1.660
 7754SOL    HW224162   4.290   6.436   1.804
 7755SOL     OW24163   1.635   4.228   6.207
 7755SOL    HW124164   1.666   4.306   6.152
 7755SOL    HW224165   1.566   4.177   6.156
 7756SOL     OW24166   2.657   6.194   1.486
 7756SOL    HW124167   2.593   6.127   1.522
 7756SOL    HW224168   2.711   6.153   1.412
 7757SOL     OW24169   0.268   4.498   3.121
 7757SOL    HW124170   0.232   4.476   3.030
 7757SOL    HW224171   0.285   4.413   3.171
 7758SOL     OW24172   1.434   0.645   5.276
 7758SOL    HW124173   1.433   0.742   5.252
 7758SOL    HW224174   1.527   0.609   5.263
 7759SOL     OW24175   3.305   1.913   6.677
 7759SOL    HW124176   3.237   1.947   6.742
 7759SOL    HW224177   3.284   1.946   6.585
 7760SOL     OW24178   4.609   2.805   1.299
 7760SOL    HW124179   4.686   2.753   1.262
 7760SOL    HW224180   4.524   2.754   1.287
 7761SOL     OW24181   4.498   5.720   4.608
 7761SOL    HW124182   4.512   5.621   4.607
 7761SOL    HW224183   4.405   5.741   4.579
 7762SOL     OW24184   6.832   0.706   3.468
 7762SOL    HW124185   6.744   0.752   3.456
 7762SOL    HW224186   6.817   0.610   3.490
 7763SOL     OW24187   2.662   7.016   4.505
 7763SOL    HW124188   2.564   7.001   4.500
 7763SOL    HW224189   2.681   0.070   4.567
 7764SOL     OW24190   3.244   4.003   5.496
 7764SOL    HW124191   3.185   4.082   5.508
 7764SOL    HW224192   3.208   3.926   5.549
 7765SOL     OW24193   6.261   3.046   4.436
 7765SOL    HW124194   6.182   3.106   4.439
 7765SOL    HW224195   6.328   3.075   4.505
 7766SOL     OW24196   0.308   4.306   0.003
 7766SOL    HW124197   0.236   4.375   0.006
 7766SOL    HW224198   0.280   4.231   6.965
 7767SOL     OW24199   2.705   1.167   3.222
 7767SOL    HW124200   2.629   1.229   3.242
 7767SOL    HW224201   2.791   1.212   3.245
 7768SOL     OW24202   4.553   4.811   3.107
 7768SOL    HW124203   4.573   4.842   3.200
 7768SOL    HW224204   4.617   4.853   3.043
 7769SOL     OW24205   3.399   2.366   5.338
 7769SOL    HW124206   3.315   2.366   5.283
 7769SOL    HW224207   3.385   2.424   5.418
 7770SOL     OW24208   1.800   3.280   4.537
 7770SOL    HW124209   1.777   3.333   4.619
 7770SOL    HW224210   1.813   3.342   4.460
 7771SOL     OW24211   3.148   2.232   6.186
 7771SOL    HW124212   3.107   2.259   6.273
 7771SOL    HW224213   3.190   2.142   6.197
 7772SOL     OW24214   5.540   0.401   1.533
 7772SOL    HW124215   5.606   0.330   1.557
 7772SOL    HW224216   5.560   0.484   1.585
 7773SOL     OW24217   3.516   6.293   0.522
 7773SOL    HW124218   3.431   6.241   0.521
 7773SOL    HW224219   3.587   6.241   0.474
 7774SOL     OW24220   4.318   1.476   3.097
 7774SOL    HW124221   4.299   1.562   3.143
 7774SOL    HW224222   4.360   1.494   3.008
 7775SOL     OW24223   3.515   0.804   6.671
 7775SOL    HW124224   3.535   0.707   6.687
 7775SOL    HW224225   3.517   0.853   6.758
 7776SOL     OW24226   1.331   0.759   4.994
 7776SOL    HW124227   1.369   0.831   5.052
 7776SOL    HW224228   1.371   0.765   4.902
 7777SOL     OW24229   5.035   5.652   3.033
 7777SOL    HW124230   5.014   5.560   3.065
 7777SOL    HW224231   5.133   5.667   3.035
 7778SOL     OW24232   5.627   4.717   3.173
 7778SOL    HW124233   5.625   4.750   3.079
 7778SOL    HW224234   5.550   4.655   3.188
 7779SOL     OW24235   3.749   5.974   2.287
 7779SOL    HW124236   3.847   5.965   2.273
 7779SOL    HW224237   3.700   5.905   2.234
 7780SOL     OW24238   5.719   6.067   5.212
 7780SOL    HW124239   5.715   6.121   5.296
 7780SOL    HW224240   5.650   6.100   5.147
 7781SOL     OW24241   1.515   2.561   0.423
 7781SOL    HW124242   1.600   2.597   0.385
 7781SOL    HW224243   1.486   2.482   0.369
 7782SOL     OW24244   5.368   4.346   3.262
 7782SOL    HW124245   5.439   4.410   3.290
 7782SOL    HW224246   5.335   4.370   3.171
 7783SOL     OW24247   0.784   0.593   5.165
 7783SOL    HW124248   0.748   0.499   5.169
 7783SOL    HW224249   0.882   0.591   5.185
 7784SOL     OW24250   2.257   2.879   2.728
 7784SOL    HW124251   2.246   2.971   2.768
 7784SOL    HW224252   2.244   2.884   2.629
 7785SOL     OW24253   0.764   6.463   2.645
 7785SOL    HW124254   0.792   6.515   2.564
 7785SOL    HW224255   0.674   6.495   2.675
 7786SOL     OW24256   4.549   6.773   6.419
 7786SOL    HW124257   4.583   6.840   6.485
 7786SOL    HW224258   4.536   6.816   6.330
 7787SOL     OW24259   2.915   2.570   1.007
 7787SOL    HW124260   2.942   2.504   1.077
 7787SOL    HW224261   2.934   2.663   1.040
 7788SOL     OW24262   0.505   4.273   1.777
 7788SOL    HW124263   0.549   4.203   1.720
 7788SOL    HW224264   0.410   4.285   1.747
 7789SOL     OW24265   4.139   0.933   6.450
 7789SOL    HW124266   4.226   0.975   6.422
 7789SOL    HW224267   4.084   0.913   6.369
 7790SOL     OW24268   5.077   4.469   1.633
 7790SOL    HW124269   5.057   4.470   1.731
 7790SOL    HW224270   5.072   4.563   1.598
 7791SOL     OW24271   2.894   5.319   2.801
 7791SOL    HW124272   2.939   5.247   2.748
 7791SOL    HW224273   2.891   5.293   2.897
 7792SOL     OW24274   1.383   1.763   2.227
 7792SOL    HW124275   1.328   1.782   2.308
 7792SOL    HW224276   1.446   1.839   2.211
 7793SOL     OW24277   5.256   0.667   6.407
 7793SOL    HW124278   5.301   0.623   6.329
 7793SOL    HW224279   5.164   0.696   6.380
 7794SOL     OW24280   0.188   6.460   3.244
 7794SOL    HW124281   0.107   6.505   3.206
 7794SOL    HW224282   0.270   6.502   3.206
 7795SOL     OW24283   3.037   5.642   6.596
 7795SOL    HW124284   3.130   5.678   6.587
 7795SOL    HW224285   3.040   5.542   6.595
 7796SOL     OW24286   3.518   3.332   6.233
 7796SOL    HW124287   3.444   3.265   6.239
 7796SOL    HW224288   3.530   3.376   6.322
 7797SOL     OW24289   1.076   6.383   3.144
 7797SOL    HW124290   1.095   6.366   3.047
 7797SOL    HW224291   1.046   6.299   3.188
 7798SOL     OW24292   1.244   2.605   0.811
 7798SOL    HW124293   1.160   2.601   0.757
 7798SOL    HW224294   1.310   2.539   0.774
 7799SOL     OW24295   2.595   6.229   3.587
 7799SOL    HW124296   2.655   6.309   3.581
 7799SOL    HW224297   2.510   6.255   3.634
 7800SOL     OW24298   0.257   6.319   1.760
 7800SOL    HW124299   0.201   6.284   1.685
 7800SOL    HW224300   0.271   6.246   1.828
 7801SOL     OW24301   2.064   2.215   1.770
 7801SOL    HW124302   1.988   2.187   1.712
 7801SOL    HW224303   2.118   2.134   1.796
 7802SOL     OW24304   0.134   3.411   4.628
 7802SOL    HW124305   0.146   3.490   4.688
 7802SOL    HW224306   0.138   3.441   4.533
 7803SOL     OW24307   4.355   2.347   5.904
 7803SOL    HW124308   4.437   2.293   5.884
 7803SOL    HW224309   4.298   2.353   5.822
 7804SOL     OW24310   2.668   2.085   5.280
 7804SOL    HW124311   2.675   2.021   5.356
 7804SOL    HW224312   2.759   2.102   5.243
 7805SOL     OW24313   5.704   3.206   0.526
 7805SOL    HW124314   5.723   3.146   0.604
 7805SOL    HW224315   5.762   3.180   0.449
 7806SOL     OW24316   0.148   2.425   5.715
 7806SOL    HW124317   0.235   2.476   5.715
 7806SOL    HW224318   0.154   2.348   5.778
 7807SOL     OW24319   2.249   5.048   5.760
 7807SOL    HW124320   2.348   5.058   5.755
 7807SOL    HW224321   2.222   4.960   5.722
 7808SOL     OW24322   5.092   3.930   2.808
 7808SOL    HW124323   5.092   3.833   2.783
 7808SOL    HW224324   5.006   3.972   2.779
 7809SOL     OW24325   4.558   5.001   3.589
 7809SOL    HW124326   4.637   5.044   3.546
 7809SOL    HW224327   4.486   5.069   3.604
 7810SOL     OW24328   4.006   6.297   5.218
 7810SOL    HW124329   4.081   6.288   5.284
 7810SOL    HW224330   4.035   6.356   5.143
 7811SOL     OW24331   1.117   5.448   2.618
 7811SOL    HW124332   1.056   5.522   2.588
 7811SOL    HW224333   1.157   5.404   2.537
 7812SOL     OW24334   2.645   2.314   6.327
 7812SOL    HW124335   2.682   2.248   6.262
 7812SOL    HW224336   2.633   2.270   6.416
 7813SOL     OW24337   5.901   1.212   0.939
 7813SOL    HW124338   5.912   1.115   0.957
 7813SOL    HW224339   5.911   1.229   0.841
 7814SOL     OW24340   0.389   3.055   2.171
 7814SOL    HW124341   0.466   3.103   2.129
 7814SOL    HW224342   0.401   3.052   2.270
 7815SOL     OW24343   5.804   3.124   4.871
 7815SOL    HW124344   5.879   3.140   4.935
 7815SOL    HW224345   5.755   3.041   4.896
 7816SOL     OW24346   0.922   1.157   4.934
 7816SOL    HW124347   0.999   1.103   4.967
 7816SOL    HW224348   0.865   1.185   5.010
 7817SOL     OW24349   3.076   2.972   6.501
 7817SOL    HW124350   2.994   2.921   6.476
 7817SOL    HW224351   3.149   2.951   6.437
 7818SOL     OW24352   5.525   1.217   2.011
 7818SOL    HW124353   5.567   1.164   2.085
 7818SOL    HW224354   5.447   1.166   1.975
 7819SOL     OW24355   1.294   3.856   3.981
 7819SOL    HW124356   1.320   3.813   4.068
 7819SOL    HW224357   1.323   3.951   3.981
 7820SOL     OW24358   1.915   0.218   5.628
 7820SOL    HW124359   1.828   0.182   5.662
 7820SOL    HW224360   1.913   0.318   5.630
 7821SOL     OW24361   5.720   5.480   5.859
 7821SOL    HW124362   5.738   5.418   5.936
 7821SOL    HW224363   5.623   5.472   5.832
 7822SOL     OW24364   1.088   0.934   4.702
 7822SOL    HW124365   1.155   0.863   4.678
 7822SOL    HW224366   1.130   1.024   4.695
 7823SOL     OW24367   1.188   4.245   6.677
 7823SOL    HW124368   1.265   4.182   6.684
 7823SOL    HW224369   1.118   4.221   6.745
 7824SOL     OW24370   5.142   2.507   3.021
 7824SOL    HW124371   5.107   2.414   3.016
 7824SOL    HW224372   5.065   2.571   3.026
 7825SOL     OW24373   3.493   3.376   1.972
 7825SOL    HW124374   3.474   3.418   1.884
 7825SOL    HW224375   3.442   3.423   2.044
 7826SOL     OW24376   6.927   0.754   0.198
 7826SOL    HW124377   6.875   0.717   0.121
 7826SOL    HW224378   6.886   0.726   0.284
 7827SOL     OW24379   5.393   4.883   1.542
 7827SOL    HW124380   5.315   4.887   1.480
 7827SOL    HW224381   5.370   4.828   1.622
 7828SOL     OW24382   0.868   6.747   0.912
 7828SOL    HW124383   0.793   6.762   0.977
 7828SOL    HW224384   0.866   6.652   0.881
 7829SOL     OW24385   3.870   2.802   1.567
 7829SOL    HW124386   3.914   2.731   1.512
 7829SOL    HW224387   3.792   2.762   1.615
 7830SOL     OW24388   5.656   2.953   6.757
 7830SOL    HW124389   5.600   2.937   6.839
 7830SOL    HW224390   5.621   3.033   6.708
 7831SOL     OW24391   1.303   3.180   0.517
 7831SOL    HW124392   1.398   3.183   0.548
 7831SOL    HW224393   1.290   3.248   0.445
 7832SOL     OW24394   2.459   2.562   5.924
 7832SOL    HW124395   2.397   2.613   5.864
 7832SOL    HW224396   2.539   2.618   5.945
 7833SOL     OW24397   0.277   0.235   0.309
 7833SOL    HW124398   0.245   0.303   0.244
 7833SOL    HW224399   0.222   0.152   0.301
 7834SOL     OW24400   0.856   0.704   1.256
 7834SOL    HW124401   0.873   0.634   1.187
 7834SOL    HW224402   0.932   0.706   1.321
 7835SOL     OW24403   2.203   3.082   4.785
 7835SOL    HW124404   2.217   3.027   4.703
 7835SOL    HW224405   2.266   3.053   4.857
 7836SOL     OW24406   2.076   6.123   0.245
 7836SOL    HW124407   1.989   6.127   0.293
 7836SOL    HW224408   2.123   6.037   0.267
 7837SOL     OW24409   6.144   0.084   2.946
 7837SOL    HW124410   6.185   0.002   2.906
 7837SOL    HW224411   6.063   0.111   2.894
 7838SOL     OW24412   3.553   0.027   4.596
 7838SOL    HW124413   3.493   0.056   4.521
 7838SOL    HW224414   3.628   6.995   4.558
 7839SOL     OW24415   6.466   4.655   4.683
 7839SOL    HW124416   6.405   4.581   4.713
 7839SOL    HW224417   6.536   4.671   4.753
 7840SOL     OW24418   5.664   2.936   4.399
 7840SOL    HW124419   5.655   2.957   4.301
 7840SOL    HW224420   5.758   2.954   4.428
 7841SOL     OW24421   0.551   1.588   6.372
 7841SOL    HW124422   0.594   1.671   6.408
 7841SOL    HW224423   0.492   1.612   6.295
 7842SOL     OW24424   2.433   1.068   2.830
 7842SOL    HW124425   2.430   1.026   2.921
 7842SOL    HW224426   2.527   1.069   2.797
 7843SOL     OW24427   5.306   3.457   0.667
 7843SOL    HW124428   5.406   3.462   0.670
 7843SOL    HW224429   5.278   3.389   0.600
 7844SOL     OW24430   3.866   0.743   3.491
 7844SOL    HW124431   3.823   0.750   3.581
 7844SOL    HW224432   3.939   0.811   3.484
 7845SOL     OW24433   6.118   1.766   4.456
 7845SOL    HW124434   6.179   1.790   4.532
 7845SOL    HW224435   6.160   1.694   4.401
 7846SOL     OW24436   2.846   6.929   1.942
 7846SOL    HW124437   2.763   6.875   1.955
 7846SOL    HW224438   2.887   6.906   1.853
 7847SOL     OW24439   6.459   0.651   0.573
 7847SOL    HW124440   6.500   0.681   0.487
 7847SOL    HW224441   6.446   0.552   0.571
 7848SOL     OW24442   4.683   3.690   1.669
 7848SOL    HW124443   4.701   3.625   1.595
 7848SOL    HW224444   4.597   3.738   1.650
 7849SOL     OW24445   5.874   3.284   4.669
 7849SOL    HW124446   5.891   3.372   4.715
 7849SOL    HW224447   5.830   3.221   4.733
 7850SOL     OW24448   1.057   0.637   5.173
 7850SOL    HW124449   1.108   0.696   5.236
 7850SOL    HW224450   1.119   0.570   5.132
 7851SOL     OW24451   6.142   6.582   0.375
 7851SOL    HW124452   6.142   6.573   0.474
 7851SOL    HW224453   6.133   6.678   0.349
 7852SOL     OW24454   2.533   6.286   0.107
 7852SOL    HW124455   2.540   6.385   0.112
 7852SOL    HW224456   2.436   6.259   0.104
 7853SOL     OW24457   2.574   3.427   0.163
 7853SOL    HW124458   2.584   3.329   0.146
 7853SOL    HW224459   2.528   3.471   0.086
 7854SOL     OW24460   3.150   4.093   2.471
 7854SOL    HW124461   3.130   4.188   2.494
 7854SOL    HW224462   3.115   4.072   2.380
 7855SOL     OW24463   4.233   5.840   6.117
 7855SOL    HW124464   4.279   5.752   6.107
 7855SOL    HW224465   4.136   5.829   6.093
 7856SOL     OW24466   5.375   3.403   5.490
 7856SOL    HW124467   5.408   3.484   5.441
 7856SOL    HW224468   5.289   3.373   5.450
 7857SOL     OW24469   6.683   1.640   5.811
 7857SOL    HW124470   6.778   1.664   5.790
 7857SOL    HW224471   6.625   1.665   5.733
 7858SOL     OW24472   6.040   4.003   2.923
 7858SOL    HW124473   6.056   4.015   2.825
 7858SOL    HW224474   5.990   4.082   2.958
 7859SOL     OW24475   1.514   5.319   6.196
 7859SOL    HW124476   1.479   5.410   6.217
 7859SOL    HW224477   1.612   5.325   6.179
 7860SOL     OW24478   3.861   7.015   2.029
 7860SOL    HW124479   3.825   6.958   1.955
 7860SOL    HW224480   3.958   0.011   2.013
 7861SOL     OW24481   5.106   4.869   0.643
 7861SOL    HW124482   5.044   4.934   0.687
 7861SOL    HW224483   5.096   4.779   0.684
 7862SOL     OW24484   3.162   4.513   1.265
 7862SOL    HW124485   3.146   4.592   1.207
 7862SOL    HW224486   3.077   4.484   1.308
 7863SOL     OW24487   6.689   5.714   1.741
 7863SOL    HW124488   6.776   5.711   1.790
 7863SOL    HW224489   6.632   5.637   1.769
 7864SOL     OW24490   0.805   5.285   4.622
 7864SOL    HW124491   0.820   5.305   4.719
 7864SOL    HW224492   0.834   5.191   4.603
 7865SOL     OW24493   3.261   0.022   2.946
 7865SOL    HW124494   3.183   0.067   2.988
 7865SOL    HW224495   3.286   6.963   2.999
 7866SOL     OW24496   2.581   1.886   4.191
 7866SOL    HW124497   2.494   1.871   4.238
 7866SOL    HW224498   2.648   1.923   4.256
 7867SOL     OW24499   6.012   4.447   1.923
 7867SOL    HW124500   5.998   4.535   1.968
 7867SOL    HW224501   5.926   4.418   1.881
 7868SOL     OW24502   5.377   6.190   0.462
 7868SOL    HW124503   5.277   6.195   0.462
 7868SOL    HW224504   5.411   6.211   0.554
 7869SOL     OW24505   0.570   3.824   1.791
 7869SOL    HW124506   0.596   3.730   1.771
 7869SOL    HW224507   0.642   3.886   1.759
 7870SOL     OW24508   6.842   5.623   3.895
 7870SOL    HW124509   6.887   5.574   3.821
 7870SOL    HW224510   6.759   5.667   3.861
 7871SOL     OW24511   4.940   3.540   2.959
 7871SOL    HW124512   4.933   3.485   2.876
 7871SOL    HW224513   4.957   3.479   3.037
 7872SOL     OW24514   6.979   3.047   2.911
 7872SOL    HW124515   7.011   2.954   2.933
 7872SOL    HW224516   6.882   3.054   2.932
 7873SOL     OW24517   0.370   5.329   5.108
 7873SOL    HW124518   0.362   5.282   5.020
 7873SOL    HW224519   0.373   5.427   5.093
 7874SOL     OW24520   5.962   1.730   0.531
 7874SOL    HW124521   5.991   1.817   0.573
 7874SOL    HW224522   5.923   1.671   0.602
 7875SOL     OW24523   4.314   3.178   6.070
 7875SOL    HW124524   4.374   3.242   6.022
 7875SOL    HW224525   4.219   3.196   6.044
 7876SOL     OW24526   6.466   0.712   3.637
 7876SOL    HW124527   6.471   0.631   3.579
 7876SOL    HW224528   6.378   0.713   3.685
 7877SOL     OW24529   0.040   2.291   2.688
 7877SOL    HW124530   0.029   2.390   2.684
 7877SOL    HW224531   0.106   2.267   2.759
 7878SOL     OW24532   4.724   4.156   2.377
 7878SOL    HW124533   4.714   4.213   2.295
 7878SOL    HW224534   4.707   4.060   2.353
 7879SOL     OW24535   5.262   0.057   3.745
 7879SOL    HW124536   5.201   7.017   3.697
 7879SOL    HW224537   5.321   0.103   3.678
 7880SOL     OW24538   0.217   0.034   6.574
 7880SOL    HW124539   0.229   6.957   6.581
 7880SOL    HW224540   0.306   0.078   6.574
 7881SOL     OW24541   0.355   4.563   4.645
 7881SOL    HW124542   0.349   4.657   4.677
 7881SOL    HW224543   0.309   4.503   4.710
 7882SOL     OW24544   6.580   3.599   3.399
 7882SOL    HW124545   6.540   3.524   3.451
 7882SOL    HW224546   6.640   3.653   3.458
 7883SOL     OW24547   3.294   1.410   3.483
 7883SOL    HW124548   3.338   1.320   3.489
 7883SOL    HW224549   3.196   1.400   3.502
 7884SOL     OW24550   0.624   4.229   4.557
 7884SOL    HW124551   0.608   4.290   4.634
 7884SOL    HW224552   0.644   4.283   4.475
 7885SOL     OW24553   6.211   5.719   3.033
 7885SOL    HW124554   6.238   5.721   2.936
 7885SOL    HW224555   6.164   5.633   3.052
 7886SOL     OW24556   4.688   2.721   2.078
 7886SOL    HW124557   4.672   2.691   1.983
 7886SOL    HW224558   4.748   2.801   2.078
 7887SOL     OW24559   3.066   3.394   0.338
 7887SOL    HW124560   3.058   3.421   0.434
 7887SOL    HW224561   3.003   3.449   0.283
 7888SOL     OW24562   5.619   1.620   3.836
 7888SOL    HW124563   5.603   1.715   3.863
 7888SOL    HW224564   5.690   1.580   3.894
 7889SOL     OW24565   6.101   4.633   1.012
 7889SOL    HW124566   6.066   4.542   1.034
 7889SOL    HW224567   6.076   4.697   1.085
 7890SOL     OW24568   1.025   3.851   4.201
 7890SOL    HW124569   0.980   3.903   4.274
 7890SOL    HW224570   1.107   3.806   4.238
 7891SOL     OW24571   0.697   2.589   3.981
 7891SOL    HW124572   0.687   2.672   4.036
 7891SOL    HW224573   0.754   2.608   3.901
 7892SOL     OW24574   1.006   3.216   5.830
 7892SOL    HW124575   1.071   3.145   5.858
 7892SOL    HW224576   0.989   3.209   5.732
 7893SOL     OW24577   6.228   1.309   1.454
 7893SOL    HW124578   6.203   1.262   1.370
 7893SOL    HW224579   6.303   1.259   1.499
 7894SOL     OW24580   2.601   0.934   6.188
 7894SOL    HW124581   2.587   0.910   6.284
 7894SOL    HW224582   2.699   0.929   6.166
 7895SOL     OW24583   4.060   6.162   3.252
 7895SOL    HW124584   4.023   6.170   3.160
 7895SOL    HW224585   3.996   6.203   3.317
 7896SOL     OW24586   4.047   2.129   1.316
 7896SOL    HW124587   4.072   2.050   1.260
 7896SOL    HW224588   4.006   2.199   1.257
 7897SOL     OW24589   3.651   4.174   0.105
 7897SOL    HW124590   3.576   4.210   0.161
 7897SOL    HW224591   3.630   4.189   0.008
 7898SOL     OW24592   5.539   0.341   4.234
 7898SOL    HW124593   5.626   0.391   4.243
 7898SOL    HW224594   5.532   0.273   4.307
 7899SOL     OW24595   5.557   4.875   1.142
 7899SOL    HW124596   5.555   4.775   1.136
 7899SOL    HW224597   5.559   4.903   1.238
 7900SOL     OW24598   1.036   3.802   0.191
 7900SOL    HW124599   0.977   3.858   0.133
 7900SOL    HW224600   1.082   3.861   0.258
 7901SOL     OW24601   5.948   1.118   6.242
 7901SOL    HW124602   6.026   1.119   6.305
 7901SOL    HW224603   5.981   1.129   6.148
 7902SOL     OW24604   0.602   6.645   2.980
 7902SOL    HW124605   0.545   6.714   2.936
 7902SOL    HW224606   0.680   6.689   3.024
 7903SOL     OW24607   2.217   1.827   4.733
 7903SOL    HW124608   2.181   1.920   4.725
 7903SOL    HW224609   2.311   1.831   4.767
 7904SOL     OW24610   5.710   0.981   1.835
 7904SOL    HW124611   5.744   1.053   1.895
 7904SOL    HW224612   5.752   0.990   1.745
 7905SOL     OW24613   5.717   0.100   0.411
 7905SOL    HW124614   5.680   0.077   0.501
 7905SOL    HW224615   5.732   0.198   0.405
 7906SOL     OW24616   1.264   4.917   1.056
 7906SOL    HW124617   1.185   4.925   1.117
 7906SOL    HW224618   1.348   4.924   1.110
 7907SOL     OW24619   6.236   0.196   3.806
 7907SOL    HW124620   6.217   0.152   3.718
 7907SOL    HW224621   6.155   0.192   3.864
 7908SOL     OW24622   0.280   0.742   6.726
 7908SOL    HW124623   0.355   0.733   6.660
 7908SOL    HW224624   0.306   0.700   6.812
 7909SOL     OW24625   5.764   3.733   1.786
 7909SOL    HW124626   5.747   3.781   1.872
 7909SOL    HW224627   5.685   3.675   1.764
 7910SOL     OW24628   2.344   3.554   0.436
 7910SOL    HW124629   2.415   3.624   0.445
 7910SOL    HW224630   2.387   3.463   0.439
 7911SOL     OW24631   1.087   4.483   0.226
 7911SOL    HW124632   1.038   4.556   0.273
 7911SOL    HW224633   1.058   4.394   0.263
 7912SOL     OW24634   5.997   5.504   0.265
 7912SOL    HW124635   5.958   5.529   0.177
 7912SOL    HW224636   5.932   5.525   0.338
 7913SOL     OW24637   0.804   3.492   0.549
 7913SOL    HW124638   0.716   3.448   0.566
 7913SOL    HW224639   0.876   3.422   0.541
 7914SOL     OW24640   6.423   4.922   4.933
 7914SOL    HW124641   6.448   4.858   5.006
 7914SOL    HW224642   6.496   4.926   4.865
 7915SOL     OW24643   3.602   6.950   2.889
 7915SOL    HW124644   3.558   7.004   2.817
 7915SOL    HW224645   3.630   7.010   2.964
 7916SOL     OW24646   1.350   0.550   4.492
 7916SOL    HW124647   1.290   0.494   4.434
 7916SOL    HW224648   1.297   0.622   4.535
 7917SOL     OW24649   3.983   3.462   0.226
 7917SOL    HW124650   4.059   3.495   0.169
 7917SOL    HW224651   3.901   3.452   0.170
 7918SOL     OW24652   2.357   0.794   5.000
 7918SOL    HW124653   2.290   0.722   5.019
 7918SOL    HW224654   2.321   0.857   4.932
 7919SOL     OW24655   1.234   5.431   2.354
 7919SOL    HW124656   1.214   5.345   2.400
 7919SOL    HW224657   1.309   5.418   2.289
 7920SOL     OW24658   4.593   7.022   0.714
 7920SOL    HW124659   4.496   0.021   0.706
 7920SOL    HW224660   4.607   6.959   0.790
 7921SOL     OW24661   5.081   1.344   1.577
 7921SOL    HW124662   5.006   1.278   1.567
 7921SOL    HW224663   5.080   1.381   1.670
 7922SOL     OW24664   0.408   5.603   0.848
 7922SOL    HW124665   0.483   5.621   0.912
 7922SOL    HW224666   0.427   5.648   0.761
 7923SOL     OW24667   4.125   1.271   6.509
 7923SOL    HW124668   4.070   1.352   6.525
 7923SOL    HW224669   4.144   1.225   6.596
 7924SOL     OW24670   6.023   0.410   0.933
 7924SOL    HW124671   5.994   0.336   0.993
 7924SOL    HW224672   5.947   0.473   0.918
 7925SOL     OW24673   2.406   6.349   1.089
 7925SOL    HW124674   2.321   6.352   1.037
 7925SOL    HW224675   2.466   6.423   1.060
 7926SOL     OW24676   4.845   6.120   6.353
 7926SOL    HW124677   4.853   6.043   6.416
 7926SOL    HW224678   4.921   6.119   6.288
 7927SOL     OW24679   4.808   6.867   2.304
 7927SOL    HW124680   4.749   6.788   2.289
 7927SOL    HW224681   4.863   6.883   2.223
 7928SOL     OW24682   6.560   1.444   3.181
 7928SOL    HW124683   6.621   1.488   3.246
 7928SOL    HW224684   6.603   1.441   3.091
 7929SOL     OW24685   4.319   4.265   6.115
 7929SOL    HW124686   4.295   4.361   6.130
 7929SOL    HW224687   4.237   4.215   6.087
 7930SOL     OW24688   4.052   5.850   5.646
 7930SOL    HW124689   3.956   5.879   5.650
 7930SOL    HW224690   4.059   5.753   5.670
 7931SOL     OW24691   3.224   2.333   0.752
 7931SOL    HW124692   3.278   2.253   0.775
 7931SOL    HW224693   3.276   2.393   0.691
 7932SOL     OW24694   0.475   5.576   1.381
 7932SOL    HW124695   0.468   5.564   1.282
 7932SOL    HW224696   0.387   5.605   1.417
 7933SOL     OW24697   7.010   1.506   5.966
 7933SOL    HW124698   6.920   1.512   6.011
 7933SOL    HW224699   0.023   1.413   5.976
 7934SOL     OW24700   1.096   4.303   0.955
 7934SOL    HW124701   1.165   4.327   0.886
 7934SOL    HW224702   1.006   4.334   0.924
 7935SOL     OW24703   5.493   3.378   2.669
 7935SOL    HW124704   5.570   3.363   2.731
 7935SOL    HW224705   5.424   3.433   2.714
 7936SOL     OW24706   3.396   6.087   4.054
 7936SOL    HW124707   3.424   6.020   4.124
 7936SOL    HW224708   3.470   6.097   3.987
 7937SOL     OW24709   2.335   5.869   6.877
 7937SOL    HW124710   2.265   5.800   6.858
 7937SOL    HW224711   2.414   5.853   6.817
 7938SOL     OW24712   3.494   6.585   4.474
 7938SOL    HW124713   3.491   6.678   4.510
 7938SOL    HW224714   3.587   6.550   4.480
 7939SOL     OW24715   0.538   2.182   4.825
 7939SOL    HW124716   0.584   2.116   4.885
 7939SOL    HW224717   0.454   2.214   4.870
 7940SOL     OW24718   5.456   1.116   3.219
 7940SOL    HW124719   5.487   1.192   3.277
 7940SOL    HW224720   5.516   1.037   3.233
 7941SOL     OW24721   3.938   6.690   1.977
 7941SOL    HW124722   3.921   6.601   1.934
 7941SOL    HW224723   3.879   6.758   1.934
 7942SOL     OW24724   0.945   4.159   1.787
 7942SOL    HW124725   1.034   4.116   1.795
 7942SOL    HW224726   0.877   4.091   1.760
 7943SOL     OW24727   2.100   5.404   6.633
 7943SOL    HW124728   2.014   5.401   6.583
 7943SOL    HW224729   2.177   5.394   6.569
 7944SOL     OW24730   1.434   3.119   0.837
 7944SOL    HW124731   1.397   3.077   0.755
 7944SOL    HW224732   1.364   3.176   0.880
 7945SOL     OW24733   5.714   4.468   2.424
 7945SOL    HW124734   5.808   4.475   2.391
 7945SOL    HW224735   5.713   4.415   2.510
 7946SOL     OW24736   3.907   1.236   5.198
 7946SOL    HW124737   3.850   1.228   5.280
 7946SOL    HW224738   3.904   1.330   5.164
 7947SOL     OW24739   1.146   2.689   5.295
 7947SOL    HW124740   1.079   2.659   5.363
 7947SOL    HW224741   1.208   2.614   5.273
 7948SOL     OW24742   1.311   4.821   2.480
 7948SOL    HW124743   1.393   4.766   2.497
 7948SOL    HW224744   1.233   4.762   2.461
 7949SOL     OW24745   3.591   4.757   6.343
 7949SOL    HW124746   3.580   4.676   6.400
 7949SOL    HW224747   3.534   4.831   6.379
 7950SOL     OW24748   5.988   5.217   5.364
 7950SOL    HW124749   5.977   5.119   5.383
 7950SOL    HW224750   5.962   5.236   5.269
 7951SOL     OW24751   3.267   5.477   2.714
 7951SOL    HW124752   3.260   5.409   2.787
 7951SOL    HW224753   3.194   5.544   2.724
 7952SOL     OW24754   5.445   3.012   6.943
 7952SOL    HW124755   5.459   2.975   0.012
 7952SOL    HW224756   5.361   2.975   6.904
 7953SOL     OW24757   3.086   1.715   0.869
 7953SOL    HW124758   3.167   1.761   0.904
 7953SOL    HW224759   3.098   1.697   0.772
 7954SOL     OW24760   3.475   3.149   0.070
 7954SOL    HW124761   3.536   3.227   0.080
 7954SOL    HW224762   3.504   3.076   0.132
 7955SOL     OW24763   1.647   1.265   6.645
 7955SOL    HW124764   1.575   1.203   6.676
 7955SOL    HW224765   1.735   1.234   6.681
 7956SOL     OW24766   6.626   6.994   1.266
 7956SOL    HW124767   6.691   0.022   1.322
 7956SOL    HW224768   6.665   6.979   1.175
 7957SOL     OW24769   5.043   0.042   5.187
 7957SOL    HW124770   5.013   0.094   5.266
 7957SOL    HW224771   4.978   0.054   5.112
 7958SOL     OW24772   5.621   3.226   6.934
 7958SOL    HW124773   5.546   3.161   6.921
 7958SOL    HW224774   5.662   3.248   6.845
 7959SOL     OW24775   5.323   0.751   5.799
 7959SOL    HW124776   5.338   0.843   5.836
 7959SOL    HW224777   5.290   0.758   5.704
 7960SOL     OW24778   0.026   0.883   6.381
 7960SOL    HW124779   6.975   0.926   6.329
 7960SOL    HW224780   0.090   0.839   6.318
 7961SOL     OW24781   6.546   0.712   0.323
 7961SOL    HW124782   6.497   0.743   0.242
 7961SOL    HW224783   6.565   0.614   0.315
 7962SOL     OW24784   6.166   6.592   5.960
 7962SOL    HW124785   6.124   6.595   6.051
 7962SOL    HW224786   6.260   6.558   5.969
 7963SOL     OW24787   6.937   5.477   4.272
 7963SOL    HW124788   6.852   5.439   4.309
 7963SOL    HW224789   6.971   5.418   4.199
 7964SOL     OW24790   6.383   3.562   2.314
 7964SOL    HW124791   6.393   3.543   2.412
 7964SOL    HW224792   6.316   3.499   2.275
 7965SOL     OW24793   4.246   1.830   6.831
 7965SOL    HW124794   4.206   1.749   6.789
 7965SOL    HW224795   4.174   1.899   6.844
 7966SOL     OW24796   4.457   4.094   5.525
 7966SOL    HW124797   4.377   4.130   5.476
 7966SOL    HW224798   4.538   4.103   5.468
 7967SOL     OW24799   1.482   4.700   2.053
 7967SOL    HW124800   1.417   4.705   1.978
 7967SOL    HW224801   1.441   4.651   2.130
 7968SOL     OW24802   6.341   2.090   4.241
 7968SOL    HW124803   6.401   2.145   4.183
 7968SOL    HW224804   6.344   1.995   4.210
 7969SOL     OW24805   4.935   5.948   0.037
 7969SOL    HW124806   4.912   5.864   0.086
 7969SOL    HW224807   5.027   5.940   7.021
 7970SOL     OW24808   6.053   2.992   2.472
 7970SOL    HW124809   5.978   2.944   2.517
 7970SOL    HW224810   6.134   2.934   2.469
 7971SOL     OW24811   3.105   1.374   1.036
 7971SOL    HW124812   3.117   1.377   0.937
 7971SOL    HW224813   3.190   1.403   1.081
 7972SOL     OW24814   3.947   3.402   3.016
 7972SOL    HW124815   3.909   3.310   3.009
 7972SOL    HW224816   3.874   3.467   3.034
 7973SOL     OW24817   5.887   3.798   3.276
 7973SOL    HW124818   5.986   3.799   3.290
 7973SOL    HW224819   5.862   3.723   3.214
 7974SOL     OW24820   6.482   1.834   5.013
 7974SOL    HW124821   6.413   1.802   5.078
 7974SOL    HW224822   6.504   1.759   4.950
 7975SOL     OW24823   5.448   0.932   1.053
 7975SOL    HW124824   5.371   0.977   1.097
 7975SOL    HW224825   5.480   0.857   1.111
 7976SOL     OW24826   1.063   6.692   6.670
 7976SOL    HW124827   1.095   6.621   6.732
 7976SOL    HW224828   1.123   6.772   6.677
 7977SOL     OW24829   5.561   6.295   2.876
 7977SOL    HW124830   5.575   6.335   2.785
 7977SOL    HW224831   5.485   6.341   2.922
 7978SOL     OW24832   0.571   4.756   0.827
 7978SOL    HW124833   0.521   4.810   0.894
 7978SOL    HW224834   0.622   4.684   0.873
 7979SOL     OW24835   1.452   3.843   5.118
 7979SOL    HW124836   1.550   3.852   5.099
 7979SOL    HW224837   1.435   3.867   5.214
 7980SOL     OW24838   3.916   5.300   6.464
 7980SOL    HW124839   3.979   5.362   6.510
 7980SOL    HW224840   3.967   5.239   6.403
 7981SOL     OW24841   1.899   5.069   3.153
 7981SOL    HW124842   1.990   5.034   3.134
 7981SOL    HW224843   1.893   5.164   3.123
 7982SOL     OW24844   1.104   2.380   6.332
 7982SOL    HW124845   1.140   2.411   6.244
 7982SOL    HW224846   1.004   2.393   6.334
 7983SOL     OW24847   5.197   0.575   1.151
 7983SOL    HW124848   5.170   0.659   1.104
 7983SOL    HW224849   5.221   0.596   1.246
 7984SOL     OW24850   1.207   1.883   1.839
 7984SOL    HW124851   1.147   1.935   1.779
 7984SOL    HW224852   1.267   1.945   1.890
 7985SOL     OW24853   1.782   2.595   5.710
 7985SOL    HW124854   1.770   2.602   5.611
 7985SOL    HW224855   1.872   2.556   5.729
 7986SOL     OW24856   3.241   1.130   3.755
 7986SOL    HW124857   3.217   1.222   3.787
 7986SOL    HW224858   3.242   1.067   3.833
 7987SOL     OW24859   1.156   3.692   0.546
 7987SOL    HW124860   1.144   3.608   0.599
 7987SOL    HW224861   1.212   3.757   0.598
 7988SOL     OW24862   0.326   1.766   0.941
 7988SOL    HW124863   0.330   1.855   0.896
 7988SOL    HW224864   0.233   1.730   0.934
 7989SOL     OW24865   0.752   4.553   0.660
 7989SOL    HW124866   0.740   4.485   0.587
 7989SOL    HW224867   0.699   4.635   0.639
 7990SOL     OW24868   3.184   5.365   5.424
 7990SOL    HW124869   3.190   5.461   5.396
 7990SOL    HW224870   3.216   5.355   5.518
 7991SOL     OW24871   5.665   1.239   5.131
 7991SOL    HW124872   5.711   1.197   5.053
 7991SOL    HW224873   5.666   1.339   5.122
 7992SOL     OW24874   2.658   0.725   0.526
 7992SOL    HW124875   2.641   0.767   0.436
 7992SOL    HW224876   2.695   0.793   0.588
 7993SOL     OW24877   6.636   6.201   1.770
 7993SOL    HW124878   6.613   6.298   1.770
 7993SOL    HW224879   6.657   6.172   1.864
 7994SOL     OW24880   5.262   0.589   3.013
 7994SOL    HW124881   5.233   0.676   2.973
 7994SOL    HW224882   5.340   0.604   3.074
 7995SOL     OW24883   0.179   4.487   1.529
 7995SOL    HW124884   0.248   4.552   1.560
 7995SOL    HW224885   0.098   4.536   1.499
 7996SOL     OW24886   4.072   6.559   3.297
 7996SOL    HW124887   4.078   6.523   3.204
 7996SOL    HW224888   4.150   6.525   3.350
 7997SOL     OW24889   0.546   2.134   6.592
 7997SOL    HW124890   0.496   2.115   6.677
 7997SOL    HW224891   0.619   2.199   6.611
 7998SOL     OW24892   3.272   0.749   0.368
 7998SOL    HW124893   3.360   0.765   0.413
 7998SOL    HW224894   3.266   0.805   0.285
 7999SOL     OW24895   1.426   1.530   5.221
 7999SOL    HW124896   1.465   1.501   5.308
 7999SOL    HW224897   1.500   1.551   5.157
 8000SOL     OW24898   5.782   5.689   6.235
 8000SOL    HW124899   5.865   5.744   6.227
 8000SOL    HW224900   5.773   5.657   6.330
 8001SOL     OW24901   4.678   0.496   1.257
 8001SOL    HW124902   4.589   0.483   1.299
 8001SOL    HW224903   4.675   0.575   1.195
 8002SOL     OW24904   0.736   0.295   5.853
 8002SOL    HW124905   0.645   0.271   5.819
 8002SOL    HW224906   0.781   0.212   5.886
 8003SOL     OW24907   1.904   6.561   2.744
 8003SOL    HW124908   1.984   6.618   2.764
 8003SOL    HW224909   1.898   6.487   2.811
 8004SOL     OW24910   1.056   3.180   3.905
 8004SOL    HW124911   1.092   3.211   3.992
 8004SOL    HW224912   0.994   3.249   3.867
 8005SOL     OW24913   2.598   0.598   3.482
 8005SOL    HW124914   2.523   0.655   3.449
 8005SOL    HW224915   2.664   0.584   3.408
 8006SOL     OW24916   4.012   4.666   5.545
 8006SOL    HW124917   4.040   4.581   5.591
 8006SOL    HW224918   3.913   4.665   5.530
 8007SOL     OW24919   6.090   1.198   6.529
 8007SOL    HW124920   6.109   1.294   6.546
 8007SOL    HW224921   6.008   1.170   6.580
 8008SOL     OW24922   4.574   6.499   6.871
 8008SOL    HW124923   4.658   6.481   6.820
 8008SOL    HW224924   4.598   6.537   6.961
 8009SOL     OW24925   5.215   1.230   0.899
 8009SOL    HW124926   5.240   1.202   0.992
 8009SOL    HW224927   5.117   1.252   0.896
 8010SOL     OW24928   2.865   2.631   5.333
 8010SOL    HW124929   2.779   2.605   5.287
 8010SOL    HW224930   2.908   2.551   5.373
 8011SOL     OW24931   3.975   1.863   2.325
 8011SOL    HW124932   3.981   1.962   2.314
 8011SOL    HW224933   4.027   1.817   2.253
 8012SOL     OW24934   1.215   2.955   5.498
 8012SOL    HW124935   1.115   2.959   5.500
 8012SOL    HW224936   1.250   3.040   5.457
 8013SOL     OW24937   1.734   2.701   3.437
 8013SOL    HW124938   1.685   2.735   3.518
 8013SOL    HW224939   1.683   2.725   3.355
 8014SOL     OW24940   1.820   0.972   3.149
 8014SOL    HW124941   1.843   1.056   3.197
 8014SOL    HW224942   1.779   0.993   3.061
 8015SOL     OW24943   2.283   6.765   5.221
 8015SOL    HW124944   2.293   6.763   5.122
 8015SOL    HW224945   2.347   6.699   5.262
 8016SOL     OW24946   4.515   1.756   5.888
 8016SOL    HW124947   4.500   1.666   5.928
 8016SOL    HW224948   4.427   1.801   5.873
 8017SOL     OW24949   6.568   0.434   0.318
 8017SOL    HW124950   6.515   0.422   0.233
 8017SOL    HW224951   6.525   0.381   0.391
 8018SOL     OW24952   3.997   1.344   0.389
 8018SOL    HW124953   3.931   1.397   0.335
 8018SOL    HW224954   4.087   1.350   0.345
 8019SOL     OW24955   3.106   3.120   0.719
 8019SOL    HW124956   3.152   3.208   0.705
 8019SOL    HW224957   3.174   3.046   0.711
 8020SOL     OW24958   0.272   0.306   5.142
 8020SOL    HW124959   0.348   0.350   5.093
 8020SOL    HW224960   0.306   0.267   5.228
 8021SOL     OW24961   1.207   2.146   2.422
 8021SOL    HW124962   1.177   2.134   2.327
 8021SOL    HW224963   1.273   2.221   2.427
 8022SOL     OW24964   5.148   1.161   2.392
 8022SOL    HW124965   5.101   1.155   2.304
 8022SOL    HW224966   5.155   1.069   2.432
 8023SOL     OW24967   4.839   5.924   3.729
 8023SOL    HW124968   4.757   5.867   3.725
 8023SOL    HW224969   4.819   6.014   3.690
 8024SOL     OW24970   1.965   6.451   6.357
 8024SOL    HW124971   1.933   6.417   6.269
 8024SOL    HW224972   1.898   6.429   6.428
 8025SOL     OW24973   2.236   5.222   1.445
 8025SOL    HW124974   2.229   5.152   1.516
 8025SOL    HW224975   2.236   5.178   1.355
 8026SOL     OW24976   0.705   5.659   6.629
 8026SOL    HW124977   0.757   5.656   6.543
 8026SOL    HW224978   0.708   5.751   6.667
 8027SOL     OW24979   3.600   6.442   6.668
 8027SOL    HW124980   3.633   6.370   6.729
 8027SOL    HW224981   3.672   6.468   6.605
 8028SOL     OW24982   2.785   5.307   4.538
 8028SOL    HW124983   2.764   5.210   4.524
 8028SOL    HW224984   2.746   5.336   4.626
 8029SOL     OW24985   6.371   1.143   1.087
 8029SOL    HW124986   6.359   1.167   0.991
 8029SOL    HW224987   6.300   1.078   1.115
 8030SOL     OW24988   6.151   4.795   0.754
 8030SOL    HW124989   6.137   4.751   0.842
 8030SOL    HW224990   6.200   4.881   0.767
 8031SOL     OW24991   6.591   0.945   2.999
 8031SOL    HW124992   6.511   0.957   3.058
 8031SOL    HW224993   6.651   0.875   3.036
 8032SOL     OW24994   5.362   2.664   0.787
 8032SOL    HW124995   5.411   2.578   0.782
 8032SOL    HW224996   5.411   2.734   0.734
 8033SOL     OW24997   4.046   4.391   1.173
 8033SOL    HW124998   4.139   4.367   1.202
 8033SOL    HW224999   4.047   4.419   1.077
 8034SOL     OW25000   5.776   6.848   5.550
 8034SOL    HW125001   5.852   6.852   5.485
 8034SOL    HW225002   5.763   6.753   5.579
 8035SOL     OW25003   4.840   1.745   3.004
 8035SOL    HW125004   4.851   1.781   2.911
 8035SOL    HW225005   4.917   1.686   3.026
 8036SOL     OW25006   6.188   3.257   3.827
 8036SOL    HW125007   6.254   3.293   3.760
 8036SOL    HW225008   6.176   3.158   3.811
 8037SOL     OW25009   1.156   2.922   6.565
 8037SOL    HW125010   1.228   2.872   6.516
 8037SOL    HW225011   1.096   2.857   6.610
 8038SOL     OW25012   6.286   6.376   2.418
 8038SOL    HW125013   6.297   6.458   2.362
 8038SOL    HW225014   6.226   6.311   2.372
 8039SOL     OW25015   1.252   2.089   5.683
 8039SOL    HW125016   1.260   2.030   5.763
 8039SOL    HW225017   1.307   2.172   5.697
 8040SOL     OW25018   1.936   5.410   6.047
 8040SOL    HW125019   1.884   5.417   5.962
 8040SOL    HW225020   1.898   5.338   6.105
 8041SOL     OW25021   4.145   1.755   2.706
 8041SOL    HW125022   4.186   1.828   2.760
 8041SOL    HW225023   4.166   1.770   2.609
 8042SOL     OW25024   4.416   4.269   5.779
 8042SOL    HW125025   4.328   4.254   5.734
 8042SOL    HW225026   4.409   4.348   5.840
 8043SOL     OW25027   5.527   4.164   0.346
 8043SOL    HW125028   5.587   4.153   0.426
 8043SOL    HW225029   5.452   4.226   0.369
 8044SOL     OW25030   3.513   3.914   0.984
 8044SOL    HW125031   3.509   3.907   1.084
 8044SOL    HW225032   3.424   3.891   0.945
 8045SOL     OW25033   0.788   1.316   2.454
 8045SOL    HW125034   0.851   1.243   2.480
 8045SOL    HW225035   0.695   1.291   2.480
 8046SOL     OW25036   0.275   5.435   2.188
 8046SOL    HW125037   0.299   5.464   2.281
 8046SOL    HW225038   0.358   5.428   2.133
 8047SOL     OW25039   4.301   6.864   5.379
 8047SOL    HW125040   4.351   6.799   5.438
 8047SOL    HW225041   4.246   6.924   5.436
 8048SOL     OW25042   3.321   4.007   0.143
 8048SOL    HW125043   3.401   3.953   0.115
 8048SOL    HW225044   3.252   3.947   0.183
 8049SOL     OW25045   2.251   0.243   0.618
 8049SOL    HW125046   2.290   0.157   0.585
 8049SOL    HW225047   2.200   0.287   0.544
 8050SOL     OW25048   2.140   4.626   4.110
 8050SOL    HW125049   2.157   4.725   4.108
 8050SOL    HW225050   2.115   4.599   4.203
 8051SOL     OW25051   3.131   6.286   4.211
 8051SOL    HW125052   3.123   6.245   4.120
 8051SOL    HW225053   3.198   6.360   4.209
 8052SOL     OW25054   2.201   2.012   1.895
 8052SOL    HW125055   2.134   1.959   1.947
 8052SOL    HW225056   2.248   2.076   1.957
 8053SOL     OW25057   2.837   3.521   6.278
 8053SOL    HW125058   2.791   3.473   6.204
 8053SOL    HW225059   2.835   3.465   6.361
 8054SOL     OW25060   5.321   4.070   5.087
 8054SOL    HW125061   5.416   4.055   5.115
 8054SOL    HW225062   5.260   4.026   5.152
 8055SOL     OW25063   0.282   0.586   5.475
 8055SOL    HW125064   0.195   0.626   5.504
 8055SOL    HW225065   0.297   0.606   5.378
 8056SOL     OW25066   2.349   0.714   4.019
 8056SOL    HW125067   2.355   0.799   4.071
 8056SOL    HW225068   2.390   0.727   3.928
 8057SOL     OW25069   2.369   2.598   1.809
 8057SOL    HW125070   2.386   2.533   1.734
 8057SOL    HW225071   2.339   2.548   1.890
 8058SOL     OW25072   2.910   6.808   3.052
 8058SOL    HW125073   2.894   6.839   2.958
 8058SOL    HW225074   3.008   6.794   3.066
 8059SOL     OW25075   2.790   3.360   6.567
 8059SOL    HW125076   2.793   3.280   6.507
 8059SOL    HW225077   2.716   3.350   6.633
 8060SOL     OW25078   6.740   0.042   5.757
 8060SOL    HW125079   6.822   0.036   5.700
 8060SOL    HW225080   6.666   0.083   5.705
 8061SOL     OW25081   0.802   1.679   2.148
 8061SOL    HW125082   0.871   1.724   2.204
 8061SOL    HW225083   0.793   1.583   2.175
 8062SOL     OW25084   4.183   5.883   5.145
 8062SOL    HW125085   4.104   5.945   5.143
 8062SOL    HW225086   4.212   5.863   5.051
 8063SOL     OW25087   3.550   0.420   3.050
 8063SOL    HW125088   3.556   0.320   3.054
 8063SOL    HW225089   3.641   0.459   3.058
 8064SOL     OW25090   5.877   2.848   0.098
 8064SOL    HW125091   5.898   2.913   0.025
 8064SOL    HW225092   5.806   2.885   0.157
 8065SOL     OW25093   3.040   6.721   5.048
 8065SOL    HW125094   2.977   6.687   5.117
 8065SOL    HW225095   3.063   6.816   5.068
 8066SOL     OW25096   0.082   1.151   4.866
 8066SOL    HW125097   0.062   1.248   4.860
 8066SOL    HW225098   0.181   1.138   4.880
 8067SOL     OW25099   5.078   3.119   3.516
 8067SOL    HW125100   4.991   3.075   3.494
 8067SOL    HW225101   5.141   3.106   3.440
 8068SOL     OW25102   6.369   4.584   1.118
 8068SOL    HW125103   6.418   4.671   1.127
 8068SOL    HW225104   6.277   4.602   1.082
 8069SOL     OW25105   3.112   4.848   2.258
 8069SOL    HW125106   3.026   4.889   2.226
 8069SOL    HW225107   3.177   4.843   2.182
 8070SOL     OW25108   5.473   4.468   0.130
 8070SOL    HW125109   5.524   4.476   0.215
 8070SOL    HW225110   5.412   4.547   0.120
 8071SOL     OW25111   3.724   6.518   6.086
 8071SOL    HW125112   3.640   6.520   6.140
 8071SOL    HW225113   3.763   6.610   6.083
 8072SOL     OW25114   1.786   2.984   6.536
 8072SOL    HW125115   1.708   3.036   6.571
 8072SOL    HW225116   1.871   3.026   6.568
 8073SOL     OW25117   3.657   0.388   6.802
 8073SOL    HW125118   3.705   0.367   6.888
 8073SOL    HW225119   3.635   0.302   6.755
 8074SOL     OW25120   2.059   1.991   0.398
 8074SOL    HW125121   2.147   2.038   0.396
 8074SOL    HW225122   2.034   1.964   0.305
 8075SOL     OW25123   6.913   6.307   6.741
 8075SOL    HW125124   6.874   6.395   6.766
 8075SOL    HW225125   6.841   6.247   6.707
 8076SOL     OW25126   6.696   0.196   6.837
 8076SOL    HW125127   6.748   0.122   6.880
 8076SOL    HW225128   6.673   0.265   6.905
 8077SOL     OW25129   4.205   5.639   1.506
 8077SOL    HW125130   4.300   5.662   1.485
 8077SOL    HW225131   4.148   5.722   1.501
 8078SOL     OW25132   0.785   1.062   0.598
 8078SOL    HW125133   0.757   1.150   0.560
 8078SOL    HW225134   0.839   1.012   0.530
 8079SOL     OW25135   1.395   1.214   4.999
 8079SOL    HW125136   1.306   1.260   4.999
 8079SOL    HW225137   1.466   1.278   5.030
 8080SOL     OW25138   1.346   3.497   3.266
 8080SOL    HW125139   1.365   3.421   3.328
 8080SOL    HW225140   1.248   3.503   3.249
 8081SOL     OW25141   6.176   4.791   4.831
 8081SOL    HW125142   6.132   4.714   4.785
 8081SOL    HW225143   6.275   4.785   4.817
 8082SOL     OW25144   2.932   1.734   2.790
 8082SOL    HW125145   2.918   1.640   2.759
 8082SOL    HW225146   2.845   1.783   2.789
 8083SOL     OW25147   5.813   2.067   4.794
 8083SOL    HW125148   5.733   2.051   4.852
 8083SOL    HW225149   5.806   2.158   4.752
 8084SOL     OW25150   2.608   0.190   6.507
 8084SOL    HW125151   2.582   0.153   6.596
 8084SOL    HW225152   2.542   0.259   6.478
 8085SOL     OW25153   0.599   5.552   3.848
 8085SOL    HW125154   0.625   5.507   3.933
 8085SOL    HW225155   0.667   5.620   3.823
 8086SOL     OW25156   0.777   1.393   2.200
 8086SOL    HW125157   0.682   1.381   2.172
 8086SOL    HW225158   0.786   1.368   2.297
 8087SOL     OW25159   1.346   0.518   0.006
 8087SOL    HW125160   1.338   0.461   0.088
 8087SOL    HW225161   1.429   0.573   0.011
 8088SOL     OW25162   5.316   6.714   6.363
 8088SOL    HW125163   5.316   6.633   6.305
 8088SOL    HW225164   5.400   6.717   6.418
 8089SOL     OW25165   6.078   2.440   6.542
 8089SOL    HW125166   6.151   2.397   6.489
 8089SOL    HW225167   6.105   2.534   6.563
 8090SOL     OW25168   4.298   1.631   6.595
 8090SOL    HW125169   4.387   1.667   6.624
 8090SOL    HW225170   4.313   1.554   6.532
 8091SOL     OW25171   1.034   4.083   4.933
 8091SOL    HW125172   1.003   3.992   4.961
 8091SOL    HW225173   0.978   4.152   4.980
 8092SOL     OW25174   4.941   2.141   5.419
 8092SOL    HW125175   4.901   2.188   5.340
 8092SOL    HW225176   5.010   2.075   5.387
 8093SOL     OW25177   2.682   6.052   2.796
 8093SOL    HW125178   2.584   6.037   2.782
 8093SOL    HW225179   2.696   6.136   2.847
 8094SOL     OW25180   1.328   4.098   4.556
 8094SOL    HW125181   1.334   4.197   4.550
 8094SOL    HW225182   1.235   4.071   4.581
 8095SOL     OW25183   1.602   4.192   5.493
 8095SOL    HW125184   1.678   4.253   5.514
 8095SOL    HW225185   1.520   4.246   5.473
 8096SOL     OW25186   0.985   6.907   2.204
 8096SOL    HW125187   0.919   6.980   2.218
 8096SOL    HW225188   0.939   6.818   2.206
 8097SOL     OW25189   2.851   6.414   5.166
 8097SOL    HW125190   2.928   6.351   5.153
 8097SOL    HW225191   2.885   6.501   5.202
 8098SOL     OW25192   0.774   5.746   3.815
 8098SOL    HW125193   0.811   5.763   3.906
 8098SOL    HW225194   0.835   5.685   3.765
 8099SOL     OW25195   3.451   5.747   3.998
 8099SOL    HW125196   3.485   5.790   3.915
 8099SOL    HW225197   3.375   5.686   3.975
 8100SOL     OW25198   6.639   1.178   6.265
 8100SOL    HW125199   6.542   1.173   6.241
 8100SOL    HW225200   6.652   1.242   6.341
 8101SOL     OW25201   1.647   6.304   1.062
 8101SOL    HW125202   1.564   6.318   1.117
 8101SOL    HW225203   1.657   6.207   1.040
 8102SOL     OW25204   1.446   3.126   4.596
 8102SOL    HW125205   1.476   3.199   4.657
 8102SOL    HW225206   1.526   3.085   4.552
 8103SOL     OW25207   3.943   1.167   2.445
 8103SOL    HW125208   3.911   1.262   2.445
 8103SOL    HW225209   4.043   1.166   2.436
 8104SOL     OW25210   2.222   6.590   6.026
 8104SOL    HW125211   2.193   6.618   5.934
 8104SOL    HW225212   2.147   6.606   6.090
 8105SOL     OW25213   6.794   1.900   2.967
 8105SOL    HW125214   6.822   1.812   3.005
 8105SOL    HW225215   6.729   1.944   3.028
 8106SOL     OW25216   2.214   6.481   4.308
 8106SOL    HW125217   2.142   6.413   4.325
 8106SOL    HW225218   2.197   6.561   4.366
 8107SOL     OW25219   1.931   5.738   4.469
 8107SOL    HW125220   1.915   5.714   4.374
 8107SOL    HW225221   1.843   5.745   4.517
 8108SOL     OW25222   0.118   1.127   6.466
 8108SOL    HW125223   0.082   1.053   6.410
 8108SOL    HW225224   0.178   1.090   6.536
 8109SOL     OW25225   6.706   3.826   6.421
 8109SOL    HW125226   6.805   3.819   6.433
 8109SOL    HW225227   6.677   3.769   6.344
 8110SOL     OW25228   4.671   4.747   1.064
 8110SOL    HW125229   4.640   4.775   0.973
 8110SOL    HW225230   4.767   4.770   1.076
 8111SOL     OW25231   5.664   1.281   3.335
 8111SOL    HW125232   5.704   1.264   3.425
 8111SOL    HW225233   5.725   1.244   3.264
 8112SOL     OW25234   0.474   2.629   5.188
 8112SOL    HW125235   0.509   2.650   5.097
 8112SOL    HW225236   0.521   2.684   5.256
 8113SOL     OW25237   6.174   2.822   1.083
 8113SOL    HW125238   6.185   2.920   1.104
 8113SOL    HW225239   6.086   2.808   1.038
 8114SOL     OW25240   1.622   4.247   1.941
 8114SOL    HW125241   1.663   4.331   1.906
 8114SOL    HW225242   1.640   4.240   2.039
 8115SOL     OW25243   3.145   6.880   0.075
 8115SOL    HW125244   3.185   6.916   0.159
 8115SOL    HW225245   3.095   6.796   0.094
 8116SOL     OW25246   3.381   5.288   0.931
 8116SOL    HW125247   3.477   5.287   0.904
 8116SOL    HW225248   3.356   5.198   0.967
 8117SOL     OW25249   2.337   0.064   3.200
 8117SOL    HW125250   2.277   0.032   3.272
 8117SOL    HW225251   2.332   0.002   3.122
 8118SOL     OW25252   6.131   3.828   6.645
 8118SOL    HW125253   6.103   3.852   6.738
 8118SOL    HW225254   6.153   3.730   6.641
 8119SOL     OW25255   5.275   5.620   5.178
 8119SOL    HW125256   5.220   5.597   5.259
 8119SOL    HW225257   5.369   5.637   5.205
 8120SOL     OW25258   2.346   5.633   0.901
 8120SOL    HW125259   2.296   5.700   0.846
 8120SOL    HW225260   2.442   5.630   0.871
 8121SOL     OW25261   0.934   4.452   2.876
 8121SOL    HW125262   0.988   4.529   2.844
 8121SOL    HW225263   0.992   4.392   2.931
 8122SOL     OW25264   1.040   4.669   2.756
 8122SOL    HW125265   1.069   4.671   2.660
 8122SOL    HW225266   0.989   4.752   2.777
 8123SOL     OW25267   0.419   2.070   6.835
 8123SOL    HW125268   0.491   2.104   6.895
 8123SOL    HW225269   0.330   2.077   6.881
 8124SOL     OW25270   5.094   6.015   4.177
 8124SOL    HW125271   5.083   5.992   4.080
 8124SOL    HW225272   5.191   6.023   4.199
 8125SOL     OW25273   0.246   0.844   2.840
 8125SOL    HW125274   0.329   0.865   2.891
 8125SOL    HW225275   0.243   0.746   2.821
 8126SOL     OW25276   4.012   4.879   4.053
 8126SOL    HW125277   3.950   4.910   3.981
 8126SOL    HW225278   3.961   4.869   4.139
 8127SOL     OW25279   2.392   2.777   0.193
 8127SOL    HW125280   2.446   2.817   0.119
 8127SOL    HW225281   2.347   2.849   0.245
 8128SOL     OW25282   3.417   2.718   1.612
 8128SOL    HW125283   3.365   2.698   1.529
 8128SOL    HW225284   3.356   2.721   1.691
 8129SOL     OW25285   1.061   2.329   0.454
 8129SOL    HW125286   1.027   2.252   0.400
 8129SOL    HW225287   1.160   2.334   0.445
 8130SOL     OW25288   1.451   5.191   0.154
 8130SOL    HW125289   1.462   5.250   0.074
 8130SOL    HW225290   1.397   5.111   0.130
 8131SOL     OW25291   2.393   2.725   0.785
 8131SOL    HW125292   2.372   2.651   0.849
 8131SOL    HW225293   2.440   2.799   0.835
 8132SOL     OW25294   6.513   6.790   4.097
 8132SOL    HW125295   6.558   6.791   4.186
 8132SOL    HW225296   6.561   6.852   4.035
 8133SOL     OW25297   3.739   5.287   1.227
 8133SOL    HW125298   3.687   5.271   1.311
 8133SOL    HW225299   3.823   5.233   1.228
 8134SOL     OW25300   6.500   1.186   5.693
 8134SOL    HW125301   6.548   1.242   5.625
 8134SOL    HW225302   6.519   1.089   5.676
 8135SOL     OW25303   2.630   0.277   1.969
 8135SOL    HW125304   2.553   0.325   2.011
 8135SOL    HW225305   2.597   0.214   1.899
 8136SOL     OW25306   5.056   5.231   2.511
 8136SOL    HW125307   4.977   5.208   2.454
 8136SOL    HW225308   5.127   5.271   2.453
 8137SOL     OW25309   3.613   1.592   5.360
 8137SOL    HW125310   3.554   1.615   5.437
 8137SOL    HW225311   3.630   1.493   5.360
 8138SOL     OW25312   5.502   1.000   1.659
 8138SOL    HW125313   5.445   1.070   1.704
 8138SOL    HW225314   5.585   0.986   1.713
 8139SOL     OW25315   1.470   1.693   2.535
 8139SOL    HW125316   1.421   1.779   2.523
 8139SOL    HW225317   1.554   1.695   2.481
 8140SOL     OW25318   4.658   1.392   4.613
 8140SOL    HW125319   4.599   1.314   4.588
 8140SOL    HW225320   4.605   1.458   4.666
 8141SOL     OW25321   3.953   5.229   6.030
 8141SOL    HW125322   3.881   5.297   6.013
 8141SOL    HW225323   3.985   5.192   5.942
 8142SOL     OW25324   6.177   4.561   0.500
 8142SOL    HW125325   6.170   4.531   0.595
 8142SOL    HW225326   6.274   4.563   0.473
 8143SOL     OW25327   5.922   4.269   6.127
 8143SOL    HW125328   5.869   4.340   6.172
 8143SOL    HW225329   5.861   4.202   6.086
 8144SOL     OW25330   5.455   6.644   6.824
 8144SOL    HW125331   5.384   6.713   6.839
 8144SOL    HW225332   5.535   6.686   6.783
 8145SOL     OW25333   6.038   5.924   3.072
 8145SOL    HW125334   5.938   5.913   3.070
 8145SOL    HW225335   6.080   5.852   3.016
 8146SOL     OW25336   3.922   0.911   5.668
 8146SOL    HW125337   4.020   0.899   5.652
 8146SOL    HW225338   3.892   0.996   5.627
 8147SOL     OW25339   4.549   1.704   4.109
 8147SOL    HW125340   4.582   1.744   4.194
 8147SOL    HW225341   4.603   1.741   4.033
 8148SOL     OW25342   5.361   2.552   2.524
 8148SOL    HW125343   5.404   2.468   2.558
 8148SOL    HW225344   5.287   2.578   2.586
 8149SOL     OW25345   4.022   5.183   2.678
 8149SOL    HW125346   4.060   5.225   2.596
 8149SOL    HW225347   3.954   5.243   2.718
 8150SOL     OW25348   0.847   5.251   0.800
 8150SOL    HW125349   0.753   5.259   0.835
 8150SOL    HW225350   0.889   5.342   0.799
 8151SOL     OW25351   1.122   2.446   3.832
 8151SOL    HW125352   1.077   2.446   3.921
 8151SOL    HW225353   1.189   2.520   3.827
 8152SOL     OW25354   2.204   0.839   3.718
 8152SOL    HW125355   2.246   0.876   3.635
 8152SOL    HW225356   2.108   0.817   3.700
 8153SOL     OW25357   2.736   0.134   1.561
 8153SOL    HW125358   2.800   0.209   1.580
 8153SOL    HW225359   2.674   0.162   1.487
 8154SOL     OW25360   2.322   6.585   4.073
 8154SOL    HW125361   2.297   6.536   4.156
 8154SOL    HW225362   2.244   6.639   4.042
 8155SOL     OW25363   3.298   2.787   1.967
 8155SOL    HW125364   3.371   2.752   2.027
 8155SOL    HW225365   3.257   2.711   1.917
 8156SOL     OW25366   5.901   0.661   5.438
 8156SOL    HW125367   5.812   0.637   5.476
 8156SOL    HW225368   5.967   0.587   5.457
 8157SOL     OW25369   6.082   4.050   6.183
 8157SOL    HW125370   6.144   4.064   6.261
 8157SOL    HW225371   6.028   4.133   6.168
 8158SOL     OW25372   0.892   5.708   1.333
 8158SOL    HW125373   0.861   5.752   1.418
 8158SOL    HW225374   0.944   5.773   1.279
 8159SOL     OW25375   2.229   5.208   1.947
 8159SOL    HW125376   2.232   5.149   1.866
 8159SOL    HW225377   2.245   5.303   1.920
 8160SOL     OW25378   4.419   2.233   1.058
 8160SOL    HW125379   4.422   2.133   1.061
 8160SOL    HW225380   4.508   2.269   1.085
 8161SOL     OW25381   4.791   1.208   0.103
 8161SOL    HW125382   4.692   1.215   0.095
 8161SOL    HW225383   4.815   1.156   0.185
 8162SOL     OW25384   5.811   6.887   0.794
 8162SOL    HW125385   5.848   6.855   0.706
 8162SOL    HW225386   5.880   6.873   0.865
 8163SOL     OW25387   2.495   4.382   5.296
 8163SOL    HW125388   2.512   4.287   5.324
 8163SOL    HW225389   2.578   4.436   5.311
 8164SOL     OW25390   4.752   2.159   1.166
 8164SOL    HW125391   4.670   2.170   1.221
 8164SOL    HW225392   4.765   2.063   1.143
 8165SOL     OW25393   1.900   4.253   1.365
 8165SOL    HW125394   1.935   4.291   1.279
 8165SOL    HW225395   1.809   4.291   1.384
 8166SOL     OW25396   2.646   0.590   2.244
 8166SOL    HW125397   2.638   0.548   2.154
 8166SOL    HW225398   2.563   0.644   2.263
 8167SOL     OW25399   6.183   2.891   3.431
 8167SOL    HW125400   6.186   2.792   3.416
 8167SOL    HW225401   6.095   2.926   3.400
 8168SOL     OW25402   3.921   1.689   3.119
 8168SOL    HW125403   3.822   1.694   3.129
 8168SOL    HW225404   3.954   1.603   3.158
 8169SOL     OW25405   4.108   3.699   6.689
 8169SOL    HW125406   4.096   3.612   6.736
 8169SOL    HW225407   4.021   3.749   6.688
 8170SOL     OW25408   0.855   5.804   4.085
 8170SOL    HW125409   0.762   5.796   4.121
 8170SOL    HW225410   0.902   5.881   4.128
 8171SOL     OW25411   0.713   1.845   6.468
 8171SOL    HW125412   0.786   1.877   6.407
 8171SOL    HW225413   0.627   1.887   6.440
 8172SOL     OW25414   0.032   0.025   0.447
 8172SOL    HW125415   7.021   0.009   0.540
 8172SOL    HW225416   0.002   0.115   0.416
 8173SOL     OW25417   3.306   2.476   6.849
 8173SOL    HW125418   3.307   2.454   6.946
 8173SOL    HW225419   3.396   2.508   6.820
 8174SOL     OW25420   5.574   1.230   1.187
 8174SOL    HW125421   5.617   1.141   1.179
 8174SOL    HW225422   5.643   1.299   1.209
 8175SOL     OW25423   0.673   1.817   6.070
 8175SOL    HW125424   0.753   1.760   6.050
 8175SOL    HW225425   0.701   1.897   6.123
 8176SOL     OW25426   2.491   5.465   1.782
 8176SOL    HW125427   2.564   5.453   1.714
 8176SOL    HW225428   2.495   5.390   1.848
 8177SOL     OW25429   0.796   6.838   4.520
 8177SOL    HW125430   0.770   6.862   4.613
 8177SOL    HW225431   0.716   6.806   4.470
 8178SOL     OW25432   1.114   6.497   6.841
 8178SOL    HW125433   1.171   6.415   6.835
 8178SOL    HW225434   1.120   6.535   6.934
 8179SOL     OW25435   3.130   3.031   6.896
 8179SOL    HW125436   3.133   3.104   6.828
 8179SOL    HW225437   3.120   3.071   6.987
 8180SOL     OW25438   6.764   6.661   4.558
 8180SOL    HW125439   6.671   6.635   4.581
 8180SOL    HW225440   6.797   6.730   4.623
 8181SOL     OW25441   2.713   2.245   3.120
 8181SOL    HW125442   2.748   2.218   3.209
 8181SOL    HW225443   2.787   2.247   3.053
 8182SOL     OW25444   3.486   2.066   5.549
 8182SOL    HW125445   3.546   2.111   5.482
 8182SOL    HW225446   3.391   2.090   5.530
 8183SOL     OW25447   1.135   3.262   4.760
 8183SOL    HW125448   1.090   3.350   4.778
 8183SOL    HW225449   1.080   3.189   4.800
 8184SOL     OW25450   0.392   0.244   5.425
 8184SOL    HW125451   0.416   0.170   5.488
 8184SOL    HW225452   0.295   0.265   5.432
 8185SOL     OW25453   3.107   1.750   2.488
 8185SOL    HW125454   3.125   1.810   2.566
 8185SOL    HW225455   3.020   1.774   2.446
 8186SOL     OW25456   3.762   5.693   5.877
 8186SOL    HW125457   3.843   5.746   5.900
 8186SOL    HW225458   3.715   5.735   5.799
 8187SOL     OW25459   1.407   2.362   5.827
 8187SOL    HW125460   1.375   2.421   5.900
 8187SOL    HW225461   1.445   2.418   5.753
 8188SOL     OW25462   5.963   2.373   3.043
 8188SOL    HW125463   6.025   2.332   2.976
 8188SOL    HW225464   5.980   2.331   3.132
 8189SOL     OW25465   6.087   4.592   2.612
 8189SOL    HW125466   6.174   4.561   2.651
 8189SOL    HW225467   6.012   4.566   2.672
 8190SOL     OW25468   5.156   3.083   3.836
 8190SOL    HW125469   5.144   3.128   3.748
 8190SOL    HW225470   5.088   3.118   3.901
 8191SOL     OW25471   0.437   4.991   4.221
 8191SOL    HW125472   0.363   4.960   4.280
 8191SOL    HW225473   0.525   4.975   4.266
 8192SOL     OW25474   2.470   4.971   2.133
 8192SOL    HW125475   2.504   4.972   2.039
 8192SOL    HW225476   2.373   4.947   2.133
 8193SOL     OW25477   4.350   6.867   5.088
 8193SOL    HW125478   4.325   6.845   5.182
 8193SOL    HW225479   4.422   6.937   5.088
 8194SOL     OW25480   6.720   0.727   0.011
 8194SOL    HW125481   6.697   0.823   0.026
 8194SOL    HW225482   6.778   0.719   6.953
 8195SOL     OW25483   6.426   6.957   0.204
 8195SOL    HW125484   6.388   6.996   0.288
 8195SOL    HW225485   6.526   6.950   0.213
 8196SOL     OW25486   3.301   6.602   6.450
 8196SOL    HW125487   3.251   6.687   6.468
 8196SOL    HW225488   3.371   6.589   6.520
 8197SOL     OW25489   0.186   0.523   6.340
 8197SOL    HW125490   0.239   0.607   6.327
 8197SOL    HW225491   0.129   0.532   6.422
 8198SOL     OW25492   2.398   6.645   3.154
 8198SOL    HW125493   2.474   6.604   3.103
 8198SOL    HW225494   2.314   6.594   3.136
 8199SOL     OW25495   6.920   3.263   6.516
 8199SOL    HW125496   6.920   3.184   6.577
 8199SOL    HW225497   7.003   3.317   6.530
 8200SOL     OW25498   5.223   4.381   0.993
 8200SOL    HW125499   5.198   4.360   1.088
 8200SOL    HW225500   5.313   4.341   0.973
 8201SOL     OW25501   6.046   6.896   3.650
 8201SOL    HW125502   5.953   6.881   3.685
 8201SOL    HW225503   6.056   6.991   3.623
 8202SOL     OW25504   1.499   4.320   3.990
 8202SOL    HW125505   1.469   4.303   4.084
 8202SOL    HW225506   1.598   4.337   3.990
 8203SOL     OW25507   5.850   4.019   1.433
 8203SOL    HW125508   5.804   3.991   1.518
 8203SOL    HW225509   5.785   4.011   1.357
 8204SOL     OW25510   3.290   0.290   2.132
 8204SOL    HW125511   3.357   0.363   2.143
 8204SOL    HW225512   3.304   0.244   2.045
 8205SOL     OW25513   5.624   5.552   1.578
 8205SOL    HW125514   5.699   5.583   1.520
 8205SOL    HW225515   5.548   5.522   1.520
 8206SOL     OW25516   4.051   1.920   5.258
 8206SOL    HW125517   4.145   1.908   5.292
 8206SOL    HW225518   3.989   1.862   5.310
 8207SOL     OW25519   2.562   5.371   6.643
 8207SOL    HW125520   2.564   5.297   6.710
 8207SOL    HW225521   2.653   5.379   6.601
 8208SOL     OW25522   1.560   4.452   0.929
 8208SOL    HW125523   1.566   4.363   0.974
 8208SOL    HW225524   1.483   4.503   0.966
 8209SOL     OW25525   1.213   0.300   5.310
 8209SOL    HW125526   1.201   0.265   5.217
 8209SOL    HW225527   1.167   0.239   5.375
 8210SOL     OW25528   2.070   1.147   0.207
 8210SOL    HW125529   2.039   1.241   0.224
 8210SOL    HW225530   2.110   1.110   0.291
 8211SOL     OW25531   3.231   2.955   4.238
 8211SOL    HW125532   3.263   2.984   4.148
 8211SOL    HW225533   3.275   2.869   4.263
 8212SOL     OW25534   3.100   0.366   1.171
 8212SOL    HW125535   3.134   0.424   1.245
 8212SOL    HW225536   3.011   0.329   1.197
 8213SOL     OW25537   4.619   4.197   1.642
 8213SOL    HW125538   4.701   4.254   1.651
 8213SOL    HW225539   4.558   4.214   1.720
 8214SOL     OW25540   3.499   5.350   4.301
 8214SOL    HW125541   3.589   5.380   4.269
 8214SOL    HW225542   3.509   5.291   4.380
 8215SOL     OW25543   4.534   6.374   6.580
 8215SOL    HW125544   4.505   6.330   6.665
 8215SOL    HW225545   4.625   6.413   6.592
 8216SOL     OW25546   5.151   5.619   1.433
 8216SOL    HW125547   5.147   5.600   1.532
 8216SOL    HW225548   5.061   5.603   1.393
 8217SOL     OW25549   2.162   6.006   3.546
 8217SOL    HW125550   2.085   5.969   3.493
 8217SOL    HW225551   2.147   6.103   3.562
 8218SOL     OW25552   1.630   0.145   5.565
 8218SOL    HW125553   1.566   0.213   5.602
 8218SOL    HW225554   1.667   0.178   5.479
 8219SOL     OW25555   3.842   3.919   1.390
 8219SOL    HW125556   3.906   3.903   1.315
 8219SOL    HW225557   3.867   3.862   1.468
 8220SOL     OW25558   3.937   3.628   3.968
 8220SOL    HW125559   4.003   3.556   3.990
 8220SOL    HW225560   3.914   3.679   4.050
 8221SOL     OW25561   5.452   3.241   3.117
 8221SOL    HW125562   5.455   3.158   3.062
 8221SOL    HW225563   5.366   3.290   3.100
 8222SOL     OW25564   6.485   2.929   0.524
 8222SOL    HW125565   6.491   2.895   0.618
 8222SOL    HW225566   6.389   2.951   0.503
 8223SOL     OW25567   0.717   5.961   5.350
 8223SOL    HW125568   0.714   6.015   5.266
 8223SOL    HW225569   0.742   6.019   5.427
 8224SOL     OW25570   5.500   1.815   0.452
 8224SOL    HW125571   5.546   1.779   0.533
 8224SOL    HW225572   5.402   1.795   0.458
 8225SOL     OW25573   5.029   1.398   0.671
 8225SOL    HW125574   5.115   1.416   0.717
 8225SOL    HW225575   4.955   1.394   0.738
 8226SOL     OW25576   4.020   6.929   0.350
 8226SOL    HW125577   4.020   6.992   0.428
 8226SOL    HW225578   3.926   6.913   0.321
 8227SOL     OW25579   4.857   2.112   2.919
 8227SOL    HW125580   4.794   2.068   2.983
 8227SOL    HW225581   4.935   2.052   2.903
 8228SOL     OW25582   1.937   0.537   5.698
 8228SOL    HW125583   1.837   0.536   5.695
 8228SOL    HW225584   1.967   0.579   5.784
 8229SOL     OW25585   4.586   4.390   1.291
 8229SOL    HW125586   4.588   4.293   1.316
 8229SOL    HW225587   4.651   4.441   1.348
 8230SOL     OW25588   5.289   0.336   6.000
 8230SOL    HW125589   5.354   0.260   5.997
 8230SOL    HW225590   5.281   0.376   5.908
 8231SOL     OW25591   2.598   1.438   3.145
 8231SOL    HW125592   2.602   1.403   3.239
 8231SOL    HW225593   2.636   1.530   3.142
 8232SOL     OW25594   3.688   6.363   2.904
 8232SOL    HW125595   3.751   6.432   2.941
 8232SOL    HW225596   3.713   6.344   2.809
 8233SOL     OW25597   0.971   1.102   5.780
 8233SOL    HW125598   0.989   1.084   5.876
 8233SOL    HW225599   0.895   1.167   5.772
 8234SOL     OW25600   1.746   1.882   0.702
 8234SOL    HW125601   1.767   1.870   0.799
 8234SOL    HW225602   1.784   1.806   0.650
 8235SOL     OW25603   0.151   5.671   0.930
 8235SOL    HW125604   0.101   5.590   0.901
 8235SOL    HW225605   0.247   5.663   0.904
 8236SOL     OW25606   0.458   6.492   0.182
 8236SOL    HW125607   0.389   6.564   0.171
 8236SOL    HW225608   0.550   6.532   0.174
 8237SOL     OW25609   4.606   5.203   6.761
 8237SOL    HW125610   4.602   5.262   6.841
 8237SOL    HW225611   4.572   5.252   6.681
 8238SOL     OW25612   0.726   4.176   6.998
 8238SOL    HW125613   0.690   4.181   0.069
 8238SOL    HW225614   0.695   4.256   6.947
 8239SOL     OW25615   1.292   1.099   5.216
 8239SOL    HW125616   1.332   1.111   5.125
 8239SOL    HW225617   1.200   1.060   5.208
 8240SOL     OW25618   3.602   3.812   4.581
 8240SOL    HW125619   3.619   3.857   4.669
 8240SOL    HW225620   3.510   3.835   4.549
 8241SOL     OW25621   2.205   4.142   5.776
 8241SOL    HW125622   2.287   4.085   5.784
 8241SOL    HW225623   2.132   4.090   5.730
 8242SOL     OW25624   0.392   3.376   3.808
 8242SOL    HW125625   0.307   3.369   3.860
 8242SOL    HW225626   0.470   3.360   3.869
 8243SOL     OW25627   0.647   4.822   4.853
 8243SOL    HW125628   0.743   4.845   4.869
 8243SOL    HW225629   0.625   4.736   4.898
 8244SOL     OW25630   1.136   0.421   4.369
 8244SOL    HW125631   1.110   0.329   4.337
 8244SOL    HW225632   1.054   0.474   4.387
 8245SOL     OW25633   5.388   1.761   4.075
 8245SOL    HW125634   5.346   1.671   4.072
 8245SOL    HW225635   5.473   1.756   4.127
 8246SOL     OW25636   1.898   5.140   6.448
 8246SOL    HW125637   1.855   5.204   6.512
 8246SOL    HW225638   1.990   5.173   6.425
 8247SOL     OW25639   3.292   5.276   2.970
 8247SOL    HW125640   3.344   5.259   2.886
 8247SOL    HW225641   3.201   5.236   2.961
 8248SOL     OW25642   0.301   5.195   2.978
 8248SOL    HW125643   0.360   5.274   2.963
 8248SOL    HW225644   0.300   5.138   2.896
 8249SOL     OW25645   2.929   2.018   6.259
 8249SOL    HW125646   2.894   2.083   6.192
 8249SOL    HW225647   2.998   1.960   6.217
 8250SOL     OW25648   1.343   1.288   6.469
 8250SOL    HW125649   1.300   1.370   6.508
 8250SOL    HW225650   1.439   1.284   6.498
 8251SOL     OW25651   0.173   1.854   4.595
 8251SOL    HW125652   0.132   1.927   4.541
 8251SOL    HW225653   0.194   1.777   4.534
 8252SOL     OW25654   1.594   1.992   6.541
 8252SOL    HW125655   1.555   2.067   6.489
 8252SOL    HW225656   1.522   1.943   6.590
 8253SOL     OW25657   4.727   5.971   1.078
 8253SOL    HW125658   4.783   5.889   1.089
 8253SOL    HW225659   4.702   5.981   0.981
 8254SOL     OW25660   5.206   4.765   6.899
 8254SOL    HW125661   5.223   4.800   6.991
 8254SOL    HW225662   5.262   4.683   6.883
 8255SOL     OW25663   1.023   6.183   6.477
 8255SOL    HW125664   0.987   6.130   6.400
 8255SOL    HW225665   0.977   6.154   6.561
 8256SOL     OW25666   1.670   5.855   3.264
 8256SOL    HW125667   1.645   5.925   3.330
 8256SOL    HW225668   1.681   5.767   3.310
 8257SOL     OW25669   4.962   3.682   2.714
 8257SOL    HW125670   4.969   3.591   2.674
 8257SOL    HW225671   4.930   3.675   2.808
 8258SOL     OW25672   6.871   3.052   2.155
 8258SOL    HW125673   6.931   2.974   2.137
 8258SOL    HW225674   6.924   3.137   2.149
 8259SOL     OW25675   4.815   1.470   4.383
 8259SOL    HW125676   4.789   1.455   4.479
 8259SOL    HW225677   4.912   1.490   4.378
 8260SOL     OW25678   4.309   1.419   1.079
 8260SOL    HW125679   4.394   1.398   1.031
 8260SOL    HW225680   4.232   1.377   1.030
 8261SOL     OW25681   5.652   0.354   3.029
 8261SOL    HW125682   5.596   0.275   3.055
 8261SOL    HW225683   5.738   0.322   2.988
 8262SOL     OW25684   6.148   3.866   2.049
 8262SOL    HW125685   6.078   3.936   2.062
 8262SOL    HW225686   6.219   3.877   2.119
 8263SOL     OW25687   0.245   1.951   6.271
 8263SOL    HW125688   0.221   1.971   6.366
 8263SOL    HW225689   0.319   1.883   6.269
 8264SOL     OW25690   2.623   6.852   2.459
 8264SOL    HW125691   2.560   6.930   2.464
 8264SOL    HW225692   2.602   6.797   2.378
 8265SOL     OW25693   5.061   0.234   0.634
 8265SOL    HW125694   5.073   0.139   0.662
 8265SOL    HW225695   5.151   0.277   0.620
 8266SOL     OW25696   2.656   0.730   3.847
 8266SOL    HW125697   2.663   0.710   3.945
 8266SOL    HW225698   2.615   0.820   3.834
 8267SOL     OW25699   1.298   4.189   3.263
 8267SOL    HW125700   1.279   4.283   3.236
 8267SOL    HW225701   1.364   4.149   3.200
 8268SOL     OW25702   2.930   4.667   6.455
 8268SOL    HW125703   2.955   4.657   6.359
 8268SOL    HW225704   2.999   4.723   6.501
 8269SOL     OW25705   5.309   2.280   3.690
 8269SOL    HW125706   5.269   2.226   3.616
 8269SOL    HW225707   5.395   2.320   3.659
 8270SOL     OW25708   3.754   0.328   5.923
 8270SOL    HW125709   3.691   0.340   6.000
 8270SOL    HW225710   3.802   0.240   5.933
 8271SOL     OW25711   3.897   6.257   6.168
 8271SOL    HW125712   3.946   6.332   6.124
 8271SOL    HW225713   3.804   6.250   6.131
 8272SOL     OW25714   0.889   0.355   1.568
 8272SOL    HW125715   0.795   0.325   1.556
 8272SOL    HW225716   0.947   0.276   1.591
 8273SOL     OW25717   3.631   0.510   6.557
 8273SOL    HW125718   3.651   0.495   6.653
 8273SOL    HW225719   3.543   0.468   6.534
 8274SOL     OW25720   5.224   5.826   6.051
 8274SOL    HW125721   5.296   5.803   5.985
 8274SOL    HW225722   5.265   5.858   6.136
 8275SOL     OW25723   5.199   0.918   3.876
 8275SOL    HW125724   5.289   0.961   3.880
 8275SOL    HW225725   5.154   0.944   3.790
 8276SOL     OW25726   0.211   2.377   6.283
 8276SOL    HW125727   0.111   2.371   6.284
 8276SOL    HW225728   0.242   2.419   6.369
 8277SOL     OW25729   1.250   5.820   5.972
 8277SOL    HW125730   1.252   5.849   6.067
 8277SOL    HW225731   1.323   5.754   5.955
 8278SOL     OW25732   3.725   1.011   0.708
 8278SOL    HW125733   3.779   0.928   0.691
 8278SOL    HW225734   3.786   1.090   0.715
 8279SOL     OW25735   5.053   5.008   5.916
 8279SOL    HW125736   5.147   4.984   5.942
 8279SOL    HW225737   5.046   5.107   5.903
 8280SOL     OW25738   4.957   3.195   0.009
 8280SOL    HW125739   5.044   3.208   6.985
 8280SOL    HW225740   4.933   3.279   0.058
 8281SOL     OW25741   2.429   5.168   0.020
 8281SOL    HW125742   2.487   5.097   7.003
 8281SOL    HW225743   2.354   5.189   6.980
 8282SOL     OW25744   3.061   2.712   0.514
 8282SOL    HW125745   2.989   2.697   0.446
 8282SOL    HW225746   3.028   2.684   0.604
 8283SOL     OW25747   0.321   5.602   3.117
 8283SOL    HW125748   0.299   5.695   3.148
 8283SOL    HW225749   0.251   5.570   3.053
 8284SOL     OW25750   2.664   2.050   1.959
 8284SOL    HW125751   2.653   1.963   1.912
 8284SOL    HW225752   2.603   2.118   1.918
 8285SOL     OW25753   3.350   4.493   6.224
 8285SOL    HW125754   3.448   4.481   6.207
 8285SOL    HW225755   3.337   4.532   6.315
 8286SOL     OW25756   5.422   1.065   5.568
 8286SOL    HW125757   5.471   0.983   5.538
 8286SOL    HW225758   5.376   1.046   5.655
 8287SOL     OW25759   2.243   0.655   3.049
 8287SOL    HW125760   2.235   0.754   3.055
 8287SOL    HW225761   2.181   0.620   2.979
 8288SOL     OW25762   1.686   1.161   2.812
 8288SOL    HW125763   1.784   1.181   2.809
 8288SOL    HW225764   1.638   1.238   2.853
 8289SOL     OW25765   6.670   1.901   5.944
 8289SOL    HW125766   6.637   1.822   5.892
 8289SOL    HW225767   6.699   1.972   5.880
 8290SOL     OW25768   4.452   2.547   1.453
 8290SOL    HW125769   4.542   2.560   1.493
 8290SOL    HW225770   4.391   2.622   1.482
 8291SOL     OW25771   4.585   4.809   6.326
 8291SOL    HW125772   4.529   4.856   6.258
 8291SOL    HW225773   4.551   4.716   6.339
 8292SOL     OW25774   0.734   3.803   4.535
 8292SOL    HW125775   0.699   3.725   4.483
 8292SOL    HW225776   0.658   3.861   4.564
 8293SOL     OW25777   2.800   5.037   3.555
 8293SOL    HW125778   2.842   5.080   3.635
 8293SOL    HW225779   2.783   5.107   3.486
 8294SOL     OW25780   4.847   3.191   5.976
 8294SOL    HW125781   4.876   3.281   5.944
 8294SOL    HW225782   4.806   3.141   5.901
 8295SOL     OW25783   5.053   3.993   2.458
 8295SOL    HW125784   5.021   4.056   2.528
 8295SOL    HW225785   5.081   4.044   2.376
 8296SOL     OW25786   3.973   6.492   1.716
 8296SOL    HW125787   3.961   6.567   1.652
 8296SOL    HW225788   4.069   6.464   1.718
 8297SOL     OW25789   5.551   4.311   2.866
 8297SOL    HW125790   5.513   4.377   2.931
 8297SOL    HW225791   5.512   4.221   2.884
 8298SOL     OW25792   6.358   0.188   6.047
 8298SOL    HW125793   6.299   0.241   5.987
 8298SOL    HW225794   6.454   0.212   6.029
 8299SOL     OW25795   0.822   3.529   1.076
 8299SOL    HW125796   0.868   3.606   1.120
 8299SOL    HW225797   0.826   3.540   0.976
 8300SOL     OW25798   5.736   4.882   2.961
 8300SOL    HW125799   5.816   4.831   2.992
 8300SOL    HW225800   5.724   4.964   3.018
 8301SOL     OW25801   4.545   6.660   0.629
 8301SOL    HW125802   4.542   6.751   0.670
 8301SOL    HW225803   4.604   6.601   0.684
 8302SOL     OW25804   3.936   6.616   5.297
 8302SOL    HW125805   3.965   6.635   5.203
 8302SOL    HW225806   3.891   6.697   5.335
 8303SOL     OW25807   6.935   6.429   2.807
 8303SOL    HW125808   6.880   6.510   2.786
 8303SOL    HW225809   6.977   6.440   2.897
 8304SOL     OW25810   5.225   3.933   3.288
 8304SOL    HW125811   5.188   3.887   3.207
 8304SOL    HW225812   5.177   4.020   3.302
 8305SOL     OW25813   4.515   6.492   4.802
 8305SOL    HW125814   4.441   6.540   4.849
 8305SOL    HW225815   4.494   6.394   4.798
 8306SOL     OW25816   0.021   0.930   2.322
 8306SOL    HW125817   6.958   0.961   2.364
 8306SOL    HW225818   0.042   0.989   2.244
 8307SOL     OW25819   1.467   4.056   3.077
 8307SOL    HW125820   1.433   3.962   3.080
 8307SOL    HW225821   1.565   4.057   3.099
 8308SOL     OW25822   1.250   5.639   1.138
 8308SOL    HW125823   1.310   5.654   1.060
 8308SOL    HW225824   1.172   5.583   1.110
 8309SOL     OW25825   5.702   4.427   4.393
 8309SOL    HW125826   5.613   4.400   4.357
 8309SOL    HW225827   5.743   4.349   4.441
 8310SOL     OW25828   0.894   7.001   0.179
 8310SOL    HW125829   0.834   0.057   0.176
 8310SOL    HW225830   0.939   6.996   0.269
 8311SOL     OW25831   5.876   6.941   3.323
 8311SOL    HW125832   5.964   6.971   3.361
 8311SOL    HW225833   5.821   6.900   3.395
 8312SOL     OW25834   5.540   1.579   0.330
 8312SOL    HW125835   5.532   1.673   0.364
 8312SOL    HW225836   5.516   1.577   0.233
 8313SOL     OW25837   5.266   2.178   5.163
 8313SOL    HW125838   5.251   2.114   5.238
 8313SOL    HW225839   5.268   2.128   5.076
 8314SOL     OW25840   4.728   6.187   5.059
 8314SOL    HW125841   4.794   6.141   5.000
 8314SOL    HW225842   4.713   6.132   5.141
 8315SOL     OW25843   3.552   3.696   5.067
 8315SOL    HW125844   3.608   3.622   5.030
 8315SOL    HW225845   3.513   3.669   5.154
 8316SOL     OW25846   2.305   2.721   6.125
 8316SOL    HW125847   2.273   2.816   6.133
 8316SOL    HW225848   2.335   2.704   6.030
 8317SOL     OW25849   1.874   1.296   3.481
 8317SOL    HW125850   1.967   1.329   3.495
 8317SOL    HW225851   1.866   1.203   3.516
 8318SOL     OW25852   3.931   0.043   6.946
 8318SOL    HW125853   3.873   0.125   6.943
 8318SOL    HW225854   4.017   0.066   6.993
 8319SOL     OW25855   1.491   6.909   6.539
 8319SOL    HW125856   1.554   6.845   6.496
 8319SOL    HW225857   1.400   6.900   6.498
 8320SOL     OW25858   2.933   3.363   4.779
 8320SOL    HW125859   2.922   3.367   4.679
 8320SOL    HW225860   2.886   3.281   4.814
 8321SOL     OW25861   0.380   6.773   1.582
 8321SOL    HW125862   0.374   6.842   1.654
 8321SOL    HW225863   0.328   6.692   1.609
 8322SOL     OW25864   1.185   6.931   6.618
 8322SOL    HW125865   1.264   6.986   6.644
 8322SOL    HW225866   1.160   6.951   6.523
 8323SOL     OW25867   5.198   3.751   0.362
 8323SOL    HW125868   5.202   3.743   0.462
 8323SOL    HW225869   5.184   3.846   0.337
 8324SOL     OW25870   5.115   5.710   6.453
 8324SOL    HW125871   5.097   5.642   6.524
 8324SOL    HW225872   5.095   5.671   6.363
 8325SOL     OW25873   1.000   5.431   6.245
 8325SOL    HW125874   1.015   5.501   6.176
 8325SOL    HW225875   0.978   5.344   6.201
 8326SOL     OW25876   1.535   3.892   1.539
 8326SOL    HW125877   1.481   3.910   1.622
 8326SOL    HW225878   1.494   3.817   1.488
 8327SOL     OW25879   0.575   0.157   4.774
 8327SOL    HW125880   0.630   0.172   4.692
 8327SOL    HW225881   0.492   0.212   4.768
 8328SOL     OW25882   1.397   0.010   0.038
 8328SOL    HW125883   1.416   6.936   0.018
 8328SOL    HW225884   1.301   0.029   0.018
 8329SOL     OW25885   1.740   2.763   5.132
 8329SOL    HW125886   1.648   2.800   5.151
 8329SOL    HW225887   1.800   2.782   5.209
 8330SOL     OW25888   3.874   1.130   5.991
 8330SOL    HW125889   3.859   1.037   5.955
 8330SOL    HW225890   3.820   1.142   6.074
 8331SOL     OW25891   2.035   2.666   6.186
 8331SOL    HW125892   2.017   2.620   6.273
 8331SOL    HW225893   2.132   2.660   6.165
 8332SOL     OW25894   6.059   5.281   1.651
 8332SOL    HW125895   6.092   5.221   1.724
 8332SOL    HW225896   5.962   5.301   1.665
 8333SOL     OW25897   2.513   4.747   1.275
 8333SOL    HW125898   2.535   4.787   1.364
 8333SOL    HW225899   2.426   4.698   1.282
 8334SOL     OW25900   3.674   2.131   6.110
 8334SOL    HW125901   3.577   2.115   6.129
 8334SOL    HW225902   3.714   2.187   6.183
 8335SOL     OW25903   5.174   3.559   6.065
 8335SOL    HW125904   5.228   3.637   6.097
 8335SOL    HW225905   5.145   3.505   6.144
 8336SOL     OW25906   0.849   4.030   3.876
 8336SOL    HW125907   0.883   4.059   3.787
 8336SOL    HW225908   0.891   3.943   3.902
 8337SOL     OW25909   0.884   1.504   4.964
 8337SOL    HW125910   0.936   1.510   4.879
 8337SOL    HW225911   0.819   1.428   4.958
 8338SOL     OW25912   4.370   5.540   2.218
 8338SOL    HW125913   4.304   5.467   2.199
 8338SOL    HW225914   4.352   5.579   2.308
 8339SOL     OW25915   6.051   6.558   0.685
 8339SOL    HW125916   6.032   6.460   0.680
 8339SOL    HW225917   6.086   6.581   0.776
 8340SOL     OW25918   5.742   2.253   6.834
 8340SOL    HW125919   5.741   2.353   6.832
 8340SOL    HW225920   5.725   2.221   6.927
 8341SOL     OW25921   3.080   0.822   0.573
 8341SOL    HW125922   3.137   0.876   0.634
 8341SOL    HW225923   3.124   0.815   0.483
 8342SOL     OW25924   5.113   0.317   0.185
 8342SOL    HW125925   5.111   0.250   0.110
 8342SOL    HW225926   5.051   0.287   0.257
 8343SOL     OW25927   6.158   3.979   3.589
 8343SOL    HW125928   6.244   3.975   3.537
 8343SOL    HW225929   6.174   3.945   3.681
 8344SOL     OW25930   1.450   4.851   5.436
 8344SOL    HW125931   1.492   4.783   5.377
 8344SOL    HW225932   1.518   4.919   5.463
 8345SOL     OW25933   4.339   1.255   3.619
 8345SOL    HW125934   4.241   1.269   3.605
 8345SOL    HW225935   4.378   1.211   3.538
 8346SOL     OW25936   5.704   3.049   5.235
 8346SOL    HW125937   5.724   3.049   5.333
 8346SOL    HW225938   5.629   2.986   5.216
 8347SOL     OW25939   3.121   0.321   0.131
 8347SOL    HW125940   3.169   0.301   0.217
 8347SOL    HW225941   3.026   0.344   0.151
 8348SOL     OW25942   3.746   6.465   1.868
 8348SOL    HW125943   3.820   6.470   1.801
 8348SOL    HW225944   3.659   6.483   1.822
 8349SOL     OW25945   0.810   6.200   2.041
 8349SOL    HW125946   0.832   6.247   1.956
 8349SOL    HW225947   0.880   6.220   2.109
 8350SOL     OW25948   2.629   0.243   0.543
 8350SOL    HW125949   2.589   0.247   0.635
 8350SOL    HW225950   2.581   0.308   0.484
 8351SOL     OW25951   6.405   3.221   2.564
 8351SOL    HW125952   6.416   3.134   2.610
 8351SOL    HW225953   6.493   3.251   2.528
 8352SOL     OW25954   1.972   6.029   1.510
 8352SOL    HW125955   1.980   6.119   1.468
 8352SOL    HW225956   1.944   6.040   1.605
 8353SOL     OW25957   1.264   4.377   2.080
 8353SOL    HW125958   1.214   4.293   2.060
 8353SOL    HW225959   1.314   4.406   1.998
 8354SOL     OW25960   3.094   0.168   3.145
 8354SOL    HW125961   3.065   0.260   3.120
 8354SOL    HW225962   3.015   0.113   3.172
 8355SOL     OW25963   2.245   5.969   6.355
 8355SOL    HW125964   2.311   5.896   6.338
 8355SOL    HW225965   2.274   6.023   6.434
 8356SOL     OW25966   1.649   5.572   1.059
 8356SOL    HW125967   1.665   5.474   1.071
 8356SOL    HW225968   1.737   5.621   1.057
 8357SOL     OW25969   4.005   6.159   5.849
 8357SOL    HW125970   4.010   6.158   5.749
 8357SOL    HW225971   3.955   6.241   5.879
 8358SOL     OW25972   0.664   1.971   4.969
 8358SOL    HW125973   0.735   2.017   5.024
 8358SOL    HW225974   0.705   1.894   4.921
 8359SOL     OW25975   3.227   2.166   5.590
 8359SOL    HW125976   3.196   2.076   5.558
 8359SOL    HW225977   3.230   2.229   5.512
 8360SOL     OW25978   4.881   0.072   1.318
 8360SOL    HW125979   4.822   0.135   1.368
 8360SOL    HW225980   4.825   0.008   1.265
 8361SOL     OW25981   3.651   0.119   6.711
 8361SOL    HW125982   3.624   0.137   6.617
 8361SOL    HW225983   3.619   0.028   6.739
 8362SOL     OW25984   0.064   3.606   1.791
 8362SOL    HW125985   0.081   3.546   1.869
 8362SOL    HW225986   0.149   3.652   1.764
 8363SOL     OW25987   2.694   3.149   6.900
 8363SOL    HW125988   2.764   3.082   6.921
 8363SOL    HW225989   2.630   3.156   6.977
 8364SOL     OW25990   6.834   2.954   4.219
 8364SOL    HW125991   6.750   2.970   4.167
 8364SOL    HW225992   6.811   2.939   4.315
 8365SOL     OW25993   1.639   2.743   2.339
 8365SOL    HW125994   1.575   2.815   2.311
 8365SOL    HW225995   1.671   2.762   2.432
 8366SOL     OW25996   4.750   5.344   1.874
 8366SOL    HW125997   4.720   5.275   1.940
 8366SOL    HW225998   4.736   5.310   1.781
 8367SOL     OW25999   3.792   5.031   4.563
 8367SOL    HW126000   3.739   5.006   4.482
 8367SOL    HW226001   3.871   4.971   4.572
 8368SOL     OW26002   6.777   6.897   0.543
 8368SOL    HW126003   6.828   6.958   0.603
 8368SOL    HW226004   6.808   6.803   0.558
 8369SOL     OW26005   2.367   0.270   0.983
 8369SOL    HW126006   2.311   0.331   1.039
 8369SOL    HW226007   2.333   0.176   0.990
 8370SOL     OW26008   2.613   3.089   0.252
 8370SOL    HW126009   2.557   3.126   0.326
 8370SOL    HW226010   2.707   3.123   0.261
 8371SOL     OW26011   1.535   4.629   6.328
 8371SOL    HW126012   1.623   4.591   6.302
 8371SOL    HW226013   1.497   4.578   6.405
 8372SOL     OW26014   2.235   5.463   2.581
 8372SOL    HW126015   2.311   5.413   2.622
 8372SOL    HW226016   2.269   5.548   2.540
 8373SOL     OW26017   6.750   1.142   4.274
 8373SOL    HW126018   6.662   1.147   4.226
 8373SOL    HW226019   6.824   1.164   4.210
 8374SOL     OW26020   1.578   0.417   4.626
 8374SOL    HW126021   1.483   0.439   4.604
 8374SOL    HW226022   1.632   0.501   4.624
 8375SOL     OW26023   3.912   1.189   4.568
 8375SOL    HW126024   3.828   1.177   4.515
 8375SOL    HW226025   3.897   1.158   4.662
 8376SOL     OW26026   2.103   0.896   3.097
 8376SOL    HW126027   2.112   0.938   3.007
 8376SOL    HW226028   2.007   0.891   3.123
 8377SOL     OW26029   4.876   5.692   0.085
 8377SOL    HW126030   4.831   5.657   0.167
 8377SOL    HW226031   4.947   5.628   0.056
 8378SOL     OW26032   5.702   5.655   3.683
 8378SOL    HW126033   5.694   5.562   3.646
 8378SOL    HW226034   5.797   5.684   3.676
 8379SOL     OW26035   6.177   1.232   1.859
 8379SOL    HW126036   6.149   1.311   1.805
 8379SOL    HW226037   6.204   1.263   1.951
 8380SOL     OW26038   6.496   5.777   0.748
 8380SOL    HW126039   6.418   5.816   0.699
 8380SOL    HW226040   6.515   5.686   0.713
 8381SOL     OW26041   0.239   2.158   1.804
 8381SOL    HW126042   0.336   2.183   1.806
 8381SOL    HW226043   0.203   2.157   1.897
 8382SOL     OW26044   2.524   0.362   0.771
 8382SOL    HW126045   2.458   0.311   0.828
 8382SOL    HW226046   2.476   0.403   0.693
 8383SOL     OW26047   2.577   6.248   6.671
 8383SOL    HW126048   2.573   6.342   6.704
 8383SOL    HW226049   2.530   6.188   6.736
 8384SOL     OW26050   0.649   2.218   0.985
 8384SOL    HW126051   0.608   2.140   1.031
 8384SOL    HW226052   0.741   2.235   1.022
 8385SOL     OW26053   3.477   3.765   1.272
 8385SOL    HW126054   3.417   3.719   1.207
 8385SOL    HW226055   3.457   3.863   1.273
 8386SOL     OW26056   1.877   5.524   1.753
 8386SOL    HW126057   1.949   5.518   1.684
 8386SOL    HW226058   1.886   5.609   1.804
 8387SOL     OW26059   1.383   0.983   2.171
 8387SOL    HW126060   1.366   0.943   2.260
 8387SOL    HW226061   1.385   1.083   2.179
 8388SOL     OW26062   3.768   6.751   1.191
 8388SOL    HW126063   3.828   6.822   1.155
 8388SOL    HW226064   3.720   6.706   1.116
 8389SOL     OW26065   0.828   2.909   4.035
 8389SOL    HW126066   0.763   2.976   3.999
 8389SOL    HW226067   0.897   2.888   3.966
 8390SOL     OW26068   3.076   0.554   6.137
 8390SOL    HW126069   3.130   0.608   6.202
 8390SOL    HW226070   2.979   0.576   6.149
 8391SOL     OW26071   5.390   5.977   1.523
 8391SOL    HW126072   5.333   5.935   1.452
 8391SOL    HW226073   5.348   5.963   1.612
 8392SOL     OW26074   5.367   6.054   5.224
 8392SOL    HW126075   5.299   6.126   5.237
 8392SOL    HW226076   5.439   6.087   5.162
 8393SOL     OW26077   0.246   6.190   3.191
 8393SOL    HW126078   0.228   6.285   3.163
 8393SOL    HW226079   0.218   6.178   3.287
 8394SOL     OW26080   0.667   2.063   2.857
 8394SOL    HW126081   0.673   2.162   2.843
 8394SOL    HW226082   0.576   2.031   2.831
 8395SOL     OW26083   6.791   5.706   5.268
 8395SOL    HW126084   6.710   5.712   5.327
 8395SOL    HW226085   6.855   5.778   5.292
 8396SOL     OW26086   4.929   3.509   2.339
 8396SOL    HW126087   4.931   3.474   2.245
 8396SOL    HW226088   4.841   3.554   2.355
 8397SOL     OW26089   1.964   6.122   3.153
 8397SOL    HW126090   1.985   6.053   3.085
 8397SOL    HW226091   2.045   6.178   3.170
 8398SOL     OW26092   4.235   1.421   0.311
 8398SOL    HW126093   4.282   1.333   0.318
 8398SOL    HW226094   4.300   1.495   0.329
 8399SOL     OW26095   5.878   6.190   0.382
 8399SOL    HW126096   5.934   6.259   0.336
 8399SOL    HW226097   5.897   6.192   0.481
 8400SOL     OW26098   6.691   0.514   2.666
 8400SOL    HW126099   6.777   0.477   2.632
 8400SOL    HW226100   6.617   0.492   2.603
 8401SOL     OW26101   3.358   4.616   6.463
 8401SOL    HW126102   3.306   4.693   6.424
 8401SOL    HW226103   3.331   4.603   6.558
 8402SOL     OW26104   4.645   1.652   6.966
 8402SOL    HW126105   4.733   1.625   6.928
 8402SOL    HW226106   4.659   1.729   0.006
 8403SOL     OW26107   1.477   1.290   4.684
 8403SOL    HW126108   1.420   1.344   4.622
 8403SOL    HW226109   1.530   1.350   4.743
 8404SOL     OW26110   4.554   5.456   5.737
 8404SOL    HW126111   4.585   5.482   5.829
 8404SOL    HW226112   4.633   5.443   5.678
 8405SOL     OW26113   0.476   2.496   5.975
 8405SOL    HW126114   0.559   2.441   5.985
 8405SOL    HW226115   0.495   2.590   6.002
 8406SOL     OW26116   5.112   2.394   1.304
 8406SOL    HW126117   5.086   2.434   1.393
 8406SOL    HW226118   5.155   2.464   1.248
 8407SOL     OW26119   4.824   4.222   2.988
 8407SOL    HW126120   4.838   4.139   2.933
 8407SOL    HW226121   4.788   4.294   2.929
 8408SOL     OW26122   4.707   2.289   4.552
 8408SOL    HW126123   4.700   2.363   4.486
 8408SOL    HW226124   4.694   2.325   4.644
 8409SOL     OW26125   0.944   1.642   3.747
 8409SOL    HW126126   0.889   1.573   3.701
 8409SOL    HW226127   0.946   1.624   3.846
 8410SOL     OW26128   4.387   6.967   1.382
 8410SOL    HW126129   4.305   6.941   1.331
 8410SOL    HW226130   4.449   6.889   1.387
 8411SOL     OW26131   1.540   3.906   4.830
 8411SOL    HW126132   1.517   4.002   4.844
 8411SOL    HW226133   1.583   3.869   4.912
 8412SOL     OW26134   5.168   2.809   3.410
 8412SOL    HW126135   5.236   2.776   3.344
 8412SOL    HW226136   5.103   2.869   3.364
 8413SOL     OW26137   3.632   4.824   0.611
 8413SOL    HW126138   3.621   4.810   0.513
 8413SOL    HW226139   3.711   4.883   0.627
 8414SOL     OW26140   4.071   6.470   3.003
 8414SOL    HW126141   4.093   6.499   2.910
 8414SOL    HW226142   4.147   6.417   3.041
 8415SOL     OW26143   6.279   4.247   2.797
 8415SOL    HW126144   6.224   4.274   2.876
 8415SOL    HW226145   6.239   4.165   2.755
 8416SOL     OW26146   5.708   3.841   2.036
 8416SOL    HW126147   5.615   3.865   2.065
 8416SOL    HW226148   5.766   3.829   2.117
 8417SOL     OW26149   2.510   6.208   6.011
 8417SOL    HW126150   2.423   6.201   5.961
 8417SOL    HW226151   2.496   6.257   6.097
 8418SOL     OW26152   6.755   5.699   3.349
 8418SOL    HW126153   6.655   5.699   3.356
 8418SOL    HW226154   6.795   5.740   3.431
 8419SOL     OW26155   4.535   0.870   3.162
 8419SOL    HW126156   4.607   0.809   3.127
 8419SOL    HW226157   4.464   0.880   3.092
 8420SOL     OW26158   3.570   0.419   5.750
 8420SOL    HW126159   3.630   0.381   5.821
 8420SOL    HW226160   3.497   0.471   5.794
 8421SOL     OW26161   1.733   6.466   2.268
 8421SOL    HW126162   1.667   6.407   2.314
 8421SOL    HW226163   1.809   6.485   2.330
 8422SOL     OW26164   4.332   0.061   0.720
 8422SOL    HW126165   4.307   0.031   0.812
 8422SOL    HW226166   4.297   7.017   0.653
 8423SOL     OW26167   3.562   4.188   0.971
 8423SOL    HW126168   3.519   4.099   0.986
 8423SOL    HW226169   3.654   4.188   1.010
 8424SOL     OW26170   3.384   1.797   3.204
 8424SOL    HW126171   3.337   1.710   3.219
 8424SOL    HW226172   3.409   1.805   3.108
 8425SOL     OW26173   6.456   4.902   0.657
 8425SOL    HW126174   6.410   4.942   0.578
 8425SOL    HW226175   6.554   4.921   0.653
 8426SOL     OW26176   3.734   3.836   3.099
 8426SOL    HW126177   3.821   3.836   3.051
 8426SOL    HW226178   3.744   3.885   3.185
 8427SOL     OW26179   2.254   4.181   6.475
 8427SOL    HW126180   2.340   4.199   6.426
 8427SOL    HW226181   2.217   4.267   6.510
 8428SOL     OW26182   6.730   4.231   1.993
 8428SOL    HW126183   6.683   4.194   2.073
 8428SOL    HW226184   6.768   4.156   1.939
 8429SOL     OW26185   1.612   6.060   3.755
 8429SOL    HW126186   1.570   5.982   3.801
 8429SOL    HW226187   1.558   6.143   3.772
 8430SOL     OW26188   4.179   4.893   2.988
 8430SOL    HW126189   4.224   4.812   3.026
 8430SOL    HW226190   4.088   4.869   2.956
 8431SOL     OW26191   3.195   4.774   1.595
 8431SOL    HW126192   3.281   4.771   1.545
 8431SOL    HW226193   3.183   4.689   1.647
 8432SOL     OW26194   3.801   6.547   6.492
 8432SOL    HW126195   3.833   6.456   6.465
 8432SOL    HW226196   3.760   6.593   6.413
 8433SOL     OW26197   1.450   2.184   6.395
 8433SOL    HW126198   1.495   2.160   6.309
 8433SOL    HW226199   1.353   2.161   6.390
 8434SOL     OW26200   4.802   6.433   5.453
 8434SOL    HW126201   4.839   6.501   5.517
 8434SOL    HW226202   4.710   6.408   5.481
 8435SOL     OW26203   4.300   2.126   1.511
 8435SOL    HW126204   4.249   2.186   1.449
 8435SOL    HW226205   4.390   2.166   1.529
 8436SOL     OW26206   4.359   4.451   1.715
 8436SOL    HW126207   4.413   4.491   1.641
 8436SOL    HW226208   4.409   4.375   1.756
 8437SOL     OW26209   0.933   1.919   0.875
 8437SOL    HW126210   0.839   1.885   0.871
 8437SOL    HW226211   0.954   1.968   0.791
 8438SOL     OW26212   1.174   5.004   2.695
 8438SOL    HW126213   1.080   4.987   2.667
 8438SOL    HW226214   1.237   4.961   2.631
 8439SOL     OW26215   6.697   5.642   2.353
 8439SOL    HW126216   6.650   5.565   2.310
 8439SOL    HW226217   6.694   5.631   2.453
 8440SOL     OW26218   0.795   1.398   1.778
 8440SOL    HW126219   0.867   1.328   1.776
 8440SOL    HW226220   0.706   1.354   1.792
 8441SOL     OW26221   4.592   5.540   6.392
 8441SOL    HW126222   4.676   5.500   6.428
 8441SOL    HW226223   4.603   5.639   6.382
 8442SOL     OW26224   2.110   4.943   6.828
 8442SOL    HW126225   2.016   4.961   6.800
 8442SOL    HW226226   2.152   5.029   6.861
 8443SOL     OW26227   1.917   0.326   2.758
 8443SOL    HW126228   1.875   0.251   2.708
 8443SOL    HW226229   1.848   0.397   2.774
 8444SOL     OW26230   3.553   6.621   3.387
 8444SOL    HW126231   3.575   6.560   3.311
 8444SOL    HW226232   3.608   6.594   3.467
 8445SOL     OW26233   3.833   4.991   2.767
 8445SOL    HW126234   3.790   4.953   2.685
 8445SOL    HW226235   3.879   5.077   2.743
 8446SOL     OW26236   5.574   4.678   2.363
 8446SOL    HW126237   5.618   4.603   2.412
 8446SOL    HW226238   5.485   4.649   2.328
 8447SOL     OW26239   4.852   2.390   1.831
 8447SOL    HW126240   4.851   2.315   1.765
 8447SOL    HW226241   4.850   2.477   1.782
 8448SOL     OW26242   0.423   3.524   6.607
 8448SOL    HW126243   0.357   3.528   6.682
 8448SOL    HW226244   0.490   3.597   6.617
 8449SOL     OW26245   1.076   3.151   4.492
 8449SOL    HW126246   1.101   3.135   4.587
 8449SOL    HW226247   0.977   3.165   4.486
 8450SOL     OW26248   2.452   5.751   3.179
 8450SOL    HW126249   2.549   5.727   3.178
 8450SOL    HW226250   2.398   5.673   3.149
 8451SOL     OW26251   4.042   2.634   1.434
 8451SOL    HW126252   4.088   2.720   1.411
 8451SOL    HW226253   4.109   2.560   1.438
 8452SOL     OW26254   6.893   6.965   1.172
 8452SOL    HW126255   6.993   6.965   1.173
 8452SOL    HW226256   6.859   0.007   1.240
 8453SOL     OW26257   6.578   4.189   5.899
 8453SOL    HW126258   6.481   4.181   5.919
 8453SOL    HW226259   6.614   4.274   5.939
 8454SOL     OW26260   1.899   0.248   4.208
 8454SOL    HW126261   1.812   0.275   4.250
 8454SOL    HW226262   1.881   0.183   4.134
 8455SOL     OW26263   4.814   1.486   1.254
 8455SOL    HW126264   4.722   1.495   1.293
 8455SOL    HW226265   4.837   1.389   1.243
 8456SOL     OW26266   4.945   5.365   3.078
 8456SOL    HW126267   5.030   5.334   3.121
 8456SOL    HW226268   4.959   5.371   2.979
 8457SOL     OW26269   0.074   6.232   5.908
 8457SOL    HW126270   0.141   6.280   5.964
 8457SOL    HW226271   7.005   6.254   5.941
 8458SOL     OW26272   1.710   1.594   0.364
 8458SOL    HW126273   1.714   1.498   0.335
 8458SOL    HW226274   1.775   1.610   0.437
 8459SOL     OW26275   3.359   5.947   2.255
 8459SOL    HW126276   3.295   5.976   2.184
 8459SOL    HW226277   3.345   6.001   2.337
 8460SOL     OW26278   4.775   1.758   0.441
 8460SOL    HW126279   4.813   1.687   0.382
 8460SOL    HW226280   4.843   1.782   0.511
 8461SOL     OW26281   6.958   3.857   1.669
 8461SOL    HW126282   6.880   3.826   1.614
 8461SOL    HW226283   7.014   3.778   1.694
 8462SOL     OW26284   3.293   4.518   6.734
 8462SOL    HW126285   3.388   4.487   6.725
 8462SOL    HW226286   3.290   4.598   6.794
 8463SOL     OW26287   6.650   1.832   0.151
 8463SOL    HW126288   6.712   1.887   0.206
 8463SOL    HW226289   6.683   1.829   0.057
 8464SOL     OW26290   0.393   3.177   0.005
 8464SOL    HW126291   0.300   3.169   0.042
 8464SOL    HW226292   0.417   3.092   6.981
 8465SOL     OW26293   4.181   3.033   1.140
 8465SOL    HW126294   4.157   3.014   1.045
 8465SOL    HW226295   4.247   3.108   1.143
 8466SOL     OW26296   5.698   0.397   5.396
 8466SOL    HW126297   5.787   0.351   5.384
 8466SOL    HW226298   5.659   0.417   5.306
 8467SOL     OW26299   3.597   1.319   1.091
 8467SOL    HW126300   3.593   1.223   1.063
 8467SOL    HW226301   3.678   1.333   1.149
 8468SOL     OW26302   6.186   3.324   6.737
 8468SOL    HW126303   6.267   3.362   6.780
 8468SOL    HW226304   6.106   3.378   6.763
 8469SOL     OW26305   3.666   2.754   5.758
 8469SOL    HW126306   3.701   2.822   5.822
 8469SOL    HW226307   3.567   2.759   5.754
 8470SOL     OW26308   1.252   4.928   1.352
 8470SOL    HW126309   1.314   4.996   1.390
 8470SOL    HW226310   1.257   4.844   1.406
 8471SOL     OW26311   3.477   1.750   5.526
 8471SOL    HW126312   3.464   1.737   5.625
 8471SOL    HW226313   3.499   1.846   5.508
 8472SOL     OW26314   5.544   1.190   5.945
 8472SOL    HW126315   5.620   1.208   5.882
 8472SOL    HW226316   5.526   1.272   6.000
 8473SOL     OW26317   4.926   4.304   6.298
 8473SOL    HW126318   4.859   4.354   6.353
 8473SOL    HW226319   4.890   4.290   6.206
 8474SOL     OW26320   3.165   3.745   2.418
 8474SOL    HW126321   3.108   3.724   2.338
 8474SOL    HW226322   3.218   3.828   2.399
 8475SOL     OW26323   6.544   2.988   1.700
 8475SOL    HW126324   6.597   2.969   1.618
 8475SOL    HW226325   6.568   2.923   1.772
 8476SOL     OW26326   6.313   0.189   1.617
 8476SOL    HW126327   6.239   0.157   1.676
 8476SOL    HW226328   6.395   0.133   1.632
 8477SOL     OW26329   5.984   6.557   1.403
 8477SOL    HW126330   5.934   6.559   1.316
 8477SOL    HW226331   6.078   6.587   1.388
 8478SOL     OW26332   0.446   6.991   5.029
 8478SOL    HW126333   0.381   0.014   4.968
 8478SOL    HW226334   0.441   6.892   5.015
 8479SOL     OW26335   1.183   2.360   1.532
 8479SOL    HW126336   1.159   2.418   1.610
 8479SOL    HW226337   1.245   2.288   1.561
 8480SOL     OW26338   5.091   4.070   0.234
 8480SOL    HW126339   5.023   4.012   0.188
 8480SOL    HW226340   5.046   4.127   0.303
 8481SOL     OW26341   3.970   2.030   3.931
 8481SOL    HW126342   4.034   2.036   3.854
 8481SOL    HW226343   3.999   2.093   4.003
 8482SOL     OW26344   4.531   1.238   0.049
 8482SOL    HW126345   4.488   1.326   0.031
 8482SOL    HW226346   4.462   1.165   0.042
 8483SOL     OW26347   3.006   6.220   3.766
 8483SOL    HW126348   3.048   6.210   3.856
 8483SOL    HW226349   2.916   6.263   3.776
 8484SOL     OW26350   6.192   5.631   4.537
 8484SOL    HW126351   6.264   5.700   4.528
 8484SOL    HW226352   6.103   5.676   4.529
 8485SOL     OW26353   3.027   2.468   6.822
 8485SOL    HW126354   3.123   2.495   6.830
 8485SOL    HW226355   2.968   2.541   6.859
 8486SOL     OW26356   1.371   0.885   2.435
 8486SOL    HW126357   1.391   0.976   2.472
 8486SOL    HW226358   1.454   0.830   2.433
 8487SOL     OW26359   5.395   1.894   5.992
 8487SOL    HW126360   5.439   1.931   5.910
 8487SOL    HW226361   5.334   1.819   5.965
 8488SOL     OW26362   4.972   5.534   1.913
 8488SOL    HW126363   4.900   5.466   1.926
 8488SOL    HW226364   4.961   5.607   1.980
 8489SOL     OW26365   5.269   0.890   1.396
 8489SOL    HW126366   5.287   0.980   1.435
 8489SOL    HW226367   5.174   0.885   1.365
 8490SOL     OW26368   2.402   6.890   0.120
 8490SOL    HW126369   2.380   6.851   0.209
 8490SOL    HW226370   2.472   6.961   0.131
 8491SOL     OW26371   3.057   5.874   2.397
 8491SOL    HW126372   3.149   5.833   2.392
 8491SOL    HW226373   2.999   5.817   2.456
 8492SOL     OW26374   5.830   4.691   4.844
 8492SOL    HW126375   5.831   4.720   4.749
 8492SOL    HW226376   5.875   4.760   4.900
 8493SOL     OW26377   3.602   0.611   6.935
 8493SOL    HW126378   3.536   0.590   7.007
 8493SOL    HW226379   3.608   0.534   6.871
 8494SOL     OW26380   5.792   5.321   2.068
 8494SOL    HW126381   5.814   5.224   2.054
 8494SOL    HW226382   5.852   5.377   2.011
 8495SOL     OW26383   6.606   6.209   0.408
 8495SOL    HW126384   6.603   6.184   0.311
 8495SOL    HW226385   6.655   6.295   0.419
 8496SOL     OW26386   4.805   1.476   2.251
 8496SOL    HW126387   4.826   1.501   2.156
 8496SOL    HW226388   4.788   1.377   2.256
 8497SOL     OW26389   6.375   0.738   4.163
 8497SOL    HW126390   6.314   0.744   4.242
 8497SOL    HW226391   6.400   0.830   4.133
 8498SOL     OW26392   4.835   6.911   4.222
 8498SOL    HW126393   4.928   6.913   4.186
 8498SOL    HW226394   4.836   6.871   4.314
 8499SOL     OW26395   6.511   5.891   6.881
 8499SOL    HW126396   6.600   5.921   6.913
 8499SOL    HW226397   6.520   5.804   6.831
 8500SOL     OW26398   1.957   0.711   5.958
 8500SOL    HW126399   2.013   0.794   5.955
 8500SOL    HW226400   1.912   0.704   6.047
 8501SOL     OW26401   0.971   1.313   0.238
 8501SOL    HW126402   1.020   1.385   0.288
 8501SOL    HW226403   0.888   1.289   0.288
 8502SOL     OW26404   0.537   2.960   6.872
 8502SOL    HW126405   0.559   2.899   6.796
 8502SOL    HW226406   0.467   2.918   6.930
 8503SOL     OW26407   6.109   5.815   4.232
 8503SOL    HW126408   6.168   5.842   4.307
 8503SOL    HW226409   6.104   5.715   4.227
 8504SOL     OW26410   2.334   4.873   2.877
 8504SOL    HW126411   2.417   4.868   2.822
 8504SOL    HW226412   2.320   4.787   2.925
 8505SOL     OW26413   5.316   3.128   2.584
 8505SOL    HW126414   5.246   3.126   2.656
 8505SOL    HW226415   5.396   3.179   2.617
 8506SOL     OW26416   2.587   0.068   0.090
 8506SOL    HW126417   2.664   0.064   0.154
 8506SOL    HW226418   2.604   0.139   0.021
 8507SOL     OW26419   4.579   6.348   5.546
 8507SOL    HW126420   4.541   6.388   5.629
 8507SOL    HW226421   4.520   6.273   5.515
 8508SOL     OW26422   4.108   1.476   0.069
 8508SOL    HW126423   4.177   1.423   0.120
 8508SOL    HW226424   4.128   1.573   0.078
 8509SOL     OW26425   5.901   0.598   3.689
 8509SOL    HW126426   5.814   0.644   3.678
 8509SOL    HW226427   5.927   0.598   3.785
 8510SOL     OW26428   5.772   2.535   4.478
 8510SOL    HW126429   5.726   2.520   4.391
 8510SOL    HW226430   5.716   2.595   4.536
 8511SOL     OW26431   5.937   3.015   1.723
 8511SOL    HW126432   5.925   3.098   1.776
 8511SOL    HW226433   5.957   3.038   1.628
 8512SOL     OW26434   1.704   6.884   4.541
 8512SOL    HW126435   1.618   6.906   4.587
 8512SOL    HW226436   1.686   6.818   4.467
 8513SOL     OW26437   6.322   6.144   6.638
 8513SOL    HW126438   6.322   6.071   6.706
 8513SOL    HW226439   6.234   6.192   6.640
 8514SOL     OW26440   2.616   6.367   4.310
 8514SOL    HW126441   2.707   6.331   4.290
 8514SOL    HW226442   2.611   6.396   4.406
 8515SOL     OW26443   5.039   2.047   1.611
 8515SOL    HW126444   5.012   1.956   1.640
 8515SOL    HW226445   5.033   2.110   1.689
 8516SOL     OW26446   6.215   2.649   2.059
 8516SOL    HW126447   6.175   2.696   2.138
 8516SOL    HW226448   6.203   2.707   1.978
 8517SOL     OW26449   1.646   2.567   6.470
 8517SOL    HW126450   1.687   2.532   6.385
 8517SOL    HW226451   1.666   2.665   6.478
 8518SOL     OW26452   3.647   5.424   0.345
 8518SOL    HW126453   3.675   5.367   0.421
 8518SOL    HW226454   3.645   5.370   0.261
 8519SOL     OW26455   0.717   5.554   2.259
 8519SOL    HW126456   0.716   5.527   2.355
 8519SOL    HW226457   0.630   5.598   2.236
 8520SOL     OW26458   4.131   0.826   0.098
 8520SOL    HW126459   4.090   0.751   0.046
 8520SOL    HW226460   4.197   0.789   0.163
 8521SOL     OW26461   1.512   5.692   5.626
 8521SOL    HW126462   1.599   5.724   5.662
 8521SOL    HW226463   1.497   5.597   5.653
 8522SOL     OW26464   1.208   5.938   4.973
 8522SOL    HW126465   1.114   5.914   4.946
 8522SOL    HW226466   1.219   5.923   5.071
 8523SOL     OW26467   1.486   6.642   6.990
 8523SOL    HW126468   1.468   6.623   6.894
 8523SOL    HW226469   1.573   6.600   7.017
 8524SOL     OW26470   1.695   3.360   6.198
 8524SOL    HW126471   1.717   3.275   6.245
 8524SOL    HW226472   1.688   3.343   6.100
 8525SOL     OW26473   6.273   3.526   3.203
 8525SOL    HW126474   6.196   3.465   3.183
 8525SOL    HW226475   6.358   3.474   3.201
 8526SOL     OW26476   2.265   2.881   2.375
 8526SOL    HW126477   2.237   2.975   2.394
 8526SOL    HW226478   2.316   2.878   2.289
 8527SOL     OW26479   4.376   0.753   4.744
 8527SOL    HW126480   4.361   0.689   4.820
 8527SOL    HW226481   4.353   0.708   4.658
 8528SOL     OW26482   4.613   2.710   6.224
 8528SOL    HW126483   4.666   2.740   6.144
 8528SOL    HW226484   4.532   2.660   6.193
 8529SOL     OW26485   0.981   4.815   6.718
 8529SOL    HW126486   1.060   4.860   6.676
 8529SOL    HW226487   0.947   4.744   6.657
 8530SOL     OW26488   1.845   3.800   5.394
 8530SOL    HW126489   1.877   3.758   5.309
 8530SOL    HW226490   1.913   3.867   5.426
 8531SOL     OW26491   4.942   4.899   2.437
 8531SOL    HW126492   4.916   4.979   2.383
 8531SOL    HW226493   4.860   4.856   2.474
 8532SOL     OW26494   3.535   4.347   6.013
 8532SOL    HW126495   3.559   4.340   6.110
 8532SOL    HW226496   3.454   4.290   5.995
 8533SOL     OW26497   3.558   1.162   5.082
 8533SOL    HW126498   3.578   1.131   4.989
 8533SOL    HW226499   3.503   1.246   5.079
 8534SOL     OW26500   1.504   3.221   2.496
 8534SOL    HW126501   1.529   3.283   2.570
 8534SOL    HW226502   1.407   3.199   2.502
 8535SOL     OW26503   0.565   2.325   4.617
 8535SOL    HW126504   0.562   2.291   4.711
 8535SOL    HW226505   0.560   2.248   4.553
 8536SOL     OW26506   0.646   1.449   5.927
 8536SOL    HW126507   0.576   1.380   5.945
 8536SOL    HW226508   0.609   1.519   5.866
 8537SOL     OW26509   5.618   0.461   1.949
 8537SOL    HW126510   5.530   0.477   1.993
 8537SOL    HW226511   5.621   0.510   1.862
 8538SOL     OW26512   5.716   0.570   4.871
 8538SOL    HW126513   5.717   0.471   4.861
 8538SOL    HW226514   5.799   0.609   4.829
 8539SOL     OW26515   0.480   3.399   1.794
 8539SOL    HW126516   0.545   3.475   1.788
 8539SOL    HW226517   0.424   3.410   1.877
 8540SOL     OW26518   4.012   0.354   0.424
 8540SOL    HW126519   4.036   0.450   0.440
 8540SOL    HW226520   3.959   0.319   0.501
 8541SOL     OW26521   3.228   0.943   4.763
 8541SOL    HW126522   3.246   1.014   4.695
 8541SOL    HW226523   3.210   0.986   4.852
 8542SOL     OW26524   1.827   4.952   6.740
 8542SOL    HW126525   1.727   4.963   6.744
 8542SOL    HW226526   1.850   4.874   6.682
 8543SOL     OW26527   2.323   1.782   5.959
 8543SOL    HW126528   2.291   1.845   5.889
 8543SOL    HW226529   2.352   1.833   6.039
 8544SOL     OW26530   4.771   3.880   5.363
 8544SOL    HW126531   4.749   3.809   5.430
 8544SOL    HW226532   4.759   3.844   5.270
 8545SOL     OW26533   3.113   0.302   6.407
 8545SOL    HW126534   3.021   0.338   6.420
 8545SOL    HW226535   3.121   0.262   6.315
 8546SOL     OW26536   5.854   0.396   1.673
 8546SOL    HW126537   5.866   0.469   1.741
 8546SOL    HW226538   5.943   0.372   1.635
 8547SOL     OW26539   5.963   6.132   5.722
 8547SOL    HW126540   6.032   6.082   5.775
 8547SOL    HW226541   5.934   6.212   5.774
 8548SOL     OW26542   0.577   2.652   6.292
 8548SOL    HW126543   0.554   2.690   6.202
 8548SOL    HW226544   0.599   2.726   6.355
 8549SOL     OW26545   1.735   0.717   2.880
 8549SOL    HW126546   1.667   0.771   2.930
 8549SOL    HW226547   1.693   0.632   2.848
 8550SOL     OW26548   0.023   4.727   6.466
 8550SOL    HW126549   0.119   4.753   6.461
 8550SOL    HW226550   7.002   4.774   6.543
 8551SOL     OW26551   2.249   1.849   5.514
 8551SOL    HW126552   2.156   1.872   5.485
 8551SOL    HW226553   2.309   1.850   5.435
 8552SOL     OW26554   2.603   2.118   3.537
 8552SOL    HW126555   2.622   2.069   3.622
 8552SOL    HW226556   2.507   2.148   3.536
 8553SOL     OW26557   5.446   2.907   0.172
 8553SOL    HW126558   5.367   2.938   0.225
 8553SOL    HW226559   5.480   2.821   0.210
 8554SOL     OW26560   1.268   0.292   0.153
 8554SOL    HW126561   1.262   0.247   0.064
 8554SOL    HW226562   1.243   0.227   0.225
 8555SOL     OW26563   4.260   0.999   4.679
 8555SOL    HW126564   4.181   0.965   4.629
 8555SOL    HW226565   4.317   0.922   4.707
 8556SOL     OW26566   1.475   6.229   0.461
 8556SOL    HW126567   1.443   6.182   0.379
 8556SOL    HW226568   1.472   6.328   0.447
 8557SOL     OW26569   0.588   0.944   0.232
 8557SOL    HW126570   0.542   1.031   0.250
 8557SOL    HW226571   0.686   0.960   0.223
 8558SOL     OW26572   2.637   4.872   3.760
 8558SOL    HW126573   2.702   4.921   3.702
 8558SOL    HW226574   2.547   4.871   3.715
 8559SOL     OW26575   0.692   5.474   2.519
 8559SOL    HW126576   0.735   5.540   2.581
 8559SOL    HW226577   0.620   5.424   2.568
 8560SOL     OW26578   2.819   4.222   1.672
 8560SOL    HW126579   2.906   4.180   1.648
 8560SOL    HW226580   2.835   4.301   1.732
 8561SOL     OW26581   4.549   6.997   2.202
 8561SOL    HW126582   4.617   0.039   2.169
 8561SOL    HW226583   4.589   6.937   2.271
 8562SOL     OW26584   4.678   1.134   6.837
 8562SOL    HW126585   4.696   1.178   6.925
 8562SOL    HW226586   4.623   1.052   6.850
 8563SOL     OW26587   1.891   5.138   2.480
 8563SOL    HW126588   1.943   5.127   2.396
 8563SOL    HW226589   1.836   5.056   2.497
 8564SOL     OW26590   4.731   0.811   6.717
 8564SOL    HW126591   4.815   0.763   6.692
 8564SOL    HW226592   4.693   0.857   6.637
 8565SOL     OW26593   2.824   5.262   1.106
 8565SOL    HW126594   2.827   5.318   1.189
 8565SOL    HW226595   2.745   5.201   1.110
 8566SOL     OW26596   3.437   1.117   2.870
 8566SOL    HW126597   3.451   1.205   2.826
 8566SOL    HW226598   3.520   1.092   2.922
 8567SOL     OW26599   2.467   2.261   1.821
 8567SOL    HW126600   2.565   2.279   1.818
 8567SOL    HW226601   2.445   2.184   1.760
 8568SOL     OW26602   6.793   1.029   0.046
 8568SOL    HW126603   6.827   1.116   0.081
 8568SOL    HW226604   6.861   0.957   0.065
 8569SOL     OW26605   4.812   2.462   6.418
 8569SOL    HW126606   4.727   2.410   6.407
 8569SOL    HW226607   4.796   2.541   6.477
 8570SOL     OW26608   1.763   3.106   4.026
 8570SOL    HW126609   1.817   3.055   4.093
 8570SOL    HW226610   1.684   3.052   3.999
 8571SOL     OW26611   1.535   0.596   3.668
 8571SOL    HW126612   1.497   0.647   3.744
 8571SOL    HW226613   1.609   0.537   3.700
 8572SOL     OW26614   2.892   4.285   5.557
 8572SOL    HW126615   2.903   4.383   5.573
 8572SOL    HW226616   2.867   4.240   5.642
 8573SOL     OW26617   3.829   6.093   0.642
 8573SOL    HW126618   3.898   6.024   0.621
 8573SOL    HW226619   3.739   6.059   0.614
 8574SOL     OW26620   6.262   6.784   5.592
 8574SOL    HW126621   6.345   6.753   5.638
 8574SOL    HW226622   6.182   6.765   5.649
 8575SOL     OW26623   3.064   6.212   3.190
 8575SOL    HW126624   3.033   6.306   3.205
 8575SOL    HW226625   3.003   6.167   3.124
 8576SOL     OW26626   0.583   4.134   3.757
 8576SOL    HW126627   0.489   4.101   3.765
 8576SOL    HW226628   0.647   4.060   3.779
 8577SOL     OW26629   1.982   1.911   0.155
 8577SOL    HW126630   1.906   1.847   0.159
 8577SOL    HW226631   1.990   1.949   0.063
 8578SOL     OW26632   6.693   6.839   5.886
 8578SOL    HW126633   6.780   6.791   5.901
 8578SOL    HW226634   6.710   6.930   5.850
 8579SOL     OW26635   3.074   6.155   2.763
 8579SOL    HW126636   3.039   6.188   2.675
 8579SOL    HW226637   3.135   6.223   2.803
 8580SOL     OW26638   2.017   0.591   1.620
 8580SOL    HW126639   2.003   0.537   1.537
 8580SOL    HW226640   1.971   0.547   1.696
 8581SOL     OW26641   3.421   4.858   1.029
 8581SOL    HW126642   3.500   4.857   1.090
 8581SOL    HW226643   3.450   4.831   0.937
 8582SOL     OW26644   3.733   4.604   5.875
 8582SOL    HW126645   3.761   4.574   5.784
 8582SOL    HW226646   3.671   4.535   5.915
 8583SOL     OW26647   4.415   0.382   3.103
 8583SOL    HW126648   4.332   0.336   3.073
 8583SOL    HW226649   4.392   0.453   3.170
 8584SOL     OW26650   6.478   1.117   4.415
 8584SOL    HW126651   6.505   1.073   4.329
 8584SOL    HW226652   6.554   1.171   4.449
 8585SOL     OW26653   5.158   1.561   2.268
 8585SOL    HW126654   5.094   1.607   2.206
 8585SOL    HW226655   5.141   1.590   2.362
 8586SOL     OW26656   6.096   5.868   1.030
 8586SOL    HW126657   6.107   5.862   1.129
 8586SOL    HW226658   6.186   5.866   0.986
 8587SOL     OW26659   2.131   1.469   5.721
 8587SOL    HW126660   2.201   1.484   5.791
 8587SOL    HW226661   2.096   1.558   5.690
 8588SOL     OW26662   2.881   1.300   6.880
 8588SOL    HW126663   2.791   1.312   6.923
 8588SOL    HW226664   2.940   1.377   6.905
 8589SOL     OW26665   6.839   2.867   6.315
 8589SOL    HW126666   6.780   2.787   6.321
 8589SOL    HW226667   6.784   2.950   6.318
 8590SOL     OW26668   1.461   1.405   2.623
 8590SOL    HW126669   1.482   1.396   2.720
 8590SOL    HW226670   1.455   1.502   2.599
 8591SOL     OW26671   6.786   4.593   0.320
 8591SOL    HW126672   6.837   4.611   0.404
 8591SOL    HW226673   6.695   4.635   0.328
 8592SOL     OW26674   1.318   1.820   6.207
 8592SOL    HW126675   1.250   1.755   6.175
 8592SOL    HW226676   1.408   1.798   6.168
 8593SOL     OW26677   3.659   0.699   6.355
 8593SOL    HW126678   3.613   0.624   6.404
 8593SOL    HW226679   3.727   0.740   6.415
 8594SOL     OW26680   6.652   2.636   5.717
 8594SOL    HW126681   6.710   2.566   5.758
 8594SOL    HW226682   6.635   2.708   5.784
 8595SOL     OW26683   5.088   6.456   2.653
 8595SOL    HW126684   5.160   6.518   2.621
 8595SOL    HW226685   5.129   6.370   2.684
 8596SOL     OW26686   0.869   2.473   3.545
 8596SOL    HW126687   0.935   2.399   3.555
 8596SOL    HW226688   0.778   2.435   3.532
 8597SOL     OW26689   5.970   3.506   0.530
 8597SOL    HW126690   5.890   3.502   0.470
 8597SOL    HW226691   5.941   3.502   0.625
 8598SOL     OW26692   5.689   6.672   4.028
 8598SOL    HW126693   5.631   6.647   4.106
 8598SOL    HW226694   5.639   6.653   3.943
 8599SOL     OW26695   1.242   2.999   3.809
 8599SOL    HW126696   1.217   2.903   3.819
 8599SOL    HW226697   1.164   3.056   3.835
 8600SOL     OW26698   4.054   2.650   1.142
 8600SOL    HW126699   4.109   2.568   1.129
 8600SOL    HW226700   4.051   2.674   1.239
 8601SOL     OW26701   0.854   6.902   3.625
 8601SOL    HW126702   0.815   6.814   3.650
 8601SOL    HW226703   0.901   6.942   3.704
 8602SOL     OW26704   2.040   6.836   4.247
 8602SOL    HW126705   2.019   6.800   4.156
 8602SOL    HW226706   1.964   6.817   4.309
 8603SOL     OW26707   6.844   0.455   0.601
 8603SOL    HW126708   6.868   0.523   0.670
 8603SOL    HW226709   6.787   0.384   0.642
 8604SOL     OW26710   0.244   4.145   6.072
 8604SOL    HW126711   0.177   4.180   6.007
 8604SOL    HW226712   0.243   4.201   6.155
 8605SOL     OW26713   0.002   5.252   4.136
 8605SOL    HW126714   0.096   5.280   4.113
 8605SOL    HW226715   7.002   5.167   4.088
 8606SOL     OW26716   2.356   3.133   6.863
 8606SOL    HW126717   2.271   3.080   6.863
 8606SOL    HW226718   2.334   3.230   6.851
 8607SOL     OW26719   2.368   4.379   1.778
 8607SOL    HW126720   2.308   4.383   1.858
 8607SOL    HW226721   2.368   4.287   1.740
 8608SOL     OW26722   2.155   4.958   3.120
 8608SOL    HW126723   2.207   4.968   3.035
 8608SOL    HW226724   2.204   5.002   3.195
 8609SOL     OW26725   4.476   1.194   4.335
 8609SOL    HW126726   4.485   1.194   4.235
 8609SOL    HW226727   4.441   1.283   4.365
 8610SOL     OW26728   0.996   6.578   2.748
 8610SOL    HW126729   0.912   6.535   2.718
 8610SOL    HW226730   1.007   6.667   2.702
 8611SOL     OW26731   2.523   1.317   4.481
 8611SOL    HW126732   2.614   1.329   4.441
 8611SOL    HW226733   2.531   1.323   4.581
 8612SOL     OW26734   3.961   3.922   3.286
 8612SOL    HW126735   3.915   4.004   3.253
 8612SOL    HW226736   3.970   3.926   3.385
 8613SOL     OW26737   3.461   3.009   1.289
 8613SOL    HW126738   3.432   2.984   1.197
 8613SOL    HW226739   3.530   3.081   1.283
 8614SOL     OW26740   1.356   2.547   2.147
 8614SOL    HW126741   1.432   2.546   2.212
 8614SOL    HW226742   1.271   2.521   2.193
 8615SOL     OW26743   3.809   1.089   3.467
 8615SOL    HW126744   3.788   1.186   3.464
 8615SOL    HW226745   3.740   1.041   3.522
 8616SOL     OW26746   4.317   4.611   2.776
 8616SOL    HW126747   4.369   4.547   2.718
 8616SOL    HW226748   4.233   4.637   2.729
 8617SOL     OW26749   4.035   0.297   3.712
 8617SOL    HW126750   4.126   0.259   3.695
 8617SOL    HW226751   4.024   0.316   3.809
 8618SOL     OW26752   5.618   3.999   1.250
 8618SOL    HW126753   5.559   3.924   1.279
 8618SOL    HW226754   5.607   4.076   1.314
 8619SOL     OW26755   5.727   4.334   1.018
 8619SOL    HW126756   5.772   4.384   0.944
 8619SOL    HW226757   5.797   4.292   1.076
 8620SOL     OW26758   1.470   0.808   4.747
 8620SOL    HW126759   1.427   0.840   4.662
 8620SOL    HW226760   1.550   0.752   4.724
 8621SOL     OW26761   5.181   2.575   1.787
 8621SOL    HW126762   5.171   2.657   1.844
 8621SOL    HW226763   5.261   2.586   1.728
 8622SOL     OW26764   6.395   5.101   3.023
 8622SOL    HW126765   6.297   5.101   3.046
 8622SOL    HW226766   6.448   5.074   3.103
 8623SOL     OW26767   6.686   3.168   4.542
 8623SOL    HW126768   6.670   3.083   4.492
 8623SOL    HW226769   6.601   3.222   4.544
 8624SOL     OW26770   2.871   4.112   5.787
 8624SOL    HW126771   2.962   4.075   5.801
 8624SOL    HW226772   2.817   4.103   5.870
 8625SOL     OW26773   3.987   2.287   5.719
 8625SOL    HW126774   3.913   2.354   5.720
 8625SOL    HW226775   3.993   2.241   5.807
 8626SOL     OW26776   4.092   4.279   0.560
 8626SOL    HW126777   4.154   4.205   0.535
 8626SOL    HW226778   4.039   4.253   0.640
 8627SOL     OW26779   1.943   0.670   2.700
 8627SOL    HW126780   2.001   0.611   2.756
 8627SOL    HW226781   1.866   0.703   2.756
 8628SOL     OW26782   0.760   6.348   0.466
 8628SOL    HW126783   0.757   6.440   0.504
 8628SOL    HW226784   0.810   6.288   0.528
 8629SOL     OW26785   0.179   0.341   4.213
 8629SOL    HW126786   0.203   0.298   4.301
 8629SOL    HW226787   0.261   0.380   4.172
 8630SOL     OW26788   5.125   2.987   2.290
 8630SOL    HW126789   5.166   3.077   2.301
 8630SOL    HW226790   5.079   2.960   2.375
 8631SOL     OW26791   2.927   6.442   0.103
 8631SOL    HW126792   2.913   6.475   0.196
 8631SOL    HW226793   3.024   6.443   0.081
 8632SOL     OW26794   4.780   4.609   5.523
 8632SOL    HW126795   4.758   4.517   5.557
 8632SOL    HW226796   4.697   4.665   5.523
 8633SOL     OW26797   5.534   3.339   6.067
 8633SOL    HW126798   5.587   3.384   6.140
 8633SOL    HW226799   5.459   3.287   6.108
 8634SOL     OW26800   5.480   4.421   0.603
 8634SOL    HW126801   5.434   4.396   0.518
 8634SOL    HW226802   5.558   4.359   0.618
 8635SOL     OW26803   5.815   2.480   6.495
 8635SOL    HW126804   5.797   2.577   6.512
 8635SOL    HW226805   5.912   2.468   6.473
 8636SOL     OW26806   4.932   6.535   0.966
 8636SOL    HW126807   5.020   6.518   0.922
 8636SOL    HW226808   4.898   6.625   0.939
 8637SOL     OW26809   2.214   1.684   6.499
 8637SOL    HW126810   2.262   1.772   6.504
 8637SOL    HW226811   2.115   1.700   6.507
 8638SOL     OW26812   4.590   2.855   5.188
 8638SOL    HW126813   4.546   2.773   5.224
 8638SOL    HW226814   4.573   2.932   5.250
 8639SOL     OW26815   4.100   3.437   6.201
 8639SOL    HW126816   4.169   3.442   6.274
 8639SOL    HW226817   4.130   3.493   6.124
 8640SOL     OW26818   2.949   3.564   1.546
 8640SOL    HW126819   2.919   3.605   1.632
 8640SOL    HW226820   3.021   3.497   1.564
 8641SOL     OW26821   4.356   5.937   2.585
 8641SOL    HW126822   4.369   6.029   2.550
 8641SOL    HW226823   4.444   5.889   2.590
 8642SOL     OW26824   1.156   6.327   4.293
 8642SOL    HW126825   1.189   6.414   4.330
 8642SOL    HW226826   1.142   6.336   4.194
 8643SOL     OW26827   4.037   6.876   0.801
 8643SOL    HW126828   4.095   6.916   0.871
 8643SOL    HW226829   4.053   6.778   0.795
 8644SOL     OW26830   5.953   1.607   6.908
 8644SOL    HW126831   5.870   1.625   6.961
 8644SOL    HW226832   6.013   1.546   6.960
 8645SOL     OW26833   5.974   3.652   2.120
 8645SOL    HW126834   5.977   3.642   2.220
 8645SOL    HW226835   6.043   3.718   2.092
 8646SOL     OW26836   0.067   1.521   5.500
 8646SOL    HW126837   7.020   1.514   5.429
 8646SOL    HW226838   0.022   1.527   5.590
 8647SOL     OW26839   2.301   4.833   1.840
 8647SOL    HW126840   2.363   4.911   1.831
 8647SOL    HW226841   2.336   4.756   1.787
 8648SOL     OW26842   5.858   5.278   0.959
 8648SOL    HW126843   5.860   5.232   0.870
 8648SOL    HW226844   5.903   5.220   1.027
 8649SOL     OW26845   4.588   6.886   0.950
 8649SOL    HW126846   4.566   6.955   1.019
 8649SOL    HW226847   4.555   6.797   0.980
 8650SOL     OW26848   1.858   6.767   4.022
 8650SOL    HW126849   1.794   6.841   4.004
 8650SOL    HW226850   1.813   6.696   4.077
 8651SOL     OW26851   3.512   1.880   1.108
 8651SOL    HW126852   3.490   1.824   1.028
 8651SOL    HW226853   3.507   1.823   1.190
 8652SOL     OW26854   1.614   3.975   3.915
 8652SOL    HW126855   1.582   3.881   3.924
 8652SOL    HW226856   1.537   4.038   3.919
 8653SOL     OW26857   0.483   1.255   6.012
 8653SOL    HW126858   0.410   1.196   5.977
 8653SOL    HW226859   0.467   1.274   6.109
 8654SOL     OW26860   0.932   4.511   1.587
 8654SOL    HW126861   0.911   4.608   1.577
 8654SOL    HW226862   0.923   4.485   1.683
 8655SOL     OW26863   0.326   0.911   5.365
 8655SOL    HW126864   0.376   0.997   5.356
 8655SOL    HW226865   0.288   0.903   5.457
 8656SOL     OW26866   5.103   0.225   1.523
 8656SOL    HW126867   5.121   0.241   1.426
 8656SOL    HW226868   5.004   0.231   1.540
 8657SOL     OW26869   5.216   0.719   2.615
 8657SOL    HW126870   5.131   0.670   2.630
 8657SOL    HW226871   5.278   0.662   2.560
 8658SOL     OW26872   0.112   4.937   0.830
 8658SOL    HW126873   0.025   4.924   0.877
 8658SOL    HW226874   0.096   4.955   0.733
 8659SOL     OW26875   4.650   1.248   2.293
 8659SOL    HW126876   4.643   1.162   2.343
 8659SOL    HW226877   4.561   1.271   2.254
 8660SOL     OW26878   0.265   3.449   1.443
 8660SOL    HW126879   0.277   3.423   1.347
 8660SOL    HW226880   0.257   3.367   1.499
 8661SOL     OW26881   6.508   3.380   3.155
 8661SOL    HW126882   6.477   3.322   3.080
 8661SOL    HW226883   6.608   3.374   3.162
 8662SOL     OW26884   3.084   5.096   2.880
 8662SOL    HW126885   3.118   5.066   2.791
 8662SOL    HW226886   3.094   5.023   2.947
 8663SOL     OW26887   3.761   5.914   3.103
 8663SOL    HW126888   3.748   5.921   3.004
 8663SOL    HW226889   3.779   5.818   3.127
 8664SOL     OW26890   2.571   4.975   3.368
 8664SOL    HW126891   2.622   4.931   3.442
 8664SOL    HW226892   2.630   4.985   3.288
 8665SOL     OW26893   5.635   3.136   5.902
 8665SOL    HW126894   5.614   3.213   5.962
 8665SOL    HW226895   5.676   3.063   5.957
 8666SOL     OW26896   4.606   6.591   2.787
 8666SOL    HW126897   4.702   6.595   2.762
 8666SOL    HW226898   4.573   6.497   2.780
 8667SOL     OW26899   5.102   2.120   4.435
 8667SOL    HW126900   5.197   2.091   4.428
 8667SOL    HW226901   5.096   2.219   4.420
 8668SOL     OW26902   4.920   2.978   5.394
 8668SOL    HW126903   4.945   2.896   5.341
 8668SOL    HW226904   4.840   2.958   5.450
 8669SOL     OW26905   6.140   6.309   6.126
 8669SOL    HW126906   6.210   6.256   6.079
 8669SOL    HW226907   6.049   6.280   6.095
 8670SOL     OW26908   6.378   4.743   5.917
 8670SOL    HW126909   6.410   4.653   5.947
 8670SOL    HW226910   6.284   4.736   5.883
 8671SOL     OW26911   0.179   2.062   2.554
 8671SOL    HW126912   0.128   2.143   2.581
 8671SOL    HW226913   0.144   1.983   2.604
 8672SOL     OW26914   0.411   1.329   3.542
 8672SOL    HW126915   0.440   1.309   3.448
 8672SOL    HW226916   0.374   1.246   3.584
 8673SOL     OW26917   1.102   1.816   1.205
 8673SOL    HW126918   1.194   1.778   1.210
 8673SOL    HW226919   1.078   1.859   1.292
 8674SOL     OW26920   6.562   4.688   3.036
 8674SOL    HW126921   6.617   4.605   3.036
 8674SOL    HW226922   6.549   4.720   2.942
 8675SOL     OW26923   3.931   1.989   5.573
 8675SOL    HW126924   3.915   2.065   5.510
 8675SOL    HW226925   3.919   2.021   5.667
 8676SOL     OW26926   5.418   0.795   0.809
 8676SOL    HW126927   5.448   0.865   0.874
 8676SOL    HW226928   5.431   0.705   0.849
 8677SOL     OW26929   1.745   6.947   5.673
 8677SOL    HW126930   1.770   6.884   5.600
 8677SOL    HW226931   1.695   0.002   5.634
 8678SOL     OW26932   1.858   1.044   1.241
 8678SOL    HW126933   1.915   1.074   1.165
 8678SOL    HW226934   1.869   0.945   1.254
 8679SOL     OW26935   1.669   1.424   4.817
 8679SOL    HW126936   1.749   1.450   4.764
 8679SOL    HW226937   1.686   1.337   4.864
 8680SOL     OW26938   6.778   2.134   6.347
 8680SOL    HW126939   6.838   2.088   6.413
 8680SOL    HW226940   6.699   2.172   6.395
 8681SOL     OW26941   5.268   5.946   0.968
 8681SOL    HW126942   5.316   5.986   1.047
 8681SOL    HW226943   5.198   6.010   0.937
 8682SOL     OW26944   0.627   0.844   1.033
 8682SOL    HW126945   0.643   0.898   0.951
 8682SOL    HW226946   0.705   0.853   1.095
 8683SOL     OW26947   2.214   4.301   4.728
 8683SOL    HW126948   2.188   4.205   4.738
 8683SOL    HW226949   2.270   4.313   4.647
 8684SOL     OW26950   0.469   3.386   4.307
 8684SOL    HW126951   0.402   3.355   4.375
 8684SOL    HW226952   0.492   3.310   4.246
 8685SOL     OW26953   4.780   2.387   5.371
 8685SOL    HW126954   4.797   2.354   5.464
 8685SOL    HW226955   4.719   2.323   5.324
 8686SOL     OW26956   6.904   6.161   2.873
 8686SOL    HW126957   6.975   6.132   2.810
 8686SOL    HW226958   6.871   6.252   2.847
 8687SOL     OW26959   5.866   3.494   3.691
 8687SOL    HW126960   5.935   3.527   3.626
 8687SOL    HW226961   5.911   3.457   3.772
 8688SOL     OW26962   0.829   4.360   6.283
 8688SOL    HW126963   0.846   4.322   6.192
 8688SOL    HW226964   0.731   4.374   6.296
 8689SOL     OW26965   4.573   3.841   6.503
 8689SOL    HW126966   4.587   3.790   6.418
 8689SOL    HW226967   4.612   3.933   6.493
 8690SOL     OW26968   2.166   1.938   3.877
 8690SOL    HW126969   2.114   1.949   3.962
 8690SOL    HW226970   2.112   1.971   3.800
 8691SOL     OW26971   2.903   2.204   5.111
 8691SOL    HW126972   2.997   2.228   5.087
 8691SOL    HW226973   2.842   2.229   5.036
 8692SOL     OW26974   4.232   1.996   5.811
 8692SOL    HW126975   4.211   2.001   5.714
 8692SOL    HW226976   4.152   1.962   5.861
 8693SOL     OW26977   6.559   0.234   6.293
 8693SOL    HW126978   6.616   0.155   6.317
 8693SOL    HW226979   6.533   0.229   6.196
 8694SOL     OW26980   5.359   3.081   4.274
 8694SOL    HW126981   5.300   3.043   4.202
 8694SOL    HW226982   5.393   3.170   4.245
 8695SOL     OW26983   3.634   4.449   6.253
 8695SOL    HW126984   3.693   4.497   6.189
 8695SOL    HW226985   3.688   4.412   6.328
 8696SOL     OW26986   3.481   5.878   6.142
 8696SOL    HW126987   3.509   5.803   6.082
 8696SOL    HW226988   3.392   5.857   6.182
 8697SOL     OW26989   1.403   3.743   5.834
 8697SOL    HW126990   1.460   3.817   5.870
 8697SOL    HW226991   1.452   3.697   5.760
 8698SOL     OW26992   5.226   5.445   4.958
 8698SOL    HW126993   5.260   5.533   4.992
 8698SOL    HW226994   5.157   5.461   4.888
 8699SOL     OW26995   1.955   3.177   6.970
 8699SOL    HW126996   1.988   3.083   6.967
 8699SOL    HW226997   1.870   3.181   0.001
 8700SOL     OW26998   0.753   0.315   5.119
 8700SOL    HW126999   0.728   0.245   5.186
 8700SOL    HW227000   0.806   0.273   5.045
 8701SOL     OW27001   0.834   2.087   6.924
 8701SOL    HW127002   0.787   2.019   6.868
 8701SOL    HW227003   0.767   2.150   6.964
 8702SOL     OW27004   5.911   4.254   1.217
 8702SOL    HW127005   5.966   4.252   1.301
 8702SOL    HW227006   5.892   4.160   1.188
 8703SOL     OW27007   2.899   4.771   1.482
 8703SOL    HW127008   2.990   4.734   1.468
 8703SOL    HW227009   2.842   4.704   1.530
 8704SOL     OW27010   1.412   2.055   3.483
 8704SOL    HW127011   1.402   2.145   3.525
 8704SOL    HW227012   1.494   2.011   3.518
 8705SOL     OW27013   4.221   2.308   0.244
 8705SOL    HW127014   4.238   2.405   0.224
 8705SOL    HW227015   4.246   2.253   0.164
 8706SOL     OW27016   4.381   3.394   6.370
 8706SOL    HW127017   4.328   3.324   6.419
 8706SOL    HW227018   4.352   3.485   6.401
 8707SOL     OW27019   1.516   2.042   4.694
 8707SOL    HW127020   1.572   2.064   4.614
 8707SOL    HW227021   1.433   2.098   4.692
 8708SOL     OW27022   5.746   2.227   1.915
 8708SOL    HW127023   5.649   2.203   1.915
 8708SOL    HW227024   5.755   2.326   1.918
 8709SOL     OW27025   6.858   0.369   5.502
 8709SOL    HW127026   6.886   0.329   5.590
 8709SOL    HW227027   6.812   0.299   5.447
 8710SOL     OW27028   2.308   1.261   3.571
 8710SOL    HW127029   2.289   1.288   3.665
 8710SOL    HW227030   2.241   1.302   3.509
 8711SOL     OW27031   1.291   0.366   1.921
 8711SOL    HW127032   1.382   0.405   1.937
 8711SOL    HW227033   1.300   0.276   1.879
 8712SOL     OW27034   1.674   3.036   5.995
 8712SOL    HW127035   1.705   3.130   5.979
 8712SOL    HW227036   1.751   2.979   6.020
 8713SOL     OW27037   0.646   4.918   1.560
 8713SOL    HW127038   0.590   4.896   1.480
 8713SOL    HW227039   0.591   4.907   1.643
 8714SOL     OW27040   6.662   6.536   7.006
 8714SOL    HW127041   6.586   6.513   6.946
 8714SOL    HW227042   6.632   6.600   0.054
 8715SOL     OW27043   2.504   2.206   0.640
 8715SOL    HW127044   2.601   2.212   0.664
 8715SOL    HW227045   2.448   2.232   0.718
 8716SOL     OW27046   6.659   6.557   1.698
 8716SOL    HW127047   6.604   6.547   1.615
 8716SOL    HW227048   6.736   6.493   1.694
 8717SOL     OW27049   3.060   4.248   0.697
 8717SOL    HW127050   2.990   4.186   0.732
 8717SOL    HW227051   3.148   4.226   0.738
 8718SOL     OW27052   2.379   4.659   6.203
 8718SOL    HW127053   2.445   4.621   6.268
 8718SOL    HW227054   2.308   4.592   6.184
 8719SOL     OW27055   4.184   0.852   5.639
 8719SOL    HW127056   4.283   0.863   5.653
 8719SOL    HW227057   4.163   0.755   5.624
 8720SOL     OW27058   6.979   4.353   5.147
 8720SOL    HW127059   6.939   4.327   5.235
 8720SOL    HW227060   0.031   4.418   5.161
 8721SOL     OW27061   0.556   6.870   6.088
 8721SOL    HW127062   0.578   6.780   6.052
 8721SOL    HW227063   0.491   6.861   6.164
 8722SOL     OW27064   4.273   1.102   1.699
 8722SOL    HW127065   4.228   1.052   1.625
 8722SOL    HW227066   4.227   1.189   1.713
 8723SOL     OW27067   4.566   6.863   2.528
 8723SOL    HW127068   4.522   6.936   2.579
 8723SOL    HW227069   4.665   6.879   2.525
 8724SOL     OW27070   3.893   0.799   4.806
 8724SOL    HW127071   3.946   0.771   4.886
 8724SOL    HW227072   3.956   0.833   4.736
 8725SOL     OW27073   0.093   6.495   4.102
 8725SOL    HW127074   0.183   6.478   4.062
 8725SOL    HW227075   0.103   6.522   4.198
 8726SOL     OW27076   1.225   1.191   0.594
 8726SOL    HW127077   1.269   1.175   0.683
 8726SOL    HW227078   1.199   1.104   0.553
 8727SOL     OW27079   4.777   5.133   6.216
 8727SOL    HW127080   4.871   5.165   6.221
 8727SOL    HW227081   4.729   5.182   6.142
 8728SOL     OW27082   6.661   1.180   3.193
 8728SOL    HW127083   6.603   1.200   3.114
 8728SOL    HW227084   6.709   1.263   3.221
 8729SOL     OW27085   3.466   5.916   6.509
 8729SOL    HW127086   3.475   5.938   6.606
 8729SOL    HW227087   3.555   5.889   6.472
 8730SOL     OW27088   4.806   4.836   2.181
 8730SOL    HW127089   4.774   4.743   2.195
 8730SOL    HW227090   4.876   4.859   2.248
 8731SOL     OW27091   0.565   1.993   3.414
 8731SOL    HW127092   0.501   1.945   3.354
 8731SOL    HW227093   0.631   1.928   3.451
 8732SOL     OW27094   5.649   5.691   0.636
 8732SOL    HW127095   5.679   5.640   0.716
 8732SOL    HW227096   5.565   5.650   0.600
 8733SOL     OW27097   6.483   5.604   2.065
 8733SOL    HW127098   6.404   5.618   2.006
 8733SOL    HW227099   6.509   5.690   2.107
 8734SOL     OW27100   0.167   3.320   1.817
 8734SOL    HW127101   0.078   3.299   1.858
 8734SOL    HW227102   0.181   3.264   1.736
 8735SOL     OW27103   1.617   3.896   5.871
 8735SOL    HW127104   1.678   3.952   5.927
 8735SOL    HW227105   1.652   3.892   5.777
 8736SOL     OW27106   1.101   5.679   2.323
 8736SOL    HW127107   1.152   5.596   2.342
 8736SOL    HW227108   1.110   5.743   2.399
 8737SOL     OW27109   1.627   6.032   6.718
 8737SOL    HW127110   1.608   6.050   6.621
 8737SOL    HW227111   1.628   5.933   6.733
 8738SOL     OW27112   0.972   3.500   3.677
 8738SOL    HW127113   1.061   3.497   3.723
 8738SOL    HW227114   0.987   3.497   3.578
 8739SOL     OW27115   5.753   4.317   5.083
 8739SOL    HW127116   5.660   4.285   5.067
 8739SOL    HW227117   5.816   4.240   5.075
 8740SOL     OW27118   3.349   1.354   4.136
 8740SOL    HW127119   3.429   1.414   4.132
 8740SOL    HW227120   3.266   1.409   4.138
 8741SOL     OW27121   1.135   0.054   2.623
 8741SOL    HW127122   1.202   0.106   2.677
 8741SOL    HW227123   1.045   0.061   2.666
 8742SOL     OW27124   3.079   1.644   2.995
 8742SOL    HW127125   3.116   1.716   3.053
 8742SOL    HW227126   3.028   1.685   2.919
 8743SOL     OW27127   1.388   1.217   1.352
 8743SOL    HW127128   1.471   1.265   1.325
 8743SOL    HW227129   1.363   1.244   1.445
 8744SOL     OW27130   3.583   4.400   6.666
 8744SOL    HW127131   3.620   4.452   6.743
 8744SOL    HW227132   3.598   4.302   6.681
 8745SOL     OW27133   6.141   1.555   6.273
 8745SOL    HW127134   6.143   1.564   6.173
 8745SOL    HW227135   6.196   1.628   6.314
 8746SOL     OW27136   4.753   5.285   4.728
 8746SOL    HW127137   4.771   5.254   4.635
 8746SOL    HW227138   4.695   5.366   4.726
 8747SOL     OW27139   0.401   0.890   1.811
 8747SOL    HW127140   0.419   0.834   1.891
 8747SOL    HW227141   0.400   0.832   1.729
 8748SOL     OW27142   1.260   2.262   3.656
 8748SOL    HW127143   1.205   2.282   3.574
 8748SOL    HW227144   1.220   2.309   3.735
 8749SOL     OW27145   2.825   1.363   5.421
 8749SOL    HW127146   2.849   1.458   5.404
 8749SOL    HW227147   2.902   1.304   5.396
 8750SOL     OW27148   4.029   2.822   5.975
 8750SOL    HW127149   3.950   2.878   5.951
 8750SOL    HW227150   4.028   2.804   6.074
 8751SOL     OW27151   0.567   5.679   1.877
 8751SOL    HW127152   0.610   5.763   1.907
 8751SOL    HW227153   0.616   5.642   1.798
 8752SOL     OW27154   4.773   3.545   6.617
 8752SOL    HW127155   4.678   3.549   6.645
 8752SOL    HW227156   4.781   3.576   6.522
 8753SOL     OW27157   1.823   2.934   0.557
 8753SOL    HW127158   1.884   2.987   0.497
 8753SOL    HW227159   1.827   2.838   0.531
 8754SOL     OW27160   2.944   5.436   6.909
 8754SOL    HW127161   2.929   5.533   6.927
 8754SOL    HW227162   2.986   5.426   6.819
 8755SOL     OW27163   0.170   2.525   2.411
 8755SOL    HW127164   0.098   2.489   2.471
 8755SOL    HW227165   0.254   2.473   2.425
 8756SOL     OW27166   1.859   2.284   3.220
 8756SOL    HW127167   1.919   2.266   3.142
 8756SOL    HW227168   1.909   2.336   3.289
 8757SOL     OW27169   4.941   6.358   5.229
 8757SOL    HW127170   4.917   6.374   5.325
 8757SOL    HW227171   4.861   6.322   5.181
 8758SOL     OW27172   3.251   6.544   4.229
 8758SOL    HW127173   3.251   6.586   4.139
 8758SOL    HW227174   3.203   6.604   4.294
 8759SOL     OW27175   5.838   1.594   0.722
 8759SOL    HW127176   5.792   1.683   0.728
 8759SOL    HW227177   5.807   1.536   0.798
 8760SOL     OW27178   2.368   2.111   4.452
 8760SOL    HW127179   2.347   2.040   4.384
 8760SOL    HW227180   2.366   2.071   4.544
 8761SOL     OW27181   4.706   0.556   2.277
 8761SOL    HW127182   4.700   0.504   2.192
 8761SOL    HW227183   4.802   0.560   2.307
 8762SOL     OW27184   1.276   5.107   3.148
 8762SOL    HW127185   1.253   5.011   3.164
 8762SOL    HW227186   1.273   5.126   3.049
 8763SOL     OW27187   0.881   1.557   6.127
 8763SOL    HW127188   0.877   1.500   6.210
 8763SOL    HW227189   0.812   1.524   6.062
 8764SOL     OW27190   3.687   4.937   6.019
 8764SOL    HW127191   3.622   4.875   6.063
 8764SOL    HW227192   3.679   4.929   5.920
 8765SOL     OW27193   5.103   6.640   4.979
 8765SOL    HW127194   5.027   6.649   4.915
 8765SOL    HW227195   5.079   6.681   5.066
 8766SOL     OW27196   5.005   4.771   5.520
 8766SOL    HW127197   5.081   4.706   5.521
 8766SOL    HW227198   4.919   4.721   5.518
 8767SOL     OW27199   2.943   1.005   4.015
 8767SOL    HW127200   2.927   0.978   3.921
 8767SOL    HW227201   2.873   1.071   4.043
 8768SOL     OW27202   6.648   2.185   0.061
 8768SOL    HW127203   6.744   2.189   0.090
 8768SOL    HW227204   6.644   2.167   6.985
 8769SOL     OW27205   6.683   0.943   0.576
 8769SOL    HW127206   6.742   0.873   0.535
 8769SOL    HW227207   6.610   0.966   0.513
 8770SOL     OW27208   4.791   3.947   1.668
 8770SOL    HW127209   4.729   3.868   1.671
 8770SOL    HW227210   4.738   4.030   1.648
 8771SOL     OW27211   0.306   3.369   6.808
 8771SOL    HW127212   0.255   3.329   6.885
 8771SOL    HW227213   0.394   3.323   6.799
 8772SOL     OW27214   5.388   0.162   3.488
 8772SOL    HW127215   5.335   0.133   3.408
 8772SOL    HW227216   5.375   0.260   3.503
 8773SOL     OW27217   0.343   1.560   4.138
 8773SOL    HW127218   0.309   1.626   4.205
 8773SOL    HW227219   0.407   1.497   4.182
 8774SOL     OW27220   1.856   0.659   0.955
 8774SOL    HW127221   1.797   0.595   1.003
 8774SOL    HW227222   1.887   0.619   0.869
 8775SOL     OW27223   5.104   1.858   4.483
 8775SOL    HW127224   5.203   1.852   4.468
 8775SOL    HW227225   5.072   1.950   4.459
 8776SOL     OW27226   4.011   2.792   0.260
 8776SOL    HW127227   3.935   2.795   0.324
 8776SOL    HW227228   3.980   2.820   0.169
 8777SOL     OW27229   1.021   2.053   3.468
 8777SOL    HW127230   1.080   1.982   3.429
 8777SOL    HW227231   0.986   2.021   3.556
 8778SOL     OW27232   4.117   4.936   6.556
 8778SOL    HW127233   4.148   4.841   6.545
 8778SOL    HW227234   4.023   4.936   6.589
 8779SOL     OW27235   3.589   5.044   2.935
 8779SOL    HW127236   3.582   5.118   3.001
 8779SOL    HW227237   3.667   5.059   2.875
 8780SOL     OW27238   6.333   5.319   3.192
 8780SOL    HW127239   6.269   5.284   3.261
 8780SOL    HW227240   6.360   5.245   3.131
 8781SOL     OW27241   3.726   6.439   2.325
 8781SOL    HW127242   3.712   6.535   2.350
 8781SOL    HW227243   3.640   6.389   2.340
 8782SOL     OW27244   5.169   0.733   1.726
 8782SOL    HW127245   5.265   0.742   1.701
 8782SOL    HW227246   5.120   0.686   1.653
 8783SOL     OW27247   4.946   3.447   5.183
 8783SOL    HW127248   4.911   3.527   5.134
 8783SOL    HW227249   4.892   3.367   5.158
 8784SOL     OW27250   5.730   6.474   0.585
 8784SOL    HW127251   5.818   6.439   0.619
 8784SOL    HW227252   5.660   6.404   0.595
 8785SOL     OW27253   0.812   5.787   6.149
 8785SOL    HW127254   0.819   5.830   6.059
 8785SOL    HW227255   0.725   5.813   6.192
 8786SOL     OW27256   4.176   1.705   2.189
 8786SOL    HW127257   4.231   1.741   2.265
 8786SOL    HW227258   4.145   1.612   2.211
 8787SOL     OW27259   3.222   0.027   1.656
 8787SOL    HW127260   3.198   6.972   1.714
 8787SOL    HW227261   3.190   0.112   1.698
 8788SOL     OW27262   0.451   0.375   4.265
 8788SOL    HW127263   0.519   0.307   4.237
 8788SOL    HW227264   0.498   0.458   4.296
 8789SOL     OW27265   6.949   2.931   4.980
 8789SOL    HW127266   7.002   2.985   5.046
 8789SOL    HW227267   6.992   2.938   4.890
 8790SOL     OW27268   5.504   2.566   6.247
 8790SOL    HW127269   5.517   2.520   6.334
 8790SOL    HW227270   5.412   2.547   6.212
 8791SOL     OW27271   4.165   5.272   6.201
 8791SOL    HW127272   4.092   5.225   6.150
 8791SOL    HW227273   4.206   5.207   6.266
 8792SOL     OW27274   5.387   5.492   1.011
 8792SOL    HW127275   5.448   5.539   1.075
 8792SOL    HW227276   5.440   5.429   0.954
 8793SOL     OW27277   6.992   4.761   4.217
 8793SOL    HW127278   6.983   4.790   4.312
 8793SOL    HW227279   0.053   4.800   4.178
 8794SOL     OW27280   0.491   0.775   2.366
 8794SOL    HW127281   0.402   0.818   2.380
 8794SOL    HW227282   0.559   0.820   2.424
 8795SOL     OW27283   1.687   5.325   5.496
 8795SOL    HW127284   1.775   5.368   5.476
 8795SOL    HW227285   1.667   5.255   5.427
 8796SOL     OW27286   6.731   3.507   3.711
 8796SOL    HW127287   6.705   3.470   3.622
 8796SOL    HW227288   6.661   3.571   3.742
 8797SOL     OW27289   5.347   6.634   4.010
 8797SOL    HW127290   5.367   6.537   3.995
 8797SOL    HW227291   5.387   6.688   3.936
 8798SOL     OW27292   3.916   6.412   5.919
 8798SOL    HW127293   3.834   6.437   5.971
 8798SOL    HW227294   3.980   6.488   5.919
 8799SOL     OW27295   1.511   5.388   1.951
 8799SOL    HW127296   1.580   5.329   1.909
 8799SOL    HW227297   1.450   5.424   1.881
 8800SOL     OW27298   0.218   5.979   5.519
 8800SOL    HW127299   0.161   6.041   5.572
 8800SOL    HW227300   0.272   6.031   5.453
 8801SOL     OW27301   6.203   2.643   5.197
 8801SOL    HW127302   6.138   2.719   5.204
 8801SOL    HW227303   6.242   2.641   5.105
 8802SOL     OW27304   1.657   6.455   5.801
 8802SOL    HW127305   1.586   6.413   5.745
 8802SOL    HW227306   1.619   6.481   5.890
 8803SOL     OW27307   6.408   0.130   6.761
 8803SOL    HW127308   6.506   0.148   6.758
 8803SOL    HW227309   6.390   0.055   6.824
 8804SOL     OW27310   1.544   6.014   2.273
 8804SOL    HW127311   1.596   5.930   2.258
 8804SOL    HW227312   1.491   6.006   2.357
 8805SOL     OW27313   4.747   4.985   2.977
 8805SOL    HW127314   4.826   5.020   2.927
 8805SOL    HW227315   4.670   5.049   2.968
 8806SOL     OW27316   1.704   6.946   0.708
 8806SOL    HW127317   1.704   6.882   0.785
 8806SOL    HW227318   1.787   7.002   0.711
 8807SOL     OW27319   4.742   2.615   1.160
 8807SOL    HW127320   4.696   2.613   1.071
 8807SOL    HW227321   4.817   2.548   1.160
 8808SOL     OW27322   2.009   2.509   1.066
 8808SOL    HW127323   1.998   2.411   1.046
 8808SOL    HW227324   2.006   2.523   1.164
 8809SOL     OW27325   1.175   4.009   3.627
 8809SOL    HW127326   1.225   4.064   3.560
 8809SOL    HW227327   1.084   4.047   3.640
 8810SOL     OW27328   0.464   0.519   6.083
 8810SOL    HW127329   0.485   0.577   6.161
 8810SOL    HW227330   0.444   0.576   6.003
 8811SOL     OW27331   3.865   5.798   2.557
 8811SOL    HW127332   3.857   5.837   2.465
 8811SOL    HW227333   3.946   5.838   2.602
 8812SOL     OW27334   4.681   1.416   6.429
 8812SOL    HW127335   4.583   1.404   6.444
 8812SOL    HW227336   4.731   1.393   6.513
 8813SOL     OW27337   2.093   4.605   3.620
 8813SOL    HW127338   2.188   4.632   3.633
 8813SOL    HW227339   2.047   4.671   3.560
 8814SOL     OW27340   5.306   6.498   6.173
 8814SOL    HW127341   5.281   6.413   6.220
 8814SOL    HW227342   5.322   6.478   6.076
 8815SOL     OW27343   5.449   1.311   0.414
 8815SOL    HW127344   5.449   1.410   0.400
 8815SOL    HW227345   5.358   1.275   0.396
 8816SOL     OW27346   0.902   6.549   5.284
 8816SOL    HW127347   0.874   6.462   5.324
 8816SOL    HW227348   0.969   6.594   5.343
 8817SOL     OW27349   1.864   2.795   4.460
 8817SOL    HW127350   1.930   2.808   4.535
 8817SOL    HW227351   1.783   2.850   4.478
 8818SOL     OW27352   1.934   0.020   4.555
 8818SOL    HW127353   1.853   6.986   4.543
 8818SOL    HW227354   1.914   0.096   4.617
 8819SOL     OW27355   6.063   4.492   5.885
 8819SOL    HW127356   6.074   4.465   5.981
 8819SOL    HW227357   6.093   4.417   5.826
 8820SOL     OW27358   3.125   0.179   4.477
 8820SOL    HW127359   3.126   0.160   4.575
 8820SOL    HW227360   3.209   0.227   4.452
 8821SOL     OW27361   0.689   4.454   0.024
 8821SOL    HW127362   0.735   4.495   6.968
 8821SOL    HW227363   0.591   4.474   0.019
 8822SOL     OW27364   6.727   6.542   4.070
 8822SOL    HW127365   6.808   6.528   4.014
 8822SOL    HW227366   6.696   6.637   4.061
 8823SOL     OW27367   3.673   1.083   3.000
 8823SOL    HW127368   3.720   1.171   3.007
 8823SOL    HW227369   3.714   1.019   3.065
 8824SOL     OW27370   1.897   0.933   1.788
 8824SOL    HW127371   1.983   0.922   1.837
 8824SOL    HW227372   1.914   0.933   1.689
 8825SOL     OW27373   6.925   6.689   0.083
 8825SOL    HW127374   6.962   6.658   7.018
 8825SOL    HW227375   6.826   6.675   0.083
 8826SOL     OW27376   1.013   3.303   0.541
 8826SOL    HW127377   1.070   3.337   0.615
 8826SOL    HW227378   1.059   3.227   0.495
 8827SOL     OW27379   3.862   6.873   2.256
 8827SOL    HW127380   3.861   6.943   2.184
 8827SOL    HW227381   3.942   6.815   2.243
 8828SOL     OW27382   3.652   3.070   6.245
 8828SOL    HW127383   3.556   3.045   6.233
 8828SOL    HW227384   3.673   3.151   6.190
 8829SOL     OW27385   0.498   1.934   2.356
 8829SOL    HW127386   0.528   1.944   2.261
 8829SOL    HW227387   0.470   2.023   2.392
 8830SOL     OW27388   3.019   1.733   4.006
 8830SOL    HW127389   2.927   1.762   4.033
 8830SOL    HW227390   3.084   1.756   4.078
 8831SOL     OW27391   0.684   2.831   2.093
 8831SOL    HW127392   0.735   2.756   2.051
 8831SOL    HW227393   0.619   2.867   2.026
 8832SOL     OW27394   6.651   0.421   4.379
 8832SOL    HW127395   6.705   0.399   4.297
 8832SOL    HW227396   6.653   0.520   4.394
 8833SOL     OW27397   3.394   3.055   0.548
 8833SOL    HW127398   3.429   3.134   0.599
 8833SOL    HW227399   3.374   2.980   0.611
 8834SOL     OW27400   5.091   3.398   5.706
 8834SOL    HW127401   5.032   3.412   5.786
 8834SOL    HW227402   5.135   3.309   5.713
 8835SOL     OW27403   6.267   0.908   5.405
 8835SOL    HW127404   6.329   0.981   5.374
 8835SOL    HW227405   6.179   0.949   5.430
 8836SOL     OW27406   5.239   1.770   0.448
 8836SOL    HW127407   5.202   1.854   0.488
 8836SOL    HW227408   5.168   1.723   0.397
 8837SOL     OW27409   5.898   6.764   1.570
 8837SOL    HW127410   5.937   6.679   1.534
 8837SOL    HW227411   5.861   6.747   1.662
 8838SOL     OW27412   0.109   4.373   2.912
 8838SOL    HW127413   0.059   4.360   2.826
 8838SOL    HW227414   0.090   4.297   2.974
 8839SOL     OW27415   5.353   5.799   3.287
 8839SOL    HW127416   5.305   5.718   3.320
 8839SOL    HW227417   5.336   5.875   3.349
 8840SOL     OW27418   0.059   1.466   1.493
 8840SOL    HW127419   0.077   1.377   1.449
 8840SOL    HW227420   6.986   1.470   1.521
 8841SOL     OW27421   3.634   1.250   1.715
 8841SOL    HW127422   3.724   1.224   1.682
 8841SOL    HW227423   3.609   1.340   1.678
 8842SOL     OW27424   3.690   3.492   4.013
 8842SOL    HW127425   3.651   3.404   3.988
 8842SOL    HW227426   3.762   3.516   3.948
 8843SOL     OW27427   1.913   4.732   5.759
 8843SOL    HW127428   2.009   4.729   5.787
 8843SOL    HW227429   1.856   4.760   5.837
 8844SOL     OW27430   4.979   1.808   5.289
 8844SOL    HW127431   4.901   1.863   5.260
 8844SOL    HW227432   4.993   1.734   5.223
 8845SOL     OW27433   0.513   4.928   1.805
 8845SOL    HW127434   0.466   5.015   1.792
 8845SOL    HW227435   0.450   4.864   1.850
 8846SOL     OW27436   6.030   4.976   3.319
 8846SOL    HW127437   5.943   4.932   3.343
 8846SOL    HW227438   6.092   4.973   3.397
 8847SOL     OW27439   2.408   2.238   3.043
 8847SOL    HW127440   2.392   2.320   3.099
 8847SOL    HW227441   2.502   2.208   3.055
 8848SOL     OW27442   3.798   1.750   1.218
 8848SOL    HW127443   3.767   1.845   1.216
 8848SOL    HW227444   3.811   1.717   1.124
 8849SOL     OW27445   2.725   5.024   4.496
 8849SOL    HW127446   2.821   5.000   4.514
 8849SOL    HW227447   2.666   4.978   4.561
 8850SOL     OW27448   3.070   1.650   1.217
 8850SOL    HW127449   3.136   1.592   1.170
 8850SOL    HW227450   3.101   1.667   1.310
 8851SOL     OW27451   0.148   5.117   3.232
 8851SOL    HW127452   0.230   5.139   3.179
 8851SOL    HW227453   0.165   5.136   3.329
 8852SOL     OW27454   5.639   2.211   5.675
 8852SOL    HW127455   5.614   2.162   5.591
 8852SOL    HW227456   5.574   2.285   5.692
 8853SOL     OW27457   4.564   0.655   5.472
 8853SOL    HW127458   4.581   0.720   5.546
 8853SOL    HW227459   4.486   0.596   5.497
 8854SOL     OW27460   2.136   1.666   6.167
 8854SOL    HW127461   2.215   1.696   6.113
 8854SOL    HW227462   2.070   1.620   6.108
 8855SOL     OW27463   6.403   5.468   6.551
 8855SOL    HW127464   6.438   5.559   6.573
 8855SOL    HW227465   6.311   5.457   6.590
 8856SOL     OW27466   5.915   0.758   5.195
 8856SOL    HW127467   5.827   0.746   5.150
 8856SOL    HW227468   5.916   0.708   5.281
 8857SOL     OW27469   6.298   2.017   3.894
 8857SOL    HW127470   6.308   2.116   3.897
 8857SOL    HW227471   6.254   1.990   3.808
 8858SOL     OW27472   0.499   3.475   6.111
 8858SOL    HW127473   0.487   3.570   6.081
 8858SOL    HW227474   0.462   3.464   6.203
 8859SOL     OW27475   1.685   5.476   5.848
 8859SOL    HW127476   1.726   5.493   5.758
 8859SOL    HW227477   1.660   5.563   5.890
 8860SOL     OW27478   1.401   1.898   2.931
 8860SOL    HW127479   1.449   1.814   2.905
 8860SOL    HW227480   1.375   1.892   3.028
 8861SOL     OW27481   4.288   3.229   0.228
 8861SOL    HW127482   4.353   3.154   0.239
 8861SOL    HW227483   4.324   3.311   0.272
 8862SOL     OW27484   5.726   1.433   4.357
 8862SOL    HW127485   5.670   1.363   4.400
 8862SOL    HW227486   5.679   1.470   4.277
 8863SOL     OW27487   2.223   5.642   5.052
 8863SOL    HW127488   2.218   5.734   5.015
 8863SOL    HW227489   2.146   5.588   5.016
 8864SOL     OW27490   1.519   2.690   6.668
 8864SOL    HW127491   1.523   2.788   6.650
 8864SOL    HW227492   1.529   2.639   6.582
 8865SOL     OW27493   2.758   2.195   6.095
 8865SOL    HW127494   2.702   2.115   6.071
 8865SOL    HW227495   2.767   2.254   6.014
 8866SOL     OW27496   3.400   6.361   3.804
 8866SOL    HW127497   3.472   6.426   3.831
 8866SOL    HW227498   3.346   6.400   3.729
 8867SOL     OW27499   6.505   2.660   3.517
 8867SOL    HW127500   6.472   2.690   3.607
 8867SOL    HW227501   6.595   2.617   3.528
 8868SOL     OW27502   4.718   4.263   0.075
 8868SOL    HW127503   4.628   4.255   0.031
 8868SOL    HW227504   4.776   4.322   0.020
 8869SOL     OW27505   4.934   3.055   3.257
 8869SOL    HW127506   4.858   3.021   3.314
 8869SOL    HW227507   4.927   3.015   3.166
 8870SOL     OW27508   4.195   1.303   0.626
 8870SOL    HW127509   4.150   1.315   0.537
 8870SOL    HW227510   4.258   1.379   0.642
 8871SOL     OW27511   2.383   1.888   3.597
 8871SOL    HW127512   2.366   1.862   3.502
 8871SOL    HW227513   2.308   1.945   3.630
 8872SOL     OW27514   1.272   3.681   4.274
 8872SOL    HW127515   1.316   3.591   4.275
 8872SOL    HW227516   1.313   3.739   4.343
 8873SOL     OW27517   0.264   5.371   4.458
 8873SOL    HW127518   0.209   5.352   4.539
 8873SOL    HW227519   0.344   5.311   4.457
 8874SOL     OW27520   2.592   0.394   1.139
 8874SOL    HW127521   2.635   0.484   1.130
 8874SOL    HW227522   2.535   0.377   1.058
 8875SOL     OW27523   1.926   2.927   4.153
 8875SOL    HW127524   1.891   2.885   4.236
 8875SOL    HW227525   2.026   2.924   4.154
 8876SOL     OW27526   0.803   0.527   4.777
 8876SOL    HW127527   0.713   0.562   4.802
 8876SOL    HW227528   0.873   0.573   4.832
 8877SOL     OW27529   2.786   0.165   4.720
 8877SOL    HW127530   2.881   0.136   4.725
 8877SOL    HW227531   2.781   0.262   4.698
 8878SOL     OW27532   0.013   3.960   6.950
 8878SOL    HW127533   0.051   3.923   6.864
 8878SOL    HW227534   7.018   4.058   6.939
 8879SOL     OW27535   5.718   6.365   6.277
 8879SOL    HW127536   5.723   6.446   6.219
 8879SOL    HW227537   5.811   6.332   6.297
 8880SOL     OW27538   0.012   4.726   4.487
 8880SOL    HW127539   7.009   4.801   4.546
 8880SOL    HW227540   0.107   4.738   4.457
 8881SOL     OW27541   6.831   1.476   1.581
 8881SOL    HW127542   6.825   1.378   1.562
 8881SOL    HW227543   6.741   1.518   1.566
 8882SOL     OW27544   5.390   1.988   6.691
 8882SOL    HW127545   5.344   1.900   6.683
 8882SOL    HW227546   5.384   2.037   6.604
 8883SOL     OW27547   6.674   0.826   5.565
 8883SOL    HW127548   6.684   0.767   5.485
 8883SOL    HW227549   6.758   0.877   5.581
 8884SOL     OW27550   6.442   0.539   6.330
 8884SOL    HW127551   6.496   0.457   6.314
 8884SOL    HW227552   6.462   0.607   6.260
 8885SOL     OW27553   5.514   3.627   1.704
 8885SOL    HW127554   5.463   3.551   1.744
 8885SOL    HW227555   5.457   3.673   1.636
 8886SOL     OW27556   3.337   6.750   5.715
 8886SOL    HW127557   3.302   6.738   5.622
 8886SOL    HW227558   3.436   6.736   5.715
 8887SOL     OW27559   2.687   0.946   0.860
 8887SOL    HW127560   2.601   0.895   0.863
 8887SOL    HW227561   2.667   1.044   0.857
 8888SOL     OW27562   2.890   1.757   2.030
 8888SOL    HW127563   2.980   1.783   1.996
 8888SOL    HW227564   2.881   1.785   2.125
 8889SOL     OW27565   3.858   6.636   4.376
 8889SOL    HW127566   3.787   6.619   4.306
 8889SOL    HW227567   3.832   6.590   4.461
 8890SOL     OW27568   0.564   5.260   4.443
 8890SOL    HW127569   0.607   5.265   4.534
 8890SOL    HW227570   0.594   5.177   4.396
 8891SOL     OW27571   5.053   2.746   6.535
 8891SOL    HW127572   5.139   2.721   6.491
 8891SOL    HW227573   5.004   2.813   6.479
 8892SOL     OW27574   1.996   0.174   2.974
 8892SOL    HW127575   2.026   0.240   3.042
 8892SOL    HW227576   1.985   0.219   2.885
 8893SOL     OW27577   0.511   1.562   0.948
 8893SOL    HW127578   0.458   1.638   0.986
 8893SOL    HW227579   0.449   1.491   0.914
 8894SOL     OW27580   4.036   2.748   6.284
 8894SOL    HW127581   4.039   2.648   6.283
 8894SOL    HW227582   3.942   2.779   6.299
 8895SOL     OW27583   0.426   6.915   2.139
 8895SOL    HW127584   0.448   6.836   2.196
 8895SOL    HW227585   0.383   6.884   2.054
 8896SOL     OW27586   1.768   3.920   4.634
 8896SOL    HW127587   1.800   3.826   4.644
 8896SOL    HW227588   1.679   3.930   4.678
 8897SOL     OW27589   1.879   1.588   1.574
 8897SOL    HW127590   1.897   1.646   1.653
 8897SOL    HW227591   1.941   1.510   1.575
 8898SOL     OW27592   5.836   3.864   4.103
 8898SOL    HW127593   5.810   3.790   4.041
 8898SOL    HW227594   5.930   3.850   4.135
 8899SOL     OW27595   1.401   4.721   0.462
 8899SOL    HW127596   1.439   4.780   0.390
 8899SOL    HW227597   1.356   4.643   0.419
 8900SOL     OW27598   5.028   2.265   3.078
 8900SOL    HW127599   5.006   2.240   3.173
 8900SOL    HW227600   4.965   2.219   3.016
 8901SOL     OW27601   1.192   0.389   2.674
 8901SOL    HW127602   1.237   0.445   2.605
 8901SOL    HW227603   1.259   0.331   2.719
 8902SOL     OW27604   1.376   5.586   6.030
 8902SOL    HW127605   1.374   5.503   5.973
 8902SOL    HW227606   1.462   5.635   6.014
 8903SOL     OW27607   1.797   1.749   3.676
 8903SOL    HW127608   1.755   1.696   3.750
 8903SOL    HW227609   1.883   1.705   3.649
 8904SOL     OW27610   0.321   6.349   3.735
 8904SOL    HW127611   0.265   6.366   3.654
 8904SOL    HW227612   0.285   6.270   3.784
 8905SOL     OW27613   2.452   3.539   5.361
 8905SOL    HW127614   2.369   3.502   5.319
 8905SOL    HW227615   2.498   3.467   5.413
 8906SOL     OW27616   6.372   6.416   5.639
 8906SOL    HW127617   6.401   6.450   5.728
 8906SOL    HW227618   6.412   6.473   5.567
 8907SOL     OW27619   3.347   2.780   5.128
 8907SOL    HW127620   3.288   2.724   5.186
 8907SOL    HW227621   3.443   2.761   5.150
 8908SOL     OW27622   1.406   2.185   1.612
 8908SOL    HW127623   1.460   2.103   1.634
 8908SOL    HW227624   1.463   2.248   1.559
 8909SOL     OW27625   2.081   0.870   6.856
 8909SOL    HW127626   2.031   0.838   6.936
 8909SOL    HW227627   2.168   0.822   6.849
 8910SOL     OW27628   2.571   3.341   6.728
 8910SOL    HW127629   2.589   3.274   6.800
 8910SOL    HW227630   2.504   3.407   6.760
 8911SOL     OW27631   3.557   2.058   4.551
 8911SOL    HW127632   3.496   2.059   4.472
 8911SOL    HW227633   3.646   2.095   4.526
 8912SOL     OW27634   4.588   1.976   6.223
 8912SOL    HW127635   4.633   1.971   6.134
 8912SOL    HW227636   4.642   2.033   6.284
 8913SOL     OW27637   5.139   4.257   1.465
 8913SOL    HW127638   5.119   4.166   1.499
 8913SOL    HW227639   5.118   4.325   1.535
 8914SOL     OW27640   3.247   1.797   4.999
 8914SOL    HW127641   3.185   1.759   5.068
 8914SOL    HW227642   3.238   1.897   5.000
 8915SOL     OW27643   1.443   3.854   2.746
 8915SOL    HW127644   1.518   3.808   2.793
 8915SOL    HW227645   1.412   3.932   2.800
 8916SOL     OW27646   6.408   3.833   2.787
 8916SOL    HW127647   6.374   3.755   2.734
 8916SOL    HW227648   6.498   3.860   2.753
 8917SOL     OW27649   6.326   6.039   0.109
 8917SOL    HW127650   6.325   6.124   0.161
 8917SOL    HW227651   6.236   5.996   0.113
 8918SOL     OW27652   5.485   5.189   6.501
 8918SOL    HW127653   5.514   5.182   6.596
 8918SOL    HW227654   5.524   5.271   6.460
 8919SOL     OW27655   3.505   5.134   1.420
 8919SOL    HW127656   3.433   5.175   1.362
 8919SOL    HW227657   3.468   5.118   1.512
 8920SOL     OW27658   6.125   5.487   5.374
 8920SOL    HW127659   6.070   5.408   5.402
 8920SOL    HW227660   6.073   5.571   5.392
 8921SOL     OW27661   1.045   0.572   3.724
 8921SOL    HW127662   0.957   0.613   3.705
 8921SOL    HW227663   1.046   0.537   3.818
 8922SOL     OW27664   1.089   4.187   0.608
 8922SOL    HW127665   1.116   4.189   0.512
 8922SOL    HW227666   1.132   4.265   0.656
 8923SOL     OW27667   1.960   4.335   6.371
 8923SOL    HW127668   1.866   4.337   6.403
 8923SOL    HW227669   2.022   4.351   6.447
 8924SOL     OW27670   3.030   5.324   5.191
 8924SOL    HW127671   3.075   5.326   5.280
 8924SOL    HW227672   3.087   5.373   5.124
 8925SOL     OW27673   6.816   0.418   2.408
 8925SOL    HW127674   6.846   0.499   2.459
 8925SOL    HW227675   6.722   0.430   2.378
 8926SOL     OW27676   5.718   2.305   1.402
 8926SOL    HW127677   5.675   2.339   1.485
 8926SOL    HW227678   5.651   2.306   1.327
 8927SOL     OW27679   2.114   2.630   5.171
 8927SOL    HW127680   2.127   2.660   5.076
 8927SOL    HW227681   2.186   2.566   5.196
 8928SOL     OW27682   0.631   6.911   5.437
 8928SOL    HW127683   0.678   6.998   5.427
 8928SOL    HW227684   0.695   6.843   5.475
 8929SOL     OW27685   6.857   3.938   3.800
 8929SOL    HW127686   6.807   3.911   3.883
 8929SOL    HW227687   6.955   3.938   3.819
 8930SOL     OW27688   1.619   4.773   4.556
 8930SOL    HW127689   1.559   4.820   4.620
 8930SOL    HW227690   1.628   4.827   4.473
 8931SOL     OW27691   4.537   1.344   0.978
 8931SOL    HW127692   4.547   1.285   0.898
 8931SOL    HW227693   4.612   1.411   0.979
 8932SOL     OW27694   6.623   0.370   6.546
 8932SOL    HW127695   6.701   0.429   6.525
 8932SOL    HW227696   6.594   0.322   6.463
 8933SOL     OW27697   1.620   0.578   5.003
 8933SOL    HW127698   1.628   0.604   4.906
 8933SOL    HW227699   1.524   0.567   5.026
 8934SOL     OW27700   3.466   5.627   2.643
 8934SOL    HW127701   3.487   5.724   2.655
 8934SOL    HW227702   3.390   5.602   2.703
 8935SOL     OW27703   4.825   2.519   2.766
 8935SOL    HW127704   4.860   2.440   2.715
 8935SOL    HW227705   4.838   2.602   2.711
 8936SOL     OW27706   0.868   5.460   1.553
 8936SOL    HW127707   0.902   5.500   1.639
 8936SOL    HW227708   0.945   5.423   1.501
 8937SOL     OW27709   6.420   6.545   4.012
 8937SOL    HW127710   6.437   6.483   4.089
 8937SOL    HW227711   6.459   6.634   4.031
 8938SOL     OW27712   6.427   1.129   0.552
 8938SOL    HW127713   6.484   1.122   0.470
 8938SOL    HW227714   6.351   1.065   0.545
 8939SOL     OW27715   0.623   2.890   3.656
 8939SOL    HW127716   0.706   2.936   3.689
 8939SOL    HW227717   0.606   2.917   3.562
 8940SOL     OW27718   6.481   3.189   1.245
 8940SOL    HW127719   6.390   3.229   1.254
 8940SOL    HW227720   6.538   3.216   1.323
 8941SOL     OW27721   5.048   2.125   1.334
 8941SOL    HW127722   5.073   2.220   1.313
 8941SOL    HW227723   5.034   2.115   1.432
 8942SOL     OW27724   5.932   4.405   3.864
 8942SOL    HW127725   5.929   4.317   3.817
 8942SOL    HW227726   6.012   4.457   3.833
 8943SOL     OW27727   4.867   4.031   6.899
 8943SOL    HW127728   4.860   4.112   6.958
 8943SOL    HW227729   4.913   3.958   6.948
 8944SOL     OW27730   5.102   5.589   4.266
 8944SOL    HW127731   5.060   5.529   4.334
 8944SOL    HW227732   5.202   5.582   4.274
 8945SOL     OW27733   5.878   4.121   5.597
 8945SOL    HW127734   5.778   4.123   5.591
 8945SOL    HW227735   5.907   4.030   5.626
 8946SOL     OW27736   5.318   0.855   4.583
 8946SOL    HW127737   5.232   0.833   4.538
 8946SOL    HW227738   5.306   0.934   4.643
 8947SOL     OW27739   1.790   4.912   6.349
 8947SOL    HW127740   1.830   4.994   6.390
 8947SOL    HW227741   1.690   4.918   6.355
 8948SOL     OW27742   6.360   1.285   3.302
 8948SOL    HW127743   6.411   1.353   3.250
 8948SOL    HW227744   6.278   1.326   3.340
 8949SOL     OW27745   3.006   6.068   0.564
 8949SOL    HW127746   2.991   6.014   0.646
 8949SOL    HW227747   2.929   6.056   0.501
 8950SOL     OW27748   4.821   3.993   1.286
 8950SOL    HW127749   4.903   4.050   1.285
 8950SOL    HW227750   4.841   3.905   1.243
 8951SOL     OW27751   1.809   1.895   4.525
 8951SOL    HW127752   1.812   1.940   4.615
 8951SOL    HW227753   1.883   1.929   4.468
 8952SOL     OW27754   1.966   4.534   3.913
 8952SOL    HW127755   2.012   4.516   3.826
 8952SOL    HW227756   2.034   4.561   3.981
 8953SOL     OW27757   1.307   4.990   1.900
 8953SOL    HW127758   1.293   4.904   1.852
 8953SOL    HW227759   1.391   5.033   1.867
 8954SOL     OW27760   1.523   5.171   5.049
 8954SOL    HW127761   1.524   5.073   5.026
 8954SOL    HW227762   1.601   5.216   5.006
 8955SOL     OW27763   5.679   2.462   4.236
 8955SOL    HW127764   5.666   2.363   4.233
 8955SOL    HW227765   5.757   2.487   4.179
 8956SOL     OW27766   0.775   5.619   5.799
 8956SOL    HW127767   0.767   5.601   5.701
 8956SOL    HW227768   0.757   5.716   5.816
 8957SOL     OW27769   0.823   5.666   2.649
 8957SOL    HW127770   0.875   5.751   2.641
 8957SOL    HW227771   0.859   5.612   2.725
 8958SOL     OW27772   1.869   4.186   5.199
 8958SOL    HW127773   1.962   4.149   5.204
 8958SOL    HW227774   1.835   4.178   5.105
 8959SOL     OW27775   6.956   3.084   2.616
 8959SOL    HW127776   7.001   3.168   2.584
 8959SOL    HW227777   6.943   3.090   2.715
 8960SOL     OW27778   5.289   4.350   3.516
 8960SOL    HW127779   5.340   4.425   3.557
 8960SOL    HW227780   5.322   4.334   3.423
 8961SOL     OW27781   2.881   6.259   5.457
 8961SOL    HW127782   2.934   6.282   5.538
 8961SOL    HW227783   2.783   6.269   5.477
 8962SOL     OW27784   0.809   5.903   1.524
 8962SOL    HW127785   0.864   5.900   1.607
 8962SOL    HW227786   0.729   5.844   1.535
 8963SOL     OW27787   3.627   5.814   4.562
 8963SOL    HW127788   3.555   5.875   4.529
 8963SOL    HW227789   3.606   5.720   4.536
 8964SOL     OW27790   0.472   3.060   4.546
 8964SOL    HW127791   0.412   3.127   4.589
 8964SOL    HW227792   0.505   2.996   4.616
 8965SOL     OW27793   4.286   5.198   0.807
 8965SOL    HW127794   4.318   5.253   0.729
 8965SOL    HW227795   4.364   5.170   0.862
 8966SOL     OW27796   4.814   4.866   6.429
 8966SOL    HW127797   4.716   4.847   6.416
 8966SOL    HW227798   4.850   4.912   6.348
 8967SOL     OW27799   2.869   0.023   3.195
 8967SOL    HW127800   2.864   6.957   3.149
 8967SOL    HW227801   2.784   0.073   3.179
 8968SOL     OW27802   3.320   4.884   2.045
 8968SOL    HW127803   3.326   4.970   2.096
 8968SOL    HW227804   3.404   4.832   2.057
 8969SOL     OW27805   0.100   1.215   2.943
 8969SOL    HW127806   0.178   1.214   2.881
 8969SOL    HW227807   0.133   1.220   3.037
 8970SOL     OW27808   2.116   0.653   5.514
 8970SOL    HW127809   2.127   0.611   5.424
 8970SOL    HW227810   2.084   0.584   5.579
 8971SOL     OW27811   4.583   5.459   1.079
 8971SOL    HW127812   4.664   5.487   1.029
 8971SOL    HW227813   4.575   5.359   1.077
 8972SOL     OW27814   6.447   4.640   0.757
 8972SOL    HW127815   6.356   4.598   0.748
 8972SOL    HW227816   6.441   4.737   0.734
 8973SOL     OW27817   0.955   2.704   2.322
 8973SOL    HW127818   1.029   2.650   2.362
 8973SOL    HW227819   0.868   2.681   2.367
 8974SOL     OW27820   2.107   4.448   4.345
 8974SOL    HW127821   2.059   4.362   4.365
 8974SOL    HW227822   2.168   4.434   4.267
 8975SOL     OW27823   0.455   6.590   6.094
 8975SOL    HW127824   0.488   6.508   6.047
 8975SOL    HW227825   0.381   6.631   6.041
 8976SOL     OW27826   6.925   6.826   1.936
 8976SOL    HW127827   6.830   6.807   1.960
 8976SOL    HW227828   6.936   6.925   1.920
 8977SOL     OW27829   0.065   5.037   5.916
 8977SOL    HW127830   0.117   4.997   5.840
 8977SOL    HW227831   0.103   5.005   6.003
 8978SOL     OW27832   5.444   5.473   5.718
 8978SOL    HW127833   5.476   5.501   5.628
 8978SOL    HW227834   5.370   5.406   5.707
 8979SOL     OW27835   0.822   4.938   5.885
 8979SOL    HW127836   0.918   4.926   5.910
 8979SOL    HW227837   0.799   4.875   5.811
 8980SOL     OW27838   3.402   0.756   4.715
 8980SOL    HW127839   3.466   0.763   4.792
 8980SOL    HW227840   3.321   0.811   4.734
 8981SOL     OW27841   3.634   2.564   6.883
 8981SOL    HW127842   3.705   2.560   6.953
 8981SOL    HW227843   3.589   2.653   6.886
 8982SOL     OW27844   0.735   1.542   1.267
 8982SOL    HW127845   0.652   1.497   1.233
 8982SOL    HW227846   0.735   1.542   1.367
 8983SOL     OW27847   1.079   0.227   2.196
 8983SOL    HW127848   1.018   0.197   2.123
 8983SOL    HW227849   1.129   0.149   2.232
 8984SOL     OW27850   6.261   0.311   4.085
 8984SOL    HW127851   6.278   0.222   4.128
 8984SOL    HW227852   6.173   0.309   4.039
 8985SOL     OW27853   4.328   2.875   0.688
 8985SOL    HW127854   4.426   2.873   0.667
 8985SOL    HW227855   4.277   2.842   0.609
 8986SOL     OW27856   0.150   5.552   0.480
 8986SOL    HW127857   0.203   5.495   0.544
 8986SOL    HW227858   0.149   5.646   0.513
 8987SOL     OW27859   1.882   0.363   1.555
 8987SOL    HW127860   1.871   0.419   1.472
 8987SOL    HW227861   1.793   0.327   1.582
 8988SOL     OW27862   1.195   5.285   1.330
 8988SOL    HW127863   1.159   5.378   1.341
 8988SOL    HW227864   1.153   5.224   1.397
 8989SOL     OW27865   4.998   1.440   1.858
 8989SOL    HW127866   4.927   1.399   1.914
 8989SOL    HW227867   5.016   1.533   1.889
 8990SOL     OW27868   3.739   0.504   1.979
 8990SOL    HW127869   3.648   0.478   1.948
 8990SOL    HW227870   3.776   0.433   2.039
 8991SOL     OW27871   2.219   2.516   0.177
 8991SOL    HW127872   2.238   2.445   0.110
 8991SOL    HW227873   2.275   2.596   0.158
 8992SOL     OW27874   0.401   3.508   0.195
 8992SOL    HW127875   0.477   3.461   0.150
 8992SOL    HW227876   0.346   3.556   0.127
 8993SOL     OW27877   5.597   3.159   3.776
 8993SOL    HW127878   5.568   3.248   3.813
 8993SOL    HW227879   5.544   3.086   3.819
 8994SOL     OW27880   0.497   5.051   3.129
 8994SOL    HW127881   0.437   5.078   3.053
 8994SOL    HW227882   0.590   5.081   3.111
 8995SOL     OW27883   1.905   3.689   4.643
 8995SOL    HW127884   1.892   3.684   4.544
 8995SOL    HW227885   1.999   3.664   4.665
 8996SOL     OW27886   0.250   4.194   2.528
 8996SOL    HW127887   0.312   4.272   2.523
 8996SOL    HW227888   0.289   4.117   2.479
 8997SOL     OW27889   4.546   1.815   5.535
 8997SOL    HW127890   4.497   1.900   5.557
 8997SOL    HW227891   4.628   1.837   5.482
 8998SOL     OW27892   1.418   2.456   6.265
 8998SOL    HW127893   1.508   2.487   6.235
 8998SOL    HW227894   1.429   2.374   6.322
 8999SOL     OW27895   6.232   1.289   4.443
 8999SOL    HW127896   6.292   1.211   4.425
 8999SOL    HW227897   6.195   1.282   4.536
 9000SOL     OW27898   3.055   3.691   0.547
 9000SOL    HW127899   3.117   3.708   0.470
 9000SOL    HW227900   3.069   3.759   0.618
 9001SOL     OW27901   1.598   5.407   3.445
 9001SOL    HW127902   1.537   5.401   3.524
 9001SOL    HW227903   1.549   5.378   3.363
 9002SOL     OW27904   5.616   4.261   5.636
 9002SOL    HW127905   5.583   4.213   5.717
 9002SOL    HW227906   5.702   4.308   5.658
 9003SOL     OW27907   5.560   2.560   6.695
 9003SOL    HW127908   5.531   2.637   6.638
 9003SOL    HW227909   5.563   2.476   6.639
 9004SOL     OW27910   4.483   6.648   1.049
 9004SOL    HW127911   4.401   6.615   1.002
 9004SOL    HW227912   4.488   6.607   1.140
 9005SOL     OW27913   4.992   1.845   3.279
 9005SOL    HW127914   5.056   1.783   3.233
 9005SOL    HW227915   4.911   1.793   3.306
 9006SOL     OW27916   0.969   5.025   0.957
 9006SOL    HW127917   0.896   5.094   0.948
 9006SOL    HW227918   1.058   5.071   0.960
 9007SOL     OW27919   2.683   6.832   3.917
 9007SOL    HW127920   2.657   6.792   4.005
 9007SOL    HW227921   2.773   6.874   3.926
 9008SOL     OW27922   6.996   4.583   2.489
 9008SOL    HW127923   6.927   4.560   2.558
 9008SOL    HW227924   0.064   4.583   2.532
 9009SOL     OW27925   2.861   6.339   0.858
 9009SOL    HW127926   2.949   6.292   0.856
 9009SOL    HW227927   2.860   6.404   0.934
 9010SOL     OW27928   1.127   6.145   5.306
 9010SOL    HW127929   1.154   6.056   5.269
 9010SOL    HW227930   1.088   6.132   5.397
 9011SOL     OW27931   4.747   1.869   0.784
 9011SOL    HW127932   4.738   1.792   0.847
 9011SOL    HW227933   4.780   1.950   0.834
 9012SOL     OW27934   0.207   5.363   1.357
 9012SOL    HW127935   0.281   5.407   1.307
 9012SOL    HW227936   0.238   5.277   1.397
 9013SOL     OW27937   6.149   5.735   3.547
 9013SOL    HW127938   6.248   5.722   3.535
 9013SOL    HW227939   6.100   5.685   3.475
 9014SOL     OW27940   3.029   0.997   0.812
 9014SOL    HW127941   3.013   0.940   0.893
 9014SOL    HW227942   3.127   0.998   0.791
 9015SOL     OW27943   0.386   0.915   6.020
 9015SOL    HW127944   0.451   0.947   6.089
 9015SOL    HW227945   0.324   0.989   5.995
 9016SOL     OW27946   6.048   5.581   6.451
 9016SOL    HW127947   6.097   5.621   6.373
 9016SOL    HW227948   6.104   5.588   6.533
 9017SOL     OW27949   6.899   2.570   3.602
 9017SOL    HW127950   6.841   2.523   3.669
 9017SOL    HW227951   6.991   2.531   3.606
 9018SOL     OW27952   3.812   2.531   5.334
 9018SOL    HW127953   3.744   2.459   5.346
 9018SOL    HW227954   3.768   2.614   5.302
 9019SOL     OW27955   2.143   6.894   0.567
 9019SOL    HW127956   2.216   6.962   0.567
 9019SOL    HW227957   2.146   6.841   0.651
 9020SOL     OW27958   0.401   4.725   3.181
 9020SOL    HW127959   0.494   4.717   3.217
 9020SOL    HW227960   0.364   4.633   3.165
 9021SOL     OW27961   6.590   5.708   5.446
 9021SOL    HW127962   6.559   5.803   5.445
 9021SOL    HW227963   6.517   5.649   5.411
 9022SOL     OW27964   3.380   0.741   0.056
 9022SOL    HW127965   3.354   0.650   0.025
 9022SOL    HW227966   3.397   0.800   7.000
 9023SOL     OW27967   3.547   3.168   3.268
 9023SOL    HW127968   3.643   3.194   3.257
 9023SOL    HW227969   3.499   3.181   3.181
 9024SOL     OW27970   2.092   6.701   6.922
 9024SOL    HW127971   2.171   6.763   6.917
 9024SOL    HW227972   2.121   6.614   6.962
 9025SOL     OW27973   5.937   4.999   1.089
 9025SOL    HW127974   5.937   4.926   1.158
 9025SOL    HW227975   6.009   4.980   1.022
 9026SOL     OW27976   3.609   2.877   4.972
 9026SOL    HW127977   3.593   2.780   4.954
 9026SOL    HW227978   3.549   2.932   4.915
 9027SOL     OW27979   2.374   2.789   3.834
 9027SOL    HW127980   2.377   2.705   3.781
 9027SOL    HW227981   2.414   2.864   3.781
 9028SOL     OW27982   2.858   4.882   5.020
 9028SOL    HW127983   2.855   4.898   5.119
 9028SOL    HW227984   2.811   4.797   4.998
 9029SOL     OW27985   4.724   6.190   3.345
 9029SOL    HW127986   4.642   6.144   3.311
 9029SOL    HW227987   4.709   6.289   3.348
 9030SOL     OW27988   2.579   0.934   2.074
 9030SOL    HW127989   2.537   0.931   1.983
 9030SOL    HW227990   2.574   1.028   2.110
 9031SOL     OW27991   2.761   6.167   6.467
 9031SOL    HW127992   2.688   6.180   6.533
 9031SOL    HW227993   2.796   6.257   6.437
 9032SOL     OW27994   2.416   1.618   1.817
 9032SOL    HW127995   2.400   1.634   1.914
 9032SOL    HW227996   2.336   1.645   1.764
 9033SOL     OW27997   1.611   3.759   2.970
 9033SOL    HW127998   1.699   3.716   2.948
 9033SOL    HW227999   1.596   3.757   3.068
 9034SOL     OW28000   3.631   6.681   5.640
 9034SOL    HW128001   3.631   6.619   5.719
 9034SOL    HW228002   3.717   6.732   5.638
 9035SOL     OW28003   6.988   1.414   4.214
 9035SOL    HW128004   7.017   1.428   4.119
 9035SOL    HW228005   0.036   1.363   4.263
 9036SOL     OW28006   0.756   2.381   5.748
 9036SOL    HW128007   0.832   2.446   5.752
 9036SOL    HW228008   0.788   2.295   5.708
 9037SOL     OW28009   2.093   4.719   6.475
 9037SOL    HW128010   2.000   4.701   6.508
 9037SOL    HW228011   2.089   4.739   6.377
 9038SOL     OW28012   4.777   6.135   5.621
 9038SOL    HW128013   4.727   6.220   5.605
 9038SOL    HW228014   4.875   6.151   5.613
 9039SOL     OW28015   2.307   5.714   5.301
 9039SOL    HW128016   2.395   5.700   5.347
 9039SOL    HW228017   2.308   5.672   5.211
 9040SOL     OW28018   2.021   1.248   2.652
 9040SOL    HW128019   2.113   1.286   2.642
 9040SOL    HW228020   1.999   1.238   2.749
 9041SOL     OW28021   1.711   3.191   0.880
 9041SOL    HW128022   1.617   3.172   0.853
 9041SOL    HW228023   1.756   3.105   0.906
 9042SOL     OW28024   2.649   4.647   3.382
 9042SOL    HW128025   2.586   4.580   3.343
 9042SOL    HW228026   2.657   4.632   3.481
 9043SOL     OW28027   0.577   2.522   5.581
 9043SOL    HW128028   0.609   2.475   5.662
 9043SOL    HW228029   0.641   2.595   5.556
 9044SOL     OW28030   6.211   0.008   1.060
 9044SOL    HW128031   6.281   0.073   1.089
 9044SOL    HW228032   6.242   6.983   0.978
 9045SOL     OW28033   2.660   6.840   3.369
 9045SOL    HW128034   2.647   6.779   3.290
 9045SOL    HW228035   2.751   6.825   3.408
 9046SOL     OW28036   3.105   4.109   4.888
 9046SOL    HW128037   3.187   4.066   4.927
 9046SOL    HW228038   3.079   4.188   4.945
 9047SOL     OW28039   1.133   4.620   4.625
 9047SOL    HW128040   1.149   4.690   4.555
 9047SOL    HW228041   1.142   4.661   4.716
 9048SOL     OW28042   0.662   3.575   4.390
 9048SOL    HW128043   0.608   3.492   4.376
 9048SOL    HW228044   0.693   3.610   4.302
 9049SOL     OW28045   5.522   5.463   6.492
 9049SOL    HW128046   5.612   5.497   6.517
 9049SOL    HW228047   5.470   5.534   6.446
 9050SOL     OW28048   6.989   5.160   6.347
 9050SOL    HW128049   0.044   5.108   6.379
 9050SOL    HW228050   6.985   5.156   6.247
 9051SOL     OW28051   5.495   6.137   6.566
 9051SOL    HW128052   5.443   6.106   6.646
 9051SOL    HW228053   5.551   6.061   6.533
 9052SOL     OW28054   2.307   5.211   4.348
 9052SOL    HW128055   2.291   5.224   4.446
 9052SOL    HW228056   2.358   5.289   4.312
 9053SOL     OW28057   2.739   2.346   3.927
 9053SOL    HW128058   2.828   2.301   3.922
 9053SOL    HW228059   2.694   2.322   4.014
 9054SOL     OW28060   2.652   0.508   1.411
 9054SOL    HW128061   2.650   0.583   1.345
 9054SOL    HW228062   2.640   0.421   1.364
 9055SOL     OW28063   1.020   2.807   3.870
 9055SOL    HW128064   1.084   2.736   3.901
 9055SOL    HW228065   0.986   2.783   3.779
 9056SOL     OW28066   5.443   0.611   3.251
 9056SOL    HW128067   5.496   0.649   3.327
 9056SOL    HW228068   5.491   0.531   3.214
 9057SOL     OW28069   5.834   5.423   6.160
 9057SOL    HW128070   5.830   5.522   6.170
 9057SOL    HW228071   5.929   5.392   6.171
 9058SOL     OW28072   1.530   2.639   4.927
 9058SOL    HW128073   1.580   2.669   5.009
 9058SOL    HW228074   1.479   2.716   4.889
 9059SOL     OW28075   0.038   2.072   3.005
 9059SOL    HW128076   7.001   1.992   3.016
 9059SOL    HW228077   7.018   2.152   3.046
 9060SOL     OW28078   0.461   3.632   1.570
 9060SOL    HW128079   0.540   3.579   1.602
 9060SOL    HW228080   0.398   3.571   1.523
 9061SOL     OW28081   5.276   5.370   1.946
 9061SOL    HW128082   5.181   5.343   1.929
 9061SOL    HW228083   5.303   5.438   1.878
 9062SOL     OW28084   0.666   5.452   3.339
 9062SOL    HW128085   0.681   5.530   3.400
 9062SOL    HW228086   0.568   5.439   3.326
 9063SOL     OW28087   3.509   0.848   2.285
 9063SOL    HW128088   3.501   0.884   2.378
 9063SOL    HW228089   3.430   0.876   2.232
 9064SOL     OW28090   0.682   4.299   3.569
 9064SOL    HW128091   0.628   4.256   3.642
 9064SOL    HW228092   0.766   4.246   3.555
 9065SOL     OW28093   2.741   5.262   5.089
 9065SOL    HW128094   2.723   5.167   5.115
 9065SOL    HW228095   2.834   5.287   5.118
 9066SOL     OW28096   4.917   4.824   5.763
 9066SOL    HW128097   4.989   4.875   5.810
 9066SOL    HW228098   4.946   4.803   5.670
 9067SOL     OW28099   6.981   0.409   4.832
 9067SOL    HW128100   0.018   0.487   4.814
 9067SOL    HW228101   7.020   0.353   4.905
 9068SOL     OW28102   5.137   6.738   4.387
 9068SOL    HW128103   5.099   6.647   4.373
 9068SOL    HW228104   5.110   6.772   4.478
 9069SOL     OW28105   4.743   2.128   1.933
 9069SOL    HW128106   4.667   2.182   1.898
 9069SOL    HW228107   4.745   2.135   2.033
 9070SOL     OW28108   1.591   1.945   5.484
 9070SOL    HW128109   1.579   1.890   5.567
 9070SOL    HW228110   1.581   2.041   5.507
 9071SOL     OW28111   5.264   1.283   5.834
 9071SOL    HW128112   5.203   1.264   5.910
 9071SOL    HW228113   5.327   1.206   5.820
 9072SOL     OW28114   5.418   0.589   2.479
 9072SOL    HW128115   5.495   0.527   2.490
 9072SOL    HW228116   5.394   0.597   2.382
 9073SOL     OW28117   4.529   1.162   6.582
 9073SOL    HW128118   4.572   1.180   6.670
 9073SOL    HW228119   4.554   1.071   6.550
 9074SOL     OW28120   1.326   0.096   1.803
 9074SOL    HW128121   1.272   0.030   1.854
 9074SOL    HW228122   1.423   0.081   1.822
 9075SOL     OW28123   6.972   0.558   1.436
 9075SOL    HW128124   6.937   0.489   1.374
 9075SOL    HW228125   0.040   0.587   1.406
 9076SOL     OW28126   6.586   0.413   1.949
 9076SOL    HW128127   6.504   0.434   1.896
 9076SOL    HW228128   6.611   0.492   2.005
 9077SOL     OW28129   6.060   1.144   6.001
 9077SOL    HW128130   5.985   1.206   5.976
 9077SOL    HW228131   6.137   1.157   5.939
 9078SOL     OW28132   5.618   5.730   0.044
 9078SOL    HW128133   5.577   5.805   0.096
 9078SOL    HW228134   5.602   5.744   6.969
 9079SOL     OW28135   1.486   0.198   5.998
 9079SOL    HW128136   1.437   0.173   5.915
 9079SOL    HW228137   1.497   0.117   6.056
 9080SOL     OW28138   6.592   3.585   1.209
 9080SOL    HW128139   6.649   3.505   1.226
 9080SOL    HW228140   6.534   3.568   1.129
 9081SOL     OW28141   3.398   2.101   0.836
 9081SOL    HW128142   3.444   2.142   0.914
 9081SOL    HW228143   3.339   2.026   0.867
 9082SOL     OW28144   3.315   5.854   5.883
 9082SOL    HW128145   3.385   5.925   5.888
 9082SOL    HW228146   3.242   5.875   5.948
 9083SOL     OW28147   4.640   5.006   6.973
 9083SOL    HW128148   4.600   5.047   6.891
 9083SOL    HW228149   4.735   4.981   6.955
 9084SOL     OW28150   0.692   2.787   5.709
 9084SOL    HW128151   0.727   2.730   5.634
 9084SOL    HW228152   0.764   2.850   5.739
 9085SOL     OW28153   2.572   5.415   0.013
 9085SOL    HW128154   2.516   5.333   0.024
 9085SOL    HW228155   2.661   5.390   6.997
 9086SOL     OW28156   6.982   4.358   0.514
 9086SOL    HW128157   0.007   4.412   0.445
 9086SOL    HW228158   6.973   4.412   0.598
 9087SOL     OW28159   5.956   1.629   1.653
 9087SOL    HW128160   5.859   1.619   1.627
 9087SOL    HW228161   5.962   1.678   1.740
 9088SOL     OW28162   6.198   0.800   1.487
 9088SOL    HW128163   6.136   0.863   1.440
 9088SOL    HW228164   6.292   0.829   1.472
 9089SOL     OW28165   4.444   5.693   3.572
 9089SOL    HW128166   4.501   5.711   3.652
 9089SOL    HW228167   4.360   5.646   3.600
 9090SOL     OW28168   5.789   6.421   4.966
 9090SOL    HW128169   5.845   6.423   4.883
 9090SOL    HW228170   5.827   6.484   5.034
 9091SOL     OW28171   3.293   1.795   0.675
 9091SOL    HW128172   3.202   1.808   0.636
 9091SOL    HW228173   3.358   1.855   0.629
 9092SOL     OW28174   1.473   6.331   5.602
 9092SOL    HW128175   1.441   6.253   5.655
 9092SOL    HW228176   1.436   6.326   5.509
 9093SOL     OW28177   1.544   5.516   0.243
 9093SOL    HW128178   1.611   5.568   0.190
 9093SOL    HW228179   1.577   5.504   0.337
 9094SOL     OW28180   0.126   5.733   2.332
 9094SOL    HW128181   0.127   5.735   2.232
 9094SOL    HW228182   0.031   5.732   2.364
 9095SOL     OW28183   4.301   3.630   6.507
 9095SOL    HW128184   4.254   3.656   6.592
 9095SOL    HW228185   4.287   3.700   6.438
 9096SOL     OW28186   5.829   2.914   2.613
 9096SOL    HW128187   5.793   2.840   2.556
 9096SOL    HW228188   5.845   2.879   2.706
 9097SOL     OW28189   0.836   3.748   6.616
 9097SOL    HW128190   0.871   3.708   6.530
 9097SOL    HW228191   0.836   3.677   6.687
 9098SOL     OW28192   3.946   3.839   2.166
 9098SOL    HW128193   4.000   3.832   2.081
 9098SOL    HW228194   3.867   3.779   2.159
 9099SOL     OW28195   2.864   3.273   0.996
 9099SOL    HW128196   2.910   3.332   0.930
 9099SOL    HW228197   2.807   3.329   1.057
 9100SOL     OW28198   0.587   3.350   1.025
 9100SOL    HW128199   0.559   3.385   0.935
 9100SOL    HW228200   0.670   3.396   1.055
 9101SOL     OW28201   1.484   2.632   2.672
 9101SOL    HW128202   1.413   2.591   2.730
 9101SOL    HW228203   1.574   2.610   2.710
 9102SOL     OW28204   3.660   5.349   1.534
 9102SOL    HW128205   3.636   5.416   1.464
 9102SOL    HW228206   3.588   5.345   1.604
 9103SOL     OW28207   0.058   3.768   0.750
 9103SOL    HW128208   0.090   3.756   0.656
 9103SOL    HW228209   0.004   3.689   0.777
 9104SOL     OW28210   4.395   6.305   1.529
 9104SOL    HW128211   4.439   6.219   1.502
 9104SOL    HW228212   4.432   6.380   1.475
 9105SOL     OW28213   1.282   0.606   6.349
 9105SOL    HW128214   1.319   0.594   6.257
 9105SOL    HW228215   1.185   0.629   6.343
 9106SOL     OW28216   6.105   4.906   0.055
 9106SOL    HW128217   6.134   4.915   6.983
 9106SOL    HW228218   6.008   4.884   0.059
 9107SOL     OW28219   3.772   6.935   0.237
 9107SOL    HW128220   3.758   7.018   0.292
 9107SOL    HW228221   3.701   6.930   0.167
 9108SOL     OW28222   4.940   4.326   5.365
 9108SOL    HW128223   4.937   4.409   5.308
 9108SOL    HW228224   4.994   4.344   5.447
 9109SOL     OW28225   2.560   2.477   3.177
 9109SOL    HW128226   2.619   2.399   3.158
 9109SOL    HW228227   2.580   2.512   3.269
 9110SOL     OW28228   1.881   5.307   3.462
 9110SOL    HW128229   1.782   5.321   3.471
 9110SOL    HW228230   1.918   5.376   3.399
 9111SOL     OW28231   3.648   4.003   1.229
 9111SOL    HW128232   3.705   3.956   1.296
 9111SOL    HW228233   3.607   4.085   1.270
 9112SOL     OW28234   0.740   4.022   3.401
 9112SOL    HW128235   0.722   4.033   3.304
 9112SOL    HW228236   0.751   3.925   3.423
 9113SOL     OW28237   5.220   0.685   0.485
 9113SOL    HW128238   5.160   0.613   0.521
 9113SOL    HW228239   5.273   0.649   0.408
 9114SOL     OW28240   2.159   4.613   2.255
 9114SOL    HW128241   2.246   4.640   2.213
 9114SOL    HW228242   2.084   4.650   2.201
 9115SOL     OW28243   1.170   4.820   4.429
 9115SOL    HW128244   1.199   4.905   4.385
 9115SOL    HW228245   1.102   4.774   4.372
 9116SOL     OW28246   6.738   1.548   6.535
 9116SOL    HW128247   6.669   1.524   6.467
 9116SOL    HW228248   6.827   1.560   6.490
 9117SOL     OW28249   6.324   3.017   6.091
 9117SOL    HW128250   6.301   3.106   6.129
 9117SOL    HW228251   6.401   2.978   6.142
 9118SOL     OW28252   6.357   0.375   1.408
 9118SOL    HW128253   6.343   0.381   1.506
 9118SOL    HW228254   6.313   0.454   1.364
 9119SOL     OW28255   5.715   1.009   2.432
 9119SOL    HW128256   5.793   1.067   2.457
 9119SOL    HW228257   5.680   0.963   2.514
 9120SOL     OW28258   5.780   2.223   5.943
 9120SOL    HW128259   5.852   2.171   5.989
 9120SOL    HW228260   5.737   2.166   5.873
 9121SOL     OW28261   0.584   2.759   4.941
 9121SOL    HW128262   0.642   2.838   4.957
 9121SOL    HW228263   0.508   2.785   4.882
 9122SOL     OW28264   1.569   2.469   2.322
 9122SOL    HW128265   1.616   2.453   2.235
 9122SOL    HW228266   1.595   2.559   2.357
 9123SOL     OW28267   3.355   6.264   5.334
 9123SOL    HW128268   3.385   6.193   5.397
 9123SOL    HW228269   3.259   6.287   5.352
 9124SOL     OW28270   6.138   5.830   5.206
 9124SOL    HW128271   6.211   5.845   5.273
 9124SOL    HW228272   6.175   5.836   5.113
 9125SOL     OW28273   4.748   4.568   3.790
 9125SOL    HW128274   4.732   4.504   3.715
 9125SOL    HW228275   4.762   4.517   3.875
 9126SOL     OW28276   6.281   1.124   2.170
 9126SOL    HW128277   6.340   1.187   2.120
 9126SOL    HW228278   6.319   1.032   2.164
 9127SOL     OW28279   5.797   0.030   6.126
 9127SOL    HW128280   5.846   6.980   6.174
 9127SOL    HW228281   5.779   0.105   6.189
 9128SOL     OW28282   4.284   1.581   5.157
 9128SOL    HW128283   4.347   1.511   5.124
 9128SOL    HW228284   4.223   1.541   5.226
 9129SOL     OW28285   1.929   3.453   6.897
 9129SOL    HW128286   1.919   3.378   6.962
 9129SOL    HW228287   1.839   3.484   6.867
 9130SOL     OW28288   0.153   4.202   6.336
 9130SOL    HW128289   0.121   4.288   6.376
 9130SOL    HW228290   0.087   4.171   6.267
 9131SOL     OW28291   0.519   4.075   4.812
 9131SOL    HW128292   0.525   4.085   4.712
 9131SOL    HW228293   0.496   3.980   4.834
 9132SOL     OW28294   6.718   4.189   3.769
 9132SOL    HW128295   6.757   4.101   3.797
 9132SOL    HW228296   6.621   4.193   3.796
 9133SOL     OW28297   2.857   4.751   0.781
 9133SOL    HW128298   2.877   4.791   0.871
 9133SOL    HW228299   2.773   4.792   0.745
 9134SOL     OW28300   3.315   6.657   0.625
 9134SOL    HW128301   3.236   6.598   0.637
 9134SOL    HW228302   3.397   6.610   0.657
 9135SOL     OW28303   0.096   0.236   2.585
 9135SOL    HW128304   0.133   0.175   2.515
 9135SOL    HW228305   0.123   0.330   2.566
 9136SOL     OW28306   4.697   5.228   5.971
 9136SOL    HW128307   4.769   5.288   5.934
 9136SOL    HW228308   4.677   5.156   5.905
 9137SOL     OW28309   5.895   1.315   1.195
 9137SOL    HW128310   5.846   1.401   1.209
 9137SOL    HW228311   5.874   1.279   1.104
 9138SOL     OW28312   6.497   5.316   5.585
 9138SOL    HW128313   6.524   5.235   5.637
 9138SOL    HW228314   6.427   5.290   5.518
 9139SOL     OW28315   2.379   1.391   5.062
 9139SOL    HW128316   2.467   1.371   5.104
 9139SOL    HW228317   2.393   1.439   4.975
 9140SOL     OW28318   6.539   2.802   2.429
 9140SOL    HW128319   6.443   2.801   2.458
 9140SOL    HW228320   6.543   2.802   2.329
 9141SOL     OW28321   5.496   6.385   6.447
 9141SOL    HW128322   5.587   6.384   6.404
 9141SOL    HW228323   5.479   6.297   6.491
 9142SOL     OW28324   0.224   2.593   5.057
 9142SOL    HW128325   0.299   2.642   5.102
 9142SOL    HW228326   0.233   2.495   5.074
 9143SOL     OW28327   4.199   4.044   0.500
 9143SOL    HW128328   4.263   4.043   0.424
 9143SOL    HW228329   4.152   3.956   0.506
 9144SOL     OW28330   2.435   5.756   6.308
 9144SOL    HW128331   2.467   5.674   6.262
 9144SOL    HW228332   2.508   5.825   6.309
 9145SOL     OW28333   0.133   5.342   1.046
 9145SOL    HW128334   0.117   5.303   1.136
 9145SOL    HW228335   0.058   5.316   0.985
 9146SOL     OW28336   5.092   1.658   1.507
 9146SOL    HW128337   5.061   1.700   1.593
 9146SOL    HW228338   5.177   1.700   1.478
 9147SOL     OW28339   5.677   6.818   4.585
 9147SOL    HW128340   5.716   6.865   4.664
 9147SOL    HW228341   5.638   6.885   4.522
 9148SOL     OW28342   6.035   6.549   1.683
 9148SOL    HW128343   6.104   6.620   1.696
 9148SOL    HW228344   6.034   6.522   1.586
 9149SOL     OW28345   4.930   2.584   4.151
 9149SOL    HW128346   4.985   2.551   4.074
 9149SOL    HW228347   4.975   2.663   4.192
 9150SOL     OW28348   3.929   5.886   3.479
 9150SOL    HW128349   4.012   5.887   3.423
 9150SOL    HW228350   3.860   5.944   3.437
 9151SOL     OW28351   0.971   3.910   3.264
 9151SOL    HW128352   0.981   3.959   3.178
 9151SOL    HW228353   0.924   3.969   3.330
 9152SOL     OW28354   2.541   6.003   3.836
 9152SOL    HW128355   2.490   6.083   3.806
 9152SOL    HW228356   2.576   5.954   3.756
 9153SOL     OW28357   1.618   3.414   0.607
 9153SOL    HW128358   1.580   3.325   0.582
 9153SOL    HW228359   1.622   3.423   0.706
 9154SOL     OW28360   2.338   5.354   6.476
 9154SOL    HW128361   2.337   5.437   6.421
 9154SOL    HW228362   2.428   5.344   6.519
 9155SOL     OW28363   1.976   3.757   0.439
 9155SOL    HW128364   1.993   3.676   0.383
 9155SOL    HW228365   1.890   3.746   0.488
 9156SOL     OW28366   2.986   2.819   1.077
 9156SOL    HW128367   2.963   2.870   0.993
 9156SOL    HW228368   3.037   2.878   1.139
 9157SOL     OW28369   6.120   4.741   5.841
 9157SOL    HW128370   6.036   4.779   5.880
 9157SOL    HW228371   6.120   4.642   5.851
 9158SOL     OW28372   6.233   3.425   4.464
 9158SOL    HW128373   6.304   3.372   4.510
 9158SOL    HW228374   6.146   3.375   4.469
 9159SOL     OW28375   0.184   6.111   3.456
 9159SOL    HW128376   0.267   6.069   3.492
 9159SOL    HW228377   0.132   6.043   3.404
 9160SOL     OW28378   7.009   0.337   5.148
 9160SOL    HW128379   6.961   0.250   5.157
 9160SOL    HW228380   0.084   0.324   5.167
 9161SOL     OW28381   4.916   4.108   4.604
 9161SOL    HW128382   4.957   4.136   4.690
 9161SOL    HW228383   4.921   4.008   4.595
 9162SOL     OW28384   4.777   2.054   3.314
 9162SOL    HW128385   4.870   2.032   3.285
 9162SOL    HW228386   4.716   1.978   3.292
 9163SOL     OW28387   1.959   3.239   3.810
 9163SOL    HW128388   1.862   3.219   3.800
 9163SOL    HW228389   1.997   3.185   3.884
 9164SOL     OW28390   2.928   1.065   7.017
 9164SOL    HW128391   2.936   1.145   6.958
 9164SOL    HW228392   2.932   1.093   0.090
 9165SOL     OW28393   6.344   1.140   6.153
 9165SOL    HW128394   6.329   1.235   6.125
 9165SOL    HW228395   6.332   1.079   6.074
 9166SOL     OW28396   4.879   6.210   1.049
 9166SOL    HW128397   4.862   6.118   1.084
 9166SOL    HW228398   4.810   6.273   1.085
 9167SOL     OW28399   1.798   3.640   6.221
 9167SOL    HW128400   1.720   3.656   6.161
 9167SOL    HW228401   1.807   3.542   6.238
 9168SOL     OW28402   1.413   6.340   5.314
 9168SOL    HW128403   1.490   6.353   5.252
 9168SOL    HW228404   1.327   6.347   5.263
 9169SOL     OW28405   0.229   1.224   5.242
 9169SOL    HW128406   0.317   1.198   5.279
 9169SOL    HW228407   0.242   1.291   5.169
 9170SOL     OW28408   0.543   4.954   0.220
 9170SOL    HW128409   0.465   5.005   0.258
 9170SOL    HW228410   0.509   4.883   0.159
 9171SOL     OW28411   3.377   5.735   0.531
 9171SOL    HW128412   3.454   5.783   0.489
 9171SOL    HW228413   3.331   5.679   0.462
 9172SOL     OW28414   3.231   1.091   5.190
 9172SOL    HW128415   3.264   1.131   5.105
 9172SOL    HW228416   3.303   1.034   5.230
 9173SOL     OW28417   5.997   4.499   5.080
 9173SOL    HW128418   6.021   4.596   5.086
 9173SOL    HW228419   5.976   4.464   5.171
 9174SOL     OW28420   6.484   4.359   1.047
 9174SOL    HW128421   6.515   4.307   1.127
 9174SOL    HW228422   6.445   4.446   1.078
 9175SOL     OW28423   1.918   6.619   4.391
 9175SOL    HW128424   1.914   6.535   4.337
 9175SOL    HW228425   1.998   6.617   4.451
 9176SOL     OW28426   2.779   0.673   5.671
 9176SOL    HW128427   2.758   0.714   5.583
 9176SOL    HW228428   2.694   0.653   5.720
 9177SOL     OW28429   1.434   5.365   4.615
 9177SOL    HW128430   1.465   5.277   4.579
 9177SOL    HW228431   1.464   5.438   4.554
 9178SOL     OW28432   1.870   5.688   1.091
 9178SOL    HW128433   1.905   5.780   1.072
 9178SOL    HW228434   1.947   5.624   1.097
 9179SOL     OW28435   3.139   6.135   3.984
 9179SOL    HW128436   3.106   6.045   4.012
 9179SOL    HW228437   3.239   6.137   3.987
 9180SOL     OW28438   5.943   2.208   3.256
 9180SOL    HW128439   5.844   2.192   3.254
 9180SOL    HW228440   5.991   2.121   3.259
 9181SOL     OW28441   4.271   2.148   3.336
 9181SOL    HW128442   4.177   2.114   3.326
 9181SOL    HW228443   4.285   2.182   3.429
 9182SOL     OW28444   2.429   0.014   2.446
 9182SOL    HW128445   2.338   6.995   2.456
 9182SOL    HW228446   2.427   0.106   2.486
 9183SOL     OW28447   5.288   6.017   0.142
 9183SOL    HW128448   5.349   6.072   0.084
 9183SOL    HW228449   5.240   6.077   0.206
 9184SOL     OW28450   4.890   1.565   0.278
 9184SOL    HW128451   4.954   1.555   0.202
 9184SOL    HW228452   4.873   1.476   0.319
 9185SOL     OW28453   4.242   6.721   4.683
 9185SOL    HW128454   4.198   6.790   4.741
 9185SOL    HW228455   4.254   6.758   4.591
 9186SOL     OW28456   5.579   0.905   3.952
 9186SOL    HW128457   5.564   1.004   3.955
 9186SOL    HW228458   5.592   0.871   4.045
 9187SOL     OW28459   2.410   0.608   1.609
 9187SOL    HW128460   2.385   0.595   1.705
 9187SOL    HW228461   2.464   0.692   1.599
 9188SOL     OW28462   2.286   6.732   2.201
 9188SOL    HW128463   2.225   6.743   2.122
 9188SOL    HW228464   2.234   6.693   2.278
 9189SOL     OW28465   5.846   6.062   2.020
 9189SOL    HW128466   5.770   6.114   1.981
 9189SOL    HW228467   5.908   6.033   1.947
 9190SOL     OW28468   1.108   4.880   0.224
 9190SOL    HW128469   1.023   4.828   0.217
 9190SOL    HW228470   1.172   4.833   0.284
 9191SOL     OW28471   5.995   0.472   6.048
 9191SOL    HW128472   5.930   0.464   5.972
 9191SOL    HW228473   5.971   0.552   6.104
 9192SOL     OW28474   0.503   4.265   5.815
 9192SOL    HW128475   0.445   4.184   5.829
 9192SOL    HW228476   0.577   4.243   5.751
 9193SOL     OW28477   4.718   4.719   0.581
 9193SOL    HW128478   4.714   4.621   0.563
 9193SOL    HW228479   4.643   4.765   0.532
 9194SOL     OW28480   3.190   1.211   3.247
 9194SOL    HW128481   3.219   1.155   3.325
 9194SOL    HW228482   3.097   1.244   3.262
 9195SOL     OW28483   1.816   2.322   4.073
 9195SOL    HW128484   1.762   2.256   4.020
 9195SOL    HW228485   1.913   2.311   4.051
 9196SOL     OW28486   3.733   0.456   4.470
 9196SOL    HW128487   3.756   0.408   4.385
 9196SOL    HW228488   3.648   0.507   4.458
 9197SOL     OW28489   1.405   4.482   1.854
 9197SOL    HW128490   1.392   4.412   1.784
 9197SOL    HW228491   1.502   4.491   1.876
 9198SOL     OW28492   6.628   5.168   5.774
 9198SOL    HW128493   6.577   5.082   5.780
 9198SOL    HW228494   6.703   5.157   5.710
 9199SOL     OW28495   1.080   3.405   6.154
 9199SOL    HW128496   1.076   3.504   6.140
 9199SOL    HW228497   1.109   3.385   6.248
 9200SOL     OW28498   2.902   0.609   0.497
 9200SOL    HW128499   2.814   0.650   0.520
 9200SOL    HW228500   2.975   0.674   0.519
 9201SOL     OW28501   0.537   3.084   0.604
 9201SOL    HW128502   0.450   3.059   0.647
 9201SOL    HW228503   0.610   3.076   0.671
 9202SOL     OW28504   2.210   6.816   3.299
 9202SOL    HW128505   2.277   6.767   3.243
 9202SOL    HW228506   2.208   6.776   3.390
 9203SOL     OW28507   0.710   5.041   6.992
 9203SOL    HW128508   0.788   5.069   6.935
 9203SOL    HW228509   0.728   4.951   0.008
 9204SOL     OW28510   4.401   2.605   6.879
 9204SOL    HW128511   4.364   2.515   6.860
 9204SOL    HW228512   4.328   2.665   6.912
 9205SOL     OW28513   5.729   4.322   2.667
 9205SOL    HW128514   5.667   4.315   2.745
 9205SOL    HW228515   5.805   4.383   2.690
 9206SOL     OW28516   3.730   5.552   1.797
 9206SOL    HW128517   3.679   5.638   1.804
 9206SOL    HW228518   3.718   5.500   1.882
 9207SOL     OW28519   4.245   4.907   0.124
 9207SOL    HW128520   4.304   4.902   0.043
 9207SOL    HW228521   4.150   4.888   0.097
 9208SOL     OW28522   5.586   4.243   3.866
 9208SOL    HW128523   5.585   4.247   3.966
 9208SOL    HW228524   5.680   4.248   3.834
 9209SOL     OW28525   2.908   0.744   0.231
 9209SOL    HW128526   2.947   0.654   0.252
 9209SOL    HW228527   2.884   0.747   0.134
 9210SOL     OW28528   6.877   1.391   2.679
 9210SOL    HW128529   6.894   1.303   2.635
 9210SOL    HW228530   6.867   1.377   2.778
 9211SOL     OW28531   6.583   3.012   4.345
 9211SOL    HW128532   6.607   2.920   4.377
 9211SOL    HW228533   6.541   3.005   4.254
 9212SOL     OW28534   4.371   5.331   4.236
 9212SOL    HW128535   4.425   5.366   4.160
 9212SOL    HW228536   4.300   5.397   4.261
 9213SOL     OW28537   5.562   2.691   5.895
 9213SOL    HW128538   5.540   2.778   5.938
 9213SOL    HW228539   5.549   2.698   5.796
 9214SOL     OW28540   0.321   5.713   5.499
 9214SOL    HW128541   0.292   5.809   5.495
 9214SOL    HW228542   0.267   5.665   5.569
 9215SOL     OW28543   1.302   2.457   6.790
 9215SOL    HW128544   1.387   2.443   6.740
 9215SOL    HW228545   1.320   2.510   6.873
 9216SOL     OW28546   2.800   0.494   2.978
 9216SOL    HW128547   2.728   0.556   3.009
 9216SOL    HW228548   2.808   0.499   2.878
 9217SOL     OW28549   0.194   0.661   5.735
 9217SOL    HW128550   0.227   0.651   5.641
 9217SOL    HW228551   0.110   0.716   5.736
 9218SOL     OW28552   3.826   6.359   0.442
 9218SOL    HW128553   3.888   6.353   0.520
 9218SOL    HW228554   3.878   6.376   0.359
 9219SOL     OW28555   0.073   2.737   0.142
 9219SOL    HW128556   7.009   2.711   0.186
 9219SOL    HW228557   0.130   2.786   0.208
 9220SOL     OW28558   2.358   0.073   1.359
 9220SOL    HW128559   2.302   7.014   1.353
 9220SOL    HW228560   2.299   0.154   1.364
 9221SOL     OW28561   3.310   0.905   4.342
 9221SOL    HW128562   3.213   0.910   4.317
 9221SOL    HW228563   3.323   0.835   4.412
 9222SOL     OW28564   2.302   6.866   6.883
 9222SOL    HW128565   2.331   6.891   6.976
 9222SOL    HW228566   2.258   6.945   6.840
 9223SOL     OW28567   1.442   1.754   4.724
 9223SOL    HW128568   1.482   1.844   4.706
 9223SOL    HW228569   1.400   1.753   4.815
 9224SOL     OW28570   2.893   5.468   4.851
 9224SOL    HW128571   2.820   5.425   4.798
 9224SOL    HW228572   2.865   5.560   4.877
 9225SOL     OW28573   4.020   6.741   5.838
 9225SOL    HW128574   3.976   6.814   5.786
 9225SOL    HW228575   4.061   6.779   5.920
 9226SOL     OW28576   5.656   6.833   1.775
 9226SOL    HW128577   5.736   6.834   1.834
 9226SOL    HW228578   5.617   6.925   1.770
 9227SOL     OW28579   0.912   5.484   2.078
 9227SOL    HW128580   0.977   5.431   2.133
 9227SOL    HW228581   0.831   5.505   2.132
 9228SOL     OW28582   1.691   0.407   6.149
 9228SOL    HW128583   1.789   0.384   6.147
 9228SOL    HW228584   1.650   0.387   6.060
 9229SOL     OW28585   1.518   5.523   4.427
 9229SOL    HW128586   1.444   5.588   4.409
 9229SOL    HW228587   1.604   5.573   4.440
 9230SOL     OW28588   6.014   0.582   2.705
 9230SOL    HW128589   6.099   0.596   2.757
 9230SOL    HW228590   5.939   0.564   2.768
 9231SOL     OW28591   1.831   4.205   4.274
 9231SOL    HW128592   1.816   4.245   4.364
 9231SOL    HW228593   1.919   4.157   4.273
 9232SOL     OW28594   2.908   5.287   0.846
 9232SOL    HW128595   2.857   5.260   0.928
 9232SOL    HW228596   2.992   5.334   0.873
 9233SOL     OW28597   5.512   5.251   1.368
 9233SOL    HW128598   5.571   5.171   1.353
 9233SOL    HW228599   5.548   5.329   1.317
 9234SOL     OW28600   3.460   4.944   4.613
 9234SOL    HW128601   3.474   4.943   4.712
 9234SOL    HW228602   3.370   4.982   4.593
 9235SOL     OW28603   2.021   2.338   3.752
 9235SOL    HW128604   1.999   2.247   3.787
 9235SOL    HW228605   1.944   2.400   3.767
 9236SOL     OW28606   3.198   4.272   5.753
 9236SOL    HW128607   3.180   4.351   5.694
 9236SOL    HW228608   3.194   4.299   5.849
 9237SOL     OW28609   2.234   4.753   4.836
 9237SOL    HW128610   2.162   4.716   4.894
 9237SOL    HW228611   2.314   4.692   4.839
 9238SOL     OW28612   4.262   2.136   6.062
 9238SOL    HW128613   4.279   2.227   6.023
 9238SOL    HW228614   4.239   2.072   5.990
 9239SOL     OW28615   0.364   3.923   1.531
 9239SOL    HW128616   0.381   3.833   1.572
 9239SOL    HW228617   0.437   3.986   1.556
 9240SOL     OW28618   5.575   1.498   0.600
 9240SOL    HW128619   5.665   1.536   0.620
 9240SOL    HW228620   5.562   1.493   0.501
 9241SOL     OW28621   0.088   5.796   6.120
 9241SOL    HW128622   0.100   5.866   6.050
 9241SOL    HW228623   0.172   5.789   6.174
 9242SOL     OW28624   6.787   5.840   0.464
 9242SOL    HW128625   6.703   5.857   0.412
 9242SOL    HW228626   6.810   5.743   0.460
 9243SOL     OW28627   5.790   5.722   2.721
 9243SOL    HW128628   5.775   5.692   2.815
 9243SOL    HW228629   5.721   5.790   2.696
 9244SOL     OW28630   4.426   5.630   5.947
 9244SOL    HW128631   4.474   5.562   6.002
 9244SOL    HW228632   4.487   5.707   5.927
 9245SOL     OW28633   1.445   5.506   2.605
 9245SOL    HW128634   1.512   5.549   2.545
 9245SOL    HW228635   1.465   5.408   2.614
 9246SOL     OW28636   6.507   4.351   3.055
 9246SOL    HW128637   6.480   4.439   3.092
 9246SOL    HW228638   6.427   4.292   3.047
 9247SOL     OW28639   0.783   6.794   3.100
 9247SOL    HW128640   0.796   6.838   3.189
 9247SOL    HW228641   0.864   6.740   3.077
 9248SOL     OW28642   2.187   2.952   6.156
 9248SOL    HW128643   2.203   3.022   6.226
 9248SOL    HW228644   2.091   2.951   6.131
 9249SOL     OW28645   6.018   2.447   6.079
 9249SOL    HW128646   5.938   2.470   6.023
 9249SOL    HW228647   6.012   2.495   6.167
 9250SOL     OW28648   5.385   3.572   5.057
 9250SOL    HW128649   5.472   3.591   5.103
 9250SOL    HW228650   5.399   3.505   4.985
 9251SOL     OW28651   3.664   2.109   3.217
 9251SOL    HW128652   3.603   2.079   3.143
 9251SOL    HW228653   3.739   2.163   3.179
 9252SOL     OW28654   6.681   6.848   4.332
 9252SOL    HW128655   6.749   6.786   4.373
 9252SOL    HW228656   6.659   6.920   4.397
 9253SOL     OW28657   4.675   5.778   6.054
 9253SOL    HW128658   4.760   5.763   6.004
 9253SOL    HW228659   4.695   5.789   6.152
 9254SOL     OW28660   6.286   4.461   1.347
 9254SOL    HW128661   6.326   4.507   1.268
 9254SOL    HW228662   6.347   4.470   1.425
 9255SOL     OW28663   5.065   2.920   0.078
 9255SOL    HW128664   5.132   2.916   0.152
 9255SOL    HW228665   5.026   3.012   0.073
 9256SOL     OW28666   3.833   4.874   3.528
 9256SOL    HW128667   3.745   4.919   3.541
 9256SOL    HW228668   3.861   4.829   3.613
 9257SOL     OW28669   0.808   3.765   2.659
 9257SOL    HW128670   0.773   3.774   2.752
 9257SOL    HW228671   0.755   3.695   2.610
 9258SOL     OW28672   4.003   3.334   3.660
 9258SOL    HW128673   4.046   3.383   3.584
 9258SOL    HW228674   3.986   3.239   3.632
 9259SOL     OW28675   1.678   2.464   0.954
 9259SOL    HW128676   1.709   2.387   0.898
 9259SOL    HW228677   1.675   2.547   0.897
 9260SOL     OW28678   5.167   1.658   5.480
 9260SOL    HW128679   5.082   1.648   5.532
 9260SOL    HW228680   5.152   1.630   5.385
 9261SOL     OW28681   5.004   6.701   6.395
 9261SOL    HW128682   4.963   6.634   6.332
 9261SOL    HW228683   5.103   6.689   6.397
 9262SOL     OW28684   6.395   2.749   5.580
 9262SOL    HW128685   6.349   2.724   5.665
 9262SOL    HW228686   6.434   2.840   5.588
 9263SOL     OW28687   6.149   4.215   0.779
 9263SOL    HW128688   6.206   4.180   0.853
 9263SOL    HW228689   6.056   4.181   0.789
 9264SOL     OW28690   5.947   4.078   0.425
 9264SOL    HW128691   5.915   4.006   0.363
 9264SOL    HW228692   6.016   4.039   0.486
 9265SOL     OW28693   3.066   1.422   0.720
 9265SOL    HW128694   3.038   1.330   0.695
 9265SOL    HW228695   3.166   1.427   0.724
 9266SOL     OW28696   2.486   5.943   2.363
 9266SOL    HW128697   2.573   5.922   2.407
 9266SOL    HW228698   2.499   5.948   2.264
 9267SOL     OW28699   0.040   4.068   5.272
 9267SOL    HW128700   7.003   3.988   5.268
 9267SOL    HW228701   0.129   4.042   5.310
 9268SOL     OW28702   0.854   6.602   1.938
 9268SOL    HW128703   0.813   6.660   1.868
 9268SOL    HW228704   0.853   6.507   1.907
 9269SOL     OW28705   3.029   2.533   6.498
 9269SOL    HW128706   3.011   2.457   6.435
 9269SOL    HW228707   3.018   2.501   6.592
 9270SOL     OW28708   4.606   6.563   5.239
 9270SOL    HW128709   4.697   6.596   5.264
 9270SOL    HW228710   4.611   6.512   5.153
 9271SOL     OW28711   1.320   6.158   0.950
 9271SOL    HW128712   1.358   6.243   0.987
 9271SOL    HW228713   1.222   6.154   0.969
 9272SOL     OW28714   3.303   4.828   5.752
 9272SOL    HW128715   3.245   4.748   5.762
 9272SOL    HW228716   3.322   4.867   5.842
 9273SOL     OW28717   5.066   5.990   3.907
 9273SOL    HW128718   5.107   6.076   3.875
 9273SOL    HW228719   4.982   5.972   3.856
 9274SOL     OW28720   6.176   2.119   6.854
 9274SOL    HW128721   6.116   2.198   6.841
 9274SOL    HW228722   6.122   2.040   6.882
 9275SOL     OW28723   0.678   1.507   0.442
 9275SOL    HW128724   0.683   1.549   0.532
 9275SOL    HW228725   0.730   1.563   0.377
 9276SOL     OW28726   2.324   5.201   3.894
 9276SOL    HW128727   2.412   5.164   3.925
 9276SOL    HW228728   2.297   5.276   3.953
 9277SOL     OW28729   3.622   3.914   0.237
 9277SOL    HW128730   3.603   3.909   0.335
 9277SOL    HW228731   3.633   4.009   0.209
 9278SOL     OW28732   1.874   1.263   3.979
 9278SOL    HW128733   1.784   1.243   4.016
 9278SOL    HW228734   1.915   1.179   3.943
 9279SOL     OW28735   4.580   0.975   1.414
 9279SOL    HW128736   4.579   1.033   1.333
 9279SOL    HW228737   4.619   1.026   1.491
 9280SOL     OW28738   1.799   0.454   3.528
 9280SOL    HW128739   1.879   0.485   3.578
 9280SOL    HW228740   1.811   0.474   3.430
 9281SOL     OW28741   3.370   3.644   1.046
 9281SOL    HW128742   3.298   3.699   1.004
 9281SOL    HW228743   3.356   3.548   1.023
 9282SOL     OW28744   4.569   2.165   4.265
 9282SOL    HW128745   4.640   2.134   4.201
 9282SOL    HW228746   4.609   2.229   4.330
 9283SOL     OW28747   5.926   1.081   2.655
 9283SOL    HW128748   5.968   1.104   2.743
 9283SOL    HW228749   5.936   0.983   2.637
 9284SOL     OW28750   3.643   5.092   0.081
 9284SOL    HW128751   3.703   5.021   0.117
 9284SOL    HW228752   3.573   5.114   0.149
 9285SOL     OW28753   4.848   3.420   0.101
 9285SOL    HW128754   4.773   3.420   0.168
 9285SOL    HW228755   4.827   3.483   0.027
 9286SOL     OW28756   5.480   6.868   5.532
 9286SOL    HW128757   5.413   6.875   5.458
 9286SOL    HW228758   5.572   6.868   5.493
 9287SOL     OW28759   3.092   5.607   0.609
 9287SOL    HW128760   3.181   5.651   0.600
 9287SOL    HW228761   3.021   5.665   0.569
 9288SOL     OW28762   2.930   1.298   5.813
 9288SOL    HW128763   3.003   1.365   5.802
 9288SOL    HW228764   2.927   1.268   5.909
 9289SOL     OW28765   3.747   1.718   2.359
 9289SOL    HW128766   3.731   1.700   2.456
 9289SOL    HW228767   3.833   1.767   2.347
 9290SOL     OW28768   4.985   1.680   4.653
 9290SOL    HW128769   4.999   1.757   4.590
 9290SOL    HW228770   4.981   1.595   4.600
 9291SOL     OW28771   2.429   0.355   5.561
 9291SOL    HW128772   2.375   0.399   5.633
 9291SOL    HW228773   2.496   0.419   5.525
 9292SOL     OW28774   6.408   3.489   6.152
 9292SOL    HW128775   6.348   3.563   6.181
 9292SOL    HW228776   6.486   3.482   6.214
 9293SOL     OW28777   6.536   4.016   1.400
 9293SOL    HW128778   6.549   3.979   1.492
 9293SOL    HW228779   6.571   4.109   1.397
 9294SOL     OW28780   3.611   6.264   5.722
 9294SOL    HW128781   3.695   6.267   5.667
 9294SOL    HW228782   3.604   6.348   5.776
 9295SOL     OW28783   5.059   2.252   3.548
 9295SOL    HW128784   5.045   2.349   3.525
 9295SOL    HW228785   5.054   2.240   3.647
 9296SOL     OW28786   6.798   5.939   6.605
 9296SOL    HW128787   6.801   5.839   6.606
 9296SOL    HW228788   6.891   5.975   6.593
 9297SOL     OW28789   0.250   0.664   1.092
 9297SOL    HW128790   0.243   0.764   1.094
 9297SOL    HW228791   0.330   0.637   1.039
 9298SOL     OW28792   2.198   5.977   5.705
 9298SOL    HW128793   2.200   5.928   5.791
 9298SOL    HW228794   2.276   6.039   5.699
 9299SOL     OW28795   0.871   3.438   4.515
 9299SOL    HW128796   0.806   3.496   4.466
 9299SOL    HW228797   0.847   3.342   4.502
 9300SOL     OW28798   7.022   5.019   4.455
 9300SOL    HW128799   6.981   5.110   4.447
 9300SOL    HW228800   0.099   5.027   4.454
 9301SOL     OW28801   4.873   4.730   3.401
 9301SOL    HW128802   4.946   4.680   3.354
 9301SOL    HW228803   4.897   4.741   3.498
 9302SOL     OW28804   2.164   3.013   4.260
 9302SOL    HW128805   2.200   2.975   4.346
 9302SOL    HW228806   2.093   3.080   4.281
 9303SOL     OW28807   3.817   6.187   0.947
 9303SOL    HW128808   3.865   6.149   0.868
 9303SOL    HW228809   3.882   6.231   1.009
 9304SOL     OW28810   4.441   4.144   1.154
 9304SOL    HW128811   4.477   4.114   1.065
 9304SOL    HW228812   4.486   4.093   1.227
 9305SOL     OW28813   4.317   1.508   1.696
 9305SOL    HW128814   4.388   1.539   1.633
 9305SOL    HW228815   4.280   1.586   1.746
 9306SOL     OW28816   0.270   4.811   4.814
 9306SOL    HW128817   0.347   4.866   4.781
 9306SOL    HW228818   0.271   4.809   4.914
 9307SOL     OW28819   1.472   3.666   1.403
 9307SOL    HW128820   1.390   3.637   1.354
 9307SOL    HW228821   1.553   3.651   1.345
 9308SOL     OW28822   0.936   4.052   1.456
 9308SOL    HW128823   0.940   4.147   1.428
 9308SOL    HW228824   1.029   4.016   1.467
 9309SOL     OW28825   3.703   4.882   5.478
 9309SOL    HW128826   3.707   4.927   5.389
 9309SOL    HW228827   3.608   4.855   5.498
 9310SOL     OW28828   4.152   5.767   6.452
 9310SOL    HW128829   4.126   5.813   6.367
 9310SOL    HW228830   4.205   5.685   6.431
 9311SOL     OW28831   6.306   4.775   1.840
 9311SOL    HW128832   6.287   4.677   1.847
 9311SOL    HW228833   6.404   4.791   1.853
 9312SOL     OW28834   1.613   4.161   1.029
 9312SOL    HW128835   1.593   4.105   1.109
 9312SOL    HW228836   1.559   4.130   0.951
 9313SOL     OW28837   0.367   0.918   1.158
 9313SOL    HW128838   0.424   0.849   1.203
 9313SOL    HW228839   0.424   0.979   1.103
 9314SOL     OW28840   4.122   5.436   6.583
 9314SOL    HW128841   4.196   5.457   6.519
 9314SOL    HW228842   4.154   5.450   6.677
 9315SOL     OW28843   6.545   0.588   5.245
 9315SOL    HW128844   6.468   0.650   5.231
 9315SOL    HW228845   6.608   0.595   5.168
 9316SOL     OW28846   4.077   5.695   5.850
 9316SOL    HW128847   4.098   5.660   5.941
 9316SOL    HW228848   4.032   5.784   5.858
 9317SOL     OW28849   6.622   5.693   2.844
 9317SOL    HW128850   6.610   5.678   2.943
 9317SOL    HW228851   6.632   5.791   2.827
 9318SOL     OW28852   6.840   1.164   4.957
 9318SOL    HW128853   6.920   1.119   4.916
 9318SOL    HW228854   6.772   1.094   4.982
 9319SOL     OW28855   0.571   2.756   5.993
 9319SOL    HW128856   0.526   2.845   6.000
 9319SOL    HW228857   0.599   2.739   5.899
 9320SOL     OW28858   4.446   2.016   6.820
 9320SOL    HW128859   4.540   1.980   6.817
 9320SOL    HW228860   4.381   1.941   6.810
 9321SOL     OW28861   6.111   6.970   2.122
 9321SOL    HW128862   6.063   6.883   2.120
 9321SOL    HW228863   6.055   0.017   2.076
 9322SOL     OW28864   6.776   6.102   6.288
 9322SOL    HW128865   6.841   6.175   6.269
 9322SOL    HW228866   6.798   6.022   6.232
 9323SOL     OW28867   2.020   7.014   5.475
 9323SOL    HW128868   2.105   0.029   5.437
 9323SOL    HW228869   1.984   0.054   5.544
 9324SOL     OW28870   1.544   4.798   0.703
 9324SOL    HW128871   1.475   4.836   0.763
 9324SOL    HW228872   1.500   4.748   0.628
 9325SOL     OW28873   4.959   1.801   0.641
 9325SOL    HW128874   5.021   1.754   0.705
 9325SOL    HW228875   4.876   1.830   0.689
 9326SOL     OW28876   2.613   0.199   1.328
 9326SOL    HW128877   2.537   0.137   1.348
 9326SOL    HW228878   2.594   0.249   1.244
 9327SOL     OW28879   4.895   6.425   2.466
 9327SOL    HW128880   4.826   6.496   2.481
 9327SOL    HW228881   4.972   6.440   2.528
 9328SOL     OW28882   4.185   1.583   5.800
 9328SOL    HW128883   4.225   1.492   5.801
 9328SOL    HW228884   4.240   1.643   5.742
 9329SOL     OW28885   7.020   3.781   2.587
 9329SOL    HW128886   6.985   3.811   2.676
 9329SOL    HW228887   0.019   3.862   2.531
 9330SOL     OW28888   0.178   6.083   0.430
 9330SOL    HW128889   0.152   6.175   0.401
 9330SOL    HW228890   0.278   6.080   0.442
 9331SOL     OW28891   0.923   1.242   6.215
 9331SOL    HW128892   0.929   1.162   6.155
 9331SOL    HW228893   0.829   1.275   6.218
 9332SOL     OW28894   3.200   4.097   2.906
 9332SOL    HW128895   3.291   4.071   2.873
 9332SOL    HW228896   3.177   4.042   2.986
 9333SOL     OW28897   5.007   3.732   1.482
 9333SOL    HW128898   4.974   3.825   1.500
 9333SOL    HW228899   5.022   3.721   1.384
 9334SOL     OW28900   3.520   6.737   3.771
 9334SOL    HW128901   3.537   6.797   3.693
 9334SOL    HW228902   3.580   6.658   3.766
 9335SOL     OW28903   1.230   0.743   5.897
 9335SOL    HW128904   1.131   0.746   5.886
 9335SOL    HW228905   1.273   0.814   5.841
 9336SOL     OW28906   3.460   5.956   6.789
 9336SOL    HW128907   3.556   5.984   6.798
 9336SOL    HW228908   3.401   6.025   6.832
 9337SOL     OW28909   5.020   0.407   3.112
 9337SOL    HW128910   5.087   0.480   3.123
 9337SOL    HW228911   4.928   0.446   3.112
 9338SOL     OW28912   4.758   0.692   1.852
 9338SOL    HW128913   4.670   0.685   1.899
 9338SOL    HW228914   4.744   0.721   1.758
 9339SOL     OW28915   5.298   6.823   0.516
 9339SOL    HW128916   5.207   6.858   0.495
 9339SOL    HW228917   5.364   6.862   0.452
 9340SOL     OW28918   5.254   3.848   5.329
 9340SOL    HW128919   5.318   3.771   5.327
 9340SOL    HW228920   5.303   3.931   5.356
 9341SOL     OW28921   0.650   5.957   6.294
 9341SOL    HW128922   0.697   6.040   6.264
 9341SOL    HW228923   0.580   5.980   6.361
 9342SOL     OW28924   2.047   0.612   4.393
 9342SOL    HW128925   2.117   0.569   4.337
 9342SOL    HW228926   2.001   0.683   4.341
 9343SOL     OW28927   6.208   4.313   3.194
 9343SOL    HW128928   6.172   4.288   3.283
 9343SOL    HW228929   6.299   4.352   3.204
 9344SOL     OW28930   4.392   5.606   1.796
 9344SOL    HW128931   4.330   5.680   1.820
 9344SOL    HW228932   4.481   5.643   1.771
 9345SOL     OW28933   6.149   3.267   1.948
 9345SOL    HW128934   6.101   3.352   1.926
 9345SOL    HW228935   6.216   3.248   1.876
 9346SOL     OW28936   6.128   0.979   0.973
 9346SOL    HW128937   6.046   0.935   1.011
 9346SOL    HW228938   6.111   1.002   0.877
 9347SOL     OW28939   1.407   5.446   0.844
 9347SOL    HW128940   1.374   5.455   0.750
 9347SOL    HW228941   1.413   5.536   0.886
 9348SOL     OW28942   4.707   5.587   1.525
 9348SOL    HW128943   4.733   5.609   1.618
 9348SOL    HW228944   4.620   5.632   1.503
 9349SOL     OW28945   0.853   0.240   2.393
 9349SOL    HW128946   0.931   0.269   2.338
 9349SOL    HW228947   0.849   0.295   2.476
 9350SOL     OW28948   0.798   2.666   5.490
 9350SOL    HW128949   0.832   2.572   5.488
 9350SOL    HW228950   0.835   2.717   5.413
 9351SOL     OW28951   3.475   1.370   6.642
 9351SOL    HW128952   3.562   1.347   6.598
 9351SOL    HW228953   3.422   1.430   6.581
 9352SOL     OW28954   2.853   3.525   0.223
 9352SOL    HW128955   2.855   3.608   0.279
 9352SOL    HW228956   2.762   3.510   0.186
 9353SOL     OW28957   0.850   5.060   1.904
 9353SOL    HW128958   0.829   4.965   1.928
 9353SOL    HW228959   0.945   5.080   1.927
 9354SOL     OW28960   6.863   2.364   6.220
 9354SOL    HW128961   6.853   2.295   6.291
 9354SOL    HW228962   6.833   2.326   6.132
 9355SOL     OW28963   0.895   2.308   4.848
 9355SOL    HW128964   0.836   2.383   4.881
 9355SOL    HW228965   0.972   2.297   4.910
 9356SOL     OW28966   3.835   0.000   1.385
 9356SOL    HW128967   3.744   0.042   1.383
 9356SOL    HW228968   3.878   0.020   1.474
 9357SOL     OW28969   0.852   2.417   0.067
 9357SOL    HW128970   0.854   2.437   0.165
 9357SOL    HW228971   0.912   2.339   0.048
 9358SOL     OW28972   0.215   4.512   2.651
 9358SOL    HW128973   0.248   4.606   2.653
 9358SOL    HW228974   0.194   4.482   2.744
 9359SOL     OW28975   1.970   5.562   6.253
 9359SOL    HW128976   1.950   5.504   6.175
 9359SOL    HW228977   1.987   5.655   6.222
 9360SOL     OW28978   1.924   6.165   6.597
 9360SOL    HW128979   1.987   6.236   6.628
 9360SOL    HW228980   1.954   6.077   6.632
 9361SOL     OW28981   1.871   6.090   3.709
 9361SOL    HW128982   1.776   6.073   3.733
 9361SOL    HW228983   1.927   6.096   3.791
 9362SOL     OW28984   1.772   1.566   2.167
 9362SOL    HW128985   1.798   1.469   2.172
 9362SOL    HW228986   1.783   1.599   2.073
 9363SOL     OW28987   3.021   5.448   1.919
 9363SOL    HW128988   3.100   5.406   1.873
 9363SOL    HW228989   2.964   5.376   1.960
 9364SOL     OW28990   2.564   2.772   1.739
 9364SOL    HW128991   2.480   2.739   1.780
 9364SOL    HW228992   2.568   2.872   1.746
 9365SOL     OW28993   2.936   1.840   4.506
 9365SOL    HW128994   2.937   1.845   4.606
 9365SOL    HW228995   2.877   1.913   4.470
 9366SOL     OW28996   3.808   5.638   0.454
 9366SOL    HW128997   3.905   5.630   0.430
 9366SOL    HW228998   3.753   5.583   0.392
 9367SOL     OW28999   5.202   0.340   0.994
 9367SOL    HW129000   5.103   0.344   0.978
 9367SOL    HW229001   5.233   0.429   1.029
 9368SOL     OW29002   3.905   0.132   2.641
 9368SOL    HW129003   3.921   0.229   2.622
 9368SOL    HW229004   3.950   0.107   2.727
 9369SOL     OW29005   0.732   5.600   5.003
 9369SOL    HW129006   0.656   5.628   5.061
 9369SOL    HW229007   0.817   5.641   5.037
 9370SOL     OW29008   4.298   1.554   4.184
 9370SOL    HW129009   4.226   1.620   4.162
 9370SOL    HW229010   4.387   1.595   4.169
 9371SOL     OW29011   3.363   5.498   1.112
 9371SOL    HW129012   3.369   5.423   1.046
 9371SOL    HW229013   3.398   5.582   1.072
 9372SOL     OW29014   4.660   6.856   1.721
 9372SOL    HW129015   4.612   6.901   1.796
 9372SOL    HW229016   4.602   6.784   1.683
 9373SOL     OW29017   6.249   2.483   0.301
 9373SOL    HW129018   6.221   2.504   0.208
 9373SOL    HW229019   6.264   2.569   0.351
 9374SOL     OW29020   0.461   4.609   5.561
 9374SOL    HW129021   0.440   4.643   5.653
 9374SOL    HW229022   0.379   4.614   5.504
 9375SOL     OW29023   6.424   1.723   6.968
 9375SOL    HW129024   6.434   1.822   6.962
 9375SOL    HW229025   6.513   1.680   6.949
 9376SOL     OW29026   2.071   3.642   2.147
 9376SOL    HW129027   2.123   3.601   2.072
 9376SOL    HW229028   2.023   3.571   2.198
 9377SOL     OW29029   1.797   5.081   2.138
 9377SOL    HW129030   1.724   5.013   2.144
 9377SOL    HW229031   1.879   5.046   2.183
 9378SOL     OW29032   3.770   0.500   4.028
 9378SOL    HW129033   3.692   0.478   3.970
 9378SOL    HW229034   3.770   0.598   4.049
 9379SOL     OW29035   3.801   6.884   4.601
 9379SOL    HW129036   3.771   6.878   4.506
 9379SOL    HW229037   3.865   6.960   4.611
 9380SOL     OW29038   3.943   5.524   6.188
 9380SOL    HW129039   4.023   5.531   6.128
 9380SOL    HW229040   3.951   5.442   6.244
 9381SOL     OW29041   5.098   1.540   4.405
 9381SOL    HW129042   5.119   1.480   4.328
 9381SOL    HW229043   5.167   1.612   4.411
 9382SOL     OW29044   3.545   0.829   4.202
 9382SOL    HW129045   3.533   0.803   4.106
 9382SOL    HW229046   3.455   0.849   4.242
 9383SOL     OW29047   4.827   4.082   3.549
 9383SOL    HW129048   4.785   4.080   3.458
 9383SOL    HW229049   4.903   4.018   3.552
 9384SOL     OW29050   1.856   6.729   2.040
 9384SOL    HW129051   1.809   6.641   2.031
 9384SOL    HW229052   1.846   6.763   2.133
 9385SOL     OW29053   4.364   1.479   3.765
 9385SOL    HW129054   4.267   1.485   3.787
 9385SOL    HW229055   4.378   1.418   3.688
 9386SOL     OW29056   3.817   5.734   5.237
 9386SOL    HW129057   3.813   5.637   5.259
 9386SOL    HW229058   3.910   5.768   5.254
 9387SOL     OW29059   3.868   1.676   6.596
 9387SOL    HW129060   3.909   1.620   6.669
 9387SOL    HW229061   3.940   1.726   6.548
 9388SOL     OW29062   2.058   0.031   3.941
 9388SOL    HW129063   1.977   0.037   3.998
 9388SOL    HW229064   2.134   7.017   3.995
 9389SOL     OW29065   3.341   5.191   2.714
 9389SOL    HW129066   3.421   5.245   2.692
 9389SOL    HW229067   3.265   5.218   2.655
 9390SOL     OW29068   5.397   4.378   5.506
 9390SOL    HW129069   5.491   4.357   5.533
 9390SOL    HW229070   5.394   4.401   5.409
 9391SOL     OW29071   1.313   6.691   4.633
 9391SOL    HW129072   1.400   6.663   4.674
 9391SOL    HW229073   1.246   6.711   4.704
 9392SOL     OW29074   5.244   4.141   2.964
 9392SOL    HW129075   5.333   4.122   3.005
 9392SOL    HW229076   5.208   4.058   2.921
 9393SOL     OW29077   3.246   5.961   6.324
 9393SOL    HW129078   3.159   5.936   6.368
 9393SOL    HW229079   3.319   5.960   6.393
 9394SOL     OW29080   5.195   0.294   1.279
 9394SOL    HW129081   5.258   0.371   1.285
 9394SOL    HW229082   5.154   0.292   1.188
 9395SOL     OW29083   2.841   1.586   0.752
 9395SOL    HW129084   2.804   1.606   0.661
 9395SOL    HW229085   2.924   1.531   0.742
 9396SOL     OW29086   1.783   5.706   6.633
 9396SOL    HW129087   1.868   5.755   6.613
 9396SOL    HW229088   1.800   5.640   6.707
 9397SOL     OW29089   4.262   0.203   6.377
 9397SOL    HW129090   4.167   0.176   6.361
 9397SOL    HW229091   4.304   0.229   6.291
 9398SOL     OW29092   0.013   1.534   6.541
 9398SOL    HW129093   0.104   1.530   6.499
 9398SOL    HW229094   7.002   1.441   6.558
 9399SOL     OW29095   1.931   2.908   3.858
 9399SOL    HW129096   1.975   2.920   3.948
 9399SOL    HW229097   1.842   2.865   3.870
 9400SOL     OW29098   5.225   1.132   0.615
 9400SOL    HW129099   5.246   1.167   0.706
 9400SOL    HW229100   5.262   1.039   0.606
 9401SOL     OW29101   1.164   1.899   2.733
 9401SOL    HW129102   1.070   1.920   2.756
 9401SOL    HW229103   1.209   1.856   2.811
 9402SOL     OW29104   1.618   5.828   2.997
 9402SOL    HW129105   1.662   5.835   3.087
 9402SOL    HW229106   1.651   5.746   2.950
 9403SOL     OW29107   6.678   1.871   2.211
 9403SOL    HW129108   6.645   1.907   2.124
 9403SOL    HW229109   6.777   1.881   2.215
 9404SOL     OW29110   1.976   3.316   0.756
 9404SOL    HW129111   1.946   3.275   0.842
 9404SOL    HW229112   1.978   3.246   0.685
 9405SOL     OW29113   0.189   4.796   5.061
 9405SOL    HW129114   0.093   4.819   5.044
 9405SOL    HW229115   0.207   4.796   5.159
 9406SOL     OW29116   0.198   3.110   6.397
 9406SOL    HW129117   0.264   3.111   6.473
 9406SOL    HW229118   0.204   3.022   6.350
 9407SOL     OW29119   2.084   5.086   4.759
 9407SOL    HW129120   2.096   5.176   4.801
 9407SOL    HW229121   2.120   5.016   4.820
 9408SOL     OW29122   6.805   4.149   5.058
 9408SOL    HW129123   6.733   4.171   5.125
 9408SOL    HW229124   6.887   4.202   5.079
 9409SOL     OW29125   6.783   5.215   2.037
 9409SOL    HW129126   6.775   5.128   2.086
 9409SOL    HW229127   6.802   5.288   2.102
 9410SOL     OW29128   4.014   0.570   1.646
 9410SOL    HW129129   4.000   0.528   1.735
 9410SOL    HW229130   3.943   0.639   1.630
 9411SOL     OW29131   4.031   3.182   3.329
 9411SOL    HW129132   3.965   3.255   3.312
 9411SOL    HW229133   4.122   3.212   3.301
 9412SOL     OW29134   0.132   0.989   1.298
 9412SOL    HW129135   0.052   0.929   1.295
 9412SOL    HW229136   0.203   0.954   1.236
 9413SOL     OW29137   4.233   4.813   3.909
 9413SOL    HW129138   4.278   4.732   3.947
 9413SOL    HW229139   4.176   4.856   3.979
 9414SOL     OW29140   2.148   2.414   5.521
 9414SOL    HW129141   2.246   2.399   5.535
 9414SOL    HW229142   2.100   2.396   5.607
 9415SOL     OW29143   3.846   0.929   2.491
 9415SOL    HW129144   3.790   0.905   2.411
 9415SOL    HW229145   3.872   1.025   2.487
 9416SOL     OW29146   0.156   6.200   6.466
 9416SOL    HW129147   0.229   6.193   6.534
 9416SOL    HW229148   0.175   6.138   6.390
 9417SOL     OW29149   2.915   6.365   1.297
 9417SOL    HW129150   2.908   6.424   1.378
 9417SOL    HW229151   2.849   6.397   1.229
 9418SOL     OW29152   2.962   1.843   4.810
 9418SOL    HW129153   3.003   1.933   4.825
 9418SOL    HW229154   2.864   1.848   4.829
 9419SOL     OW29155   3.117   2.726   0.163
 9419SOL    HW129156   3.080   2.799   0.221
 9419SOL    HW229157   3.192   2.762   0.108
 9420SOL     OW29158   5.684   3.062   0.142
 9420SOL    HW129159   5.655   3.128   0.073
 9420SOL    HW229160   5.610   2.999   0.162
 9421SOL     OW29161   3.883   6.338   5.549
 9421SOL    HW129162   3.913   6.243   5.555
 9421SOL    HW229163   3.963   6.398   5.538
 9422SOL     OW29164   2.612   5.732   4.320
 9422SOL    HW129165   2.705   5.702   4.298
 9422SOL    HW229166   2.585   5.805   4.257
 9423SOL     OW29167   4.150   5.807   3.065
 9423SOL    HW129168   4.059   5.828   3.029
 9423SOL    HW229169   4.145   5.729   3.128
 9424SOL     OW29170   5.421   0.562   4.482
 9424SOL    HW129171   5.412   0.476   4.532
 9424SOL    HW229172   5.330   0.602   4.469
 9425SOL     OW29173   6.736   4.954   0.613
 9425SOL    HW129174   6.833   4.930   0.611
 9425SOL    HW229175   6.723   5.032   0.674
 9426SOL     OW29176   0.214   1.573   6.333
 9426SOL    HW129177   0.282   1.607   6.268
 9426SOL    HW229178   0.124   1.608   6.308
 9427SOL     OW29179   3.480   5.894   2.709
 9427SOL    HW129180   3.496   5.982   2.663
 9427SOL    HW229181   3.401   5.903   2.770
 9428SOL     OW29182   6.498   0.433   6.813
 9428SOL    HW129183   6.554   0.389   6.743
 9428SOL    HW229184   6.408   0.455   6.775
 9429SOL     OW29185   1.549   2.493   4.222
 9429SOL    HW129186   1.608   2.418   4.192
 9429SOL    HW229187   1.507   2.471   4.309
 9430SOL     OW29188   0.611   2.351   4.090
 9430SOL    HW129189   0.615   2.440   4.045
 9430SOL    HW229190   0.516   2.327   4.108
 9431SOL     OW29191   0.168   5.018   6.502
 9431SOL    HW129192   0.186   5.112   6.532
 9431SOL    HW229193   0.153   4.960   6.582
 9432SOL     OW29194   6.834   1.820   3.486
 9432SOL    HW129195   6.764   1.798   3.554
 9432SOL    HW229196   6.822   1.914   3.455
 9433SOL     OW29197   3.435   6.295   2.999
 9433SOL    HW129198   3.528   6.313   2.965
 9433SOL    HW229199   3.424   6.197   3.015
 9434SOL     OW29200   5.464   5.605   3.997
 9434SOL    HW129201   5.370   5.635   3.984
 9434SOL    HW229202   5.493   5.625   4.091
 9435SOL     OW29203   0.668   3.198   1.781
 9435SOL    HW129204   0.685   3.166   1.688
 9435SOL    HW229205   0.603   3.274   1.779
 9436SOL     OW29206   0.966   0.667   3.135
 9436SOL    HW129207   1.014   0.619   3.062
 9436SOL    HW229208   0.949   0.604   3.211
 9437SOL     OW29209   6.761   4.884   4.499
 9437SOL    HW129210   6.822   4.958   4.469
 9437SOL    HW229211   6.676   4.888   4.447
 9438SOL     OW29212   2.728   6.474   1.894
 9438SOL    HW129213   2.693   6.393   1.941
 9438SOL    HW229214   2.654   6.542   1.886
 9439SOL     OW29215   0.929   3.014   0.281
 9439SOL    HW129216   0.887   3.014   0.190
 9439SOL    HW229217   0.883   3.080   0.340
 9440SOL     OW29218   3.150   4.888   3.021
 9440SOL    HW129219   3.114   4.889   3.115
 9440SOL    HW229220   3.247   4.868   3.022
 9441SOL     OW29221   6.565   6.361   4.771
 9441SOL    HW129222   6.548   6.262   4.768
 9441SOL    HW229223   6.599   6.386   4.861
 9442SOL     OW29224   4.323   3.518   0.433
 9442SOL    HW129225   4.379   3.524   0.516
 9442SOL    HW229226   4.341   3.598   0.375
 9443SOL     OW29227   2.425   4.476   2.787
 9443SOL    HW129228   2.342   4.518   2.749
 9443SOL    HW229229   2.415   4.377   2.788
 9444SOL     OW29230   1.460   4.248   0.252
 9444SOL    HW129231   1.519   4.240   0.172
 9444SOL    HW229232   1.509   4.217   0.333
 9445SOL     OW29233   0.360   1.608   3.870
 9445SOL    HW129234   0.327   1.620   3.963
 9445SOL    HW229235   0.450   1.565   3.871
 9446SOL     OW29236   6.554   5.112   3.232
 9446SOL    HW129237   6.571   5.019   3.266
 9446SOL    HW229238   6.581   5.178   3.302
 9447SOL     OW29239   5.346   5.041   2.435
 9447SOL    HW129240   5.442   5.013   2.441
 9447SOL    HW229241   5.302   5.029   2.524
 9448SOL     OW29242   5.700   0.263   6.224
 9448SOL    HW129243   5.758   0.327   6.275
 9448SOL    HW229244   5.644   0.211   6.289
 9449SOL     OW29245   6.352   6.709   1.564
 9449SOL    HW129246   6.313   6.773   1.499
 9449SOL    HW229247   6.388   6.629   1.515
 9450SOL     OW29248   1.635   5.893   4.194
 9450SOL    HW129249   1.594   5.892   4.285
 9450SOL    HW229250   1.733   5.911   4.202
 9451SOL     OW29251   3.274   5.739   6.836
 9451SOL    HW129252   3.335   5.660   6.830
 9451SOL    HW229253   3.327   5.823   6.827
 9452SOL     OW29254   0.056   4.079   1.115
 9452SOL    HW129255   0.147   4.056   1.152
 9452SOL    HW229256   0.061   4.088   1.016
 9453SOL     OW29257   3.760   5.378   3.487
 9453SOL    HW129258   3.848   5.335   3.502
 9453SOL    HW229259   3.701   5.362   3.566
 9454SOL     OW29260   4.390   4.429   0.901
 9454SOL    HW129261   4.484   4.436   0.934
 9454SOL    HW229262   4.328   4.460   0.973
 9455SOL     OW29263   2.714   2.208   2.160
 9455SOL    HW129264   2.684   2.138   2.095
 9455SOL    HW229265   2.787   2.263   2.118
 9456SOL     OW29266   5.799   2.672   2.417
 9456SOL    HW129267   5.808   2.572   2.412
 9456SOL    HW229268   5.704   2.696   2.439
 9457SOL     OW29269   0.612   4.842   3.639
 9457SOL    HW129270   0.599   4.933   3.600
 9457SOL    HW229271   0.536   4.822   3.702
 9458SOL     OW29272   6.683   4.177   0.143
 9458SOL    HW129273   6.744   4.123   0.201
 9458SOL    HW229274   6.664   4.126   0.059
 9459SOL     OW29275   5.109   4.860   5.232
 9459SOL    HW129276   5.188   4.905   5.191
 9459SOL    HW229277   5.122   4.856   5.331
 9460SOL     OW29278   1.174   2.538   3.201
 9460SOL    HW129279   1.191   2.459   3.142
 9460SOL    HW229280   1.129   2.610   3.148
 9461SOL     OW29281   1.735   2.272   1.769
 9461SOL    HW129282   1.788   2.212   1.709
 9461SOL    HW229283   1.721   2.360   1.725
 9462SOL     OW29284   1.867   1.601   4.687
 9462SOL    HW129285   1.946   1.576   4.743
 9462SOL    HW229286   1.821   1.680   4.728
 9463SOL     OW29287   5.563   6.235   0.684
 9463SOL    HW129288   5.601   6.258   0.774
 9463SOL    HW229289   5.546   6.136   0.680
 9464SOL     OW29290   0.434   1.161   1.695
 9464SOL    HW129291   0.375   1.148   1.615
 9464SOL    HW229292   0.429   1.080   1.754
 9465SOL     OW29293   0.121   4.073   1.598
 9465SOL    HW129294   0.197   4.030   1.550
 9465SOL    HW229295   0.039   4.016   1.589
 9466SOL     OW29296   3.835   5.231   6.966
 9466SOL    HW129297   3.761   5.192   7.021
 9466SOL    HW229298   3.804   5.242   6.872
 9467SOL     OW29299   2.265   3.345   1.006
 9467SOL    HW129300   2.261   3.256   0.960
 9467SOL    HW229301   2.271   3.418   0.938
 9468SOL     OW29302   6.238   3.068   0.524
 9468SOL    HW129303   6.221   3.095   0.619
 9468SOL    HW229304   6.232   3.149   0.465
 9469SOL     OW29305   0.187   6.287   0.744
 9469SOL    HW129306   0.100   6.262   0.700
 9469SOL    HW229307   0.238   6.204   0.766
 9470SOL     OW29308   4.208   3.911   0.752
 9470SOL    HW129309   4.295   3.927   0.705
 9470SOL    HW229310   4.177   3.996   0.794
 9471SOL     OW29311   6.091   2.495   5.405
 9471SOL    HW129312   6.118   2.400   5.417
 9471SOL    HW229313   6.122   2.527   5.316
 9472SOL     OW29314   1.889   3.847   6.413
 9472SOL    HW129315   1.948   3.918   6.375
 9472SOL    HW229316   1.861   3.784   6.340
 9473SOL     OW29317   2.869   4.390   0.533
 9473SOL    HW129318   2.927   4.353   0.605
 9473SOL    HW229319   2.780   4.343   0.534
 9474SOL     OW29320   5.543   3.390   1.515
 9474SOL    HW129321   5.594   3.310   1.547
 9474SOL    HW229322   5.525   3.451   1.593
 9475SOL     OW29323   4.722   3.655   6.003
 9475SOL    HW129324   4.766   3.723   5.945
 9475SOL    HW229325   4.703   3.695   6.093
 9476SOL     OW29326   3.613   3.716   6.297
 9476SOL    HW129327   3.694   3.660   6.277
 9476SOL    HW229328   3.624   3.806   6.255
 9477SOL     OW29329   1.942   4.169   1.829
 9477SOL    HW129330   1.887   4.099   1.783
 9477SOL    HW229331   1.882   4.239   1.867
 9478SOL     OW29332   5.516   2.667   0.313
 9478SOL    HW129333   5.467   2.605   0.252
 9478SOL    HW229334   5.592   2.618   0.356
 9479SOL     OW29335   4.048   0.883   1.805
 9479SOL    HW129336   3.963   0.928   1.830
 9479SOL    HW229337   4.081   0.921   1.718
 9480SOL     OW29338   6.243   6.962   6.911
 9480SOL    HW129339   6.187   6.909   6.976
 9480SOL    HW229340   6.193   6.972   6.825
 9481SOL     OW29341   4.530   1.602   2.853
 9481SOL    HW129342   4.574   1.682   2.894
 9481SOL    HW229343   4.434   1.622   2.836
 9482SOL     OW29344   5.753   0.527   0.907
 9482SOL    HW129345   5.765   0.573   0.995
 9482SOL    HW229346   5.689   0.451   0.918
 9483SOL     OW29347   0.046   0.961   0.834
 9483SOL    HW129348   0.142   0.965   0.859
 9483SOL    HW229349   7.013   0.998   0.909
 9484SOL     OW29350   3.060   5.628   4.564
 9484SOL    HW129351   3.130   5.649   4.631
 9484SOL    HW229352   3.085   5.669   4.476
 9485SOL     OW29353   6.912   1.533   6.976
 9485SOL    HW129354   6.999   1.574   6.953
 9485SOL    HW229355   6.903   1.526   0.053
 9486SOL     OW29356   4.692   5.599   0.250
 9486SOL    HW129357   4.663   5.504   0.259
 9486SOL    HW229358   4.615   5.660   0.266
 9487SOL     OW29359   3.747   3.201   3.886
 9487SOL    HW129360   3.688   3.179   3.809
 9487SOL    HW229361   3.840   3.170   3.867
 9488SOL     OW29362   1.493   1.401   0.704
 9488SOL    HW129363   1.466   1.405   0.608
 9488SOL    HW229364   1.426   1.451   0.759
 9489SOL     OW29365   4.756   4.487   0.279
 9489SOL    HW129366   4.697   4.467   0.357
 9489SOL    HW229367   4.751   4.412   0.214
 9490SOL     OW29368   5.709   3.994   3.083
 9490SOL    HW129369   5.734   3.905   3.121
 9490SOL    HW229370   5.661   4.047   3.152
 9491SOL     OW29371   4.979   6.586   3.324
 9491SOL    HW129372   4.906   6.626   3.379
 9491SOL    HW229373   5.003   6.650   3.251
 9492SOL     OW29374   4.701   2.662   4.745
 9492SOL    HW129375   4.794   2.657   4.711
 9492SOL    HW229376   4.690   2.743   4.803
 9493SOL     OW29377   4.356   6.507   3.367
 9493SOL    HW129378   4.419   6.430   3.353
 9493SOL    HW229379   4.393   6.589   3.322
 9494SOL     OW29380   5.208   2.367   1.954
 9494SOL    HW129381   5.182   2.421   1.874
 9494SOL    HW229382   5.260   2.424   2.017
 9495SOL     OW29383   0.669   0.871   2.543
 9495SOL    HW129384   0.736   0.831   2.480
 9495SOL    HW229385   0.708   0.875   2.635
 9496SOL     OW29386   3.955   2.136   2.520
 9496SOL    HW129387   3.923   2.130   2.425
 9496SOL    HW229388   4.052   2.111   2.523
 9497SOL     OW29389   6.012   4.830   4.450
 9497SOL    HW129390   5.916   4.848   4.470
 9497SOL    HW229391   6.045   4.757   4.510
 9498SOL     OW29392   6.553   5.085   4.444
 9498SOL    HW129393   6.478   5.025   4.471
 9498SOL    HW229394   6.576   5.146   4.519
 9499SOL     OW29395   5.554   5.761   5.563
 9499SOL    HW129396   5.584   5.665   5.556
 9499SOL    HW229397   5.488   5.780   5.490
 9500SOL     OW29398   4.289   0.805   0.783
 9500SOL    HW129399   4.243   0.893   0.795
 9500SOL    HW229400   4.388   0.819   0.782
 9501SOL     OW29401   1.798   2.360   4.620
 9501SOL    HW129402   1.733   2.287   4.602
 9501SOL    HW229403   1.755   2.448   4.599
 9502SOL     OW29404   6.008   4.531   5.382
 9502SOL    HW129405   6.007   4.431   5.390
 9502SOL    HW229406   6.080   4.569   5.440
 9503SOL     OW29407   0.352   2.328   6.511
 9503SOL    HW129408   0.419   2.254   6.525
 9503SOL    HW229409   0.260   2.290   6.512
 9504SOL     OW29410   6.129   5.077   1.839
 9504SOL    HW129411   6.178   5.117   1.917
 9504SOL    HW229412   6.053   5.022   1.872
 9505SOL     OW29413   4.248   4.806   5.288
 9505SOL    HW129414   4.316   4.866   5.329
 9505SOL    HW229415   4.158   4.849   5.293
 9506SOL     OW29416   3.377   2.274   1.282
 9506SOL    HW129417   3.326   2.343   1.230
 9506SOL    HW229418   3.314   2.208   1.321
 9507SOL     OW29419   6.108   0.190   1.821
 9507SOL    HW129420   6.025   0.145   1.856
 9507SOL    HW229421   6.174   0.200   1.895
 9508SOL     OW29422   4.968   1.400   3.303
 9508SOL    HW129423   4.892   1.458   3.271
 9508SOL    HW229424   5.038   1.458   3.344
 9509SOL     OW29425   6.259   0.541   2.525
 9509SOL    HW129426   6.268   0.603   2.603
 9509SOL    HW229427   6.179   0.483   2.538
 9510SOL     OW29428   0.489   2.945   3.383
 9510SOL    HW129429   0.524   2.997   3.305
 9510SOL    HW229430   0.496   2.847   3.363
 9511SOL     OW29431   1.567   1.136   0.477
 9511SOL    HW129432   1.518   1.214   0.517
 9511SOL    HW229433   1.622   1.092   0.547
 9512SOL     OW29434   6.392   2.253   1.296
 9512SOL    HW129435   6.409   2.351   1.285
 9512SOL    HW229436   6.359   2.235   1.388
 9513SOL     OW29437   3.966   4.954   6.967
 9513SOL    HW129438   3.964   5.052   6.985
 9513SOL    HW229439   3.931   4.936   6.874
 9514SOL     OW29440   3.439   3.189   6.618
 9514SOL    HW129441   3.491   3.269   6.587
 9514SOL    HW229442   3.353   3.220   6.659
 9515SOL     OW29443   2.368   4.826   3.632
 9515SOL    HW129444   2.323   4.904   3.675
 9515SOL    HW229445   2.339   4.820   3.536
 9516SOL     OW29446   6.506   3.900   0.565
 9516SOL    HW129447   6.510   3.859   0.474
 9516SOL    HW229448   6.594   3.888   0.611
 9517SOL     OW29449   0.635   4.442   1.262
 9517SOL    HW129450   0.691   4.440   1.179
 9517SOL    HW229451   0.613   4.537   1.285
 9518SOL     OW29452   2.254   1.357   0.546
 9518SOL    HW129453   2.312   1.313   0.478
 9518SOL    HW229454   2.158   1.333   0.530
 9519SOL     OW29455   0.894   2.840   5.293
 9519SOL    HW129456   0.973   2.818   5.236
 9519SOL    HW229457   0.921   2.908   5.362
 9520SOL     OW29458   2.174   0.026   2.824
 9520SOL    HW129459   2.112   0.063   2.894
 9520SOL    HW229460   2.256   7.011   2.869
 9521SOL     OW29461   5.369   5.504   4.350
 9521SOL    HW129462   5.311   5.455   4.414
 9521SOL    HW229463   5.452   5.534   4.396
 9522SOL     OW29464   3.301   6.096   1.082
 9522SOL    HW129465   3.367   6.087   1.007
 9522SOL    HW229466   3.334   6.164   1.147
 9523SOL     OW29467   3.479   4.984   4.885
 9523SOL    HW129468   3.480   5.064   4.945
 9523SOL    HW229469   3.443   4.905   4.935
 9524SOL     OW29470   4.278   3.289   1.089
 9524SOL    HW129471   4.326   3.376   1.085
 9524SOL    HW229472   4.191   3.296   1.040
 9525SOL     OW29473   2.298   0.875   6.189
 9525SOL    HW129474   2.377   0.937   6.194
 9525SOL    HW229475   2.228   0.916   6.130
 9526SOL     OW29476   5.237   5.979   2.975
 9526SOL    HW129477   5.302   6.029   3.032
 9526SOL    HW229478   5.164   5.941   3.033
 9527SOL     OW29479   1.042   1.285   2.193
 9527SOL    HW129480   1.081   1.303   2.283
 9527SOL    HW229481   0.951   1.327   2.187
 9528SOL     OW29482   6.666   0.595   2.131
 9528SOL    HW129483   6.758   0.606   2.168
 9528SOL    HW229484   6.602   0.654   2.182
 9529SOL     OW29485   0.900   2.743   6.279
 9529SOL    HW129486   0.880   2.659   6.230
 9529SOL    HW229487   0.948   2.721   6.365
 9530SOL     OW29488   1.393   2.212   3.234
 9530SOL    HW129489   1.361   2.179   3.144
 9530SOL    HW229490   1.380   2.139   3.302
 9531SOL     OW29491   3.604   0.073   3.123
 9531SOL    HW129492   3.577   7.014   3.174
 9531SOL    HW229493   3.704   0.082   3.125
 9532SOL     OW29494   2.102   6.832   1.984
 9532SOL    HW129495   2.118   6.921   2.025
 9532SOL    HW229496   2.004   6.819   1.969
 9533SOL     OW29497   1.337   0.941   5.730
 9533SOL    HW129498   1.370   0.919   5.639
 9533SOL    HW229499   1.287   1.028   5.728
 9534SOL     OW29500   5.763   2.199   5.102
 9534SOL    HW129501   5.752   2.099   5.110
 9534SOL    HW229502   5.674   2.240   5.084
 9535SOL     OW29503   2.617   1.207   5.539
 9535SOL    HW129504   2.664   1.136   5.592
 9535SOL    HW229505   2.685   1.266   5.495
 9536SOL     OW29506   1.567   5.651   5.360
 9536SOL    HW129507   1.557   5.678   5.455
 9536SOL    HW229508   1.659   5.672   5.329
 9537SOL     OW29509   2.870   0.193   1.866
 9537SOL    HW129510   2.847   0.102   1.901
 9537SOL    HW229511   2.799   0.258   1.892
 9538SOL     OW29512   6.592   2.428   4.893
 9538SOL    HW129513   6.583   2.512   4.840
 9538SOL    HW229514   6.686   2.420   4.927
 9539SOL     OW29515   0.856   5.816   0.348
 9539SOL    HW129516   0.783   5.856   0.293
 9539SOL    HW229517   0.880   5.726   0.310
 9540SOL     OW29518   4.822   5.129   4.503
 9540SOL    HW129519   4.757   5.064   4.464
 9540SOL    HW229520   4.899   5.142   4.441
 9541SOL     OW29521   2.067   2.670   4.306
 9541SOL    HW129522   1.989   2.696   4.363
 9541SOL    HW229523   2.152   2.682   4.358
 9542SOL     OW29524   5.081   3.393   4.810
 9542SOL    HW129525   5.069   3.324   4.881
 9542SOL    HW229526   5.004   3.458   4.814
 9543SOL     OW29527   5.483   1.492   3.288
 9543SOL    HW129528   5.443   1.544   3.363
 9543SOL    HW229529   5.541   1.419   3.325
 9544SOL     OW29530   4.932   1.299   2.735
 9544SOL    HW129531   4.988   1.355   2.674
 9544SOL    HW229532   4.948   1.327   2.830
 9545SOL     OW29533   6.651   1.102   3.691
 9545SOL    HW129534   6.640   1.004   3.711
 9545SOL    HW229535   6.562   1.142   3.670
 9546SOL     OW29536   2.611   5.496   0.293
 9546SOL    HW129537   2.600   5.478   0.195
 9546SOL    HW229538   2.574   5.587   0.315
 9547SOL     OW29539   0.743   6.692   4.195
 9547SOL    HW129540   0.671   6.709   4.262
 9547SOL    HW229541   0.702   6.677   4.105
 9548SOL     OW29542   4.850   6.104   4.094
 9548SOL    HW129543   4.856   6.040   4.017
 9548SOL    HW229544   4.938   6.111   4.139
 9549SOL     OW29545   2.394   6.090   0.944
 9549SOL    HW129546   2.311   6.073   0.997
 9549SOL    HW229547   2.435   6.177   0.972
 9550SOL     OW29548   1.501   1.821   0.087
 9550SOL    HW129549   1.587   1.820   0.037
 9550SOL    HW229550   1.486   1.911   0.127
 9551SOL     OW29551   0.873   6.598   4.772
 9551SOL    HW129552   0.822   6.596   4.858
 9551SOL    HW229553   0.885   6.693   4.742
 9552SOL     OW29554   1.619   6.103   2.872
 9552SOL    HW129555   1.609   6.007   2.898
 9552SOL    HW229556   1.657   6.154   2.949
 9553SOL     OW29557   6.138   4.266   5.743
 9553SOL    HW129558   6.186   4.178   5.744
 9553SOL    HW229559   6.047   4.253   5.701
 9554SOL     OW29560   2.513   1.370   1.857
 9554SOL    HW129561   2.489   1.461   1.824
 9554SOL    HW229562   2.568   1.378   1.940
 9555SOL     OW29563   6.931   2.227   0.479
 9555SOL    HW129564   6.923   2.213   0.578
 9555SOL    HW229565   0.004   2.237   0.454
 9556SOL     OW29566   2.102   1.426   1.570
 9556SOL    HW129567   2.174   1.369   1.609
 9556SOL    HW229568   2.142   1.488   1.501
 9557SOL     OW29569   5.234   0.258   2.260
 9557SOL    HW129570   5.295   0.315   2.203
 9557SOL    HW229571   5.289   0.195   2.314
 9558SOL     OW29572   6.450   4.932   2.731
 9558SOL    HW129573   6.550   4.932   2.734
 9558SOL    HW229574   6.420   4.930   2.635
 9559SOL     OW29575   6.592   3.264   1.488
 9559SOL    HW129576   6.618   3.336   1.553
 9559SOL    HW229577   6.671   3.207   1.469
 9560SOL     OW29578   3.247   1.442   3.781
 9560SOL    HW129579   3.227   1.539   3.768
 9560SOL    HW229580   3.163   1.393   3.805
 9561SOL     OW29581   4.231   6.650   0.690
 9561SOL    HW129582   4.304   6.709   0.653
 9561SOL    HW229583   4.251   6.555   0.668
 9562SOL     OW29584   5.389   4.794   2.915
 9562SOL    HW129585   5.438   4.809   3.001
 9562SOL    HW229586   5.291   4.785   2.934
 9563SOL     OW29587   6.562   5.820   0.144
 9563SOL    HW129588   6.528   5.859   0.229
 9563SOL    HW229589   6.526   5.871   0.066
 9564SOL     OW29590   2.714   6.792   0.082
 9564SOL    HW129591   2.713   6.872   0.022
 9564SOL    HW229592   2.772   6.810   0.161
 9565SOL     OW29593   3.553   5.555   4.508
 9565SOL    HW129594   3.602   5.501   4.578
 9565SOL    HW229595   3.488   5.496   4.460
 9566SOL     OW29596   2.777   4.469   5.331
 9566SOL    HW129597   2.831   4.421   5.400
 9566SOL    HW229598   2.838   4.505   5.260
 9567SOL     OW29599   5.877   5.495   5.630
 9567SOL    HW129600   5.823   5.488   5.713
 9567SOL    HW229601   5.928   5.581   5.630
 9568SOL     OW29602   4.849   3.568   6.358
 9568SOL    HW129603   4.927   3.624   6.332
 9568SOL    HW229604   4.847   3.486   6.300
 9569SOL     OW29605   6.043   0.926   0.131
 9569SOL    HW129606   6.089   1.008   0.166
 9569SOL    HW229607   6.071   0.910   0.037
 9570SOL     OW29608   1.060   1.059   0.188
 9570SOL    HW129609   1.049   1.154   0.216
 9570SOL    HW229610   1.144   1.050   0.134
 9571SOL     OW29611   1.952   3.822   0.141
 9571SOL    HW129612   1.853   3.829   0.156
 9571SOL    HW229613   1.976   3.864   0.054
 9572SOL     OW29614   1.376   4.319   1.637
 9572SOL    HW129615   1.463   4.329   1.589
 9572SOL    HW229616   1.301   4.349   1.577
 9573SOL     OW29617   1.848   1.615   0.585
 9573SOL    HW129618   1.806   1.546   0.644
 9573SOL    HW229619   1.946   1.621   0.604
 9574SOL     OW29620   2.859   2.819   5.832
 9574SOL    HW129621   2.844   2.722   5.853
 9574SOL    HW229622   2.920   2.827   5.754
 9575SOL     OW29623   5.619   0.805   2.595
 9575SOL    HW129624   5.622   0.820   2.694
 9575SOL    HW229625   5.541   0.748   2.572
 9576SOL     OW29626   3.221   1.450   5.280
 9576SOL    HW129627   3.178   1.445   5.190
 9576SOL    HW229628   3.167   1.399   5.347
 9577SOL     OW29629   0.845   6.423   3.344
 9577SOL    HW129630   0.927   6.394   3.393
 9577SOL    HW229631   0.853   6.397   3.248
 9578SOL     OW29632   6.213   2.768   2.430
 9578SOL    HW129633   6.177   2.714   2.506
 9578SOL    HW229634   6.143   2.781   2.360
 9579SOL     OW29635   0.875   6.606   2.443
 9579SOL    HW129636   0.827   6.617   2.356
 9579SOL    HW229637   0.973   6.623   2.431
 9580SOL     OW29638   4.389   3.307   5.772
 9580SOL    HW129639   4.478   3.318   5.727
 9580SOL    HW229640   4.327   3.379   5.742
 9581SOL     OW29641   1.012   4.185   5.871
 9581SOL    HW129642   1.021   4.250   5.947
 9581SOL    HW229643   0.936   4.213   5.812
 9582SOL     OW29644   4.253   4.817   4.595
 9582SOL    HW129645   4.315   4.780   4.526
 9582SOL    HW229646   4.297   4.816   4.684
 9583SOL     OW29647   1.896   4.506   2.120
 9583SOL    HW129648   1.834   4.558   2.179
 9583SOL    HW229649   1.953   4.569   2.068
 9584SOL     OW29650   6.126   5.951   5.957
 9584SOL    HW129651   6.124   5.851   5.957
 9584SOL    HW229652   6.217   5.984   5.982
 9585SOL     OW29653   6.064   0.159   4.774
 9585SOL    HW129654   6.039   0.132   4.681
 9585SOL    HW229655   6.158   0.192   4.775
 9586SOL     OW29656   5.607   3.361   3.336
 9586SOL    HW129657   5.628   3.456   3.312
 9586SOL    HW229658   5.551   3.320   3.264
 9587SOL     OW29659   4.989   6.943   2.496
 9587SOL    HW129660   4.922   6.912   2.429
 9587SOL    HW229661   4.993   0.020   2.496
 9588SOL     OW29662   0.682   0.733   1.967
 9588SOL    HW129663   0.606   0.756   2.029
 9588SOL    HW229664   0.759   0.795   1.984
 9589SOL     OW29665   2.632   1.349   6.487
 9589SOL    HW129666   2.661   1.444   6.500
 9589SOL    HW229667   2.672   1.291   6.558
 9590SOL     OW29668   6.408   4.225   4.176
 9590SOL    HW129669   6.438   4.312   4.216
 9590SOL    HW229670   6.484   4.160   4.180
 9591SOL     OW29671   1.420   5.121   1.389
 9591SOL    HW129672   1.395   5.149   1.297
 9591SOL    HW229673   1.419   5.201   1.450
 9592SOL     OW29674   4.632   5.223   1.647
 9592SOL    HW129675   4.551   5.257   1.599
 9592SOL    HW229676   4.640   5.124   1.632
 9593SOL     OW29677   0.522   2.952   4.287
 9593SOL    HW129678   0.525   2.853   4.274
 9593SOL    HW229679   0.519   2.973   4.384
 9594SOL     OW29680   6.093   0.084   2.392
 9594SOL    HW129681   5.997   0.056   2.388
 9594SOL    HW229682   6.140   0.052   2.309
 9595SOL     OW29683   1.268   5.322   4.069
 9595SOL    HW129684   1.245   5.328   4.166
 9595SOL    HW229685   1.289   5.413   4.034
 9596SOL     OW29686   5.532   6.181   5.049
 9596SOL    HW129687   5.576   6.186   4.959
 9596SOL    HW229688   5.524   6.273   5.088
 9597SOL     OW29689   2.278   3.889   1.262
 9597SOL    HW129690   2.371   3.859   1.243
 9597SOL    HW229691   2.214   3.814   1.246
 9598SOL     OW29692   0.050   5.575   5.931
 9598SOL    HW129693   0.045   5.675   5.937
 9598SOL    HW229694   0.083   5.538   6.018
 9599SOL     OW29695   4.629   1.727   5.057
 9599SOL    HW129696   4.641   1.818   5.017
 9599SOL    HW229697   4.717   1.680   5.060
 9600SOL     OW29698   1.365   0.151   6.602
 9600SOL    HW129699   1.431   0.225   6.617
 9600SOL    HW229700   1.397   0.093   6.527
 9601SOL     OW29701   0.185   5.348   5.342
 9601SOL    HW129702   0.100   5.399   5.331
 9601SOL    HW229703   0.240   5.356   5.258
 9602SOL     OW29704   1.202   5.727   0.481
 9602SOL    HW129705   1.216   5.673   0.398
 9602SOL    HW229706   1.192   5.823   0.457
 9603SOL     OW29707   1.692   6.202   4.097
 9603SOL    HW129708   1.642   6.184   4.013
 9603SOL    HW229709   1.717   6.115   4.140
 9604SOL     OW29710   6.151   1.360   6.843
 9604SOL    HW129711   6.080   1.312   6.894
 9604SOL    HW229712   6.198   1.297   6.781
 9605SOL     OW29713   2.098   6.339   6.756
 9605SOL    HW129714   2.180   6.372   6.709
 9605SOL    HW229715   2.118   6.254   6.804
 9606SOL     OW29716   6.221   6.550   3.819
 9606SOL    HW129717   6.289   6.531   3.890
 9606SOL    HW229718   6.179   6.465   3.790
 9607SOL     OW29719   0.943   2.057   1.719
 9607SOL    HW129720   0.982   2.114   1.791
 9607SOL    HW229721   0.913   2.116   1.643
 9608SOL     OW29722   0.773   0.031   2.262
 9608SOL    HW129723   0.693   0.060   2.208
 9608SOL    HW229724   0.820   0.111   2.298
 9609SOL     OW29725   1.484   3.568   4.978
 9609SOL    HW129726   1.460   3.573   4.881
 9609SOL    HW229727   1.441   3.644   5.027
 9610SOL     OW29728   2.388   1.945   6.148
 9610SOL    HW129729   2.333   2.015   6.194
 9610SOL    HW229730   2.410   1.872   6.214
 9611SOL     OW29731   6.404   0.126   1.282
 9611SOL    HW129732   6.475   0.057   1.296
 9611SOL    HW229733   6.429   0.210   1.330
 9612SOL     OW29734   5.456   2.606   1.660
 9612SOL    HW129735   5.488   2.529   1.604
 9612SOL    HW229736   5.503   2.605   1.748
 9613SOL     OW29737   5.773   6.351   5.309
 9613SOL    HW129738   5.714   6.418   5.264
 9613SOL    HW229739   5.867   6.361   5.275
 9614SOL     OW29740   3.797   3.385   2.382
 9614SOL    HW129741   3.727   3.453   2.399
 9614SOL    HW229742   3.840   3.359   2.468
 9615SOL     OW29743   1.010   6.118   3.183
 9615SOL    HW129744   0.920   6.078   3.164
 9615SOL    HW229745   1.081   6.054   3.156
 9616SOL     OW29746   3.024   3.429   0.606
 9616SOL    HW129747   3.044   3.402   0.700
 9616SOL    HW229748   3.004   3.527   0.604
 9617SOL     OW29749   0.347   4.001   3.819
 9617SOL    HW129750   0.327   3.903   3.813
 9617SOL    HW229751   0.262   4.052   3.821
 9618SOL     OW29752   4.297   6.028   6.832
 9618SOL    HW129753   4.349   6.083   6.898
 9618SOL    HW229754   4.345   6.029   6.744
 9619SOL     OW29755   2.544   6.618   0.438
 9619SOL    HW129756   2.571   6.602   0.343
 9619SOL    HW229757   2.611   6.576   0.499
 9620SOL     OW29758   3.473   1.027   6.259
 9620SOL    HW129759   3.399   1.093   6.271
 9620SOL    HW229760   3.466   0.956   6.328
 9621SOL     OW29761   0.859   1.055   1.110
 9621SOL    HW129762   0.844   1.151   1.135
 9621SOL    HW229763   0.947   1.024   1.145
 9622SOL     OW29764   6.296   0.446   5.967
 9622SOL    HW129765   6.357   0.520   5.940
 9622SOL    HW229766   6.270   0.457   6.063
 9623SOL     OW29767   3.877   6.115   6.635
 9623SOL    HW129768   3.950   6.047   6.625
 9623SOL    HW229769   3.842   6.112   6.729
 9624SOL     OW29770   4.033   5.150   4.989
 9624SOL    HW129771   4.053   5.154   4.891
 9624SOL    HW229772   4.089   5.078   5.031
 9625SOL     OW29773   4.966   4.022   6.098
 9625SOL    HW129774   4.962   3.982   6.189
 9625SOL    HW229775   4.921   4.112   6.099
 9626SOL     OW29776   2.367   3.920   6.009
 9626SOL    HW129777   2.416   3.903   5.923
 9626SOL    HW229778   2.432   3.937   6.082
 9627SOL     OW29779   1.043   5.372   6.943
 9627SOL    HW129780   1.126   5.381   6.999
 9627SOL    HW229781   1.069   5.358   6.848
 9628SOL     OW29782   5.850   2.188   6.461
 9628SOL    HW129783   5.883   2.282   6.465
 9628SOL    HW229784   5.877   2.140   6.545
 9629SOL     OW29785   0.154   5.656   3.570
 9629SOL    HW129786   0.247   5.662   3.534
 9629SOL    HW229787   0.132   5.561   3.591
 9630SOL     OW29788   6.266   5.818   6.589
 9630SOL    HW129789   6.340   5.755   6.613
 9630SOL    HW229790   6.230   5.860   6.672
 9631SOL     OW29791   4.325   0.718   0.289
 9631SOL    HW129792   4.311   0.619   0.284
 9631SOL    HW229793   4.422   0.739   0.293
 9632SOL     OW29794   3.457   6.057   1.860
 9632SOL    HW129795   3.554   6.055   1.884
 9632SOL    HW229796   3.408   6.109   1.930
 9633SOL     OW29797   3.156   2.930   2.180
 9633SOL    HW129798   3.180   2.868   2.105
 9633SOL    HW229799   3.180   2.887   2.267
 9634SOL     OW29800   5.218   4.716   2.532
 9634SOL    HW129801   5.148   4.774   2.575
 9634SOL    HW229802   5.294   4.704   2.596
 9635SOL     OW29803   0.388   4.467   3.990
 9635SOL    HW129804   0.410   4.462   4.087
 9635SOL    HW229805   0.325   4.394   3.966
 9636SOL     OW29806   4.759   2.861   4.951
 9636SOL    HW129807   4.818   2.941   4.946
 9636SOL    HW229808   4.705   2.864   5.036
 9637SOL     OW29809   2.220   2.771   0.586
 9637SOL    HW129810   2.152   2.829   0.632
 9637SOL    HW229811   2.293   2.749   0.650
 9638SOL     OW29812   6.502   4.687   5.463
 9638SOL    HW129813   6.582   4.645   5.420
 9638SOL    HW229814   6.508   4.675   5.562
 9639SOL     OW29815   3.776   1.328   3.029
 9639SOL    HW129816   3.725   1.403   2.987
 9639SOL    HW229817   3.873   1.350   3.030
 9640SOL     OW29818   4.033   0.590   3.123
 9640SOL    HW129819   4.042   0.663   3.190
 9640SOL    HW229820   4.125   0.561   3.094
 9641SOL     OW29821   6.110   4.090   2.664
 9641SOL    HW129822   6.029   4.109   2.609
 9641SOL    HW229823   6.173   4.033   2.612
 9642SOL     OW29824   1.614   0.284   3.945
 9642SOL    HW129825   1.602   0.226   4.025
 9642SOL    HW229826   1.709   0.278   3.913
 9643SOL     OW29827   5.275   4.829   4.047
 9643SOL    HW129828   5.209   4.817   4.121
 9643SOL    HW229829   5.350   4.763   4.058
 9644SOL     OW29830   1.437   5.836   4.647
 9644SOL    HW129831   1.370   5.761   4.651
 9644SOL    HW229832   1.449   5.876   4.737
 9645SOL     OW29833   0.586   5.310   0.033
 9645SOL    HW129834   0.607   5.214   0.053
 9645SOL    HW229835   0.654   5.346   6.992
 9646SOL     OW29836   3.546   6.148   6.154
 9646SOL    HW129837   3.516   6.052   6.149
 9646SOL    HW229838   3.542   6.179   6.249
 9647SOL     OW29839   6.138   7.018   3.256
 9647SOL    HW129840   6.121   0.056   3.178
 9647SOL    HW229841   6.236   7.000   3.262
 9648SOL     OW29842   4.233   2.436   1.199
 9648SOL    HW129843   4.305   2.380   1.158
 9648SOL    HW229844   4.176   2.379   1.259
 9649SOL     OW29845   1.542   4.983   6.912
 9649SOL    HW129846   1.472   4.941   6.969
 9649SOL    HW229847   1.576   5.066   6.957
 9650SOL     OW29848   6.930   5.228   4.781
 9650SOL    HW129849   6.956   5.143   4.735
 9650SOL    HW229850   7.005   5.294   4.776
 9651SOL     OW29851   3.930   1.067   0.361
 9651SOL    HW129852   3.967   1.160   0.354
 9651SOL    HW229853   3.995   1.009   0.409
 9652SOL     OW29854   6.859   3.860   0.540
 9652SOL    HW129855   6.906   3.776   0.513
 9652SOL    HW229856   6.826   3.850   0.634
 9653SOL     OW29857   4.135   4.060   6.382
 9653SOL    HW129858   4.229   4.096   6.383
 9653SOL    HW229859   4.105   4.050   6.288
 9654SOL     OW29860   3.798   3.333   3.265
 9654SOL    HW129861   3.773   3.408   3.204
 9654SOL    HW229862   3.782   3.361   3.360
 9655SOL     OW29863   4.030   1.307   1.942
 9655SOL    HW129864   3.946   1.360   1.932
 9655SOL    HW229865   4.069   1.287   1.852
 9656SOL     OW29866   5.823   4.042   1.060
 9656SOL    HW129867   5.892   3.971   1.070
 9656SOL    HW229868   5.748   4.025   1.125
 9657SOL     OW29869   5.604   3.546   3.765
 9657SOL    HW129870   5.571   3.610   3.695
 9657SOL    HW229871   5.691   3.507   3.736
 9658SOL     OW29872   5.124   1.924   2.409
 9658SOL    HW129873   5.219   1.894   2.401
 9658SOL    HW229874   5.080   1.877   2.486
 9659SOL     OW29875   2.821   3.088   0.609
 9659SOL    HW129876   2.914   3.088   0.644
 9659SOL    HW229877   2.769   3.161   0.653
 9660SOL     OW29878   0.410   5.996   1.085
 9660SOL    HW129879   0.468   6.052   1.144
 9660SOL    HW229880   0.461   5.916   1.054
 9661SOL     OW29881   5.344   5.016   0.664
 9661SOL    HW129882   5.257   4.975   0.635
 9661SOL    HW229883   5.414   4.945   0.669
 9662SOL     OW29884   5.372   4.835   6.490
 9662SOL    HW129885   5.307   4.865   6.560
 9662SOL    HW229886   5.321   4.798   6.412
 9663SOL     OW29887   0.890   5.152   3.188
 9663SOL    HW129888   0.827   5.174   3.114
 9663SOL    HW229889   0.954   5.228   3.200
 9664SOL     OW29890   5.099   3.814   3.085
 9664SOL    HW129891   5.121   3.793   2.990
 9664SOL    HW229892   5.000   3.826   3.094
 9665SOL     OW29893   5.673   5.263   6.040
 9665SOL    HW129894   5.728   5.212   5.974
 9665SOL    HW229895   5.733   5.308   6.106
 9666SOL     OW29896   5.649   3.637   0.459
 9666SOL    HW129897   5.704   3.579   0.400
 9666SOL    HW229898   5.553   3.629   0.434
 9667SOL     OW29899   5.857   5.985   6.993
 9667SOL    HW129900   5.894   6.077   6.978
 9667SOL    HW229901   5.830   5.975   0.066
 9668SOL     OW29902   0.347   0.101   5.663
 9668SOL    HW129903   0.397   0.171   5.714
 9668SOL    HW229904   0.326   0.024   5.723
 9669SOL     OW29905   3.633   0.257   0.216
 9669SOL    HW129906   3.638   0.308   0.302
 9669SOL    HW229907   3.545   0.211   0.210
 9670SOL     OW29908   0.517   0.202   6.359
 9670SOL    HW129909   0.610   0.215   6.395
 9670SOL    HW229910   0.487   0.109   6.379
 9671SOL     OW29911   1.114   5.219   5.941
 9671SOL    HW129912   1.212   5.230   5.956
 9671SOL    HW229913   1.090   5.249   5.849
 9672SOL     OW29914   0.332   3.249   4.690
 9672SOL    HW129915   0.363   3.312   4.762
 9672SOL    HW229916   0.263   3.295   4.634
 9673SOL     OW29917   2.466   4.092   1.233
 9673SOL    HW129918   2.520   4.039   1.168
 9673SOL    HW229919   2.375   4.050   1.243
 9674SOL     OW29920   2.785   6.479   4.075
 9674SOL    HW129921   2.863   6.536   4.047
 9674SOL    HW229922   2.807   6.433   4.161
 9675SOL     OW29923   4.609   4.141   1.383
 9675SOL    HW129924   4.606   4.169   1.479
 9675SOL    HW229925   4.694   4.092   1.366
 9676SOL     OW29926   1.415   2.994   6.089
 9676SOL    HW129927   1.340   3.057   6.068
 9676SOL    HW229928   1.499   3.027   6.046
 9677SOL     OW29929   6.533   5.395   0.784
 9677SOL    HW129930   6.490   5.420   0.871
 9677SOL    HW229931   6.484   5.438   0.708
 9678SOL     OW29932   3.633   3.409   5.043
 9678SOL    HW129933   3.619   3.360   4.957
 9678SOL    HW229934   3.725   3.449   5.044
 9679SOL     OW29935   1.856   1.439   5.222
 9679SOL    HW129936   1.857   1.393   5.311
 9679SOL    HW229937   1.937   1.414   5.170
 9680SOL     OW29938   4.445   5.707   3.009
 9680SOL    HW129939   4.485   5.732   3.097
 9680SOL    HW229940   4.405   5.788   2.967
 9681SOL     OW29941   1.622   1.950   2.233
 9681SOL    HW129942   1.706   2.004   2.239
 9681SOL    HW229943   1.544   2.011   2.220
 9682SOL     OW29944   4.942   5.398   5.083
 9682SOL    HW129945   4.904   5.487   5.109
 9682SOL    HW229946   4.962   5.397   4.985
 9683SOL     OW29947   3.073   6.323   1.681
 9683SOL    HW129948   2.979   6.356   1.694
 9683SOL    HW229949   3.097   6.330   1.584
 9684SOL     OW29950   1.094   4.259   5.564
 9684SOL    HW129951   1.052   4.188   5.508
 9684SOL    HW229952   1.088   4.234   5.660
 9685SOL     OW29953   3.881   4.899   1.622
 9685SOL    HW129954   3.868   4.878   1.525
 9685SOL    HW229955   3.962   4.956   1.634
 9686SOL     OW29956   0.469   1.915   5.891
 9686SOL    HW129957   0.472   2.015   5.882
 9686SOL    HW229958   0.537   1.885   5.958
 9687SOL     OW29959   5.886   0.810   1.997
 9687SOL    HW129960   5.970   0.855   2.027
 9687SOL    HW229961   5.840   0.866   1.928
 9688SOL     OW29962   0.335   4.313   1.373
 9688SOL    HW129963   0.262   4.361   1.422
 9688SOL    HW229964   0.406   4.379   1.347
 9689SOL     OW29965   1.125   6.657   1.008
 9689SOL    HW129966   1.145   6.749   1.042
 9689SOL    HW229967   1.027   6.648   0.991
 9690SOL     OW29968   5.540   5.448   5.232
 9690SOL    HW129969   5.460   5.406   5.188
 9690SOL    HW229970   5.613   5.458   5.164
 9691SOL     OW29971   3.257   3.659   1.555
 9691SOL    HW129972   3.220   3.710   1.633
 9691SOL    HW229973   3.247   3.561   1.572
 9692SOL     OW29974   4.736   5.064   0.571
 9692SOL    HW129975   4.740   5.154   0.527
 9692SOL    HW229976   4.802   5.061   0.646
 9693SOL     OW29977   5.222   3.800   4.147
 9693SOL    HW129978   5.159   3.724   4.164
 9693SOL    HW229979   5.207   3.836   4.054
 9694SOL     OW29980   3.293   6.446   2.295
 9694SOL    HW129981   3.385   6.408   2.296
 9694SOL    HW229982   3.290   6.524   2.232
 9695SOL     OW29983   0.779   2.649   3.715
 9695SOL    HW129984   0.752   2.738   3.679
 9695SOL    HW229985   0.805   2.589   3.640
 9696SOL     OW29986   5.397   1.871   2.382
 9696SOL    HW129987   5.408   1.802   2.310
 9696SOL    HW229988   5.467   1.857   2.452
 9697SOL     OW29989   0.125   6.056   0.130
 9697SOL    HW129990   0.141   5.958   0.143
 9697SOL    HW229991   0.213   6.104   0.128
 9698SOL     OW29992   5.854   3.889   0.260
 9698SOL    HW129993   5.798   3.953   0.207
 9698SOL    HW229994   5.843   3.796   0.223
 9699SOL     OW29995   0.978   4.783   0.783
 9699SOL    HW129996   1.006   4.874   0.817
 9699SOL    HW229997   0.921   4.794   0.702
 9700SOL     OW29998   5.480   6.419   5.191
 9700SOL    HW129999   5.388   6.385   5.212
 9700SOL    HW230000   5.525   6.449   5.275
 9701SOL     OW30001   4.707   3.093   6.365
 9701SOL    HW130002   4.623   3.075   6.312
 9701SOL    HW230003   4.683   3.137   6.451
 9702SOL     OW30004   3.631   3.239   1.251
 9702SOL    HW130005   3.625   3.334   1.281
 9702SOL    HW230006   3.727   3.211   1.251
 9703SOL     OW30007   6.243   4.011   4.943
 9703SOL    HW130008   6.149   4.011   4.909
 9703SOL    HW230009   6.267   3.920   4.977
 9704SOL     OW30010   2.218   4.138   2.996
 9704SOL    HW130011   2.158   4.058   2.986
 9704SOL    HW230012   2.311   4.106   3.015
 9705SOL     OW30013   6.031   3.660   5.641
 9705SOL    HW130014   5.958   3.616   5.588
 9705SOL    HW230015   6.120   3.628   5.608
 9706SOL     OW30016   1.681   1.932   1.935
 9706SOL    HW130017   1.727   1.985   2.007
 9706SOL    HW230018   1.707   1.836   1.943
 9707SOL     OW30019   6.612   5.092   2.438
 9707SOL    HW130020   6.568   5.176   2.469
 9707SOL    HW230021   6.711   5.101   2.447
 9708SOL     OW30022   2.135   0.617   1.966
 9708SOL    HW130023   2.230   0.616   1.935
 9708SOL    HW230024   2.128   0.674   2.048
 9709SOL     OW30025   5.533   2.160   2.407
 9709SOL    HW130026   5.534   2.066   2.374
 9709SOL    HW230027   5.516   2.222   2.331
 9710SOL     OW30028   5.968   5.302   4.641
 9710SOL    HW130029   6.019   5.249   4.573
 9710SOL    HW230030   5.873   5.313   4.611
 9711SOL     OW30031   3.976   6.790   0.025
 9711SOL    HW130032   3.942   6.768   0.116
 9711SOL    HW230033   3.938   6.878   7.018
 9712SOL     OW30034   5.794   2.156   0.050
 9712SOL    HW130035   5.826   2.063   0.065
 9712SOL    HW230036   5.823   2.215   0.126
 9713SOL     OW30037   1.389   6.275   3.794
 9713SOL    HW130038   1.384   6.374   3.806
 9713SOL    HW230039   1.317   6.246   3.731
 9714SOL     OW30040   3.107   4.882   4.841
 9714SOL    HW130041   3.028   4.850   4.788
 9714SOL    HW230042   3.124   4.821   4.918
 9715SOL     OW30043   6.169   4.042   0.562
 9715SOL    HW130044   6.194   3.975   0.631
 9715SOL    HW230045   6.160   4.132   0.605
 9716SOL     OW30046   2.613   4.960   6.965
 9716SOL    HW130047   2.601   4.902   6.884
 9716SOL    HW230048   2.650   4.905   0.017
 9717SOL     OW30049   4.450   0.877   5.663
 9717SOL    HW130050   4.482   0.971   5.652
 9717SOL    HW230051   4.510   0.829   5.728
 9718SOL     OW30052   2.790   1.903   0.579
 9718SOL    HW130053   2.883   1.867   0.582
 9718SOL    HW230054   2.729   1.836   0.539
 9719SOL     OW30055   4.339   6.467   5.245
 9719SOL    HW130056   4.309   6.492   5.153
 9719SOL    HW230057   4.418   6.522   5.271
 9720SOL     OW30058   2.015   3.954   3.121
 9720SOL    HW130059   2.097   3.914   3.162
 9720SOL    HW230060   2.001   3.914   3.031
 9721SOL     OW30061   0.762   2.097   0.534
 9721SOL    HW130062   0.848   2.052   0.560
 9721SOL    HW230063   0.781   2.191   0.505
 9722SOL     OW30064   3.883   3.039   4.979
 9722SOL    HW130065   3.873   2.988   4.893
 9722SOL    HW230066   3.839   2.989   5.053
 9723SOL     OW30067   6.502   5.694   4.260
 9723SOL    HW130068   6.524   5.740   4.346
 9723SOL    HW230069   6.456   5.607   4.279
 9724SOL     OW30070   0.891   5.447   0.140
 9724SOL    HW130071   0.955   5.451   0.063
 9724SOL    HW230072   0.902   5.360   0.188
 9725SOL     OW30073   3.296   5.313   5.660
 9725SOL    HW130074   3.386   5.271   5.647
 9725SOL    HW230075   3.233   5.245   5.697
 9726SOL     OW30076   5.843   1.134   4.592
 9726SOL    HW130077   5.811   1.075   4.667
 9726SOL    HW230078   5.764   1.165   4.539
 9727SOL     OW30079   1.317   1.443   6.865
 9727SOL    HW130080   1.272   1.362   6.827
 9727SOL    HW230081   1.392   1.415   6.924
 9728SOL     OW30082   5.442   6.915   6.204
 9728SOL    HW130083   5.377   6.860   6.256
 9728SOL    HW230084   5.503   6.855   6.152
 9729SOL     OW30085   0.400   4.874   3.415
 9729SOL    HW130086   0.458   4.953   3.432
 9729SOL    HW230087   0.386   4.863   3.316
 9730SOL     OW30088   0.295   4.257   3.287
 9730SOL    HW130089   0.369   4.198   3.317
 9730SOL    HW230090   0.208   4.209   3.294
 9731SOL     OW30091   5.241   3.547   2.636
 9731SOL    HW130092   5.184   3.470   2.607
 9731SOL    HW230093   5.217   3.628   2.581
 9732SOL     OW30094   1.231   3.192   2.583
 9732SOL    HW130095   1.226   3.224   2.489
 9732SOL    HW230096   1.159   3.123   2.598
 9733SOL     OW30097   6.330   5.162   2.562
 9733SOL    HW130098   6.316   5.063   2.557
 9733SOL    HW230099   6.283   5.207   2.487
 9734SOL     OW30100   6.292   6.752   6.261
 9734SOL    HW130101   6.294   6.852   6.272
 9734SOL    HW230102   6.347   6.726   6.182
 9735SOL     OW30103   1.526   2.204   2.050
 9735SOL    HW130104   1.448   2.240   1.999
 9735SOL    HW230105   1.595   2.276   2.061
 9736SOL     OW30106   4.764   2.582   5.186
 9736SOL    HW130107   4.762   2.514   5.260
 9736SOL    HW230108   4.694   2.652   5.204
 9737SOL     OW30109   5.895   2.089   2.480
 9737SOL    HW130110   5.949   2.012   2.447
 9737SOL    HW230111   5.807   2.090   2.433
 9738SOL     OW30112   1.504   6.072   1.683
 9738SOL    HW130113   1.517   5.982   1.641
 9738SOL    HW230114   1.571   6.136   1.645
 9739SOL     OW30115   5.578   0.176   0.164
 9739SOL    HW130116   5.639   0.129   0.227
 9739SOL    HW230117   5.485   0.174   0.201
 9740SOL     OW30118   6.784   0.831   2.735
 9740SOL    HW130119   6.854   0.885   2.783
 9740SOL    HW230120   6.713   0.804   2.799
 9741SOL     OW30121   3.253   1.157   4.594
 9741SOL    HW130122   3.327   1.205   4.640
 9741SOL    HW230123   3.275   1.147   4.497
 9742SOL     OW30124   4.081   2.466   5.992
 9742SOL    HW130125   4.085   2.367   5.978
 9742SOL    HW230126   4.145   2.511   5.930
 9743SOL     OW30127   6.149   3.022   3.680
 9743SOL    HW130128   6.198   2.971   3.609
 9743SOL    HW230129   6.064   3.057   3.644
 9744SOL     OW30130   1.834   0.192   3.814
 9744SOL    HW130131   1.931   0.214   3.824
 9744SOL    HW230132   1.820   0.134   3.734
 9745SOL     OW30133   6.489   0.911   5.746
 9745SOL    HW130134   6.453   0.836   5.802
 9745SOL    HW230135   6.545   0.874   5.672
 9746SOL     OW30136   4.512   5.438   6.117
 9746SOL    HW130137   4.558   5.360   6.074
 9746SOL    HW230138   4.556   5.457   6.205
 9747SOL     OW30139   2.384   2.707   2.088
 9747SOL    HW130140   2.373   2.681   2.183
 9747SOL    HW230141   2.428   2.632   2.038
 9748SOL     OW30142   1.255   0.688   3.277
 9748SOL    HW130143   1.244   0.665   3.180
 9748SOL    HW230144   1.308   0.617   3.323
 9749SOL     OW30145   6.888   1.910   2.526
 9749SOL    HW130146   6.949   1.933   2.602
 9749SOL    HW230147   6.937   1.853   2.460
 9750SOL     OW30148   6.217   4.297   3.655
 9750SOL    HW130149   6.219   4.229   3.581
 9750SOL    HW230150   6.304   4.346   3.658
 9751SOL     OW30151   2.549   1.086   1.763
 9751SOL    HW130152   2.623   1.088   1.695
 9751SOL    HW230153   2.528   1.179   1.792
 9752SOL     OW30154   3.758   2.799   0.402
 9752SOL    HW130155   3.673   2.813   0.350
 9752SOL    HW230156   3.739   2.811   0.499
 9753SOL     OW30157   5.998   6.066   5.206
 9753SOL    HW130158   5.898   6.063   5.198
 9753SOL    HW230159   6.033   5.974   5.221
 9754SOL     OW30160   3.612   0.176   1.360
 9754SOL    HW130161   3.547   0.252   1.356
 9754SOL    HW230162   3.574   0.104   1.418
 9755SOL     OW30163   3.418   4.111   6.191
 9755SOL    HW130164   3.492   4.047   6.170
 9755SOL    HW230165   3.430   4.148   6.283
 9756SOL     OW30166   6.026   0.829   6.432
 9756SOL    HW130167   5.929   0.854   6.433
 9756SOL    HW230168   6.080   0.909   6.407
 9757SOL     OW30169   4.842   3.852   3.962
 9757SOL    HW130170   4.858   3.776   3.898
 9757SOL    HW230171   4.826   3.936   3.910
 9758SOL     OW30172   2.163   0.488   1.010
 9758SOL    HW130173   2.183   0.583   0.986
 9758SOL    HW230174   2.180   0.475   1.108
 9759SOL     OW30175   1.457   1.660   0.350
 9759SOL    HW130176   1.452   1.720   0.271
 9759SOL    HW230177   1.551   1.626   0.361
 9760SOL     OW30178   4.427   1.777   0.769
 9760SOL    HW130179   4.487   1.824   0.833
 9760SOL    HW230180   4.419   1.831   0.685
 9761SOL     OW30181   1.759   1.326   1.672
 9761SOL    HW130182   1.776   1.348   1.576
 9761SOL    HW230183   1.672   1.368   1.701
 9762SOL     OW30184   2.827   2.024   5.777
 9762SOL    HW130185   2.753   2.047   5.841
 9762SOL    HW230186   2.902   2.089   5.790
 9763SOL     OW30187   6.595   1.573   1.483
 9763SOL    HW130188   6.622   1.662   1.446
 9763SOL    HW230189   6.503   1.579   1.522
 9764SOL     OW30190   5.494   1.694   2.187
 9764SOL    HW130191   5.447   1.648   2.112
 9764SOL    HW230192   5.574   1.641   2.214
 9765SOL     OW30193   6.673   1.422   1.942
 9765SOL    HW130194   6.734   1.488   1.898
 9765SOL    HW230195   6.710   1.396   2.031
 9766SOL     OW30196   1.907   0.850   4.287
 9766SOL    HW130197   1.839   0.914   4.322
 9766SOL    HW230198   1.945   0.886   4.201
 9767SOL     OW30199   2.054   3.341   5.729
 9767SOL    HW130200   2.058   3.333   5.829
 9767SOL    HW230201   2.036   3.436   5.704
 9768SOL     OW30202   5.801   2.575   0.948
 9768SOL    HW130203   5.895   2.561   0.981
 9768SOL    HW230204   5.791   2.533   0.857
 9769SOL     OW30205   2.949   1.781   5.127
 9769SOL    HW130206   2.946   1.765   5.028
 9769SOL    HW230207   2.990   1.871   5.144
 9770SOL     OW30208   3.183   2.085   6.479
 9770SOL    HW130209   3.113   2.040   6.423
 9770SOL    HW230210   3.138   2.150   6.540
 9771SOL     OW30211   2.405   5.955   2.798
 9771SOL    HW130212   2.444   5.882   2.742
 9771SOL    HW230213   2.323   5.992   2.754
 9772SOL     OW30214   0.921   6.360   1.810
 9772SOL    HW130215   0.955   6.421   1.739
 9772SOL    HW230216   0.997   6.304   1.845
 9773SOL     OW30217   4.702   5.448   2.274
 9773SOL    HW130218   4.793   5.484   2.297
 9773SOL    HW230219   4.698   5.430   2.176
 9774SOL     OW30220   0.660   5.690   4.538
 9774SOL    HW130221   0.627   5.651   4.452
 9774SOL    HW230222   0.686   5.786   4.522
 9775SOL     OW30223   2.464   0.961   3.837
 9775SOL    HW130224   2.432   1.034   3.897
 9775SOL    HW230225   2.389   0.934   3.776
 9776SOL     OW30226   1.653   5.851   6.404
 9776SOL    HW130227   1.738   5.883   6.362
 9776SOL    HW230228   1.674   5.794   6.483
 9777SOL     OW30229   5.599   6.758   6.435
 9777SOL    HW130230   5.602   6.661   6.459
 9777SOL    HW230231   5.635   6.812   6.511
 9778SOL     OW30232   0.788   1.771   4.182
 9778SOL    HW130233   0.828   1.862   4.181
 9778SOL    HW230234   0.726   1.763   4.260
 9779SOL     OW30235   0.964   1.918   3.695
 9779SOL    HW130236   0.898   1.953   3.761
 9779SOL    HW230237   0.988   1.824   3.719
 9780SOL     OW30238   1.611   1.861   1.208
 9780SOL    HW130239   1.518   1.842   1.180
 9780SOL    HW230240   1.655   1.777   1.238
 9781SOL     OW30241   1.087   3.010   3.506
 9781SOL    HW130242   1.095   2.941   3.577
 9781SOL    HW230243   1.174   3.059   3.497
 9782SOL     OW30244   0.215   2.303   0.887
 9782SOL    HW130245   0.248   2.243   0.960
 9782SOL    HW230246   0.293   2.349   0.844
 9783SOL     OW30247   3.682   1.342   3.507
 9783SOL    HW130248   3.598   1.323   3.558
 9783SOL    HW230249   3.661   1.402   3.429
 9784SOL     OW30250   2.143   1.650   0.593
 9784SOL    HW130251   2.191   1.725   0.547
 9784SOL    HW230252   2.194   1.565   0.580
 9785SOL     OW30253   0.021   2.201   4.647
 9785SOL    HW130254   0.052   2.270   4.581
 9785SOL    HW230255   6.954   2.228   4.683
 9786SOL     OW30256   2.180   4.326   1.078
 9786SOL    HW130257   2.162   4.394   1.006
 9786SOL    HW230258   2.099   4.270   1.092
 9787SOL     OW30259   3.444   2.898   2.734
 9787SOL    HW130260   3.528   2.889   2.788
 9787SOL    HW230261   3.428   2.814   2.683
 9788SOL     OW30262   0.227   6.504   2.090
 9788SOL    HW130263   0.238   6.427   2.152
 9788SOL    HW230264   0.311   6.516   2.037
 9789SOL     OW30265   3.187   6.892   6.487
 9789SOL    HW130266   3.171   6.852   6.577
 9789SOL    HW230267   3.116   6.959   6.466
 9790SOL     OW30268   6.757   3.997   4.520
 9790SOL    HW130269   6.680   4.044   4.476
 9790SOL    HW230270   6.816   4.064   4.563
 9791SOL     OW30271   0.894   6.496   0.818
 9791SOL    HW130272   0.850   6.498   0.728
 9791SOL    HW230273   0.889   6.403   0.855
 9792SOL     OW30274   3.916   5.896   0.903
 9792SOL    HW130275   3.928   5.881   0.805
 9792SOL    HW230276   3.982   5.964   0.935
 9793SOL     OW30277   4.621   1.536   2.577
 9793SOL    HW130278   4.594   1.544   2.673
 9793SOL    HW230279   4.712   1.576   2.564
 9794SOL     OW30280   4.788   4.632   4.913
 9794SOL    HW130281   4.808   4.690   4.834
 9794SOL    HW230282   4.703   4.583   4.898
 9795SOL     OW30283   0.802   3.318   3.762
 9795SOL    HW130284   0.878   3.381   3.746
 9795SOL    HW230285   0.746   3.352   3.838
 9796SOL     OW30286   3.166   3.997   3.509
 9796SOL    HW130287   3.220   4.031   3.432
 9796SOL    HW230288   3.114   4.072   3.550
 9797SOL     OW30289   2.819   6.190   0.035
 9797SOL    HW130290   2.730   6.212   7.019
 9797SOL    HW230291   2.869   6.274   0.055
 9798SOL     OW30292   1.197   3.261   0.952
 9798SOL    HW130293   1.105   3.225   0.936
 9798SOL    HW230294   1.239   3.212   1.029
 9799SOL     OW30295   2.810   6.001   6.849
 9799SOL    HW130296   2.807   6.086   6.902
 9799SOL    HW230297   2.899   5.992   6.805
 9800SOL     OW30298   5.669   2.970   4.113
 9800SOL    HW130299   5.589   2.975   4.054
 9800SOL    HW230300   5.748   2.940   4.060
 9801SOL     OW30301   6.003   4.991   6.316
 9801SOL    HW130302   6.019   4.898   6.349
 9801SOL    HW230303   6.064   5.055   6.364
 9802SOL     OW30304   4.332   5.046   1.407
 9802SOL    HW130305   4.249   4.993   1.388
 9802SOL    HW230306   4.403   5.022   1.341
 9803SOL     OW30307   0.900   3.935   6.307
 9803SOL    HW130308   0.951   4.016   6.336
 9803SOL    HW230309   0.806   3.941   6.340
 9804SOL     OW30310   6.569   5.745   3.141
 9804SOL    HW130311   6.550   5.647   3.148
 9804SOL    HW230312   6.492   5.797   3.178
 9805SOL     OW30313   6.919   6.818   3.806
 9805SOL    HW130314   6.857   6.816   3.727
 9805SOL    HW230315   6.977   6.737   3.804
 9806SOL     OW30316   3.785   2.843   6.346
 9806SOL    HW130317   3.724   2.915   6.314
 9806SOL    HW230318   3.738   2.789   6.416
 9807SOL     OW30319   2.865   3.341   2.097
 9807SOL    HW130320   2.898   3.302   2.011
 9807SOL    HW230321   2.766   3.331   2.103
 9808SOL     OW30322   4.387   6.366   4.114
 9808SOL    HW130323   4.483   6.358   4.087
 9808SOL    HW230324   4.329   6.341   4.037
 9809SOL     OW30325   0.226   2.640   0.493
 9809SOL    HW130326   0.238   2.720   0.435
 9809SOL    HW230327   0.230   2.666   0.589
 9810SOL     OW30328   2.360   1.503   5.880
 9810SOL    HW130329   2.358   1.603   5.888
 9810SOL    HW230330   2.393   1.464   5.966
 9811SOL     OW30331   6.354   3.899   4.048
 9811SOL    HW130332   6.411   3.839   4.105
 9811SOL    HW230333   6.331   3.981   4.101
 9812SOL     OW30334   2.530   6.681   4.470
 9812SOL    HW130335   2.499   6.595   4.509
 9812SOL    HW230336   2.541   6.749   4.543
 9813SOL     OW30337   5.137   2.456   0.523
 9813SOL    HW130338   5.120   2.553   0.542
 9813SOL    HW230339   5.090   2.430   0.438
 9814SOL     OW30340   5.874   1.921   0.155
 9814SOL    HW130341   5.815   1.843   0.139
 9814SOL    HW230342   5.949   1.895   0.215
 9815SOL     OW30343   4.698   2.713   4.445
 9815SOL    HW130344   4.705   2.797   4.391
 9815SOL    HW230345   4.681   2.736   4.541
 9816SOL     OW30346   1.471   0.443   0.393
 9816SOL    HW130347   1.522   0.364   0.428
 9816SOL    HW230348   1.392   0.411   0.342
 9817SOL     OW30349   0.230   0.206   3.447
 9817SOL    HW130350   0.181   0.268   3.509
 9817SOL    HW230351   0.227   0.243   3.354
 9818SOL     OW30352   6.051   2.176   4.526
 9818SOL    HW130353   6.138   2.137   4.496
 9818SOL    HW230354   6.065   2.228   4.611
 9819SOL     OW30355   3.822   1.809   3.394
 9819SOL    HW130356   3.781   1.762   3.473
 9819SOL    HW230357   3.791   1.765   3.310
 9820SOL     OW30358   3.501   4.456   5.732
 9820SOL    HW130359   3.426   4.427   5.672
 9820SOL    HW230360   3.563   4.379   5.749
 9821SOL     OW30361   5.539   5.738   6.822
 9821SOL    HW130362   5.574   5.780   6.738
 9821SOL    HW230363   5.558   5.639   6.819
 9822SOL     OW30364   0.425   6.830   2.853
 9822SOL    HW130365   0.354   6.822   2.783
 9822SOL    HW230366   0.440   6.926   2.874
 9823SOL     OW30367   3.539   0.912   2.533
 9823SOL    HW130368   3.448   0.942   2.562
 9823SOL    HW230369   3.608   0.965   2.583
 9824SOL     OW30370   0.681   4.225   5.334
 9824SOL    HW130371   0.658   4.173   5.251
 9824SOL    HW230372   0.779   4.221   5.350
 9825SOL     OW30373   3.756   4.874   5.757
 9825SOL    HW130374   3.776   4.869   5.659
 9825SOL    HW230375   3.726   4.784   5.790
 9826SOL     OW30376   4.408   5.961   6.276
 9826SOL    HW130377   4.340   5.934   6.208
 9826SOL    HW230378   4.437   6.055   6.258
 9827SOL     OW30379   1.934   4.118   4.691
 9827SOL    HW130380   2.013   4.079   4.739
 9827SOL    HW230381   1.870   4.046   4.668
 9828SOL     OW30382   3.733   2.892   6.688
 9828SOL    HW130383   3.647   2.940   6.671
 9828SOL    HW230384   3.761   2.906   6.783
 9829SOL     OW30385   3.078   6.588   0.736
 9829SOL    HW130386   3.068   6.681   0.773
 9829SOL    HW230387   2.995   6.563   0.687
 9830SOL     OW30388   5.384   1.774   0.875
 9830SOL    HW130389   5.372   1.707   0.801
 9830SOL    HW230390   5.339   1.740   0.958
 9831SOL     OW30391   1.098   6.422   1.187
 9831SOL    HW130392   1.021   6.464   1.235
 9831SOL    HW230393   1.111   6.466   1.098
 9832SOL     OW30394   4.269   5.442   2.593
 9832SOL    HW130395   4.250   5.486   2.681
 9832SOL    HW230396   4.266   5.511   2.521
 9833SOL     OW30397   3.325   3.571   4.914
 9833SOL    HW130398   3.412   3.611   4.942
 9833SOL    HW230399   3.253   3.601   4.978
 9834SOL     OW30400   2.541   3.765   5.532
 9834SOL    HW130401   2.582   3.792   5.445
 9834SOL    HW230402   2.481   3.686   5.516
 9835SOL     OW30403   4.871   1.858   4.270
 9835SOL    HW130404   4.937   1.908   4.326
 9835SOL    HW230405   4.918   1.796   4.209
 9836SOL     OW30406   5.541   3.592   3.194
 9836SOL    HW130407   5.449   3.561   3.167
 9836SOL    HW230408   5.534   3.681   3.238
 9837SOL     OW30409   2.197   0.392   3.695
 9837SOL    HW130410   2.148   0.327   3.637
 9837SOL    HW230411   2.254   0.341   3.761
 9838SOL     OW30412   1.237   6.519   5.990
 9838SOL    HW130413   1.300   6.441   5.993
 9838SOL    HW230414   1.214   6.540   5.895
 9839SOL     OW30415   6.939   1.956   2.041
 9839SOL    HW130416   0.004   1.970   2.086
 9839SOL    HW230417   6.888   2.042   2.041
 9840SOL     OW30418   0.080   0.719   0.511
 9840SOL    HW130419   0.032   0.799   0.549
 9840SOL    HW230420   0.018   0.641   0.510
 9841SOL     OW30421   1.305   4.023   4.949
 9841SOL    HW130422   1.205   4.028   4.958
 9841SOL    HW230423   1.339   3.942   4.995
 9842SOL     OW30424   3.278   3.222   3.373
 9842SOL    HW130425   3.235   3.308   3.399
 9842SOL    HW230426   3.372   3.240   3.342
 9843SOL     OW30427   6.627   2.154   1.238
 9843SOL    HW130428   6.537   2.197   1.250
 9843SOL    HW230429   6.615   2.059   1.209
 9844SOL     OW30430   4.345   0.069   3.003
 9844SOL    HW130431   4.256   0.025   3.017
 9844SOL    HW230432   4.403   0.055   3.083
 9845SOL     OW30433   2.442   1.808   4.955
 9845SOL    HW130434   2.355   1.844   4.987
 9845SOL    HW230435   2.511   1.816   5.027
 9846SOL     OW30436   2.926   3.609   3.314
 9846SOL    HW130437   2.929   3.623   3.215
 9846SOL    HW230438   2.861   3.536   3.335
 9847SOL     OW30439   2.976   2.948   6.122
 9847SOL    HW130440   2.887   2.932   6.164
 9847SOL    HW230441   3.032   2.865   6.129
 9848SOL     OW30442   4.221   2.513   6.552
 9848SOL    HW130443   4.200   2.489   6.457
 9848SOL    HW230444   4.317   2.540   6.559
 9849SOL     OW30445   6.215   0.481   6.700
 9849SOL    HW130446   6.283   0.526   6.642
 9849SOL    HW230447   6.134   0.538   6.709
 9850SOL     OW30448   4.499   6.372   2.448
 9850SOL    HW130449   4.553   6.455   2.460
 9850SOL    HW230450   4.539   6.315   2.376
 9851SOL     OW30451   4.302   1.830   5.264
 9851SOL    HW130452   4.286   1.877   5.177
 9851SOL    HW230453   4.327   1.735   5.246
 9852SOL     OW30454   4.342   1.623   3.346
 9852SOL    HW130455   4.407   1.571   3.402
 9852SOL    HW230456   4.373   1.718   3.339
 9853SOL     OW30457   5.149   3.731   2.451
 9853SOL    HW130458   5.133   3.829   2.456
 9853SOL    HW230459   5.062   3.684   2.434
 9854SOL     OW30460   6.270   5.112   5.139
 9854SOL    HW130461   6.283   5.086   5.044
 9854SOL    HW230462   6.213   5.044   5.185
 9855SOL     OW30463   0.661   4.383   1.514
 9855SOL    HW130464   0.634   4.391   1.418
 9855SOL    HW230465   0.759   4.395   1.523
 9856SOL     OW30466   4.064   4.407   0.241
 9856SOL    HW130467   4.019   4.441   0.324
 9856SOL    HW230468   4.130   4.474   0.209
 9857SOL     OW30469   5.089   1.550   3.039
 9857SOL    HW130470   5.050   1.458   3.044
 9857SOL    HW230471   5.188   1.544   3.052
 9858SOL     OW30472   5.298   0.393   1.666
 9858SOL    HW130473   5.387   0.386   1.620
 9858SOL    HW230474   5.226   0.360   1.604
 9859SOL     OW30475   6.721   0.038   1.786
 9859SOL    HW130476   6.806   0.040   1.840
 9859SOL    HW230477   6.719   6.977   1.731
 9860SOL     OW30478   0.499   1.419   1.746
 9860SOL    HW130479   0.464   1.327   1.729
 9860SOL    HW230480   0.425   1.476   1.782
 9861SOL     OW30481   3.469   6.761   4.687
 9861SOL    HW130482   3.384   6.792   4.731
 9861SOL    HW230483   3.522   6.841   4.660
 9862SOL     OW30484   2.539   3.338   0.415
 9862SOL    HW130485   2.620   3.342   0.474
 9862SOL    HW230486   2.553   3.398   0.336
 9863SOL     OW30487   2.642   0.001   2.946
 9863SOL    HW130488   2.669   0.093   2.974
 9863SOL    HW230489   2.701   6.992   2.872
 9864SOL     OW30490   4.102   6.166   3.573
 9864SOL    HW130491   4.154   6.113   3.506
 9864SOL    HW230492   4.148   6.254   3.589
 9865SOL     OW30493   0.872   1.110   3.266
 9865SOL    HW130494   0.918   1.196   3.243
 9865SOL    HW230495   0.920   1.035   3.221
 9866SOL     OW30496   5.015   4.378   4.668
 9866SOL    HW130497   4.992   4.357   4.763
 9866SOL    HW230498   4.933   4.404   4.618
 9867SOL     OW30499   4.177   1.048   0.746
 9867SOL    HW130500   4.195   1.142   0.719
 9867SOL    HW230501   4.120   1.048   0.828
 9868SOL     OW30502   1.424   5.048   6.184
 9868SOL    HW130503   1.463   5.140   6.194
 9868SOL    HW230504   1.401   5.013   6.275
 9869SOL     OW30505   1.871   4.074   3.489
 9869SOL    HW130506   1.931   4.134   3.437
 9869SOL    HW230507   1.861   4.109   3.582
 9870SOL     OW30508   4.303   5.845   2.194
 9870SOL    HW130509   4.367   5.913   2.230
 9870SOL    HW230510   4.321   5.757   2.238
 9871SOL     OW30511   0.996   6.637   6.060
 9871SOL    HW130512   0.948   6.648   6.147
 9871SOL    HW230513   1.080   6.584   6.075
 9872SOL     OW30514   2.601   5.041   2.987
 9872SOL    HW130515   2.617   5.025   2.890
 9872SOL    HW230516   2.606   4.953   3.036
 9873SOL     OW30517   2.338   2.600   1.203
 9873SOL    HW130518   2.359   2.545   1.122
 9873SOL    HW230519   2.282   2.547   1.267
 9874SOL     OW30520   0.841   1.982   4.416
 9874SOL    HW130521   0.827   2.008   4.511
 9874SOL    HW230522   0.937   1.956   4.402
 9875SOL     OW30523   0.186   0.474   2.164
 9875SOL    HW130524   0.149   0.381   2.163
 9875SOL    HW230525   0.227   0.493   2.253
 9876SOL     OW30526   6.935   0.640   2.531
 9876SOL    HW130527   0.008   0.616   2.549
 9876SOL    HW230528   6.903   0.705   2.600
 9877SOL     OW30529   1.599   5.796   2.560
 9877SOL    HW130530   1.631   5.707   2.528
 9877SOL    HW230531   1.676   5.847   2.598
 9878SOL     OW30532   2.441   5.428   5.384
 9878SOL    HW130533   2.448   5.501   5.452
 9878SOL    HW230534   2.492   5.454   5.302
 9879SOL     OW30535   5.716   5.356   4.531
 9879SOL    HW130536   5.678   5.272   4.491
 9879SOL    HW230537   5.644   5.407   4.576
 9880SOL     OW30538   1.479   2.890   5.136
 9880SOL    HW130539   1.457   2.898   5.233
 9880SOL    HW230540   1.440   2.968   5.087
 9881SOL     OW30541   1.890   2.474   5.194
 9881SOL    HW130542   1.982   2.505   5.167
 9881SOL    HW230543   1.827   2.551   5.191
 9882SOL     OW30544   1.690   2.094   3.582
 9882SOL    HW130545   1.671   2.161   3.511
 9882SOL    HW230546   1.748   2.135   3.652
 9883SOL     OW30547   0.749   6.119   0.856
 9883SOL    HW130548   0.693   6.154   0.781
 9883SOL    HW230549   0.735   6.176   0.937
 9884SOL     OW30550   4.101   1.582   3.525
 9884SOL    HW130551   4.187   1.617   3.488
 9884SOL    HW230552   4.046   1.658   3.560
 9885SOL     OW30553   0.481   3.489   5.476
 9885SOL    HW130554   0.555   3.446   5.424
 9885SOL    HW230555   0.402   3.428   5.479
 9886SOL     OW30556   0.577   4.722   2.161
 9886SOL    HW130557   0.634   4.650   2.200
 9886SOL    HW230558   0.565   4.795   2.229
 9887SOL     OW30559   4.095   1.307   5.919
 9887SOL    HW130560   4.020   1.243   5.931
 9887SOL    HW230561   4.061   1.401   5.925
 9888SOL     OW30562   0.494   4.164   1.023
 9888SOL    HW130563   0.445   4.131   1.104
 9888SOL    HW230564   0.428   4.200   0.957
 9889SOL     OW30565   6.440   5.149   0.821
 9889SOL    HW130566   6.484   5.236   0.800
 9889SOL    HW230567   6.411   5.106   0.735
 9890SOL     OW30568   1.834   2.160   0.338
 9890SOL    HW130569   1.748   2.150   0.389
 9890SOL    HW230570   1.907   2.112   0.387
 9891SOL     OW30571   5.747   3.082   0.774
 9891SOL    HW130572   5.830   3.095   0.827
 9891SOL    HW230573   5.675   3.046   0.834
 9892SOL     OW30574   6.587   6.148   0.137
 9892SOL    HW130575   6.596   6.192   0.048
 9892SOL    HW230576   6.503   6.093   0.138
 9893SOL     OW30577   1.504   0.568   0.785
 9893SOL    HW130578   1.429   0.516   0.826
 9893SOL    HW230579   1.570   0.505   0.744
 9894SOL     OW30580   1.994   2.057   1.213
 9894SOL    HW130581   2.010   2.132   1.148
 9894SOL    HW230582   1.899   2.058   1.242
 9895SOL     OW30583   5.213   3.143   5.182
 9895SOL    HW130584   5.204   3.230   5.231
 9895SOL    HW230585   5.225   3.161   5.084
 9896SOL     OW30586   5.998   0.128   6.303
 9896SOL    HW130587   6.098   0.129   6.296
 9896SOL    HW230588   5.969   0.183   6.381
 9897SOL     OW30589   5.716   5.690   3.043
 9897SOL    HW130590   5.732   5.667   3.139
 9897SOL    HW230591   5.698   5.788   3.034
 9898SOL     OW30592   2.666   5.951   6.319
 9898SOL    HW130593   2.691   5.862   6.358
 9898SOL    HW230594   2.700   6.024   6.378
 9899SOL     OW30595   0.161   5.811   0.582
 9899SOL    HW130596   0.146   5.878   0.509
 9899SOL    HW230597   0.212   5.853   0.657
 9900SOL     OW30598   1.351   4.117   3.878
 9900SOL    HW130599   1.296   4.145   3.799
 9900SOL    HW230600   1.410   4.193   3.906
 9901SOL     OW30601   2.983   1.591   6.066
 9901SOL    HW130602   3.001   1.493   6.072
 9901SOL    HW230603   2.912   1.608   5.998
 9902SOL     OW30604   2.867   5.085   0.263
 9902SOL    HW130605   2.849   4.998   0.217
 9902SOL    HW230606   2.912   5.148   0.199
 9903SOL     OW30607   5.290   1.053   1.980
 9903SOL    HW130608   5.322   0.975   1.926
 9903SOL    HW230609   5.208   1.027   2.031
 9904SOL     OW30610   1.159   3.179   6.933
 9904SOL    HW130611   1.061   3.193   6.921
 9904SOL    HW230612   1.206   3.195   6.847
 9905SOL     OW30613   3.421   0.979   0.174
 9905SOL    HW130614   3.430   0.889   0.130
 9905SOL    HW230615   3.505   1.000   0.224
 9906SOL     OW30616   3.142   3.395   1.625
 9906SOL    HW130617   3.126   3.383   1.722
 9906SOL    HW230618   3.211   3.330   1.593
 9907SOL     OW30619   6.575   1.021   0.325
 9907SOL    HW130620   6.598   0.940   0.272
 9907SOL    HW230621   6.556   1.097   0.263
 9908SOL     OW30622   5.367   1.850   3.807
 9908SOL    HW130623   5.357   1.816   3.900
 9908SOL    HW230624   5.461   1.882   3.794
 9909SOL     OW30625   3.802   0.052   3.957
 9909SOL    HW130626   3.848   0.140   3.971
 9909SOL    HW230627   3.799   0.032   3.859
 9910SOL     OW30628   0.516   3.695   2.217
 9910SOL    HW130629   0.518   3.749   2.133
 9910SOL    HW230630   0.425   3.700   2.259
 9911SOL     OW30631   3.239   6.741   2.152
 9911SOL    HW130632   3.151   6.726   2.196
 9911SOL    HW230633   3.285   6.818   2.195
 9912SOL     OW30634   3.693   1.686   2.075
 9912SOL    HW130635   3.682   1.691   2.174
 9912SOL    HW230636   3.603   1.690   2.031
 9913SOL     OW30637   6.315   4.243   0.375
 9913SOL    HW130638   6.328   4.342   0.382
 9913SOL    HW230639   6.298   4.206   0.467
 9914SOL     OW30640   5.513   2.837   5.180
 9914SOL    HW130641   5.485   2.828   5.275
 9914SOL    HW230642   5.552   2.750   5.149
 9915SOL     OW30643   5.200   0.690   3.360
 9915SOL    HW130644   5.216   0.762   3.428
 9915SOL    HW230645   5.281   0.680   3.303
 9916SOL     OW30646   2.209   3.147   3.071
 9916SOL    HW130647   2.142   3.198   3.126
 9916SOL    HW230648   2.216   3.054   3.106
 9917SOL     OW30649   5.790   3.919   6.954
 9917SOL    HW130650   5.726   3.985   6.993
 9917SOL    HW230651   5.791   3.836   7.009
 9918SOL     OW30652   3.244   1.560   3.248
 9918SOL    HW130653   3.256   1.508   3.333
 9918SOL    HW230654   3.148   1.555   3.220
 9919SOL     OW30655   5.945   5.322   1.220
 9919SOL    HW130656   5.857   5.360   1.188
 9919SOL    HW230657   6.013   5.331   1.148
 9920SOL     OW30658   4.685   1.887   1.806
 9920SOL    HW130659   4.597   1.862   1.847
 9920SOL    HW230660   4.716   1.974   1.843
 9921SOL     OW30661   4.869   5.897   6.543
 9921SOL    HW130662   4.952   5.842   6.536
 9921SOL    HW230663   4.880   5.965   6.615
 9922SOL     OW30664   1.747   4.835   0.546
 9922SOL    HW130665   1.710   4.899   0.478
 9922SOL    HW230666   1.680   4.820   0.618
 9923SOL     OW30667   4.924   4.668   6.910
 9923SOL    HW130668   5.023   4.676   6.924
 9923SOL    HW230669   4.876   4.696   6.992
 9924SOL     OW30670   6.828   2.411   5.005
 9924SOL    HW130671   6.875   2.499   5.012
 9924SOL    HW230672   6.835   2.363   5.092
 9925SOL     OW30673   6.671   3.781   4.005
 9925SOL    HW130674   6.590   3.772   4.062
 9925SOL    HW230675   6.750   3.802   4.063
 9926SOL     OW30676   2.854   3.179   0.328
 9926SOL    HW130677   2.931   3.237   0.303
 9926SOL    HW230678   2.862   3.151   0.423
 9927SOL     OW30679   0.035   0.287   1.262
 9927SOL    HW130680   0.121   0.248   1.296
 9927SOL    HW230681   0.055   0.348   1.185
 9928SOL     OW30682   4.998   6.310   1.977
 9928SOL    HW130683   5.074   6.246   1.976
 9928SOL    HW230684   4.913   6.261   1.959
 9929SOL     OW30685   2.317   5.203   4.646
 9929SOL    HW130686   2.396   5.149   4.675
 9929SOL    HW230687   2.233   5.157   4.677
 9930SOL     OW30688   6.315   0.006   5.107
 9930SOL    HW130689   6.307   6.932   5.132
 9930SOL    HW230690   6.396   0.019   5.048
 9931SOL     OW30691   0.933   4.889   4.886
 9931SOL    HW130692   0.933   4.944   4.969
 9931SOL    HW230693   0.990   4.808   4.899
 9932SOL     OW30694   1.834   5.213   6.852
 9932SOL    HW130695   1.840   5.119   6.819
 9932SOL    HW230696   1.871   5.218   6.945
 9933SOL     OW30697   1.294   5.174   2.902
 9933SOL    HW130698   1.289   5.147   2.806
 9933SOL    HW230699   1.345   5.260   2.909
 9934SOL     OW30700   6.054   1.257   5.281
 9934SOL    HW130701   6.074   1.175   5.227
 9934SOL    HW230702   5.961   1.252   5.317
 9935SOL     OW30703   3.206   0.180   6.929
 9935SOL    HW130704   3.143   0.238   6.980
 9935SOL    HW230705   3.245   0.111   6.990
 9936SOL     OW30706   6.841   5.148   6.003
 9936SOL    HW130707   6.922   5.105   5.965
 9936SOL    HW230708   6.772   5.078   6.021
 9937SOL     OW30709   6.842   1.932   6.143
 9937SOL    HW130710   6.814   1.993   6.217
 9937SOL    HW230711   6.781   1.946   6.064
 9938SOL     OW30712   6.779   5.281   3.045
 9938SOL    HW130713   6.758   5.191   3.083
 9938SOL    HW230714   6.875   5.304   3.063
 9939SOL     OW30715   3.725   2.203   0.400
 9939SOL    HW130716   3.811   2.213   0.349
 9939SOL    HW230717   3.649   2.231   0.342
 9940SOL     OW30718   0.941   1.033   0.844
 9940SOL    HW130719   0.883   1.063   0.768
 9940SOL    HW230720   0.892   1.047   0.930
 9941SOL     OW30721   3.133   3.670   5.088
 9941SOL    HW130722   3.084   3.664   5.175
 9941SOL    HW230723   3.144   3.766   5.063
 9942SOL     OW30724   2.180   5.030   2.660
 9942SOL    HW130725   2.232   4.986   2.733
 9942SOL    HW230726   2.229   5.020   2.574
 9943SOL     OW30727   6.999   5.888   5.318
 9943SOL    HW130728   0.016   5.822   5.254
 9943SOL    HW230729   0.015   5.873   5.409
 9944SOL     OW30730   2.060   4.970   5.954
 9944SOL    HW130731   2.131   4.986   5.885
 9944SOL    HW230732   1.981   5.028   5.934
 9945SOL     OW30733   6.209   5.523   6.986
 9945SOL    HW130734   6.283   5.463   6.957
 9945SOL    HW230735   6.238   5.575   0.044
 9946SOL     OW30736   4.909   1.093   4.775
 9946SOL    HW130737   4.908   1.189   4.805
 9946SOL    HW230738   4.887   1.034   4.852
 9947SOL     OW30739   1.222   3.756   5.354
 9947SOL    HW130740   1.166   3.802   5.285
 9947SOL    HW230741   1.311   3.800   5.359
 9948SOL     OW30742   5.501   4.690   4.016
 9948SOL    HW130743   5.460   4.656   3.931
 9948SOL    HW230744   5.561   4.619   4.054
 9949SOL     OW30745   5.449   5.466   3.404
 9949SOL    HW130746   5.456   5.432   3.310
 9949SOL    HW230747   5.363   5.514   3.416
 9950SOL     OW30748   5.690   5.792   5.211
 9950SOL    HW130749   5.705   5.890   5.200
 9950SOL    HW230750   5.745   5.758   5.287
 9951SOL     OW30751   5.921   1.556   4.520
 9951SOL    HW130752   5.851   1.508   4.468
 9951SOL    HW230753   5.971   1.618   4.459
 9952SOL     OW30754   0.253   3.271   0.750
 9952SOL    HW130755   0.203   3.271   0.836
 9952SOL    HW230756   0.320   3.345   0.749
 9953SOL     OW30757   6.238   2.604   3.928
 9953SOL    HW130758   6.212   2.701   3.933
 9953SOL    HW230759   6.285   2.578   4.012
 9954SOL     OW30760   5.516   6.130   6.207
 9954SOL    HW130761   5.498   6.165   6.116
 9954SOL    HW230762   5.523   6.206   6.272
 9955SOL     OW30763   6.329   3.284   5.108
 9955SOL    HW130764   6.309   3.187   5.094
 9955SOL    HW230765   6.273   3.338   5.044
 9956SOL     OW30766   2.144   0.234   1.544
 9956SOL    HW130767   2.213   0.280   1.600
 9956SOL    HW230768   2.059   0.286   1.547
 9957SOL     OW30769   5.521   5.271   2.468
 9957SOL    HW130770   5.442   5.211   2.454
 9957SOL    HW230771   5.554   5.302   2.379
 9958SOL     OW30772   3.009   5.301   0.415
 9958SOL    HW130773   3.005   5.267   0.509
 9958SOL    HW230774   3.010   5.224   0.352
 9959SOL     OW30775   4.048   3.630   5.557
 9959SOL    HW130776   4.092   3.719   5.557
 9959SOL    HW230777   4.044   3.595   5.463
 9960SOL     OW30778   6.914   0.394   2.138
 9960SOL    HW130779   6.984   0.331   2.170
 9960SOL    HW230780   6.918   0.478   2.192
 9961SOL     OW30781   1.962   6.443   3.911
 9961SOL    HW130782   2.036   6.509   3.906
 9961SOL    HW230783   1.907   6.460   3.993
 9962SOL     OW30784   6.695   6.889   2.884
 9962SOL    HW130785   6.739   6.932   2.962
 9962SOL    HW230786   6.707   6.945   2.802
 9963SOL     OW30787   3.156   3.199   6.668
 9963SOL    HW130788   3.158   3.124   6.601
 9963SOL    HW230789   3.100   3.274   6.632
 9964SOL     OW30790   4.459   5.365   4.832
 9964SOL    HW130791   4.429   5.294   4.895
 9964SOL    HW230792   4.395   5.370   4.755
 9965SOL     OW30793   3.778   6.870   6.604
 9965SOL    HW130794   3.870   6.858   6.642
 9965SOL    HW230795   3.726   6.785   6.616
 9966SOL     OW30796   1.052   5.151   1.510
 9966SOL    HW130797   1.097   5.069   1.544
 9966SOL    HW230798   0.953   5.137   1.509
 9967SOL     OW30799   0.205   5.863   2.573
 9967SOL    HW130800   0.202   5.835   2.477
 9967SOL    HW230801   0.239   5.788   2.629
 9968SOL     OW30802   3.532   4.201   1.764
 9968SOL    HW130803   3.537   4.301   1.768
 9968SOL    HW230804   3.581   4.168   1.683
 9969SOL     OW30805   1.953   3.888   2.271
 9969SOL    HW130806   2.026   3.936   2.222
 9969SOL    HW230807   1.968   3.789   2.267
 9970SOL     OW30808   4.964   4.492   2.412
 9970SOL    HW130809   4.994   4.479   2.318
 9970SOL    HW230810   4.892   4.562   2.415
 9971SOL     OW30811   1.981   4.962   1.150
 9971SOL    HW130812   1.973   4.876   1.199
 9971SOL    HW230813   2.067   5.007   1.177
 9972SOL     OW30814   5.795   4.696   0.934
 9972SOL    HW130815   5.765   4.792   0.934
 9972SOL    HW230816   5.746   4.646   1.005
 9973SOL     OW30817   5.742   1.739   3.194
 9973SOL    HW130818   5.759   1.643   3.173
 9973SOL    HW230819   5.762   1.756   3.290
 9974SOL     OW30820   0.878   2.337   2.404
 9974SOL    HW130821   0.890   2.273   2.480
 9974SOL    HW230822   0.795   2.391   2.419
 9975SOL     OW30823   6.099   3.286   0.405
 9975SOL    HW130824   6.020   3.248   0.357
 9975SOL    HW230825   6.071   3.369   0.454
 9976SOL     OW30826   1.193   5.861   5.221
 9976SOL    HW130827   1.114   5.817   5.262
 9976SOL    HW230828   1.267   5.795   5.210
 9977SOL     OW30829   5.951   5.708   5.371
 9977SOL    HW130830   5.956   5.782   5.439
 9977SOL    HW230831   6.012   5.729   5.295
 9978SOL     OW30832   0.960   2.623   4.874
 9978SOL    HW130833   0.863   2.601   4.869
 9978SOL    HW230834   0.984   2.683   4.797
 9979SOL     OW30835   6.283   4.185   5.147
 9979SOL    HW130836   6.246   4.128   5.073
 9979SOL    HW230837   6.218   4.258   5.167
 9980SOL     OW30838   2.546   6.592   0.140
 9980SOL    HW130839   2.460   6.641   0.156
 9980SOL    HW230840   2.619   6.659   0.123
 9981SOL     OW30841   2.609   1.936   3.337
 9981SOL    HW130842   2.619   2.019   3.391
 9981SOL    HW230843   2.542   1.876   3.379
 9982SOL     OW30844   6.240   5.263   3.898
 9982SOL    HW130845   6.275   5.266   3.991
 9982SOL    HW230846   6.242   5.169   3.864
 9983SOL     OW30847   0.097   1.698   2.878
 9983SOL    HW130848   0.166   1.715   2.949
 9983SOL    HW230849   0.126   1.622   2.820
 9984SOL     OW30850   2.587   1.724   0.145
 9984SOL    HW130851   2.579   1.814   0.102
 9984SOL    HW230852   2.572   1.653   0.076
 9985SOL     OW30853   2.056   0.766   0.705
 9985SOL    HW130854   2.015   0.688   0.657
 9985SOL    HW230855   2.102   0.735   0.788
 9986SOL     OW30856   6.501   3.899   5.809
 9986SOL    HW130857   6.560   3.857   5.739
 9986SOL    HW230858   6.512   3.851   5.896
 9987SOL     OW30859   5.425   3.184   5.672
 9987SOL    HW130860   5.454   3.194   5.768
 9987SOL    HW230861   5.397   3.274   5.637
 9988SOL     OW30862   0.288   6.230   4.741
 9988SOL    HW130863   0.346   6.233   4.823
 9988SOL    HW230864   0.311   6.149   4.687
 9989SOL     OW30865   6.712   2.975   3.478
 9989SOL    HW130866   6.616   2.974   3.449
 9989SOL    HW230867   6.763   2.909   3.423
 9990SOL     OW30868   1.336   5.760   3.666
 9990SOL    HW130869   1.302   5.729   3.577
 9990SOL    HW230870   1.266   5.816   3.710
 9991SOL     OW30871   3.037   2.119   4.812
 9991SOL    HW130872   3.103   2.104   4.738
 9991SOL    HW230873   3.085   2.155   4.892
 9992SOL     OW30874   5.917   5.020   6.817
 9992SOL    HW130875   5.833   4.967   6.835
 9992SOL    HW230876   5.916   5.103   6.872
 9993SOL     OW30877   2.826   1.442   0.992
 9993SOL    HW130878   2.797   1.461   0.898
 9993SOL    HW230879   2.926   1.436   0.995
 9994SOL     OW30880   6.049   4.346   2.977
 9994SOL    HW130881   6.099   4.333   3.063
 9994SOL    HW230882   5.958   4.305   2.985
 9995SOL     OW30883   4.758   1.317   3.850
 9995SOL    HW130884   4.674   1.365   3.826
 9995SOL    HW230885   4.767   1.314   3.950
 9996SOL     OW30886   2.852   4.356   0.012
 9996SOL    HW130887   2.930   4.312   6.990
 9996SOL    HW230888   2.858   4.341   0.111
 9997SOL     OW30889   3.587   1.308   6.047
 9997SOL    HW130890   3.623   1.254   6.122
 9997SOL    HW230891   3.663   1.340   5.990
 9998SOL     OW30892   5.868   5.108   5.022
 9998SOL    HW130893   5.932   5.182   5.043
 9998SOL    HW230894   5.805   5.096   5.099
 9999SOL     OW30895   6.304   2.718   5.885
 9999SOL    HW130896   6.327   2.815   5.895
 9999SOL    HW230897   6.307   2.673   5.974
10000SOL     OW30898   6.221   3.003   0.074
10000SOL    HW130899   6.142   3.060   0.098
10000SOL    HW230900   6.304   3.058   0.083
10001SOL     OW30901   4.687   0.452   2.036
10001SOL    HW130902   4.758   0.448   1.966
10001SOL    HW230903   4.626   0.529   2.018
10002SOL     OW30904   1.444   6.409   1.966
10002SOL    HW130905   1.435   6.317   2.005
10002SOL    HW230906   1.409   6.476   2.032
10003SOL     OW30907   3.297   2.137   3.903
10003SOL    HW130908   3.340   2.150   3.992
10003SOL    HW230909   3.367   2.130   3.832
10004SOL     OW30910   6.608   2.611   4.164
10004SOL    HW130911   6.511   2.587   4.170
10004SOL    HW230912   6.641   2.640   4.254
10005SOL     OW30913   5.432   0.428   3.549
10005SOL    HW130914   5.470   0.429   3.641
10005SOL    HW230915   5.347   0.481   3.547
10006SOL     OW30916   4.131   6.984   4.164
10006SOL    HW130917   4.126   6.884   4.155
10006SOL    HW230918   4.219   7.009   4.203
10007SOL     OW30919   0.027   3.920   4.920
10007SOL    HW130920   0.084   3.997   4.949
10007SOL    HW230921   6.954   3.948   4.920
10008SOL     OW30922   3.681   0.920   4.677
10008SOL    HW130923   3.643   0.857   4.608
10008SOL    HW230924   3.765   0.880   4.715
10009SOL     OW30925   1.591   4.188   2.243
10009SOL    HW130926   1.602   4.101   2.195
10009SOL    HW230927   1.659   4.195   2.316
10010SOL     OW30928   2.307   1.111   6.838
10010SOL    HW130929   2.258   1.034   6.880
10010SOL    HW230930   2.396   1.122   6.882
10011SOL     OW30931   6.786   0.618   5.387
10011SOL    HW130932   6.702   0.624   5.333
10011SOL    HW230933   6.804   0.522   5.410
10012SOL     OW30934   6.405   1.020   3.179
10012SOL    HW130935   6.363   0.956   3.244
10012SOL    HW230936   6.430   1.104   3.227
10013SOL     OW30937   0.463   1.251   2.807
10013SOL    HW130938   0.522   1.237   2.727
10013SOL    HW230939   0.518   1.280   2.885
10014SOL     OW30940   0.533   4.421   6.278
10014SOL    HW130941   0.516   4.344   6.340
10014SOL    HW230942   0.534   4.388   6.184
10015SOL     OW30943   1.897   5.202   0.909
10015SOL    HW130944   1.808   5.237   0.883
10015SOL    HW230945   1.913   5.113   0.865
10016SOL     OW30946   1.820   1.191   6.298
10016SOL    HW130947   1.846   1.096   6.280
10016SOL    HW230948   1.727   1.194   6.334
10017SOL     OW30949   2.821   2.279   4.764
10017SOL    HW130950   2.828   2.379   4.762
10017SOL    HW230951   2.911   2.240   4.786
10018SOL     OW30952   5.649   6.982   6.614
10018SOL    HW130953   5.617   7.018   6.526
10018SOL    HW230954   5.591   7.015   6.688
10019SOL     OW30955   1.096   1.301   3.210
10019SOL    HW130956   1.149   1.373   3.164
10019SOL    HW230957   1.159   1.239   3.257
10020SOL     OW30958   1.573   2.817   1.876
10020SOL    HW130959   1.645   2.781   1.935
10020SOL    HW230960   1.504   2.746   1.860
10021SOL     OW30961   6.916   3.553   0.613
10021SOL    HW130962   6.989   3.494   0.577
10021SOL    HW230963   6.905   3.536   0.711
10022SOL     OW30964   1.995   1.313   6.494
10022SOL    HW130965   1.975   1.289   6.589
10022SOL    HW230966   1.920   1.283   6.435
10023SOL     OW30967   6.603   4.256   0.830
10023SOL    HW130968   6.552   4.301   0.903
10023SOL    HW230969   6.542   4.236   0.754
10024SOL     OW30970   1.225   5.530   3.789
10024SOL    HW130971   1.166   5.537   3.869
10024SOL    HW230972   1.254   5.621   3.761
10025SOL     OW30973   2.229   0.551   1.427
10025SOL    HW130974   2.154   0.606   1.464
10025SOL    HW230975   2.303   0.547   1.494
10026SOL     OW30976   5.684   0.245   3.492
10026SOL    HW130977   5.776   0.270   3.461
10026SOL    HW230978   5.617   0.305   3.448
10027SOL     OW30979   5.483   3.326   4.236
10027SOL    HW130980   5.524   3.286   4.318
10027SOL    HW230981   5.487   3.426   4.241
10028SOL     OW30982   1.907   0.866   0.457
10028SOL    HW130983   1.952   0.814   0.530
10028SOL    HW230984   1.811   0.882   0.481
10029SOL     OW30985   5.344   1.735   3.415
10029SOL    HW130986   5.428   1.692   3.448
10029SOL    HW230987   5.367   1.809   3.351
10030SOL     OW30988   2.057   0.918   4.069
10030SOL    HW130989   1.973   0.887   4.024
10030SOL    HW230990   2.133   0.862   4.037
10031SOL     OW30991   5.016   4.537   3.281
10031SOL    HW130992   5.017   4.485   3.196
10031SOL    HW230993   5.002   4.475   3.358
10032SOL     OW30994   2.442   2.221   5.303
10032SOL    HW130995   2.537   2.190   5.296
10032SOL    HW230996   2.439   2.307   5.354
10033SOL     OW30997   6.023   2.860   4.118
10033SOL    HW130998   5.980   2.897   4.036
10033SOL    HW230999   6.120   2.885   4.119
10034SOL     OW31000   3.872   0.270   5.075
10034SOL    HW131001   3.829   0.344   5.127
10034SOL    HW231002   3.875   0.188   5.131
10035SOL     OW31003   6.577   4.811   1.880
10035SOL    HW131004   6.640   4.738   1.905
10035SOL    HW231005   6.624   4.875   1.818
10036SOL     OW31006   6.707   1.735   6.891
10036SOL    HW131007   6.737   1.646   6.927
10036SOL    HW231008   6.783   1.779   6.845
10037SOL     OW31009   0.007   0.326   6.230
10037SOL    HW131010   0.022   0.236   6.269
10037SOL    HW231011   0.058   0.394   6.283
10038SOL     OW31012   6.750   6.827   1.670
10038SOL    HW131013   6.844   6.799   1.649
10038SOL    HW231014   6.690   6.747   1.665
10039SOL     OW31015   2.963   0.760   3.776
10039SOL    HW131016   2.869   0.793   3.781
10039SOL    HW231017   3.014   0.812   3.708
10040SOL     OW31018   6.567   3.587   0.623
10040SOL    HW131019   6.554   3.686   0.622
10040SOL    HW231020   6.485   3.542   0.586
10041SOL     OW31021   2.984   6.732   0.268
10041SOL    HW131022   3.069   6.683   0.285
10041SOL    HW231023   2.974   6.806   0.334
10042SOL     OW31024   6.787   2.279   2.692
10042SOL    HW131025   6.756   2.220   2.618
10042SOL    HW231026   6.886   2.271   2.701
10043SOL     OW31027   0.231   1.675   5.985
10043SOL    HW131028   0.139   1.636   5.987
10043SOL    HW231029   0.232   1.753   5.922
10044SOL     OW31030   2.735   2.321   5.828
10044SOL    HW131031   2.655   2.263   5.845
10044SOL    HW231032   2.760   2.315   5.732
10045SOL     OW31033   4.172   0.918   0.470
10045SOL    HW131034   4.215   0.936   0.559
10045SOL    HW231035   4.232   0.861   0.415
10046SOL     OW31036   0.995   4.896   1.248
10046SOL    HW131037   0.982   4.991   1.220
10046SOL    HW231038   1.087   4.884   1.286
10047SOL     OW31039   0.533   3.211   6.757
10047SOL    HW131040   0.618   3.262   6.745
10047SOL    HW231041   0.552   3.124   6.803
10048SOL     OW31042   6.182   6.633   2.602
10048SOL    HW131043   6.115   6.591   2.541
10048SOL    HW231044   6.257   6.569   2.618
10049SOL     OW31045   6.987   1.903   5.462
10049SOL    HW131046   6.941   1.814   5.458
10049SOL    HW231047   0.063   1.889   5.464
10050SOL     OW31048   5.678   3.371   5.520
10050SOL    HW131049   5.698   3.299   5.586
10050SOL    HW231050   5.589   3.412   5.541
10051SOL     OW31051   0.594   4.163   4.088
10051SOL    HW131052   0.614   4.257   4.063
10051SOL    HW231053   0.619   4.102   4.013
10052SOL     OW31054   1.148   0.460   3.490
10052SOL    HW131055   1.127   0.469   3.587
10052SOL    HW231056   1.246   0.439   3.478
10053SOL     OW31057   4.980   5.434   4.818
10053SOL    HW131058   4.921   5.359   4.789
10053SOL    HW231059   4.943   5.521   4.784
10054SOL     OW31060   5.175   3.916   4.392
10054SOL    HW131061   5.205   3.889   4.300
10054SOL    HW231062   5.176   4.016   4.398
10055SOL     OW31063   0.161   1.661   6.956
10055SOL    HW131064   0.113   1.696   0.013
10055SOL    HW231065   0.135   1.713   6.875
10056SOL     OW31066   5.229   3.002   3.064
10056SOL    HW131067   5.134   2.969   3.057
10056SOL    HW231068   5.242   3.046   3.153
10057SOL     OW31069   5.788   4.892   6.156
10057SOL    HW131070   5.862   4.903   6.222
10057SOL    HW231071   5.705   4.863   6.203
10058SOL     OW31072   6.123   3.449   4.994
10058SOL    HW131073   6.062   3.403   4.930
10058SOL    HW231074   6.115   3.548   4.983
10059SOL     OW31075   0.027   0.811   6.657
10059SOL    HW131076   0.020   0.846   6.564
10059SOL    HW231077   0.124   0.798   6.680
10060SOL     OW31078   2.492   1.964   2.826
10060SOL    HW131079   2.526   1.962   2.920
10060SOL    HW231080   2.498   2.057   2.790
10061SOL     OW31081   3.892   0.129   3.061
10061SOL    HW131082   3.926   0.037   3.044
10061SOL    HW231083   3.868   0.173   2.975
10062SOL     OW31084   0.185   0.115   4.015
10062SOL    HW131085   0.187   0.071   4.105
10062SOL    HW231086   0.170   0.213   4.027
10063SOL     OW31087   1.677   3.089   4.837
10063SOL    HW131088   1.595   3.049   4.878
10063SOL    HW231089   1.699   3.175   4.883
10064SOL     OW31090   2.788   6.564   0.650
10064SOL    HW131091   2.748   6.646   0.690
10064SOL    HW231092   2.743   6.483   0.687
10065SOL     OW31093   0.684   1.906   2.079
10065SOL    HW131094   0.734   1.977   2.128
10065SOL    HW231095   0.713   1.816   2.112
10066SOL     OW31096   6.714   3.577   4.375
10066SOL    HW131097   6.742   3.537   4.288
10066SOL    HW231098   6.615   3.570   4.386
10067SOL     OW31099   6.729   2.048   4.850
10067SOL    HW131100   6.735   2.117   4.777
10067SOL    HW231101   6.678   1.969   4.817
10068SOL     OW31102   2.501   2.214   2.705
10068SOL    HW131103   2.570   2.266   2.655
10068SOL    HW231104   2.428   2.277   2.734
10069SOL     OW31105   3.095   5.382   1.503
10069SOL    HW131106   3.012   5.385   1.446
10069SOL    HW231107   3.175   5.368   1.444
10070SOL     OW31108   3.725   5.752   5.509
10070SOL    HW131109   3.737   5.772   5.411
10070SOL    HW231110   3.640   5.702   5.523
10071SOL     OW31111   6.375   0.244   3.399
10071SOL    HW131112   6.445   0.240   3.328
10071SOL    HW231113   6.382   0.162   3.457
10072SOL     OW31114   6.766   2.215   2.180
10072SOL    HW131115   6.792   2.308   2.207
10072SOL    HW231116   6.693   2.220   2.112
10073SOL     OW31117   6.426   4.212   4.833
10073SOL    HW131118   6.363   4.151   4.880
10073SOL    HW231119   6.500   4.238   4.895
10074SOL     OW31120   0.993   4.611   0.472
10074SOL    HW131121   1.054   4.616   0.551
10074SOL    HW231122   0.928   4.686   0.475
10075SOL     OW31123   1.900   3.369   1.667
10075SOL    HW131124   1.978   3.400   1.721
10075SOL    HW231125   1.825   3.434   1.675
10076SOL     OW31126   5.206   5.750   3.929
10076SOL    HW131127   5.163   5.670   3.970
10076SOL    HW231128   5.150   5.831   3.946
10077SOL     OW31129   6.039   2.618   6.304
10077SOL    HW131130   5.969   2.662   6.248
10077SOL    HW231131   6.067   2.679   6.378
10078SOL     OW31132   6.712   6.269   5.366
10078SOL    HW131133   6.765   6.208   5.308
10078SOL    HW231134   6.715   6.362   5.329
10079SOL     OW31135   4.585   2.587   2.872
10079SOL    HW131136   4.514   2.518   2.860
10079SOL    HW231137   4.670   2.555   2.829
10080SOL     OW31138   5.556   0.087   6.359
10080SOL    HW131139   5.519   0.013   6.303
10080SOL    HW231140   5.480   0.140   6.398
10081SOL     OW31141   2.097   2.952   0.807
10081SOL    HW131142   2.167   2.984   0.871
10081SOL    HW231143   2.071   3.028   0.747
10082SOL     OW31144   1.419   4.340   1.201
10082SOL    HW131145   1.376   4.255   1.171
10082SOL    HW231146   1.357   4.390   1.262
10083SOL     OW31147   3.148   4.932   3.604
10083SOL    HW131148   3.219   4.928   3.534
10083SOL    HW231149   3.105   4.842   3.612
10084SOL     OW31150   0.987   0.674   4.902
10084SOL    HW131151   1.008   0.662   4.999
10084SOL    HW231152   0.933   0.757   4.889
10085SOL     OW31153   4.812   7.001   0.458
10085SOL    HW131154   4.737   7.012   0.523
10085SOL    HW231155   4.839   0.068   0.422
10086SOL     OW31156   7.015   6.794   2.798
10086SOL    HW131157   7.013   6.893   2.809
10086SOL    HW231158   0.006   6.772   2.701
10087SOL     OW31159   1.590   6.456   4.979
10087SOL    HW131160   1.621   6.379   5.034
10087SOL    HW231161   1.612   6.541   5.026
10088SOL     OW31162   0.254   2.402   0.087
10088SOL    HW131163   0.246   2.493   0.127
10088SOL    HW231164   0.328   2.403   0.019
10089SOL     OW31165   3.845   1.455   2.402
10089SOL    HW131166   3.821   1.539   2.353
10089SOL    HW231167   3.851   1.475   2.500
10090SOL     OW31168   2.292   6.102   2.151
10090SOL    HW131169   2.363   6.052   2.100
10090SOL    HW231170   2.336   6.165   2.215
10091SOL     OW31171   6.446   4.148   5.468
10091SOL    HW131172   6.380   4.078   5.442
10091SOL    HW231173   6.406   4.239   5.455
10092SOL     OW31174   0.635   1.693   4.450
10092SOL    HW131175   0.644   1.789   4.476
10092SOL    HW231176   0.646   1.636   4.532
10093SOL     OW31177   5.320   3.939   5.753
10093SOL    HW131178   5.245   3.998   5.781
10093SOL    HW231179   5.286   3.845   5.742
10094SOL     OW31180   3.293   0.954   0.726
10094SOL    HW131181   3.353   0.996   0.658
10094SOL    HW231182   3.345   0.937   0.810
10095SOL     OW31183   5.197   2.640   5.319
10095SOL    HW131184   5.164   2.552   5.285
10095SOL    HW231185   5.131   2.711   5.298
10096SOL     OW31186   5.371   1.545   3.010
10096SOL    HW131187   5.412   1.527   3.100
10096SOL    HW231188   5.411   1.483   2.942
10097SOL     OW31189   0.791   1.889   0.170
10097SOL    HW131190   0.720   1.951   0.203
10097SOL    HW231191   0.837   1.846   0.248
10098SOL     OW31192   3.593   6.164   3.874
10098SOL    HW131193   3.524   6.237   3.873
10098SOL    HW231194   3.641   6.162   3.787
10099SOL     OW31195   6.883   4.814   1.202
10099SOL    HW131196   6.826   4.884   1.245
10099SOL    HW231197   6.834   4.727   1.199
10100SOL     OW31198   4.694   4.871   4.436
10100SOL    HW131199   4.721   4.791   4.384
10100SOL    HW231200   4.600   4.896   4.412
10101SOL     OW31201   1.060   2.018   1.421
10101SOL    HW131202   1.153   1.992   1.447
10101SOL    HW231203   0.996   1.946   1.451
10102SOL     OW31204   6.832   6.610   2.285
10102SOL    HW131205   6.914   6.648   2.241
10102SOL    HW231206   6.778   6.685   2.324
10103SOL     OW31207   6.484   6.146   6.196
10103SOL    HW131208   6.445   6.197   6.273
10103SOL    HW231209   6.565   6.096   6.227
10104SOL     OW31210   2.077   0.187   5.011
10104SOL    HW131211   2.020   0.268   4.997
10104SOL    HW231212   2.146   0.206   5.080
10105SOL     OW31213   2.849   0.657   6.277
10105SOL    HW131214   2.844   0.740   6.220
10105SOL    HW231215   2.765   0.649   6.331
10106SOL     OW31216   5.216   5.920   1.718
10106SOL    HW131217   5.214   5.833   1.767
10106SOL    HW231218   5.134   5.929   1.662
10107SOL     OW31219   4.949   4.545   6.650
10107SOL    HW131220   4.911   4.586   6.733
10107SOL    HW231221   4.984   4.617   6.589
10108SOL     OW31222   2.044   2.739   6.784
10108SOL    HW131223   2.081   2.649   6.809
10108SOL    HW231224   1.949   2.728   6.755
10109SOL     OW31225   1.356   2.197   1.129
10109SOL    HW131226   1.338   2.290   1.098
10109SOL    HW231227   1.272   2.143   1.124
10110SOL     OW31228   4.882   6.147   2.540
10110SOL    HW131229   4.909   6.232   2.494
10110SOL    HW231230   4.873   6.164   2.638
10111SOL     OW31231   1.999   1.621   1.830
10111SOL    HW131232   2.035   1.548   1.889
10111SOL    HW231233   2.068   1.646   1.762
10112SOL     OW31234   6.883   2.334   3.398
10112SOL    HW131235   6.810   2.397   3.424
10112SOL    HW231236   6.953   2.333   3.469
10113SOL     OW31237   6.875   0.732   6.075
10113SOL    HW131238   6.832   0.697   6.158
10113SOL    HW231239   6.884   0.659   6.008
10114SOL     OW31240   4.755   1.612   2.026
10114SOL    HW131241   4.744   1.709   2.050
10114SOL    HW231242   4.673   1.579   1.980
10115SOL     OW31243   3.656   2.614   6.209
10115SOL    HW131244   3.587   2.684   6.190
10115SOL    HW231245   3.634   2.570   6.296
10116SOL     OW31246   6.389   0.694   4.896
10116SOL    HW131247   6.391   0.614   4.837
10116SOL    HW231248   6.307   0.690   4.953
10117SOL     OW31249   5.980   4.199   4.144
10117SOL    HW131250   6.014   4.195   4.050
10117SOL    HW231251   6.000   4.288   4.183
10118SOL     OW31252   4.111   5.460   4.395
10118SOL    HW131253   4.022   5.438   4.434
10118SOL    HW231254   4.100   5.490   4.300
10119SOL     OW31255   6.947   5.460   5.289
10119SOL    HW131256   6.863   5.442   5.340
10119SOL    HW231257   6.925   5.482   5.194
10120SOL     OW31258   1.929   3.440   2.323
10120SOL    HW131259   1.959   3.396   2.408
10120SOL    HW231260   1.944   3.378   2.246
10121SOL     OW31261   6.695   4.029   0.955
10121SOL    HW131262   6.658   4.113   0.915
10121SOL    HW231263   6.723   4.045   1.049
10122SOL     OW31264   0.939   0.279   3.749
10122SOL    HW131265   0.894   0.250   3.833
10122SOL    HW231266   0.872   0.283   3.675
10123SOL     OW31267   6.535   5.120   6.724
10123SOL    HW131268   6.564   5.122   6.628
10123SOL    HW231269   6.588   5.187   6.776
10124SOL     OW31270   0.730   5.228   2.996
10124SOL    HW131271   0.713   5.326   2.995
10124SOL    HW231272   0.712   5.190   2.906
10125SOL     OW31273   1.932   1.022   5.735
10125SOL    HW131274   1.872   1.003   5.813
10125SOL    HW231275   1.911   0.958   5.661
10126SOL     OW31276   6.307   0.157   0.045
10126SOL    HW131277   6.372   0.106   0.101
10126SOL    HW231278   6.256   0.094   7.011
10127SOL     OW31279   2.077   5.831   6.207
10127SOL    HW131280   2.096   5.819   6.109
10127SOL    HW231281   2.153   5.881   6.250
10128SOL     OW31282   2.710   1.643   6.549
10128SOL    HW131283   2.722   1.642   6.648
10128SOL    HW231284   2.765   1.716   6.509
10129SOL     OW31285   6.041   1.384   4.677
10129SOL    HW131286   6.021   1.461   4.617
10129SOL    HW231287   5.964   1.320   4.675
10130SOL     OW31288   1.284   1.905   2.501
10130SOL    HW131289   1.266   1.998   2.469
10130SOL    HW231290   1.250   1.895   2.595
10131SOL     OW31291   1.821   6.456   4.145
10131SOL    HW131292   1.747   6.521   4.129
10131SOL    HW231293   1.786   6.363   4.134
10132SOL     OW31294   6.815   1.160   1.402
10132SOL    HW131295   6.819   1.087   1.470
10132SOL    HW231296   6.723   1.166   1.364
10133SOL     OW31297   6.080   6.328   0.276
10133SOL    HW131298   6.085   6.418   0.318
10133SOL    HW231299   6.144   6.323   0.200
10134SOL     OW31300   6.031   6.725   2.137
10134SOL    HW131301   6.011   6.650   2.074
10134SOL    HW231302   5.976   6.716   2.220
10135SOL     OW31303   6.124   0.200   2.638
10135SOL    HW131304   6.030   0.197   2.672
10135SOL    HW231305   6.124   0.186   2.539
10136SOL     OW31306   5.356   1.355   2.322
10136SOL    HW131307   5.304   1.439   2.338
10136SOL    HW231308   5.294   1.279   2.308
10137SOL     OW31309   6.388   5.531   5.379
10137SOL    HW131310   6.290   5.515   5.363
10137SOL    HW231311   6.439   5.447   5.360
10138SOL     OW31312   0.440   1.896   0.439
10138SOL    HW131313   0.447   1.820   0.503
10138SOL    HW231314   0.418   1.980   0.488
10139SOL     OW31315   3.532   2.959   6.494
10139SOL    HW131316   3.510   3.056   6.506
10139SOL    HW231317   3.451   2.904   6.512
10140SOL     OW31318   0.910   6.457   5.655
10140SOL    HW131319   0.827   6.512   5.663
10140SOL    HW231320   0.922   6.429   5.559
10141SOL     OW31321   2.123   2.547   4.645
10141SOL    HW131322   2.190   2.475   4.631
10141SOL    HW231323   2.066   2.525   4.724
10142SOL     OW31324   4.010   6.507   4.159
10142SOL    HW131325   3.972   6.438   4.098
10142SOL    HW231326   3.943   6.530   4.230
10143SOL     OW31327   5.242   3.024   6.607
10143SOL    HW131328   5.248   2.970   6.691
10143SOL    HW231329   5.158   3.077   6.608
10144SOL     OW31330   3.679   0.054   6.101
10144SOL    HW131331   3.713   0.001   6.179
10144SOL    HW231332   3.631   0.135   6.134
10145SOL     OW31333   5.668   5.819   6.585
10145SOL    HW131334   5.736   5.881   6.624
10145SOL    HW231335   5.714   5.744   6.538
10146SOL     OW31336   0.337   2.591   4.329
10146SOL    HW131337   0.343   2.647   4.246
10146SOL    HW231338   0.242   2.567   4.346
10147SOL     OW31339   4.425   4.969   6.140
10147SOL    HW131340   4.340   4.956   6.191
10147SOL    HW231341   4.412   5.042   6.073
10148SOL     OW31342   0.796   4.476   0.912
10148SOL    HW131343   0.791   4.505   0.816
10148SOL    HW231344   0.845   4.546   0.965
10149SOL     OW31345   3.333   4.624   0.317
10149SOL    HW131346   3.317   4.719   0.343
10149SOL    HW231347   3.312   4.563   0.394
10150SOL     OW31348   3.991   4.470   0.915
10150SOL    HW131349   4.054   4.541   0.948
10150SOL    HW231350   3.930   4.509   0.845
10151SOL     OW31351   5.813   6.747   5.880
10151SOL    HW131352   5.903   6.779   5.851
10151SOL    HW231353   5.775   6.810   5.948
10152SOL     OW31354   4.228   6.531   2.770
10152SOL    HW131355   4.228   6.494   2.677
10152SOL    HW231356   4.254   6.627   2.767
10153SOL     OW31357   4.704   4.424   2.810
10153SOL    HW131358   4.752   4.504   2.846
10153SOL    HW231359   4.745   4.398   2.722
10154SOL     OW31360   4.741   5.157   5.546
10154SOL    HW131361   4.685   5.169   5.464
10154SOL    HW231362   4.774   5.246   5.576
10155SOL     OW31363   4.063   1.546   4.720
10155SOL    HW131364   3.973   1.506   4.737
10155SOL    HW231365   4.132   1.474   4.720
10156SOL     OW31366   5.146   1.907   6.972
10156SOL    HW131367   5.199   1.986   6.941
10156SOL    HW231368   5.187   1.870   0.033
10157SOL     OW31369   0.379   3.179   1.337
10157SOL    HW131370   0.398   3.154   1.432
10157SOL    HW231371   0.391   3.099   1.279
10158SOL     OW31372   6.327   5.011   0.409
10158SOL    HW131373   6.244   4.960   0.387
10158SOL    HW231374   6.355   5.065   0.329
10159SOL     OW31375   3.208   3.153   1.981
10159SOL    HW131376   3.280   3.130   1.916
10159SOL    HW231377   3.201   3.080   2.049
10160SOL     OW31378   0.897   4.944   2.596
10160SOL    HW131379   0.844   4.867   2.633
10160SOL    HW231380   0.921   4.925   2.501
10161SOL     OW31381   5.262   3.031   5.411
10161SOL    HW131382   5.192   3.060   5.477
10161SOL    HW231383   5.234   3.056   5.319
10162SOL     OW31384   1.136   2.890   2.640
10162SOL    HW131385   1.155   2.888   2.738
10162SOL    HW231386   1.184   2.815   2.596
10163SOL     OW31387   1.878   6.218   5.545
10163SOL    HW131388   1.817   6.158   5.597
10163SOL    HW231389   1.909   6.171   5.463
10164SOL     OW31390   1.324   2.577   2.887
10164SOL    HW131391   1.376   2.594   2.971
10164SOL    HW231392   1.264   2.498   2.900
10165SOL     OW31393   6.767   3.440   4.167
10165SOL    HW131394   6.685   3.406   4.121
10165SOL    HW231395   6.827   3.363   4.189
10166SOL     OW31396   2.661   0.596   1.886
10166SOL    HW131397   2.671   0.534   1.809
10166SOL    HW231398   2.744   0.652   1.895
10167SOL     OW31399   2.577   0.483   6.743
10167SOL    HW131400   2.627   0.433   6.814
10167SOL    HW231401   2.633   0.487   6.660
10168SOL     OW31402   7.004   1.105   6.779
10168SOL    HW131403   0.032   1.098   6.866
10168SOL    HW231404   6.992   1.013   6.741
10169SOL     OW31405   5.939   2.923   3.282
10169SOL    HW131406   5.885   2.994   3.239
10169SOL    HW231407   5.923   2.836   3.235
10170SOL     OW31408   5.796   5.588   6.511
10170SOL    HW131409   5.784   5.521   6.584
10170SOL    HW231410   5.893   5.594   6.487
10171SOL     OW31411   2.249   3.546   5.875
10171SOL    HW131412   2.201   3.524   5.961
10171SOL    HW231413   2.224   3.639   5.847
10172SOL     OW31414   6.208   0.347   3.015
10172SOL    HW131415   6.272   0.380   2.946
10172SOL    HW231416   6.203   0.247   3.011
10173SOL     OW31417   3.245   3.894   5.010
10173SOL    HW131418   3.214   3.944   5.092
10173SOL    HW231419   3.330   3.934   4.977
10174SOL     OW31420   4.065   5.640   3.261
10174SOL    HW131421   4.061   5.668   3.356
10174SOL    HW231422   4.075   5.540   3.256
10175SOL     OW31423   6.986   1.630   3.329
10175SOL    HW131424   6.925   1.702   3.364
10175SOL    HW231425   7.003   1.563   3.402
10176SOL     OW31426   6.713   1.513   6.048
10176SOL    HW131427   6.689   1.417   6.032
10176SOL    HW231428   6.684   1.569   5.970
10177SOL     OW31429   2.764   0.984   3.778
10177SOL    HW131430   2.829   0.998   3.703
10177SOL    HW231431   2.672   1.009   3.747
10178SOL     OW31432   1.670   2.253   0.770
10178SOL    HW131433   1.768   2.258   0.748
10178SOL    HW231434   1.623   2.203   0.697
10179SOL     OW31435   6.863   4.396   1.354
10179SOL    HW131436   6.878   4.321   1.290
10179SOL    HW231437   6.831   4.476   1.305
10180SOL     OW31438   4.493   0.095   5.643
10180SOL    HW131439   4.514   0.193   5.655
10180SOL    HW231440   4.566   0.053   5.590
10181SOL     OW31441   6.390   3.061   2.250
10181SOL    HW131442   6.476   3.108   2.230
10181SOL    HW231443   6.350   3.099   2.334
10182SOL     OW31444   5.644   2.233   0.300
10182SOL    HW131445   5.649   2.329   0.270
10182SOL    HW231446   5.549   2.211   0.324
10183SOL     OW31447   5.579   1.773   6.558
10183SOL    HW131448   5.629   1.854   6.589
10183SOL    HW231449   5.621   1.691   6.597
10184SOL     OW31450   5.763   2.486   5.952
10184SOL    HW131451   5.674   2.525   5.928
10184SOL    HW231452   5.760   2.387   5.939
10185SOL     OW31453   3.556   5.755   1.860
10185SOL    HW131454   3.475   5.716   1.904
10185SOL    HW231455   3.527   5.809   1.781
10186SOL     OW31456   3.626   3.636   5.877
10186SOL    HW131457   3.555   3.706   5.890
10186SOL    HW231458   3.587   3.546   5.895
10187SOL     OW31459   2.037   4.862   6.246
10187SOL    HW131460   1.940   4.864   6.270
10187SOL    HW231461   2.050   4.904   6.156
10188SOL     OW31462   3.353   0.512   6.484
10188SOL    HW131463   3.281   0.581   6.478
10188SOL    HW231464   3.340   0.457   6.567
10189SOL     OW31465   1.185   2.169   6.490
10189SOL    HW131466   1.188   2.101   6.416
10189SOL    HW231467   1.155   2.257   6.452
10190SOL     OW31468   4.012   5.572   2.057
10190SOL    HW131469   4.091   5.629   2.036
10190SOL    HW231470   3.962   5.552   1.972
10191SOL     OW31471   6.056   6.232   6.664
10191SOL    HW131472   5.966   6.244   6.623
10191SOL    HW231473   6.049   6.233   6.763
10192SOL     OW31474   1.936   1.652   4.393
10192SOL    HW131475   1.893   1.677   4.480
10192SOL    HW231476   2.034   1.666   4.399
10193SOL     OW31477   3.249   3.493   3.432
10193SOL    HW131478   3.329   3.461   3.484
10193SOL    HW231479   3.207   3.570   3.480
10194SOL     OW31480   3.032   0.414   3.075
10194SOL    HW131481   3.092   0.471   3.018
10194SOL    HW231482   2.939   0.451   3.071
10195SOL     OW31483   3.855   6.372   2.100
10195SOL    HW131484   3.818   6.398   2.189
10195SOL    HW231485   3.807   6.423   2.028
10196SOL     OW31486   5.989   2.074   3.559
10196SOL    HW131487   5.984   2.032   3.468
10196SOL    HW231488   5.917   2.143   3.568
10197SOL     OW31489   6.081   0.223   1.519
10197SOL    HW131490   6.176   0.206   1.546
10197SOL    HW231491   6.076   0.241   1.421
10198SOL     OW31492   2.513   0.036   0.775
10198SOL    HW131493   2.453   6.993   0.821
10198SOL    HW231494   2.585   0.065   0.838
10199SOL     OW31495   1.431   1.385   0.451
10199SOL    HW131496   1.403   1.476   0.421
10199SOL    HW231497   1.351   1.324   0.454
10200SOL     OW31498   4.768   4.224   4.396
10200SOL    HW131499   4.752   4.315   4.433
10200SOL    HW231500   4.833   4.175   4.455
10201SOL     OW31501   1.489   4.580   2.867
10201SOL    HW131502   1.570   4.554   2.919
10201SOL    HW231503   1.488   4.533   2.779
10202SOL     OW31504   0.967   3.540   2.508
10202SOL    HW131505   1.010   3.619   2.464
10202SOL    HW231506   1.008   3.526   2.598
10203SOL     OW31507   1.702   3.247   2.317
10203SOL    HW131508   1.622   3.225   2.372
10203SOL    HW231509   1.736   3.338   2.342
10204SOL     OW31510   3.252   4.918   5.329
10204SOL    HW131511   3.194   4.839   5.351
10204SOL    HW231512   3.199   4.983   5.274
10205SOL     OW31513   4.692   1.407   3.028
10205SOL    HW131514   4.678   1.466   2.949
10205SOL    HW231515   4.681   1.311   2.999
10206SOL     OW31516   5.256   6.805   6.869
10206SOL    HW131517   5.229   6.717   6.908
10206SOL    HW231518   5.177   6.847   6.824
10207SOL     OW31519   4.336   0.862   2.975
10207SOL    HW131520   4.264   0.920   3.013
10207SOL    HW231521   4.345   0.878   2.877
10208SOL     OW31522   6.287   3.924   5.450
10208SOL    HW131523   6.274   3.946   5.547
10208SOL    HW231524   6.299   3.825   5.441
10209SOL     OW31525   5.885   0.428   6.332
10209SOL    HW131526   5.955   0.497   6.318
10209SOL    HW231527   5.906   0.374   6.413
10210SOL     OW31528   4.947   5.650   2.272
10210SOL    HW131529   4.999   5.593   2.335
10210SOL    HW231530   4.918   5.734   2.319
10211SOL     OW31531   4.094   5.524   5.499
10211SOL    HW131532   4.071   5.611   5.455
10211SOL    HW231533   4.173   5.537   5.560
10212SOL     OW31534   0.133   0.341   5.427
10212SOL    HW131535   0.196   0.418   5.420
10212SOL    HW231536   0.047   0.371   5.468
10213SOL     OW31537   6.358   1.278   2.900
10213SOL    HW131538   6.446   1.232   2.911
10213SOL    HW231539   6.363   1.340   2.821
10214SOL     OW31540   0.144   0.989   1.856
10214SOL    HW131541   0.242   0.975   1.840
10214SOL    HW231542   0.093   0.909   1.824
10215SOL     OW31543   3.886   3.851   6.706
10215SOL    HW131544   3.887   3.857   6.806
10215SOL    HW231545   3.901   3.942   6.667
10216SOL     OW31546   5.353   0.057   1.496
10216SOL    HW131547   5.286   0.030   1.564
10216SOL    HW231548   5.312   0.124   1.433
10217SOL     OW31549   2.522   1.914   4.596
10217SOL    HW131550   2.535   1.823   4.636
10217SOL    HW231551   2.534   1.983   4.667
10218SOL     OW31552   2.544   1.219   0.861
10218SOL    HW131553   2.555   1.283   0.785
10218SOL    HW231554   2.549   1.268   0.947
10219SOL     OW31555   1.121   3.556   0.314
10219SOL    HW131556   1.136   3.589   0.407
10219SOL    HW231557   1.086   3.631   0.257
10220SOL     OW31558   4.319   1.966   1.007
10220SOL    HW131559   4.397   1.905   0.998
10220SOL    HW231560   4.283   1.989   0.916
10221SOL     OW31561   3.177   6.967   5.120
10221SOL    HW131562   3.269   6.974   5.082
10221SOL    HW231563   3.178   6.991   5.217
10222SOL     OW31564   1.958   5.602   5.699
10222SOL    HW131565   2.052   5.594   5.731
10222SOL    HW231566   1.958   5.628   5.602
10223SOL     OW31567   0.643   4.394   0.309
10223SOL    HW131568   0.676   4.407   0.215
10223SOL    HW231569   0.641   4.296   0.329
10224SOL     OW31570   1.559   0.172   4.193
10224SOL    HW131571   1.477   0.130   4.231
10224SOL    HW231572   1.588   0.247   4.253
10225SOL     OW31573   6.450   5.786   4.551
10225SOL    HW131574   6.486   5.832   4.632
10225SOL    HW231575   6.383   5.846   4.506
10226SOL     OW31576   1.784   1.740   0.133
10226SOL    HW131577   1.739   1.692   0.208
10226SOL    HW231578   1.775   1.686   0.049
10227SOL     OW31579   5.407   4.544   6.848
10227SOL    HW131580   5.469   4.505   6.917
10227SOL    HW231581   5.333   4.480   6.830
10228SOL     OW31582   0.514   5.418   2.979
10228SOL    HW131583   0.437   5.475   3.007
10228SOL    HW231584   0.585   5.421   3.049
10229SOL     OW31585   1.543   0.443   2.559
10229SOL    HW131586   1.552   0.381   2.481
10229SOL    HW231587   1.473   0.512   2.539
10230SOL     OW31588   6.219   0.783   3.791
10230SOL    HW131589   6.157   0.858   3.812
10230SOL    HW231590   6.202   0.707   3.855
10231SOL     OW31591   5.381   6.603   4.988
10231SOL    HW131592   5.282   6.587   4.978
10231SOL    HW231593   5.415   6.553   5.068
10232SOL     OW31594   3.285   2.045   5.036
10232SOL    HW131595   3.344   2.035   4.957
10232SOL    HW231596   3.242   2.135   5.035
10233SOL     OW31597   4.986   1.545   5.662
10233SOL    HW131598   5.002   1.456   5.707
10233SOL    HW231599   4.935   1.604   5.724
10234SOL     OW31600   4.953   6.733   1.945
10234SOL    HW131601   4.875   6.723   2.006
10234SOL    HW231602   4.991   6.643   1.924
10235SOL     OW31603   5.902   1.065   6.755
10235SOL    HW131604   5.920   1.132   6.827
10235SOL    HW231605   5.893   0.974   6.795
10236SOL     OW31606   2.450   5.710   1.923
10236SOL    HW131607   2.352   5.720   1.936
10236SOL    HW231608   2.469   5.628   1.869
10237SOL     OW31609   5.871   3.326   2.364
10237SOL    HW131610   5.945   3.262   2.346
10237SOL    HW231611   5.890   3.377   2.448
10238SOL     OW31612   5.069   4.884   4.631
10238SOL    HW131613   5.116   4.834   4.704
10238SOL    HW231614   4.973   4.855   4.628
10239SOL     OW31615   0.196   3.966   4.585
10239SOL    HW131616   0.182   3.867   4.589
10239SOL    HW231617   0.287   3.988   4.621
10240SOL     OW31618   7.009   4.502   4.079
10240SOL    HW131619   6.983   4.407   4.064
10240SOL    HW231620   0.020   4.513   4.173
10241SOL     OW31621   1.779   0.977   2.065
10241SOL    HW131622   1.821   0.929   2.142
10241SOL    HW231623   1.846   0.986   1.991
10242SOL     OW31624   0.148   0.109   6.096
10242SOL    HW131625   0.057   0.142   6.071
10242SOL    HW231626   0.205   0.187   6.123
10243SOL     OW31627   1.352   5.688   1.473
10243SOL    HW131628   1.341   5.689   1.572
10243SOL    HW231629   1.318   5.774   1.435
10244SOL     OW31630   1.844   5.897   6.926
10244SOL    HW131631   1.849   5.848   7.013
10244SOL    HW231632   1.820   5.992   6.943
10245SOL     OW31633   2.739   2.338   6.735
10245SOL    HW131634   2.738   2.430   6.775
10245SOL    HW231635   2.818   2.288   6.770
10246SOL     OW31636   3.195   4.064   4.352
10246SOL    HW131637   3.273   4.124   4.368
10246SOL    HW231638   3.150   4.044   4.439
10247SOL     OW31639   0.472   4.147   5.485
10247SOL    HW131640   0.497   4.058   5.524
10247SOL    HW231641   0.550   4.185   5.435
10248SOL     OW31642   3.521   0.411   1.817
10248SOL    HW131643   3.434   0.459   1.823
10248SOL    HW231644   3.514   0.336   1.751
10249SOL     OW31645   5.257   0.963   6.119
10249SOL    HW131646   5.331   0.901   6.145
10249SOL    HW231647   5.273   1.053   6.161
10250SOL     OW31648   6.438   1.113   0.021
10250SOL    HW131649   6.520   1.155   0.059
10250SOL    HW231650   6.446   1.105   6.945
10251SOL     OW31651   2.570   3.731   6.574
10251SOL    HW131652   2.630   3.727   6.494
10251SOL    HW231653   2.500   3.801   6.559
10252SOL     OW31654   6.499   5.502   1.727
10252SOL    HW131655   6.417   5.521   1.675
10252SOL    HW231656   6.485   5.421   1.783
10253SOL     OW31657   4.213   5.247   7.004
10253SOL    HW131658   4.160   5.305   6.943
10253SOL    HW231659   4.278   5.303   0.032
10254SOL     OW31660   2.139   2.189   5.338
10254SOL    HW131661   2.117   2.277   5.381
10254SOL    HW231662   2.235   2.190   5.309
10255SOL     OW31663   2.918   6.011   2.943
10255SOL    HW131664   2.986   6.056   2.884
10255SOL    HW231665   2.835   5.993   2.891
10256SOL     OW31666   5.874   0.196   6.818
10256SOL    HW131667   5.927   0.272   6.857
10256SOL    HW231668   5.778   0.207   6.843
10257SOL     OW31669   1.093   5.320   5.666
10257SOL    HW131670   1.063   5.410   5.636
10257SOL    HW231671   1.135   5.271   5.590
10258SOL     OW31672   3.813   6.786   3.348
10258SOL    HW131673   3.899   6.768   3.300
10258SOL    HW231674   3.797   6.714   3.416
10259SOL     OW31675   6.798   3.776   3.574
10259SOL    HW131676   6.826   3.856   3.627
10259SOL    HW231677   6.795   3.696   3.634
10260SOL     OW31678   0.975   0.125   1.969
10260SOL    HW131679   1.063   0.080   1.953
10260SOL    HW231680   0.973   0.212   1.919
10261SOL     OW31681   0.903   5.270   2.387
10261SOL    HW131682   0.995   5.291   2.356
10261SOL    HW231683   0.861   5.352   2.426
10262SOL     OW31684   1.991   4.477   4.754
10262SOL    HW131685   1.991   4.525   4.842
10262SOL    HW231686   2.074   4.422   4.747
10263SOL     OW31687   6.079   1.454   5.666
10263SOL    HW131688   6.021   1.420   5.740
10263SOL    HW231689   6.021   1.495   5.595
10264SOL     OW31690   6.753   0.482   6.188
10264SOL    HW131691   6.792   0.516   6.273
10264SOL    HW231692   6.781   0.387   6.173
10265SOL     OW31693   3.733   1.608   2.602
10265SOL    HW131694   3.678   1.540   2.651
10265SOL    HW231695   3.774   1.671   2.667
10266SOL     OW31696   2.899   3.982   6.187
10266SOL    HW131697   2.991   4.020   6.182
10266SOL    HW231698   2.904   3.882   6.190
10267SOL     OW31699   0.194   1.796   6.713
10267SOL    HW131700   0.237   1.714   6.675
10267SOL    HW231701   0.253   1.875   6.699
10268SOL     OW31702   5.205   6.138   1.927
10268SOL    HW131703   5.181   6.080   1.849
10268SOL    HW231704   5.257   6.085   1.993
10269SOL     OW31705   2.710   2.581   6.296
10269SOL    HW131706   2.696   2.486   6.324
10269SOL    HW231707   2.624   2.631   6.304
10270SOL     OW31708   1.525   5.760   0.575
10270SOL    HW131709   1.442   5.776   0.523
10270SOL    HW231710   1.506   5.767   0.673
10271SOL     OW31711   4.520   4.628   1.557
10271SOL    HW131712   4.592   4.586   1.501
10271SOL    HW231713   4.512   4.725   1.533
10272SOL     OW31714   0.750   1.274   5.734
10272SOL    HW131715   0.731   1.341   5.806
10272SOL    HW231716   0.675   1.207   5.730
10273SOL     OW31717   4.000   5.390   5.094
10273SOL    HW131718   4.048   5.449   5.030
10273SOL    HW231719   4.002   5.295   5.061
10274SOL     OW31720   0.828   5.098   5.327
10274SOL    HW131721   0.731   5.093   5.303
10274SOL    HW231722   0.837   5.116   5.425
10275SOL     OW31723   1.263   6.533   2.635
10275SOL    HW131724   1.248   6.436   2.618
10275SOL    HW231725   1.179   6.574   2.672
10276SOL     OW31726   6.094   5.683   5.877
10276SOL    HW131727   5.995   5.677   5.867
10276SOL    HW231728   6.130   5.594   5.905
10277SOL     OW31729   2.698   6.417   4.561
10277SOL    HW131730   2.701   6.394   4.658
10277SOL    HW231731   2.789   6.447   4.531
10278SOL     OW31732   6.455   0.685   6.077
10278SOL    HW131733   6.510   0.768   6.068
10278SOL    HW231734   6.363   0.709   6.106
10279SOL     OW31735   3.249   6.836   4.053
10279SOL    HW131736   3.258   6.805   3.959
10279SOL    HW231737   3.252   6.936   4.056
10280SOL     OW31738   1.812   4.395   0.036
10280SOL    HW131739   1.854   4.476   0.077
10280SOL    HW231740   1.828   4.315   0.094
10281SOL     OW31741   4.406   0.660   3.494
10281SOL    HW131742   4.461   0.743   3.494
10281SOL    HW231743   4.322   0.674   3.545
10282SOL     OW31744   1.203   2.061   4.271
10282SOL    HW131745   1.182   2.083   4.176
10282SOL    HW231746   1.177   2.138   4.329
10283SOL     OW31747   1.470   3.809   0.246
10283SOL    HW131748   1.439   3.812   0.342
10283SOL    HW231749   1.390   3.806   0.186
10284SOL     OW31750   5.574   2.708   5.607
10284SOL    HW131751   5.517   2.714   5.524
10284SOL    HW231752   5.650   2.645   5.590
10285SOL     OW31753   5.693   0.205   0.852
10285SOL    HW131754   5.632   0.146   0.799
10285SOL    HW231755   5.746   0.149   0.915
10286SOL     OW31756   4.151   6.846   3.366
10286SOL    HW131757   4.090   6.873   3.440
10286SOL    HW231758   4.147   6.746   3.353
10287SOL     OW31759   2.022   6.538   1.863
10287SOL    HW131760   2.066   6.511   1.949
10287SOL    HW231761   1.931   6.575   1.882
10288SOL     OW31762   6.386   6.386   3.409
10288SOL    HW131763   6.371   6.484   3.420
10288SOL    HW231764   6.410   6.345   3.497
10289SOL     OW31765   3.288   1.274   1.640
10289SOL    HW131766   3.333   1.215   1.707
10289SOL    HW231767   3.313   1.246   1.548
10290SOL     OW31768   4.093   3.483   2.810
10290SOL    HW131769   4.177   3.532   2.832
10290SOL    HW231770   4.044   3.463   2.895
10291SOL     OW31771   2.996   0.942   5.118
10291SOL    HW131772   3.035   0.850   5.106
10291SOL    HW231773   3.061   0.999   5.167
10292SOL     OW31774   0.987   1.153   4.287
10292SOL    HW131775   0.902   1.173   4.335
10292SOL    HW231776   0.968   1.146   4.189
10293SOL     OW31777   2.187   6.234   3.284
10293SOL    HW131778   2.254   6.179   3.333
10293SOL    HW231779   2.197   6.330   3.311
10294SOL     OW31780   5.560   1.655   3.571
10294SOL    HW131781   5.586   1.640   3.666
10294SOL    HW231782   5.639   1.691   3.521
10295SOL     OW31783   0.497   5.801   5.988
10295SOL    HW131784   0.444   5.830   5.908
10295SOL    HW231785   0.595   5.805   5.967
10296SOL     OW31786   6.510   3.133   0.117
10296SOL    HW131787   6.550   3.043   0.098
10296SOL    HW231788   6.516   3.152   0.215
10297SOL     OW31789   1.434   4.898   4.706
10297SOL    HW131790   1.334   4.908   4.706
10297SOL    HW231791   1.472   4.938   4.789
10298SOL     OW31792   4.902   3.634   3.748
10298SOL    HW131793   4.875   3.694   3.672
10298SOL    HW231794   4.905   3.539   3.717
10299SOL     OW31795   5.062   4.312   3.072
10299SOL    HW131796   5.135   4.268   3.021
10299SOL    HW231797   4.974   4.292   3.030
10300SOL     OW31798   0.993   4.087   3.001
10300SOL    HW131799   1.006   4.014   2.934
10300SOL    HW231800   1.069   4.152   2.994
10301SOL     OW31801   5.487   1.638   1.193
10301SOL    HW131802   5.454   1.576   1.264
10301SOL    HW231803   5.421   1.643   1.118
10302SOL     OW31804   1.363   5.689   2.761
10302SOL    HW131805   1.427   5.764   2.744
10302SOL    HW231806   1.375   5.619   2.691
10303SOL     OW31807   3.826   3.829   1.650
10303SOL    HW131808   3.845   3.906   1.711
10303SOL    HW231809   3.835   3.743   1.700
10304SOL     OW31810   0.056   6.971   2.430
10304SOL    HW131811   6.996   7.018   2.398
10304SOL    HW231812   0.131   6.990   2.366
10305SOL     OW31813   1.075   5.614   0.798
10305SOL    HW131814   1.070   5.548   0.873
10305SOL    HW231815   1.140   5.582   0.729
10306SOL     OW31816   4.445   6.288   0.855
10306SOL    HW131817   4.492   6.199   0.858
10306SOL    HW231818   4.505   6.358   0.892
10307SOL     OW31819   1.812   1.020   5.990
10307SOL    HW131820   1.724   0.998   5.949
10307SOL    HW231821   1.802   1.100   6.049
10308SOL     OW31822   3.195   6.002   3.297
10308SOL    HW131823   3.131   5.926   3.304
10308SOL    HW231824   3.147   6.082   3.261
10309SOL     OW31825   6.799   6.648   2.765
10309SOL    HW131826   6.887   6.691   2.747
10309SOL    HW231827   6.729   6.718   2.777
10310SOL     OW31828   3.271   4.115   3.299
10310SOL    HW131829   3.185   4.095   3.253
10310SOL    HW231830   3.339   4.144   3.232
10311SOL     OW31831   6.864   5.557   0.405
10311SOL    HW131832   6.962   5.554   0.425
10311SOL    HW231833   6.850   5.562   0.306
10312SOL     OW31834   2.186   4.512   0.608
10312SOL    HW131835   2.173   4.499   0.509
10312SOL    HW231836   2.278   4.482   0.633
10313SOL     OW31837   5.721   0.013   3.131
10313SOL    HW131838   5.783   7.005   3.203
10313SOL    HW231839   5.643   0.061   3.172
10314SOL     OW31840   6.637   6.712   1.269
10314SOL    HW131841   6.652   6.806   1.299
10314SOL    HW231842   6.702   6.689   1.197
10315SOL     OW31843   6.680   5.367   4.377
10315SOL    HW131844   6.620   5.290   4.353
10315SOL    HW231845   6.635   5.424   4.446
10316SOL     OW31846   0.030   4.427   3.789
10316SOL    HW131847   0.038   4.453   3.886
10316SOL    HW231848   0.121   4.415   3.751
10317SOL     OW31849   4.011   5.446   0.402
10317SOL    HW131850   4.005   5.432   0.304
10317SOL    HW231851   3.936   5.397   0.448
10318SOL     OW31852   5.934   5.474   1.903
10318SOL    HW131853   5.910   5.568   1.882
10318SOL    HW231854   5.904   5.414   1.829
10319SOL     OW31855   5.617   6.138   3.300
10319SOL    HW131856   5.545   6.199   3.334
10319SOL    HW231857   5.706   6.172   3.329
10320SOL     OW31858   6.900   6.597   1.428
10320SOL    HW131859   6.932   6.556   1.514
10320SOL    HW231860   6.852   6.529   1.374
10321SOL     OW31861   4.592   5.386   3.861
10321SOL    HW131862   4.588   5.293   3.896
10321SOL    HW231863   4.682   5.403   3.821
10322SOL     OW31864   6.264   3.914   0.768
10322SOL    HW131865   6.345   3.902   0.710
10322SOL    HW231866   6.293   3.924   0.863
10323SOL     OW31867   5.207   2.658   5.743
10323SOL    HW131868   5.166   2.665   5.651
10323SOL    HW231869   5.241   2.565   5.756
10324SOL     OW31870   3.087   3.034   3.426
10324SOL    HW131871   3.081   2.966   3.353
10324SOL    HW231872   3.132   3.117   3.392
10325SOL     OW31873   0.644   2.961   2.650
10325SOL    HW131874   0.557   3.011   2.643
10325SOL    HW231875   0.628   2.871   2.689
10326SOL     OW31876   5.638   1.790   0.731
10326SOL    HW131877   5.692   1.870   0.755
10326SOL    HW231878   5.559   1.783   0.792
10327SOL     OW31879   0.419   1.036   2.967
10327SOL    HW131880   0.493   1.032   3.035
10327SOL    HW231881   0.428   1.121   2.914
10328SOL     OW31882   5.799   3.125   2.118
10328SOL    HW131883   5.875   3.156   2.174
10328SOL    HW231884   5.814   3.152   2.023
10329SOL     OW31885   3.088   6.742   2.704
10329SOL    HW131886   3.166   6.714   2.759
10329SOL    HW231887   3.052   6.663   2.655
10330SOL     OW31888   3.829   5.283   1.799
10330SOL    HW131889   3.738   5.243   1.799
10330SOL    HW231890   3.877   5.259   1.884
10331SOL     OW31891   5.945   0.372   3.424
10331SOL    HW131892   6.020   0.374   3.358
10331SOL    HW231893   5.965   0.433   3.500
10332SOL     OW31894   6.825   2.637   5.980
10332SOL    HW131895   6.919   2.666   5.997
10332SOL    HW231896   6.764   2.716   5.980
10333SOL     OW31897   5.311   5.046   4.345
10333SOL    HW131898   5.331   5.133   4.298
10333SOL    HW231899   5.328   4.970   4.283
10334SOL     OW31900   1.915   5.021   3.920
10334SOL    HW131901   1.958   4.970   3.993
10334SOL    HW231902   1.895   5.114   3.951
10335SOL     OW31903   1.682   5.041   1.520
10335SOL    HW131904   1.593   5.065   1.481
10335SOL    HW231905   1.718   5.119   1.572
10336SOL     OW31906   3.867   6.615   2.583
10336SOL    HW131907   3.838   6.710   2.571
10336SOL    HW231908   3.966   6.612   2.592
10337SOL     OW31909   0.849   4.510   4.834
10337SOL    HW131910   0.827   4.417   4.866
10337SOL    HW231911   0.937   4.538   4.873
10338SOL     OW31912   2.796   6.009   3.167
10338SOL    HW131913   2.731   6.085   3.173
10338SOL    HW231914   2.851   6.019   3.084
10339SOL     OW31915   2.696   5.850   1.361
10339SOL    HW131916   2.641   5.847   1.279
10339SOL    HW231917   2.749   5.936   1.363
10340SOL     OW31918   1.879   0.117   0.818
10340SOL    HW131919   1.955   0.179   0.840
10340SOL    HW231920   1.797   0.170   0.797
10341SOL     OW31921   2.120   1.859   2.573
10341SOL    HW131922   2.197   1.813   2.618
10341SOL    HW231923   2.034   1.824   2.609
10342SOL     OW31924   2.752   6.800   5.021
10342SOL    HW131925   2.723   6.776   5.113
10342SOL    HW231926   2.736   6.897   5.005
10343SOL     OW31927   2.225   3.395   5.241
10343SOL    HW131928   2.136   3.421   5.279
10343SOL    HW231929   2.211   3.336   5.162
10344SOL     OW31930   3.618   4.221   5.434
10344SOL    HW131931   3.608   4.178   5.344
10344SOL    HW231932   3.694   4.179   5.483
10345SOL     OW31933   2.244   1.415   6.419
10345SOL    HW131934   2.240   1.507   6.459
10345SOL    HW231935   2.151   1.379   6.409
10346SOL     OW31936   5.282   5.774   7.003
10346SOL    HW131937   5.370   5.771   6.955
10346SOL    HW231938   5.277   5.857   0.035
10347SOL     OW31939   5.472   1.568   1.856
10347SOL    HW131940   5.524   1.489   1.824
10347SOL    HW231941   5.427   1.546   1.942
10348SOL     OW31942   0.678   6.583   5.556
10348SOL    HW131943   0.587   6.620   5.574
10348SOL    HW231944   0.688   6.565   5.458
10349SOL     OW31945   6.869   1.924   0.719
10349SOL    HW131946   6.859   2.021   0.741
10349SOL    HW231947   6.797   1.872   0.765
10350SOL     OW31948   2.488   5.035   4.840
10350SOL    HW131949   2.417   4.999   4.901
10350SOL    HW231950   2.561   4.967   4.831
10351SOL     OW31951   5.078   4.381   4.982
10351SOL    HW131952   5.149   4.441   4.947
10351SOL    HW231953   5.036   4.422   5.063
10352SOL     OW31954   5.908   2.102   0.396
10352SOL    HW131955   5.811   2.081   0.386
10352SOL    HW231956   5.950   2.113   0.306
10353SOL     OW31957   6.727   2.921   3.793
10353SOL    HW131958   6.816   2.881   3.815
10353SOL    HW231959   6.720   2.935   3.695
10354SOL     OW31960   0.567   3.353   0.537
10354SOL    HW131961   0.517   3.409   0.471
10354SOL    HW231962   0.534   3.259   0.532
10355SOL     OW31963   1.177   0.866   0.899
10355SOL    HW131964   1.247   0.880   0.829
10355SOL    HW231965   1.101   0.929   0.883
10356SOL     OW31966   6.343   3.891   6.475
10356SOL    HW131967   6.416   3.899   6.542
10356SOL    HW231968   6.255   3.884   6.522
10357SOL     OW31969   1.236   2.794   6.103
10357SOL    HW131970   1.254   2.749   6.016
10357SOL    HW231971   1.297   2.873   6.112
10358SOL     OW31972   0.855   2.614   2.069
10358SOL    HW131973   0.878   2.518   2.050
10358SOL    HW231974   0.900   2.643   2.153
10359SOL     OW31975   5.814   1.774   2.271
10359SOL    HW131976   5.750   1.850   2.264
10359SOL    HW231977   5.833   1.755   2.367
10360SOL     OW31978   5.785   4.103   1.932
10360SOL    HW131979   5.728   4.070   2.008
10360SOL    HW231980   5.788   4.033   1.861
10361SOL     OW31981   0.699   1.541   1.561
10361SOL    HW131982   0.619   1.481   1.562
10361SOL    HW231983   0.758   1.520   1.639
10362SOL     OW31984   1.184   4.865   2.183
10362SOL    HW131985   1.201   4.773   2.216
10362SOL    HW231986   1.271   4.907   2.156
10363SOL     OW31987   5.200   4.603   0.247
10363SOL    HW131988   5.138   4.635   0.318
10363SOL    HW231989   5.162   4.522   0.203
10364SOL     OW31990   5.969   4.521   2.363
10364SOL    HW131991   5.996   4.568   2.447
10364SOL    HW231992   6.042   4.528   2.296
10365SOL     OW31993   6.541   5.917   0.395
10365SOL    HW131994   6.471   5.883   0.458
10365SOL    HW231995   6.555   6.015   0.410
10366SOL     OW31996   2.662   6.241   3.295
10366SOL    HW131997   2.632   6.244   3.390
10366SOL    HW231998   2.582   6.236   3.235
10367SOL     OW31999   5.896   1.610   1.063
10367SOL    HW132000   5.965   1.652   1.004
10367SOL    HW232001   5.837   1.551   1.009
10368SOL     OW32002   1.683   5.780   2.259
10368SOL    HW132003   1.761   5.841   2.268
10368SOL    HW232004   1.714   5.685   2.261
10369SOL     OW32005   3.465   0.142   5.732
10369SOL    HW132006   3.423   0.100   5.652
10369SOL    HW232007   3.485   0.238   5.712
10370SOL     OW32008   0.746   1.257   5.169
10370SOL    HW132009   0.661   1.302   5.199
10370SOL    HW232010   0.749   1.164   5.207
10371SOL     OW32011   3.373   5.225   3.372
10371SOL    HW132012   3.422   5.302   3.333
10371SOL    HW232013   3.286   5.257   3.411
10372SOL     OW32014   2.782   6.390   1.632
10372SOL    HW132015   2.746   6.418   1.721
10372SOL    HW232016   2.720   6.325   1.589
10373SOL     OW32017   0.753   1.860   5.456
10373SOL    HW132018   0.840   1.811   5.461
10373SOL    HW232019   0.770   1.958   5.449
10374SOL     OW32020   3.309   6.343   4.649
10374SOL    HW132021   3.275   6.433   4.622
10374SOL    HW232022   3.282   6.275   4.580
10375SOL     OW32023   2.733   3.767   0.327
10375SOL    HW132024   2.662   3.778   0.258
10375SOL    HW232025   2.800   3.841   0.319
10376SOL     OW32026   2.086   4.595   2.848
10376SOL    HW132027   2.121   4.614   2.756
10376SOL    HW232028   2.024   4.668   2.876
10377SOL     OW32029   1.307   0.949   3.169
10377SOL    HW132030   1.290   0.856   3.202
10377SOL    HW232031   1.283   1.015   3.241
10378SOL     OW32032   0.188   4.342   4.722
10378SOL    HW132033   0.214   4.315   4.815
10378SOL    HW232034   0.123   4.276   4.685
10379SOL     OW32035   1.716   6.289   4.659
10379SOL    HW132036   1.669   6.292   4.571
10379SOL    HW232037   1.650   6.270   4.732
10380SOL     OW32038   2.023   2.806   4.697
10380SOL    HW132039   2.084   2.727   4.703
10380SOL    HW232040   1.977   2.819   4.785
10381SOL     OW32041   4.159   4.751   2.080
10381SOL    HW132042   4.160   4.779   1.984
10381SOL    HW232043   4.248   4.712   2.104
10382SOL     OW32044   3.307   5.627   1.653
10382SOL    HW132045   3.307   5.630   1.553
10382SOL    HW232046   3.360   5.548   1.684
10383SOL     OW32047   2.082   4.398   0.317
10383SOL    HW132048   2.027   4.473   0.282
10383SOL    HW232049   2.058   4.313   0.270
10384SOL     OW32050   6.026   6.233   1.791
10384SOL    HW132051   6.036   6.222   1.890
10384SOL    HW232052   5.950   6.295   1.772
10385SOL     OW32053   3.802   4.505   6.876
10385SOL    HW132054   3.795   4.423   6.933
10385SOL    HW232055   3.871   4.566   6.914
10386SOL     OW32056   0.157   0.642   0.266
10386SOL    HW132057   0.081   0.699   0.234
10386SOL    HW232058   0.161   0.646   0.366
10387SOL     OW32059   4.772   2.900   2.310
10387SOL    HW132060   4.756   2.962   2.233
10387SOL    HW232061   4.712   2.820   2.301
10388SOL     OW32062   3.056   0.346   5.963
10388SOL    HW132063   3.005   0.387   5.887
10388SOL    HW232064   3.068   0.415   6.035
10389SOL     OW32065   0.864   3.144   0.738
10389SOL    HW132066   0.949   3.109   0.778
10389SOL    HW232067   0.884   3.226   0.685
10390SOL     OW32068   3.313   2.703   1.325
10390SOL    HW132069   3.286   2.782   1.271
10390SOL    HW232070   3.395   2.662   1.286
10391SOL     OW32071   6.222   6.323   4.160
10391SOL    HW132072   6.224   6.283   4.251
10391SOL    HW232073   6.211   6.422   4.168
10392SOL     OW32074   6.638   4.999   4.212
10392SOL    HW132075   6.635   4.899   4.208
10392SOL    HW232076   6.605   5.030   4.301
10393SOL     OW32077   1.832   3.978   4.094
10393SOL    HW132078   1.835   4.075   4.119
10393SOL    HW232079   1.765   3.964   4.022
10394SOL     OW32080   2.949   5.804   4.312
10394SOL    HW132081   3.044   5.808   4.280
10394SOL    HW232082   2.913   5.712   4.294
10395SOL     OW32083   6.941   7.016   0.730
10395SOL    HW132084   7.005   6.944   0.755
10395SOL    HW232085   6.928   0.055   0.808
10396SOL     OW32086   2.954   1.451   4.774
10396SOL    HW132087   2.985   1.372   4.723
10396SOL    HW232088   2.916   1.422   4.862
10397SOL     OW32089   3.131   1.927   2.683
10397SOL    HW132090   3.086   2.010   2.651
10397SOL    HW232091   3.062   1.858   2.708
10398SOL     OW32092   0.175   3.030   1.692
10398SOL    HW132093   0.081   3.058   1.676
10398SOL    HW232094   0.184   2.993   1.785
10399SOL     OW32095   6.631   2.833   1.900
10399SOL    HW132096   6.714   2.783   1.876
10399SOL    HW232097   6.628   2.848   1.999
10400SOL     OW32098   4.538   6.902   0.384
10400SOL    HW132099   4.596   6.822   0.398
10400SOL    HW232100   4.489   6.923   0.468
10401SOL     OW32101   6.774   0.679   4.505
10401SOL    HW132102   6.823   0.740   4.567
10401SOL    HW232103   6.745   0.730   4.424
10402SOL     OW32104   6.581   2.741   4.425
10402SOL    HW132105   6.607   2.737   4.522
10402SOL    HW232106   6.483   2.723   4.416
10403SOL     OW32107   2.945   0.833   3.322
10403SOL    HW132108   3.033   0.858   3.283
10403SOL    HW232109   2.931   0.734   3.312
10404SOL     OW32110   6.790   0.061   6.127
10404SOL    HW132111   6.737   0.144   6.113
10404SOL    HW232112   6.830   0.032   6.040
10405SOL     OW32113   0.695   1.665   5.714
10405SOL    HW132114   0.712   1.740   5.650
10405SOL    HW232115   0.782   1.624   5.743
10406SOL     OW32116   3.064   4.981   1.715
10406SOL    HW132117   3.035   4.935   1.799
10406SOL    HW232118   3.119   4.918   1.660
10407SOL     OW32119   3.240   6.217   6.399
10407SOL    HW132120   3.329   6.257   6.421
10407SOL    HW232121   3.252   6.125   6.363
10408SOL     OW32122   5.001   0.891   0.311
10408SOL    HW132123   4.983   0.906   0.214
10408SOL    HW232124   5.039   0.799   0.324
10409SOL     OW32125   6.632   4.940   0.378
10409SOL    HW132126   6.533   4.942   0.390
10409SOL    HW232127   6.677   4.945   0.467
10410SOL     OW32128   5.475   1.591   0.071
10410SOL    HW132129   5.450   1.553   7.005
10410SOL    HW232130   5.426   1.677   0.086
10411SOL     OW32131   2.940   5.510   3.111
10411SOL    HW132132   3.028   5.485   3.151
10411SOL    HW232133   2.888   5.427   3.092
10412SOL     OW32134   6.124   1.172   0.476
10412SOL    HW132135   6.147   1.084   0.518
10412SOL    HW232136   6.161   1.175   0.383
10413SOL     OW32137   0.061   2.005   1.499
10413SOL    HW132138   0.134   1.947   1.535
10413SOL    HW232139   0.034   1.972   1.409
10414SOL     OW32140   4.617   3.429   5.932
10414SOL    HW132141   4.647   3.403   5.841
10414SOL    HW232142   4.671   3.508   5.964
10415SOL     OW32143   0.478   5.458   6.029
10415SOL    HW132144   0.464   5.557   6.036
10415SOL    HW232145   0.567   5.440   5.987
10416SOL     OW32146   5.640   1.904   3.754
10416SOL    HW132147   5.724   1.850   3.747
10416SOL    HW232148   5.620   1.946   3.665
10417SOL     OW32149   3.091   5.038   4.308
10417SOL    HW132150   3.074   5.036   4.407
10417SOL    HW232151   3.028   4.975   4.262
10418SOL     OW32152   0.020   4.796   5.679
10418SOL    HW132153   6.966   4.841   5.726
10418SOL    HW232154   0.096   4.861   5.670
10419SOL     OW32155   1.247   0.783   6.809
10419SOL    HW132156   1.292   0.733   6.882
10419SOL    HW232157   1.298   0.866   6.789
10420SOL     OW32158   0.408   3.354   2.544
10420SOL    HW132159   0.411   3.338   2.445
10420SOL    HW232160   0.361   3.440   2.562
10421SOL     OW32161   1.364   1.525   3.527
10421SOL    HW132162   1.333   1.551   3.618
10421SOL    HW232163   1.285   1.511   3.467
10422SOL     OW32164   6.649   2.360   5.490
10422SOL    HW132165   6.747   2.350   5.508
10422SOL    HW232166   6.615   2.279   5.444
10423SOL     OW32167   5.208   5.107   4.593
10423SOL    HW132168   5.137   5.044   4.622
10423SOL    HW232169   5.237   5.083   4.500
10424SOL     OW32170   5.300   2.141   6.941
10424SOL    HW132171   5.299   2.143   6.841
10424SOL    HW232172   5.391   2.168   6.975
10425SOL     OW32173   1.849   6.787   2.308
10425SOL    HW132174   1.945   6.762   2.322
10425SOL    HW232175   1.798   6.771   2.393
10426SOL     OW32176   0.044   4.061   0.838
10426SOL    HW132177   6.977   4.090   0.806
10426SOL    HW232178   0.062   3.967   0.809
10427SOL     OW32179   4.535   1.811   0.327
10427SOL    HW132180   4.538   1.730   0.268
10427SOL    HW232181   4.622   1.819   0.376
10428SOL     OW32182   3.433   1.277   4.784
10428SOL    HW132183   3.525   1.248   4.809
10428SOL    HW232184   3.434   1.372   4.755
10429SOL     OW32185   6.824   5.776   1.285
10429SOL    HW132186   6.864   5.758   1.195
10429SOL    HW232187   6.853   5.705   1.349
10430SOL     OW32188   4.656   0.530   3.581
10430SOL    HW132189   4.618   0.456   3.637
10430SOL    HW232190   4.581   0.587   3.547
10431SOL     OW32191   3.177   0.381   5.529
10431SOL    HW132192   3.139   0.326   5.454
10431SOL    HW232193   3.276   0.388   5.518
10432SOL     OW32194   6.102   1.007   4.103
10432SOL    HW132195   6.172   1.072   4.074
10432SOL    HW232196   6.062   0.963   4.023
10433SOL     OW32197   1.882   6.339   1.699
10433SOL    HW132198   1.929   6.422   1.729
10433SOL    HW232199   1.937   6.259   1.724
10434SOL     OW32200   3.355   0.200   3.231
10434SOL    HW132201   3.413   0.137   3.180
10434SOL    HW232202   3.262   0.198   3.192
10435SOL     OW32203   6.304   6.890   5.360
10435SOL    HW132204   6.397   6.924   5.347
10435SOL    HW232205   6.296   6.847   5.449
10436SOL     OW32206   0.478   4.959   4.680
10436SOL    HW132207   0.538   4.911   4.745
10436SOL    HW232208   0.521   5.045   4.653
10437SOL     OW32209   6.375   5.195   5.380
10437SOL    HW132210   6.326   5.169   5.297
10437SOL    HW232211   6.407   5.113   5.427
10438SOL     OW32212   5.471   6.621   0.304
10438SOL    HW132213   5.486   6.610   0.206
10438SOL    HW232214   5.559   6.632   0.350
10439SOL     OW32215   3.504   1.238   5.781
10439SOL    HW132216   3.520   1.250   5.879
10439SOL    HW232217   3.582   1.274   5.730
10440SOL     OW32218   0.637   6.464   1.192
10440SOL    HW132219   0.606   6.512   1.109
10440SOL    HW232220   0.558   6.448   1.252
10441SOL     OW32221   5.365   1.503   6.865
10441SOL    HW132222   5.326   1.577   6.811
10441SOL    HW232223   5.293   1.440   6.893
10442SOL     OW32224   3.527   5.165   5.692
10442SOL    HW132225   3.539   5.068   5.669
10442SOL    HW232226   3.537   5.178   5.791
10443SOL     OW32227   5.534   3.747   4.616
10443SOL    HW132228   5.562   3.663   4.663
10443SOL    HW232229   5.435   3.749   4.608
10444SOL     OW32230   3.936   5.266   4.549
10444SOL    HW132231   4.030   5.237   4.530
10444SOL    HW232232   3.877   5.185   4.556
10445SOL     OW32233   0.254   4.775   4.119
10445SOL    HW132234   0.247   4.713   4.041
10445SOL    HW232235   0.313   4.852   4.096
10446SOL     OW32236   0.629   4.369   6.769
10446SOL    HW132237   0.535   4.386   6.741
10446SOL    HW232238   0.681   4.334   6.691
10447SOL     OW32239   0.086   1.448   1.955
10447SOL    HW132240   7.012   1.464   1.933
10447SOL    HW232241   0.143   1.491   1.885
10448SOL     OW32242   4.467   3.510   1.103
10448SOL    HW132243   4.505   3.566   1.178
10448SOL    HW232244   4.454   3.567   1.022
10449SOL     OW32245   2.479   5.422   4.258
10449SOL    HW132246   2.546   5.492   4.283
10449SOL    HW232247   2.439   5.444   4.169
10450SOL     OW32248   0.146   2.674   6.709
10450SOL    HW132249   0.113   2.724   6.629
10450SOL    HW232250   0.226   2.620   6.684
10451SOL     OW32251   2.546   4.617   2.554
10451SOL    HW132252   2.553   4.524   2.590
10451SOL    HW232253   2.455   4.654   2.574
10452SOL     OW32254   0.088   3.371   3.224
10452SOL    HW132255   0.156   3.312   3.266
10452SOL    HW232256   7.021   3.351   3.263
10453SOL     OW32257   5.633   5.935   1.699
10453SOL    HW132258   5.570   5.956   1.623
10453SOL    HW232259   5.611   5.995   1.777
10454SOL     OW32260   5.303   3.147   1.519
10454SOL    HW132261   5.355   3.140   1.434
10454SOL    HW232262   5.210   3.116   1.504
10455SOL     OW32263   0.450   5.294   3.712
10455SOL    HW132264   0.461   5.393   3.703
10455SOL    HW232265   0.354   5.271   3.724
10456SOL     OW32266   2.815   6.121   1.287
10456SOL    HW132267   2.851   6.214   1.289
10456SOL    HW232268   2.887   6.057   1.314
10457SOL     OW32269   3.679   3.825   3.774
10457SOL    HW132270   3.706   3.829   3.678
10457SOL    HW232271   3.760   3.839   3.831
10458SOL     OW32272   0.712   0.193   0.182
10458SOL    HW132273   0.717   0.289   0.210
10458SOL    HW232274   0.689   0.188   0.085
10459SOL     OW32275   5.634   5.405   2.264
10459SOL    HW132276   5.669   5.337   2.200
10459SOL    HW232277   5.613   5.489   2.215
10460SOL     OW32278   2.797   6.001   2.134
10460SOL    HW132279   2.815   5.997   2.036
10460SOL    HW232280   2.864   6.062   2.177
10461SOL     OW32281   2.103   6.691   6.628
10461SOL    HW132282   2.110   6.716   6.725
10461SOL    HW232283   2.122   6.594   6.617
10462SOL     OW32284   5.961   0.526   1.391
10462SOL    HW132285   6.057   0.549   1.375
10462SOL    HW232286   5.939   0.540   1.487
10463SOL     OW32287   2.856   4.414   6.553
10463SOL    HW132288   2.803   4.341   6.510
10463SOL    HW232289   2.832   4.502   6.510
10464SOL     OW32290   4.435   0.306   1.221
10464SOL    HW132291   4.422   0.386   1.280
10464SOL    HW232292   4.346   0.269   1.195
10465SOL     OW32293   0.662   6.577   5.843
10465SOL    HW132294   0.749   6.623   5.854
10465SOL    HW232295   0.633   6.583   5.747
10466SOL     OW32296   4.698   5.231   5.063
10466SOL    HW132297   4.791   5.267   5.068
10466SOL    HW232298   4.680   5.198   4.970
10467SOL     OW32299   1.915   1.282   5.786
10467SOL    HW132300   1.993   1.340   5.762
10467SOL    HW232301   1.937   1.186   5.769
10468SOL     OW32302   3.487   6.357   4.167
10468SOL    HW132303   3.451   6.317   4.083
10468SOL    HW232304   3.412   6.397   4.220
10469SOL     OW32305   2.314   4.023   0.771
10469SOL    HW132306   2.225   4.060   0.745
10469SOL    HW232307   2.309   3.923   0.770
10470SOL     OW32308   2.346   1.499   4.446
10470SOL    HW132309   2.405   1.421   4.466
10470SOL    HW232310   2.282   1.474   4.374
10471SOL     OW32311   2.676   4.014   1.565
10471SOL    HW132312   2.738   4.061   1.628
10471SOL    HW232313   2.581   4.031   1.592
10472SOL     OW32314   3.771   6.890   2.505
10472SOL    HW132315   3.731   6.981   2.520
10472SOL    HW232316   3.814   6.888   2.415
10473SOL     OW32317   5.941   6.431   7.018
10473SOL    HW132318   6.025   6.484   0.000
10473SOL    HW232319   5.894   6.433   0.083
10474SOL     OW32320   3.958   0.689   4.361
10474SOL    HW132321   3.871   0.654   4.397
10474SOL    HW232322   4.015   0.614   4.330
10475SOL     OW32323   4.206   6.875   1.210
10475SOL    HW132324   4.192   6.780   1.238
10475SOL    HW232325   4.121   6.911   1.170
10476SOL     OW32326   6.595   5.537   6.336
10476SOL    HW132327   6.634   5.623   6.371
10476SOL    HW232328   6.569   5.479   6.414
10477SOL     OW32329   5.472   3.410   4.867
10477SOL    HW132330   5.453   3.331   4.809
10477SOL    HW232331   5.551   3.390   4.925
10478SOL     OW32332   0.702   6.620   0.213
10478SOL    HW132333   0.786   6.623   0.267
10478SOL    HW232334   0.651   6.704   0.226
10479SOL     OW32335   1.666   3.535   2.085
10479SOL    HW132336   1.588   3.583   2.045
10479SOL    HW232337   1.750   3.585   2.065
10480SOL     OW32338   5.525   6.743   2.089
10480SOL    HW132339   5.448   6.710   2.034
10480SOL    HW232340   5.605   6.685   2.070
10481SOL     OW32341   2.594   1.074   5.211
10481SOL    HW132342   2.651   0.993   5.209
10481SOL    HW232343   2.521   1.063   5.280
10482SOL     OW32344   0.723   5.964   4.868
10482SOL    HW132345   0.646   5.954   4.805
10482SOL    HW232346   0.786   6.033   4.832
10483SOL     OW32347   6.243   5.949   6.841
10483SOL    HW132348   6.182   5.986   6.911
10483SOL    HW232349   6.335   5.940   6.878
10484SOL     OW32350   0.313   1.142   1.440
10484SOL    HW132351   0.252   1.073   1.403
10484SOL    HW232352   0.387   1.161   1.375
10485SOL     OW32353   3.286   3.760   2.830
10485SOL    HW132354   3.381   3.773   2.860
10485SOL    HW232355   3.268   3.663   2.818
10486SOL     OW32356   0.182   6.666   5.604
10486SOL    HW132357   0.231   6.665   5.518
10486SOL    HW232358   0.084   6.679   5.586
10487SOL     OW32359   4.446   1.762   1.945
10487SOL    HW132360   4.348   1.753   1.926
10487SOL    HW232361   4.461   1.765   2.044
10488SOL     OW32362   0.479   2.193   5.804
10488SOL    HW132363   0.380   2.201   5.799
10488SOL    HW232364   0.515   2.260   5.868
10489SOL     OW32365   5.887   4.747   3.918
10489SOL    HW132366   5.845   4.662   3.888
10489SOL    HW232367   5.816   4.810   3.949
10490SOL     OW32368   5.932   0.270   0.695
10490SOL    HW132369   5.838   0.290   0.665
10490SOL    HW232370   5.939   0.282   0.794
10491SOL     OW32371   1.258   3.384   6.424
10491SOL    HW132372   1.255   3.411   6.520
10491SOL    HW232373   1.331   3.434   6.378
10492SOL     OW32374   4.720   0.566   0.733
10492SOL    HW132375   4.689   0.509   0.657
10492SOL    HW232376   4.709   0.515   0.819
10493SOL     OW32377   4.472   5.724   1.438
10493SOL    HW132378   4.539   5.798   1.439
10493SOL    HW232379   4.432   5.717   1.347
10494SOL     OW32380   0.712   4.367   5.949
10494SOL    HW132381   0.626   4.342   5.905
10494SOL    HW232382   0.710   4.463   5.976
10495SOL     OW32383   1.113   6.249   5.901
10495SOL    HW132384   1.086   6.328   5.846
10495SOL    HW232385   1.052   6.240   5.980
10496SOL     OW32386   6.837   3.838   5.267
10496SOL    HW132387   6.825   3.748   5.225
10496SOL    HW232388   6.749   3.884   5.273
10497SOL     OW32389   2.351   0.335   1.662
10497SOL    HW132390   2.419   0.262   1.672
10497SOL    HW232391   2.398   0.422   1.651
10498SOL     OW32392   5.081   5.437   0.900
10498SOL    HW132393   5.084   5.536   0.907
10498SOL    HW232394   5.134   5.397   0.975
10499SOL     OW32395   5.416   5.572   1.811
10499SOL    HW132396   5.453   5.611   1.895
10499SOL    HW232397   5.490   5.556   1.746
10500SOL     OW32398   6.361   3.666   5.348
10500SOL    HW132399   6.428   3.595   5.329
10500SOL    HW232400   6.270   3.636   5.318
10501SOL     OW32401   2.541   5.804   2.643
10501SOL    HW132402   2.547   5.704   2.650
10501SOL    HW232403   2.609   5.836   2.576
10502SOL     OW32404   2.888   3.302   2.476
10502SOL    HW132405   2.801   3.254   2.470
10502SOL    HW232406   2.957   3.255   2.420
10503SOL     OW32407   6.758   3.158   6.343
10503SOL    HW132408   6.840   3.188   6.392
10503SOL    HW232409   6.754   3.204   6.254
10504SOL     OW32410   1.827   2.748   6.406
10504SOL    HW132411   1.915   2.701   6.415
10504SOL    HW232412   1.823   2.825   6.470
10505SOL     OW32413   6.135   6.082   1.572
10505SOL    HW132414   6.227   6.113   1.549
10505SOL    HW232415   6.100   6.136   1.650
10506SOL     OW32416   1.228   2.789   0.150
10506SOL    HW132417   1.274   2.835   0.226
10506SOL    HW232418   1.177   2.710   0.185
10507SOL     OW32419   1.971   4.942   0.151
10507SOL    HW132420   2.031   4.886   0.095
10507SOL    HW232421   1.995   5.038   0.140
10508SOL     OW32422   1.209   4.884   5.031
10508SOL    HW132423   1.233   4.966   4.980
10508SOL    HW232424   1.161   4.910   5.115
10509SOL     OW32425   5.038   3.395   3.630
10509SOL    HW132426   5.108   3.395   3.701
10509SOL    HW232427   5.058   3.325   3.562
10510SOL     OW32428   4.648   5.549   4.882
10510SOL    HW132429   4.581   5.478   4.904
10510SOL    HW232430   4.607   5.614   4.818
10511SOL     OW32431   3.284   2.013   2.258
10511SOL    HW132432   3.361   2.076   2.247
10511SOL    HW232433   3.305   1.927   2.212
10512SOL     OW32434   4.512   0.795   5.048
10512SOL    HW132435   4.499   0.883   5.002
10512SOL    HW232436   4.585   0.744   5.002
10513SOL     OW32437   5.331   3.417   1.712
10513SOL    HW132438   5.236   3.437   1.736
10513SOL    HW232439   5.334   3.340   1.648
10514SOL     OW32440   0.931   3.177   1.556
10514SOL    HW132441   0.963   3.110   1.490
10514SOL    HW232442   0.960   3.150   1.648
10515SOL     OW32443   2.047   3.165   4.467
10515SOL    HW132444   1.951   3.150   4.491
10515SOL    HW232445   2.079   3.250   4.509
10516SOL     OW32446   3.630   2.471   0.619
10516SOL    HW132447   3.637   2.564   0.655
10516SOL    HW232448   3.636   2.405   0.694
10517SOL     OW32449   0.922   3.282   3.082
10517SOL    HW132450   0.937   3.197   3.133
10517SOL    HW232451   0.860   3.264   3.006
10518SOL     OW32452   0.491   5.181   2.230
10518SOL    HW132453   0.574   5.134   2.259
10518SOL    HW232454   0.514   5.252   2.163
10519SOL     OW32455   2.246   6.630   1.181
10519SOL    HW132456   2.160   6.602   1.224
10519SOL    HW232457   2.243   6.605   1.084
10520SOL     OW32458   6.947   1.687   5.747
10520SOL    HW132459   0.018   1.722   5.739
10520SOL    HW232460   6.945   1.614   5.816
10521SOL     OW32461   6.123   3.469   1.042
10521SOL    HW132462   6.051   3.435   0.982
10521SOL    HW232463   6.085   3.540   1.102
10522SOL     OW32464   5.293   2.503   3.302
10522SOL    HW132465   5.368   2.558   3.339
10522SOL    HW232466   5.254   2.550   3.223
10523SOL     OW32467   6.990   4.708   3.908
10523SOL    HW132468   6.915   4.769   3.933
10523SOL    HW232469   6.992   4.629   3.970
10524SOL     OW32470   6.443   6.330   3.674
10524SOL    HW132471   6.500   6.247   3.678
10524SOL    HW232472   6.493   6.407   3.714
10525SOL     OW32473   4.552   1.471   5.059
10525SOL    HW132474   4.565   1.472   5.158
10525SOL    HW232475   4.545   1.564   5.025
10526SOL     OW32476   1.188   5.335   0.135
10526SOL    HW132477   1.137   5.267   0.188
10526SOL    HW232478   1.282   5.303   0.122
10527SOL     OW32479   0.615   0.799   5.108
10527SOL    HW132480   0.675   0.722   5.129
10527SOL    HW232481   0.580   0.838   5.193
10528SOL     OW32482   0.306   4.741   6.497
10528SOL    HW132483   0.344   4.824   6.538
10528SOL    HW232484   0.296   4.671   6.568
10529SOL     OW32485   1.500   6.273   6.482
10529SOL    HW132486   1.510   6.347   6.549
10529SOL    HW232487   1.587   6.261   6.433
10530SOL     OW32488   0.898   6.764   0.068
10530SOL    HW132489   0.962   6.690   0.085
10530SOL    HW232490   0.916   6.839   0.132
10531SOL     OW32491   2.929   2.877   5.374
10531SOL    HW132492   2.847   2.927   5.401
10531SOL    HW232493   2.904   2.783   5.350
10532SOL     OW32494   5.936   5.908   6.605
10532SOL    HW132495   5.966   6.001   6.630
10532SOL    HW232496   5.969   5.887   6.513
10533SOL     OW32497   3.250   5.581   3.353
10533SOL    HW132498   3.229   5.503   3.294
10533SOL    HW232499   3.177   5.650   3.345
10534SOL     OW32500   1.144   5.874   2.507
10534SOL    HW132501   1.076   5.920   2.565
10534SOL    HW232502   1.235   5.904   2.534
10535SOL     OW32503   3.046   1.914   3.515
10535SOL    HW132504   3.057   1.908   3.614
10535SOL    HW232505   3.034   2.010   3.489
10536SOL     OW32506   5.369   1.168   4.239
10536SOL    HW132507   5.420   1.090   4.274
10536SOL    HW232508   5.425   1.251   4.246
10537SOL     OW32509   4.979   6.858   2.767
10537SOL    HW132510   4.976   6.888   2.672
10537SOL    HW232511   4.922   6.919   2.823
10538SOL     OW32512   6.133   3.261   2.549
10538SOL    HW132513   6.083   3.174   2.547
10538SOL    HW232514   6.231   3.242   2.554
10539SOL     OW32515   6.204   6.872   2.830
10539SOL    HW132516   6.276   6.847   2.896
10539SOL    HW232517   6.237   6.855   2.737
10540SOL     OW32518   2.511   3.620   5.958
10540SOL    HW132519   2.548   3.686   5.893
10540SOL    HW232520   2.416   3.599   5.935
10541SOL     OW32521   2.895   3.195   5.107
10541SOL    HW132522   2.959   3.147   5.167
10541SOL    HW232523   2.829   3.129   5.071
10542SOL     OW32524   5.821   6.995   4.306
10542SOL    HW132525   5.880   6.916   4.286
10542SOL    HW232526   5.728   6.962   4.325
10543SOL     OW32527   0.045   3.029   5.497
10543SOL    HW132528   0.033   2.933   5.523
10543SOL    HW232529   0.018   3.088   5.574
10544SOL     OW32530   1.405   1.285   3.798
10544SOL    HW132531   1.474   1.307   3.729
10544SOL    HW232532   1.397   1.186   3.806
10545SOL     OW32533   2.425   2.537   2.596
10545SOL    HW132534   2.514   2.494   2.583
10545SOL    HW232535   2.377   2.541   2.508
10546SOL     OW32536   3.180   6.881   1.196
10546SOL    HW132537   3.167   6.947   1.270
10546SOL    HW232538   3.274   6.886   1.163
10547SOL     OW32539   4.320   6.636   4.928
10547SOL    HW132540   4.311   6.707   4.998
10547SOL    HW232541   4.303   6.675   4.838
10548SOL     OW32542   1.221   4.553   4.212
10548SOL    HW132543   1.181   4.529   4.124
10548SOL    HW232544   1.149   4.551   4.282
10549SOL     OW32545   0.126   1.356   0.722
10549SOL    HW132546   0.071   1.315   0.794
10549SOL    HW232547   0.076   1.353   0.636
10550SOL     OW32548   3.385   6.030   3.087
10550SOL    HW132549   3.307   6.008   3.146
10550SOL    HW232550   3.460   5.966   3.105
10551SOL     OW32551   3.419   2.223   5.993
10551SOL    HW132552   3.412   2.170   6.077
10551SOL    HW232553   3.341   2.285   5.986
10552SOL     OW32554   3.322   0.654   4.489
10552SOL    HW132555   3.355   0.662   4.583
10552SOL    HW232556   3.283   0.563   4.475
10553SOL     OW32557   6.999   4.939   0.590
10553SOL    HW132558   7.012   5.015   0.527
10553SOL    HW232559   0.012   4.855   0.549
10554SOL     OW32560   6.178   5.060   2.817
10554SOL    HW132561   6.122   5.016   2.746
10554SOL    HW232562   6.147   5.030   2.907
10555SOL     OW32563   3.292   2.355   0.465
10555SOL    HW132564   3.378   2.404   0.483
10555SOL    HW232565   3.238   2.406   0.398
10556SOL     OW32566   2.035   2.290   2.978
10556SOL    HW132567   2.082   2.205   2.952
10556SOL    HW232568   2.024   2.348   2.898
10557SOL     OW32569   2.138   4.323   3.551
10557SOL    HW132570   2.127   4.418   3.582
10557SOL    HW232571   2.143   4.322   3.451
10558SOL     OW32572   3.036   5.475   5.775
10558SOL    HW132573   3.099   5.552   5.769
10558SOL    HW232574   2.945   5.508   5.799
10559SOL     OW32575   4.005   0.034   6.407
10559SOL    HW132576   3.979   7.018   6.495
10559SOL    HW232577   4.083   7.006   6.370
10560SOL     OW32578   5.090   6.514   1.834
10560SOL    HW132579   5.050   6.428   1.867
10560SOL    HW232580   5.081   6.520   1.735
10561SOL     OW32581   6.274   3.879   0.294
10561SOL    HW132582   6.297   3.956   0.354
10561SOL    HW232583   6.206   3.821   0.339
10562SOL     OW32584   3.190   6.275   1.422
10562SOL    HW132585   3.263   6.304   1.360
10562SOL    HW232586   3.103   6.276   1.373
10563SOL     OW32587   0.480   0.754   0.413
10563SOL    HW132588   0.402   0.803   0.452
10563SOL    HW232589   0.530   0.814   0.350
10564SOL     OW32590   5.964   5.730   3.769
10564SOL    HW132591   5.960   5.798   3.842
10564SOL    HW232592   6.035   5.755   3.704
10565SOL     OW32593   6.862   6.966   5.144
10565SOL    HW132594   6.940   7.013   5.185
10565SOL    HW232595   6.812   0.007   5.085
10566SOL     OW32596   2.621   2.888   0.075
10566SOL    HW132597   2.701   2.907   0.019
10566SOL    HW232598   2.621   2.949   0.154
10567SOL     OW32599   1.192   2.064   6.253
10567SOL    HW132600   1.242   1.982   6.225
10567SOL    HW232601   1.112   2.075   6.195
10568SOL     OW32602   5.272   2.442   6.169
10568SOL    HW132603   5.299   2.346   6.166
10568SOL    HW232604   5.173   2.449   6.160
10569SOL     OW32605   5.354   6.711   1.570
10569SOL    HW132606   5.448   6.732   1.540
10569SOL    HW232607   5.317   6.789   1.620
10570SOL     OW32608   0.676   5.002   4.353
10570SOL    HW132609   0.753   5.065   4.340
10570SOL    HW232610   0.712   4.909   4.368
10571SOL     OW32611   0.289   4.464   5.823
10571SOL    HW132612   0.263   4.430   5.733
10571SOL    HW232613   0.369   4.414   5.856
10572SOL     OW32614   5.870   4.508   1.353
10572SOL    HW132615   5.801   4.491   1.422
10572SOL    HW232616   5.877   4.428   1.293
10573SOL     OW32617   5.723   1.017   3.712
10573SOL    HW132618   5.720   0.967   3.799
10573SOL    HW232619   5.629   1.041   3.684
10574SOL     OW32620   0.135   1.717   3.768
10574SOL    HW132621   0.226   1.677   3.773
10574SOL    HW232622   0.123   1.784   3.842
10575SOL     OW32623   6.312   1.017   1.776
10575SOL    HW132624   6.242   1.078   1.815
10575SOL    HW232625   6.346   1.056   1.690
10576SOL     OW32626   2.056   5.096   3.513
10576SOL    HW132627   1.977   5.155   3.496
10576SOL    HW232628   2.112   5.135   3.586
10577SOL     OW32629   4.003   6.337   0.630
10577SOL    HW132630   4.100   6.356   0.619
10577SOL    HW232631   3.987   6.238   0.618
10578SOL     OW32632   6.753   2.580   3.925
10578SOL    HW132633   6.720   2.569   4.019
10578SOL    HW232634   6.676   2.572   3.862
10579SOL     OW32635   2.116   3.691   1.099
10579SOL    HW132636   2.081   3.626   1.166
10579SOL    HW232637   2.061   3.686   1.015
10580SOL     OW32638   6.395   6.767   6.628
10580SOL    HW132639   6.369   6.688   6.573
10580SOL    HW232640   6.404   6.847   6.569
10581SOL     OW32641   5.167   0.037   3.049
10581SOL    HW132642   5.169   0.109   2.980
10581SOL    HW232643   5.078   7.014   3.048
10582SOL     OW32644   5.853   4.532   6.467
10582SOL    HW132645   5.875   4.437   6.443
10582SOL    HW232646   5.926   4.570   6.524
10583SOL     OW32647   2.535   0.587   4.257
10583SOL    HW132648   2.565   0.494   4.282
10583SOL    HW232649   2.487   0.584   4.169
10584SOL     OW32650   7.004   0.105   5.324
10584SOL    HW132651   7.020   0.193   5.368
10584SOL    HW232652   0.048   0.038   5.356
10585SOL     OW32653   0.712   0.865   5.875
10585SOL    HW132654   0.740   0.919   5.796
10585SOL    HW232655   0.615   0.842   5.867
10586SOL     OW32656   4.629   4.338   5.619
10586SOL    HW132657   4.547   4.303   5.665
10586SOL    HW232658   4.644   4.288   5.534
10587SOL     OW32659   1.005   5.558   5.541
10587SOL    HW132660   1.055   5.617   5.605
10587SOL    HW232661   1.055   5.553   5.454
10588SOL     OW32662   1.405   4.357   4.493
10588SOL    HW132663   1.461   4.289   4.445
10588SOL    HW232664   1.465   4.427   4.532
10589SOL     OW32665   5.428   6.387   3.989
10589SOL    HW132666   5.416   6.321   3.914
10589SOL    HW232667   5.514   6.368   4.036
10590SOL     OW32668   0.322   5.581   2.412
10590SOL    HW132669   0.252   5.643   2.377
10590SOL    HW232670   0.355   5.614   2.501
10591SOL     OW32671   1.325   1.901   1.431
10591SOL    HW132672   1.396   1.959   1.472
10591SOL    HW232673   1.331   1.906   1.331
10592SOL     OW32674   6.147   1.997   5.507
10592SOL    HW132675   6.053   2.031   5.507
10592SOL    HW232676   6.210   2.075   5.508
10593SOL     OW32677   3.244   6.440   1.901
10593SOL    HW132678   3.207   6.419   1.811
10593SOL    HW232679   3.190   6.512   1.944
10594SOL     OW32680   3.126   0.513   3.600
10594SOL    HW132681   3.184   0.456   3.542
10594SOL    HW232682   3.121   0.605   3.562
10595SOL     OW32683   5.857   0.168   1.082
10595SOL    HW132684   5.773   0.142   1.128
10595SOL    HW232685   5.929   0.184   1.150
10596SOL     OW32686   4.870   1.583   6.816
10596SOL    HW132687   4.865   1.498   6.765
10596SOL    HW232688   4.907   1.655   6.757
10597SOL     OW32689   2.524   0.462   6.066
10597SOL    HW132690   2.605   0.442   6.011
10597SOL    HW232691   2.442   0.433   6.016
10598SOL     OW32692   2.581   1.394   6.010
10598SOL    HW132693   2.641   1.473   5.995
10598SOL    HW232694   2.554   1.390   6.106
10599SOL     OW32695   0.173   3.525   6.175
10599SOL    HW132696   0.132   3.434   6.175
10599SOL    HW232697   0.170   3.562   6.082
10600SOL     OW32698   2.875   2.075   1.735
10600SOL    HW132699   2.897   2.045   1.828
10600SOL    HW232700   2.804   2.144   1.738
10601SOL     OW32701   0.254   6.720   5.912
10601SOL    HW132702   0.242   6.716   5.812
10601SOL    HW232703   0.242   6.814   5.943
10602SOL     OW32704   0.638   0.467   0.227
10602SOL    HW132705   0.542   0.478   0.203
10602SOL    HW232706   0.646   0.442   0.323
10603SOL     OW32707   4.465   6.938   1.935
10603SOL    HW132708   4.379   6.891   1.914
10603SOL    HW232709   4.481   6.937   2.034
10604SOL     OW32710   0.138   6.973   4.736
10604SOL    HW132711   0.059   6.918   4.760
10604SOL    HW232712   0.136   0.037   4.786
10605SOL     OW32713   2.569   1.392   1.070
10605SOL    HW132714   2.566   1.413   1.168
10605SOL    HW232715   2.663   1.400   1.036
10606SOL     OW32716   6.486   0.852   1.310
10606SOL    HW132717   6.423   0.821   1.238
10606SOL    HW232718   6.532   0.774   1.351
10607SOL     OW32719   3.865   4.598   6.160
10607SOL    HW132720   3.899   4.668   6.223
10607SOL    HW232721   3.822   4.643   6.081
10608SOL     OW32722   6.119   3.315   2.878
10608SOL    HW132723   6.039   3.288   2.825
10608SOL    HW232724   6.104   3.405   2.919
10609SOL     OW32725   4.524   0.913   6.884
10609SOL    HW132726   4.595   0.883   6.821
10609SOL    HW232727   4.484   0.833   6.929
10610SOL     OW32728   0.680   1.227   4.380
10610SOL    HW132729   0.628   1.154   4.336
10610SOL    HW232730   0.686   1.305   4.319
10611SOL     OW32731   2.819   5.659   5.433
10611SOL    HW132732   2.869   5.717   5.497
10611SOL    HW232733   2.799   5.571   5.476
10612SOL     OW32734   5.298   1.482   4.049
10612SOL    HW132735   5.199   1.491   4.034
10612SOL    HW232736   5.339   1.440   3.968
10613SOL     OW32737   6.049   6.825   4.402
10613SOL    HW132738   6.012   6.741   4.364
10613SOL    HW232739   6.030   6.829   4.500
10614SOL     OW32740   5.280   0.079   6.667
10614SOL    HW132741   5.285   0.163   6.720
10614SOL    HW232742   5.254   0.100   6.573
10615SOL     OW32743   2.304   2.479   6.624
10615SOL    HW132744   2.315   2.578   6.626
10615SOL    HW232745   2.242   2.451   6.698
10616SOL     OW32746   2.233   6.370   6.314
10616SOL    HW132747   2.252   6.466   6.335
10616SOL    HW232748   2.140   6.348   6.341
10617SOL     OW32749   2.392   3.382   1.227
10617SOL    HW132750   2.402   3.479   1.250
10617SOL    HW232751   2.349   3.373   1.137
10618SOL     OW32752   0.504   5.256   4.747
10618SOL    HW132753   0.515   5.348   4.711
10618SOL    HW232754   0.586   5.231   4.799
10619SOL     OW32755   1.288   1.865   3.184
10619SOL    HW132756   1.262   1.894   3.276
10619SOL    HW232757   1.208   1.829   3.136
10620SOL     OW32758   2.908   0.404   6.771
10620SOL    HW132759   2.908   0.493   6.727
10620SOL    HW232760   2.975   0.345   6.727
10621SOL     OW32761   0.972   3.554   3.399
10621SOL    HW132762   0.961   3.469   3.346
10621SOL    HW232763   1.052   3.603   3.366
10622SOL     OW32764   4.169   3.388   0.622
10622SOL    HW132765   4.217   3.445   0.554
10622SOL    HW232766   4.166   3.294   0.590
10623SOL     OW32767   5.572   6.034   6.974
10623SOL    HW132768   5.604   6.124   7.002
10623SOL    HW232769   5.642   5.965   6.994
10624SOL     OW32770   0.200   2.329   5.151
10624SOL    HW132771   0.200   2.277   5.237
10624SOL    HW232772   0.220   2.267   5.075
10625SOL     OW32773   6.754   4.287   6.479
10625SOL    HW132774   6.757   4.225   6.401
10625SOL    HW232775   6.682   4.260   6.542
10626SOL     OW32776   4.751   3.356   1.107
10626SOL    HW132777   4.757   3.262   1.074
10626SOL    HW232778   4.762   3.357   1.207
10627SOL     OW32779   5.494   6.183   5.894
10627SOL    HW132780   5.578   6.213   5.851
10627SOL    HW232781   5.449   6.115   5.835
10628SOL     OW32782   4.753   0.400   0.400
10628SOL    HW132783   4.667   0.394   0.450
10628SOL    HW232784   4.777   0.496   0.386
10629SOL     OW32785   3.680   5.369   4.691
10629SOL    HW132786   3.624   5.307   4.637
10629SOL    HW232787   3.776   5.359   4.664
10630SOL     OW32788   4.423   0.301   3.411
10630SOL    HW132789   4.387   0.394   3.404
10630SOL    HW232790   4.520   0.301   3.384
10631SOL     OW32791   4.639   5.855   0.065
10631SOL    HW132792   4.566   5.850   0.132
10631SOL    HW232793   4.713   5.793   0.092
10632SOL     OW32794   4.697   5.697   3.270
10632SOL    HW132795   4.773   5.715   3.332
10632SOL    HW232796   4.703   5.603   3.237
10633SOL     OW32797   1.813   2.977   2.254
10633SOL    HW132798   1.778   2.935   2.337
10633SOL    HW232799   1.786   3.073   2.252
10634SOL     OW32800   0.431   4.549   6.960
10634SOL    HW132801   0.398   4.593   6.876
10634SOL    HW232802   0.379   4.466   6.976
10635SOL     OW32803   2.229   3.755   0.210
10635SOL    HW132804   2.210   3.657   0.207
10635SOL    HW232805   2.143   3.806   0.202
10636SOL     OW32806   6.482   2.043   6.198
10636SOL    HW132807   6.531   2.074   6.279
10636SOL    HW232808   6.507   2.101   6.120
10637SOL     OW32809   3.122   6.759   6.727
10637SOL    HW132810   3.060   6.686   6.757
10637SOL    HW232811   3.206   6.755   6.780
10638SOL     OW32812   0.311   5.457   1.761
10638SOL    HW132813   0.347   5.372   1.722
10638SOL    HW232814   0.324   5.532   1.695
10639SOL     OW32815   1.965   3.781   1.678
10639SOL    HW132816   1.971   3.802   1.580
10639SOL    HW232817   1.996   3.687   1.693
10640SOL     OW32818   4.617   6.925   3.571
10640SOL    HW132819   4.683   6.884   3.509
10640SOL    HW232820   4.655   6.929   3.663
10641SOL     OW32821   0.860   0.225   3.294
10641SOL    HW132822   0.925   0.149   3.303
10641SOL    HW232823   0.767   0.188   3.292
10642SOL     OW32824   5.529   2.229   0.033
10642SOL    HW132825   5.482   2.283   0.104
10642SOL    HW232826   5.614   2.193   0.070
10643SOL     OW32827   2.025   5.052   5.146
10643SOL    HW132828   2.070   4.963   5.151
10643SOL    HW232829   1.930   5.039   5.117
10644SOL     OW32830   6.929   2.598   2.520
10644SOL    HW132831   6.948   2.682   2.468
10644SOL    HW232832   6.831   2.579   2.518
10645SOL     OW32833   2.181   3.132   2.797
10645SOL    HW132834   2.082   3.122   2.791
10645SOL    HW232835   2.209   3.127   2.893
10646SOL     OW32836   4.971   1.072   4.471
10646SOL    HW132837   4.883   1.085   4.518
10646SOL    HW232838   4.955   1.030   4.382
10647SOL     OW32839   3.786   5.051   4.990
10647SOL    HW132840   3.768   5.020   4.896
10647SOL    HW232841   3.878   5.091   4.995
10648SOL     OW32842   5.578   4.903   4.948
10648SOL    HW132843   5.481   4.881   4.937
10648SOL    HW232844   5.609   4.959   4.871
10649SOL     OW32845   0.193   3.168   2.803
10649SOL    HW132846   0.111   3.135   2.849
10649SOL    HW232847   0.247   3.222   2.866
10650SOL     OW32848   6.820   0.361   4.168
10650SOL    HW132849   6.769   0.346   4.083
10650SOL    HW232850   6.858   0.275   4.200
10651SOL     OW32851   5.108   6.081   5.731
10651SOL    HW132852   5.158   6.091   5.645
10651SOL    HW232853   5.101   5.985   5.755
10652SOL     OW32854   1.606   6.657   6.433
10652SOL    HW132855   1.523   6.655   6.377
10652SOL    HW232856   1.685   6.632   6.376
10653SOL     OW32857   3.677   6.130   4.188
10653SOL    HW132858   3.629   6.045   4.211
10653SOL    HW232859   3.612   6.205   4.184
10654SOL     OW32860   5.357   1.259   4.864
10654SOL    HW132861   5.317   1.335   4.813
10654SOL    HW232862   5.328   1.172   4.823
10655SOL     OW32863   1.177   4.462   1.497
10655SOL    HW132864   1.088   4.457   1.543
10655SOL    HW232865   1.163   4.466   1.398
10656SOL     OW32866   6.863   1.583   1.832
10656SOL    HW132867   6.857   1.538   1.743
10656SOL    HW232868   6.890   1.678   1.820
10657SOL     OW32869   6.015   0.947   3.858
10657SOL    HW132870   5.985   1.007   3.785
10657SOL    HW232871   5.938   0.891   3.890
10658SOL     OW32872   5.898   3.745   4.553
10658SOL    HW132873   5.838   3.808   4.602
10658SOL    HW232874   5.847   3.701   4.479
10659SOL     OW32875   0.727   4.841   1.248
10659SOL    HW132876   0.824   4.864   1.250
10659SOL    HW232877   0.676   4.914   1.202
10660SOL     OW32878   6.393   3.269   5.437
10660SOL    HW132879   6.427   3.327   5.363
10660SOL    HW232880   6.294   3.258   5.429
10661SOL     OW32881   1.207   4.036   6.921
10661SOL    HW132882   1.214   4.126   6.964
10661SOL    HW232883   1.271   4.031   6.844
10662SOL     OW32884   3.015   1.391   3.576
10662SOL    HW132885   3.017   1.479   3.622
10662SOL    HW232886   2.938   1.336   3.611
10663SOL     OW32887   1.839   1.027   3.568
10663SOL    HW132888   1.765   1.005   3.631
10663SOL    HW232889   1.885   0.943   3.538
10664SOL     OW32890   1.203   5.389   4.341
10664SOL    HW132891   1.106   5.399   4.321
10664SOL    HW232892   1.241   5.478   4.369
10665SOL     OW32893   2.102   3.773   6.560
10665SOL    HW132894   2.015   3.788   6.514
10665SOL    HW232895   2.170   3.740   6.494
10666SOL     OW32896   3.928   3.313   1.937
10666SOL    HW132897   3.986   3.232   1.935
10666SOL    HW232898   3.855   3.304   1.869
10667SOL     OW32899   5.781   2.056   2.722
10667SOL    HW132900   5.848   2.109   2.774
10667SOL    HW232901   5.815   2.038   2.630
10668SOL     OW32902   2.971   2.368   5.378
10668SOL    HW132903   2.907   2.329   5.312
10668SOL    HW232904   3.062   2.373   5.338
10669SOL     OW32905   5.641   1.068   0.916
10669SOL    HW132906   5.571   1.035   0.979
10669SOL    HW232907   5.600   1.134   0.853
10670SOL     OW32908   4.877   3.841   4.251
10670SOL    HW132909   4.848   3.857   4.157
10670SOL    HW232910   4.918   3.751   4.259
10671SOL     OW32911   1.260   1.810   4.115
10671SOL    HW132912   1.215   1.898   4.128
10671SOL    HW232913   1.343   1.807   4.172
10672SOL     OW32914   6.188   3.878   1.634
10672SOL    HW132915   6.158   3.863   1.540
10672SOL    HW232916   6.158   3.968   1.664
10673SOL     OW32917   1.939   0.772   1.183
10673SOL    HW132918   1.935   0.692   1.242
10673SOL    HW232919   1.905   0.749   1.092
10674SOL     OW32920   3.957   3.231   4.502
10674SOL    HW132921   4.022   3.237   4.578
10674SOL    HW232922   4.007   3.221   4.416
10675SOL     OW32923   3.719   1.127   6.232
10675SOL    HW132924   3.780   1.107   6.309
10675SOL    HW232925   3.630   1.086   6.249
10676SOL     OW32926   0.961   5.794   5.377
10676SOL    HW132927   0.899   5.834   5.309
10676SOL    HW232928   0.911   5.727   5.432
10677SOL     OW32929   0.927   1.807   0.399
10677SOL    HW132930   1.013   1.791   0.351
10677SOL    HW232931   0.937   1.780   0.495
10678SOL     OW32932   4.284   5.137   3.848
10678SOL    HW132933   4.352   5.069   3.874
10678SOL    HW232934   4.290   5.155   3.750
10679SOL     OW32935   3.929   5.011   0.375
10679SOL    HW132936   3.854   4.989   0.313
10679SOL    HW232937   4.003   5.056   0.325
10680SOL     OW32938   3.487   1.560   4.287
10680SOL    HW132939   3.537   1.478   4.317
10680SOL    HW232940   3.420   1.586   4.357
10681SOL     OW32941   6.449   3.181   6.667
10681SOL    HW132942   6.425   3.099   6.720
10681SOL    HW232943   6.399   3.182   6.581
10682SOL     OW32944   5.993   3.184   4.454
10682SOL    HW132945   5.982   3.089   4.427
10682SOL    HW232946   5.938   3.203   4.535
10683SOL     OW32947   4.482   6.909   3.314
10683SOL    HW132948   4.386   6.880   3.309
10683SOL    HW232949   4.518   6.890   3.405
10684SOL     OW32950   5.197   4.753   1.329
10684SOL    HW132951   5.244   4.665   1.338
10684SOL    HW232952   5.123   4.758   1.396
10685SOL     OW32953   0.050   5.618   1.804
10685SOL    HW132954   7.000   5.551   1.820
10685SOL    HW232955   0.138   5.570   1.794
10686SOL     OW32956   2.377   3.945   6.525
10686SOL    HW132957   2.335   4.035   6.513
10686SOL    HW232958   2.338   3.901   6.606
10687SOL     OW32959   6.316   4.533   2.718
10687SOL    HW132960   6.406   4.546   2.676
10687SOL    HW232961   6.314   4.445   2.765
10688SOL     OW32962   5.629   1.343   1.813
10688SOL    HW132963   5.581   1.297   1.888
10688SOL    HW232964   5.727   1.333   1.824
10689SOL     OW32965   0.334   0.444   1.907
10689SOL    HW132966   0.380   0.527   1.876
10689SOL    HW232967   0.271   0.467   1.982
10690SOL     OW32968   6.727   5.313   3.372
10690SOL    HW132969   6.685   5.357   3.451
10690SOL    HW232970   6.785   5.378   3.324
10691SOL     OW32971   2.886   1.843   2.272
10691SOL    HW132972   2.965   1.905   2.271
10691SOL    HW232973   2.804   1.895   2.296
10692SOL     OW32974   2.981   0.702   4.557
10692SOL    HW132975   3.057   0.754   4.595
10692SOL    HW232976   2.959   0.625   4.617
10693SOL     OW32977   0.793   6.091   1.336
10693SOL    HW132978   0.873   6.143   1.367
10693SOL    HW232979   0.790   6.003   1.383
10694SOL     OW32980   4.841   6.089   5.906
10694SOL    HW132981   4.827   6.161   5.974
10694SOL    HW232982   4.856   6.130   5.816
10695SOL     OW32983   1.285   3.185   1.197
10695SOL    HW132984   1.351   3.153   1.265
10695SOL    HW232985   1.202   3.216   1.244
10696SOL     OW32986   6.134   3.723   4.977
10696SOL    HW132987   6.134   3.723   4.877
10696SOL    HW232988   6.227   3.737   5.011
10697SOL     OW32989   0.843   6.307   5.397
10697SOL    HW132990   0.794   6.291   5.311
10697SOL    HW232991   0.825   6.231   5.460
10698SOL     OW32992   4.918   4.394   6.944
10698SOL    HW132993   5.002   4.353   6.908
10698SOL    HW232994   4.912   4.489   6.914
10699SOL     OW32995   4.119   4.869   0.999
10699SOL    HW132996   4.108   4.773   1.025
10699SOL    HW232997   4.172   4.874   0.914
10700SOL     OW32998   6.131   6.658   0.928
10700SOL    HW132999   6.087   6.741   0.964
10700SOL    HW233000   6.213   6.638   0.981
10701SOL     OW33001   3.075   0.187   6.660
10701SOL    HW133002   3.136   0.186   6.739
10701SOL    HW233003   3.122   0.229   6.583
10702SOL     OW33004   5.143   3.099   2.795
10702SOL    HW133005   5.044   3.112   2.800
10702SOL    HW233006   5.187   3.149   2.869
10703SOL     OW33007   2.242   3.157   5.630
10703SOL    HW133008   2.263   3.181   5.536
10703SOL    HW233009   2.190   3.230   5.673
10704SOL     OW33010   6.819   5.321   2.664
10704SOL    HW133011   6.842   5.232   2.624
10704SOL    HW233012   6.900   5.379   2.665
10705SOL     OW33013   5.715   4.956   0.878
10705SOL    HW133014   5.736   4.987   0.971
10705SOL    HW233015   5.799   4.953   0.824
10706SOL     OW33016   4.951   6.891   1.714
10706SOL    HW133017   4.853   6.878   1.698
10706SOL    HW233018   4.978   6.839   1.795
10707SOL     OW33019   6.747   6.481   4.346
10707SOL    HW133020   6.743   6.537   4.263
10707SOL    HW233021   6.773   6.539   4.424
10708SOL     OW33022   4.936   1.064   1.889
10708SOL    HW133023   4.915   0.998   1.961
10708SOL    HW233024   4.854   1.117   1.868
10709SOL     OW33025   5.838   5.567   3.980
10709SOL    HW133026   5.877   5.621   3.904
10709SOL    HW233027   5.739   5.582   3.983
10710SOL     OW33028   5.634   0.608   3.719
10710SOL    HW133029   5.640   0.514   3.752
10710SOL    HW233030   5.577   0.661   3.781
10711SOL     OW33031   2.351   0.128   3.491
10711SOL    HW133032   2.393   0.047   3.532
10711SOL    HW233033   2.384   0.139   3.397
10712SOL     OW33034   4.104   0.295   3.094
10712SOL    HW133035   4.036   0.222   3.086
10712SOL    HW233036   4.184   0.261   3.143
10713SOL     OW33037   1.269   2.419   0.127
10713SOL    HW133038   1.221   2.466   0.201
10713SOL    HW233039   1.364   2.403   0.155
10714SOL     OW33040   4.354   3.264   5.467
10714SOL    HW133041   4.314   3.194   5.527
10714SOL    HW233042   4.282   3.309   5.415
10715SOL     OW33043   4.265   0.305   2.386
10715SOL    HW133044   4.297   0.254   2.465
10715SOL    HW233045   4.343   0.327   2.327
10716SOL     OW33046   6.200   2.751   3.150
10716SOL    HW133047   6.274   2.706   3.201
10716SOL    HW233048   6.228   2.843   3.124
10717SOL     OW33049   1.803   2.946   1.149
10717SOL    HW133050   1.892   2.989   1.167
10717SOL    HW233051   1.792   2.931   1.051
10718SOL     OW33052   0.874   4.322   6.582
10718SOL    HW133053   0.918   4.410   6.566
10718SOL    HW233054   0.824   4.293   6.500
10719SOL     OW33055   6.366   5.884   3.240
10719SOL    HW133056   6.289   5.844   3.191
10719SOL    HW233057   6.345   5.980   3.260
10720SOL     OW33058   6.058   5.107   4.416
10720SOL    HW133059   6.061   5.009   4.433
10720SOL    HW233060   6.119   5.130   4.339
10721SOL     OW33061   5.048   4.097   5.242
10721SOL    HW133062   5.051   4.176   5.304
10721SOL    HW233063   5.064   4.126   5.148
10722SOL     OW33064   6.434   4.273   0.117
10722SOL    HW133065   6.534   4.266   0.127
10722SOL    HW233066   6.390   4.246   0.202
10723SOL     OW33067   6.925   1.761   6.726
10723SOL    HW133068   6.923   1.681   6.665
10723SOL    HW233069   7.018   1.797   6.730
10724SOL     OW33070   6.707   6.612   6.208
10724SOL    HW133071   6.744   6.627   6.300
10724SOL    HW233072   6.661   6.523   6.205
10725SOL     OW33073   2.344   5.982   5.291
10725SOL    HW133074   2.292   6.044   5.349
10725SOL    HW233075   2.315   5.887   5.308
10726SOL     OW33076   4.761   0.539   4.485
10726SOL    HW133077   4.787   0.497   4.398
10726SOL    HW233078   4.686   0.603   4.469
10727SOL     OW33079   0.279   5.268   5.937
10727SOL    HW133080   0.276   5.289   5.839
10727SOL    HW233081   0.348   5.325   5.982
10728SOL     OW33082   0.760   5.204   6.616
10728SOL    HW133083   0.794   5.142   6.687
10728SOL    HW233084   0.799   5.295   6.629
10729SOL     OW33085   6.366   1.265   2.431
10729SOL    HW133086   6.451   1.224   2.398
10729SOL    HW233087   6.290   1.234   2.373
10730SOL     OW33088   3.171   0.079   0.836
10730SOL    HW133089   3.180   0.171   0.873
10730SOL    HW233090   3.094   0.033   0.880
10731SOL     OW33091   3.551   0.663   0.857
10731SOL    HW133092   3.451   0.656   0.852
10731SOL    HW233093   3.591   0.572   0.861
10732SOL     OW33094   0.626   4.829   5.492
10732SOL    HW133095   0.539   4.781   5.498
10732SOL    HW233096   0.615   4.923   5.523
10733SOL     OW33097   5.997   1.547   6.655
10733SOL    HW133098   6.088   1.580   6.632
10733SOL    HW233099   5.981   1.557   6.754
10734SOL     OW33100   1.719   1.284   0.275
10734SOL    HW133101   1.674   1.218   0.335
10734SOL    HW233102   1.759   1.236   0.196
10735SOL     OW33103   0.861   2.952   2.287
10735SOL    HW133104   0.811   2.931   2.203
10735SOL    HW233105   0.901   2.869   2.324
10736SOL     OW33106   1.427   0.495   3.419
10736SOL    HW133107   1.488   0.504   3.497
10736SOL    HW233108   1.446   0.409   3.371
10737SOL     OW33109   1.219   2.201   0.820
10737SOL    HW133110   1.214   2.278   0.757
10737SOL    HW233111   1.218   2.235   0.914
10738SOL     OW33112   2.872   6.556   2.185
10738SOL    HW133113   2.910   6.559   2.093
10738SOL    HW233114   2.888   6.644   2.230
10739SOL     OW33115   2.089   1.355   1.141
10739SOL    HW133116   2.160   1.312   1.197
10739SOL    HW233117   2.061   1.441   1.183
10740SOL     OW33118   0.143   5.059   5.440
10740SOL    HW133119   0.142   5.154   5.407
10740SOL    HW233120   0.075   5.048   5.512
10741SOL     OW33121   4.418   1.218   1.506
10741SOL    HW133122   4.370   1.173   1.581
10741SOL    HW233123   4.353   1.240   1.433
10742SOL     OW33124   6.049   6.965   1.459
10742SOL    HW133125   6.021   0.037   1.471
10742SOL    HW233126   5.990   6.906   1.515
10743SOL     OW33127   1.310   2.626   5.885
10743SOL    HW133128   1.409   2.615   5.895
10743SOL    HW233129   1.291   2.699   5.820
10744SOL     OW33130   3.496   1.070   0.575
10744SOL    HW133131   3.528   1.063   0.481
10744SOL    HW233132   3.570   1.044   0.638
10745SOL     OW33133   6.934   5.825   5.779
10745SOL    HW133134   6.928   5.765   5.699
10745SOL    HW233135   6.849   5.819   5.831
10746SOL     OW33136   1.512   4.390   0.649
10746SOL    HW133137   1.571   4.449   0.593
10746SOL    HW233138   1.532   4.406   0.746
10747SOL     OW33139   3.813   1.471   4.841
10747SOL    HW133140   3.810   1.396   4.907
10747SOL    HW233141   3.835   1.556   4.888
10748SOL     OW33142   5.521   0.758   1.257
10748SOL    HW133143   5.563   0.828   1.314
10748SOL    HW233144   5.435   0.729   1.298
10749SOL     OW33145   0.015   5.827   3.951
10749SOL    HW133146   7.012   5.877   3.868
10749SOL    HW233147   6.994   5.738   3.952
10750SOL     OW33148   3.851   6.663   4.789
10750SOL    HW133149   3.903   6.600   4.731
10750SOL    HW233150   3.835   6.749   4.741
10751SOL     OW33151   1.548   4.711   3.849
10751SOL    HW133152   1.474   4.644   3.843
10751SOL    HW233153   1.592   4.703   3.939
10752SOL     OW33154   5.955   4.840   5.057
10752SOL    HW133155   5.906   4.815   5.141
10752SOL    HW233156   5.925   4.930   5.026
10753SOL     OW33157   6.271   4.766   4.327
10753SOL    HW133158   6.176   4.743   4.306
10753SOL    HW233159   6.278   4.864   4.346
10754SOL     OW33160   0.829   6.872   3.362
10754SOL    HW133161   0.910   6.814   3.351
10754SOL    HW233162   0.814   6.891   3.459
10755SOL     OW33163   6.730   0.275   0.781
10755SOL    HW133164   6.804   0.236   0.836
10755SOL    HW233165   6.648   0.284   0.838
10756SOL     OW33166   6.830   5.468   5.841
10756SOL    HW133167   6.907   5.517   5.882
10756SOL    HW233168   6.857   5.430   5.753
10757SOL     OW33169   1.737   2.471   7.005
10757SOL    HW133170   1.695   2.390   6.963
10757SOL    HW233171   1.820   2.444   0.031
10758SOL     OW33172   0.950   6.225   4.406
10758SOL    HW133173   1.030   6.269   4.365
10758SOL    HW233174   0.911   6.284   4.476
10759SOL     OW33175   2.072   4.065   0.667
10759SOL    HW133176   2.042   4.089   0.574
10759SOL    HW233177   2.035   4.131   0.732
10760SOL     OW33178   5.754   0.532   3.267
10760SOL    HW133179   5.730   0.496   3.176
10760SOL    HW233180   5.804   0.462   3.318
10761SOL     OW33181   0.182   5.588   5.691
10761SOL    HW133182   0.130   5.582   5.776
10761SOL    HW233183   0.236   5.505   5.679
10762SOL     OW33184   2.999   1.206   4.669
10762SOL    HW133185   3.085   1.162   4.645
10762SOL    HW233186   2.971   1.178   4.761
10763SOL     OW33187   3.482   6.742   2.604
10763SOL    HW133188   3.513   6.691   2.683
10763SOL    HW233189   3.520   6.835   2.606
10764SOL     OW33190   5.341   1.898   5.538
10764SOL    HW133191   5.307   1.804   5.530
10764SOL    HW233192   5.363   1.918   5.633
10765SOL     OW33193   4.885   2.921   0.554
10765SOL    HW133194   4.836   2.844   0.513
10765SOL    HW233195   4.922   2.893   0.642
10766SOL     OW33196   4.333   4.746   0.837
10766SOL    HW133197   4.287   4.801   0.767
10766SOL    HW233198   4.432   4.752   0.825
10767SOL     OW33199   2.656   0.739   1.260
10767SOL    HW133200   2.635   0.717   1.165
10767SOL    HW233201   2.755   0.743   1.272
10768SOL     OW33202   5.226   5.274   1.136
10768SOL    HW133203   5.284   5.212   1.189
10768SOL    HW233204   5.278   5.356   1.112
10769SOL     OW33205   1.933   4.411   5.816
10769SOL    HW133206   1.864   4.455   5.759
10769SOL    HW233207   2.022   4.417   5.772
10770SOL     OW33208   4.846   6.467   3.880
10770SOL    HW133209   4.759   6.481   3.832
10770SOL    HW233210   4.914   6.431   3.816
10771SOL     OW33211   4.096   0.053   3.906
10771SOL    HW133212   4.084   0.028   4.002
10771SOL    HW233213   4.037   0.131   3.883
10772SOL     OW33214   6.006   6.641   4.844
10772SOL    HW133215   5.977   6.645   4.939
10772SOL    HW233216   5.990   6.549   4.807
10773SOL     OW33217   5.721   4.844   6.878
10773SOL    HW133218   5.743   4.754   6.917
10773SOL    HW233219   5.632   4.840   6.834
10774SOL     OW33220   1.885   0.812   5.589
10774SOL    HW133221   1.962   0.751   5.571
10774SOL    HW233222   1.800   0.768   5.562
10775SOL     OW33223   0.506   4.659   2.524
10775SOL    HW133224   0.544   4.654   2.616
10775SOL    HW233225   0.513   4.753   2.490
10776SOL     OW33226   0.820   1.321   0.010
10776SOL    HW133227   0.878   1.328   0.092
10776SOL    HW233228   0.846   1.393   6.968
10777SOL     OW33229   3.845   5.555   1.361
10777SOL    HW133230   3.745   5.555   1.364
10777SOL    HW233231   3.876   5.556   1.266
10778SOL     OW33232   5.072   6.914   3.648
10778SOL    HW133233   5.029   6.824   3.658
10778SOL    HW233234   5.005   6.985   3.667
10779SOL     OW33235   5.570   2.726   2.970
10779SOL    HW133236   5.570   2.749   2.873
10779SOL    HW233237   5.599   2.631   2.982
10780SOL     OW33238   1.280   0.513   4.142
10780SOL    HW133239   1.260   0.479   4.234
10780SOL    HW233240   1.379   0.513   4.127
10781SOL     OW33241   3.779   0.708   3.757
10781SOL    HW133242   3.825   0.622   3.778
10781SOL    HW233243   3.781   0.768   3.837
10782SOL     OW33244   7.009   0.974   2.837
10782SOL    HW133245   0.073   0.926   2.827
10782SOL    HW233246   0.004   1.070   2.859
10783SOL     OW33247   0.605   2.717   2.768
10783SOL    HW133248   0.569   2.739   2.859
10783SOL    HW233249   0.683   2.655   2.776
10784SOL     OW33250   3.814   0.827   4.038
10784SOL    HW133251   3.874   0.906   4.050
10784SOL    HW233252   3.728   0.842   4.086
10785SOL     OW33253   0.931   3.817   0.918
10785SOL    HW133254   0.967   3.866   0.838
10785SOL    HW233255   0.873   3.878   0.972
10786SOL     OW33256   6.073   5.090   3.079
10786SOL    HW133257   6.024   5.177   3.091
10786SOL    HW233258   6.054   5.030   3.157
10787SOL     OW33259   0.993   1.040   6.055
10787SOL    HW133260   1.082   1.029   6.098
10787SOL    HW233261   0.959   0.950   6.026
10788SOL     OW33262   0.667   4.110   0.246
10788SOL    HW133263   0.593   4.043   0.246
10788SOL    HW233264   0.737   4.083   0.313
10789SOL     OW33265   6.451   3.610   6.551
10789SOL    HW133266   6.530   3.554   6.575
10789SOL    HW233267   6.480   3.705   6.538
10790SOL     OW33268   0.740   6.930   1.926
10790SOL    HW133269   0.728   6.854   1.862
10790SOL    HW233270   0.829   6.973   1.911
10791SOL     OW33271   0.416   5.877   2.158
10791SOL    HW133272   0.505   5.879   2.113
10791SOL    HW233273   0.363   5.799   2.123
10792SOL     OW33274   3.283   2.900   4.887
10792SOL    HW133275   3.288   2.987   4.937
10792SOL    HW233276   3.292   2.824   4.951
10793SOL     OW33277   6.262   4.019   5.760
10793SOL    HW133278   6.223   3.974   5.840
10793SOL    HW233279   6.353   3.981   5.741
10794SOL     OW33280   3.915   3.777   4.192
10794SOL    HW133281   3.917   3.755   4.289
10794SOL    HW233282   3.894   3.874   4.180
10795SOL     OW33283   0.114   5.247   2.767
10795SOL    HW133284   0.131   5.270   2.671
10795SOL    HW233285   0.069   5.158   2.772
10796SOL     OW33286   6.722   0.171   5.003
10796SOL    HW133287   6.632   0.135   4.977
10796SOL    HW233288   6.718   0.271   5.005
10797SOL     OW33289   3.584   2.820   1.441
10797SOL    HW133290   3.536   2.773   1.515
10797SOL    HW233291   3.518   2.871   1.385
10798SOL     OW33292   2.485   1.287   0.385
10798SOL    HW133293   2.537   1.211   0.423
10798SOL    HW233294   2.545   1.344   0.328
10799SOL     OW33295   4.142   0.851   2.404
10799SOL    HW133296   4.193   0.937   2.399
10799SOL    HW233297   4.056   0.867   2.453
10800SOL     OW33298   1.046   5.970   5.845
10800SOL    HW133299   1.068   6.065   5.863
10800SOL    HW233300   1.116   5.911   5.885
10801SOL     OW33301   1.157   0.097   6.977
10801SOL    HW133302   1.124   0.183   6.936
10801SOL    HW233303   1.104   0.020   6.940
10802SOL     OW33304   0.230   0.202   2.842
10802SOL    HW133305   0.200   0.235   2.752
10802SOL    HW233306   0.329   0.187   2.840
10803SOL     OW33307   1.623   5.220   5.757
10803SOL    HW133308   1.628   5.264   5.668
10803SOL    HW233309   1.634   5.288   5.830
10804SOL     OW33310   6.492   2.652   3.186
10804SOL    HW133311   6.560   2.698   3.129
10804SOL    HW233312   6.469   2.563   3.146
10805SOL     OW33313   5.309   0.456   5.026
10805SOL    HW133314   5.230   0.491   5.075
10805SOL    HW233315   5.306   0.486   4.931
10806SOL     OW33316   3.877   4.833   6.642
10806SOL    HW133317   3.936   4.765   6.684
10806SOL    HW233318   3.881   4.823   6.542
10807SOL     OW33319   1.072   5.885   3.718
10807SOL    HW133320   0.991   5.874   3.662
10807SOL    HW233321   1.045   5.902   3.813
10808SOL     OW33322   0.222   2.213   5.871
10808SOL    HW133323   0.140   2.157   5.861
10808SOL    HW233324   0.259   2.202   5.963
10809SOL     OW33325   2.376   4.519   4.055
10809SOL    HW133326   2.302   4.585   4.053
10809SOL    HW233327   2.402   4.495   3.962
10810SOL     OW33328   6.896   0.220   3.732
10810SOL    HW133329   6.964   0.289   3.707
10810SOL    HW233330   6.942   0.133   3.748
10811SOL     OW33331   4.357   5.009   5.425
10811SOL    HW133332   4.425   5.050   5.364
10811SOL    HW233333   4.314   5.081   5.480
10812SOL     OW33334   6.673   4.072   6.259
10812SOL    HW133335   6.708   4.000   6.319
10812SOL    HW233336   6.725   4.072   6.174
10813SOL     OW33337   0.871   3.917   6.047
10813SOL    HW133338   0.884   4.000   5.992
10813SOL    HW233339   0.900   3.934   6.141
10814SOL     OW33340   2.105   6.959   0.113
10814SOL    HW133341   2.182   6.898   0.133
10814SOL    HW233342   2.059   6.984   0.198
10815SOL     OW33343   5.177   2.284   2.689
10815SOL    HW133344   5.219   2.232   2.763
10815SOL    HW233345   5.180   2.231   2.605
10816SOL     OW33346   3.678   3.814   2.730
10816SOL    HW133347   3.750   3.745   2.718
10816SOL    HW233348   3.602   3.774   2.781
10817SOL     OW33349   3.322   0.953   3.324
10817SOL    HW133350   3.243   0.950   3.263
10817SOL    HW233351   3.334   0.864   3.368
10818SOL     OW33352   4.699   4.977   5.762
10818SOL    HW133353   4.784   4.925   5.767
10818SOL    HW233354   4.702   5.039   5.683
10819SOL     OW33355   5.967   5.168   6.122
10819SOL    HW133356   5.986   5.110   6.201
10819SOL    HW233357   5.876   5.148   6.087
10820SOL     OW33358   0.291   5.545   4.776
10820SOL    HW133359   0.243   5.607   4.714
10820SOL    HW233360   0.390   5.553   4.761
10821SOL     OW33361   4.417   6.774   2.812
10821SOL    HW133362   4.474   6.706   2.765
10821SOL    HW233363   4.459   6.864   2.804
10822SOL     OW33364   6.437   1.916   1.269
10822SOL    HW133365   6.384   1.958   1.343
10822SOL    HW233366   6.416   1.962   1.183
10823SOL     OW33367   0.177   0.566   3.444
10823SOL    HW133368   0.149   0.657   3.475
10823SOL    HW233369   0.277   0.563   3.436
10824SOL     OW33370   1.041   1.743   2.286
10824SOL    HW133371   1.075   1.671   2.346
10824SOL    HW233372   1.088   1.739   2.198
10825SOL     OW33373   1.553   2.327   0.289
10825SOL    HW133374   1.647   2.360   0.285
10825SOL    HW233375   1.537   2.261   0.215
10826SOL     OW33376   0.775   2.144   2.228
10826SOL    HW133377   0.685   2.188   2.232
10826SOL    HW233378   0.846   2.213   2.242
10827SOL     OW33379   6.444   3.070   4.766
10827SOL    HW133380   6.372   3.025   4.819
10827SOL    HW233381   6.533   3.039   4.798
10828SOL     OW33382   0.279   4.054   0.388
10828SOL    HW133383   0.186   4.032   0.357
10828SOL    HW233384   0.300   4.149   0.364
10829SOL     OW33385   4.319   4.061   0.030
10829SOL    HW133386   4.325   3.985   6.987
10829SOL    HW233387   4.370   4.139   7.017
10830SOL     OW33388   4.725   1.872   3.954
10830SOL    HW133389   4.802   1.812   3.976
10830SOL    HW233390   4.757   1.947   3.896
10831SOL     OW33391   3.212   6.924   1.897
10831SOL    HW133392   3.226   6.861   1.974
10831SOL    HW233393   3.132   6.981   1.915
10832SOL     OW33394   6.189   3.574   6.601
10832SOL    HW133395   6.288   3.576   6.585
10832SOL    HW233396   6.158   3.480   6.606
10833SOL     OW33397   0.644   2.453   0.610
10833SOL    HW133398   0.690   2.541   0.627
10833SOL    HW233399   0.640   2.436   0.511
10834SOL     OW33400   6.951   1.541   0.227
10834SOL    HW133401   6.852   1.553   0.228
10834SOL    HW233402   6.990   1.577   0.312
10835SOL     OW33403   5.333   3.253   0.052
10835SOL    HW133404   5.243   3.260   0.010
10835SOL    HW233405   5.369   3.161   0.038
10836SOL     OW33406   1.024   1.421   2.828
10836SOL    HW133407   0.944   1.415   2.768
10836SOL    HW233408   1.032   1.337   2.881
10837SOL     OW33409   6.192   4.695   2.229
10837SOL    HW133410   6.250   4.638   2.288
10837SOL    HW233411   6.250   4.749   2.167
10838SOL     OW33412   5.693   6.338   4.045
10838SOL    HW133413   5.733   6.329   4.136
10838SOL    HW233414   5.682   6.247   4.004
10839SOL     OW33415   4.892   3.340   0.814
10839SOL    HW133416   4.867   3.366   0.907
10839SOL    HW233417   4.866   3.413   0.751
10840SOL     OW33418   3.842   0.338   2.834
10840SOL    HW133419   3.801   0.363   2.747
10840SOL    HW233420   3.809   0.399   2.906
10841SOL     OW33421   6.226   4.755   5.121
10841SOL    HW133422   6.306   4.814   5.126
10841SOL    HW233423   6.163   4.790   5.051
10842SOL     OW33424   4.520   2.291   1.331
10842SOL    HW133425   4.570   2.253   1.409
10842SOL    HW233426   4.478   2.378   1.358
10843SOL     OW33427   1.687   1.455   1.063
10843SOL    HW133428   1.756   1.526   1.053
10843SOL    HW233429   1.711   1.377   1.005
10844SOL     OW33430   0.149   4.816   3.741
10844SOL    HW133431   0.228   4.765   3.776
10844SOL    HW233432   0.067   4.789   3.791
10845SOL     OW33433   4.245   5.882   4.839
10845SOL    HW133434   4.337   5.841   4.839
10845SOL    HW233435   4.182   5.824   4.787
10846SOL     OW33436   5.725   6.859   6.927
10846SOL    HW133437   5.666   6.923   6.878
10846SOL    HW233438   5.763   6.792   6.862
10847SOL     OW33439   2.910   2.287   6.973
10847SOL    HW133440   2.952   2.357   6.916
10847SOL    HW233441   2.938   2.301   0.046
10848SOL     OW33442   0.483   3.926   0.813
10848SOL    HW133443   0.496   3.992   0.887
10848SOL    HW233444   0.413   3.860   0.838
10849SOL     OW33445   2.635   4.616   4.111
10849SOL    HW133446   2.544   4.579   4.088
10849SOL    HW233447   2.641   4.629   4.210
10850SOL     OW33448   4.206   6.321   0.198
10850SOL    HW133449   4.258   6.402   0.170
10850SOL    HW233450   4.109   6.345   0.206
10851SOL     OW33451   2.996   4.065   1.167
10851SOL    HW133452   3.013   4.076   1.264
10851SOL    HW233453   2.942   4.142   1.133
10852SOL     OW33454   2.182   1.495   6.991
10852SOL    HW133455   2.118   1.429   6.953
10852SOL    HW233456   2.133   1.556   0.032
10853SOL     OW33457   2.695   3.432   6.054
10853SOL    HW133458   2.618   3.490   6.030
10853SOL    HW233459   2.738   3.396   5.971
10854SOL     OW33460   4.625   5.206   5.320
10854SOL    HW133461   4.661   5.217   5.228
10854SOL    HW233462   4.586   5.293   5.352
10855SOL     OW33463   3.877   0.539   0.705
10855SOL    HW133464   3.843   0.569   0.616
10855SOL    HW233465   3.971   0.572   0.718
10856SOL     OW33466   6.935   1.278   6.573
10856SOL    HW133467   7.011   1.224   6.537
10856SOL    HW233468   6.906   1.239   6.661
10857SOL     OW33469   0.415   1.961   2.732
10857SOL    HW133470   0.478   1.981   2.657
10857SOL    HW233471   0.400   1.862   2.737
10858SOL     OW33472   2.072   0.308   0.818
10858SOL    HW133473   2.101   0.358   0.900
10858SOL    HW233474   2.153   0.284   0.764
10859SOL     OW33475   6.961   4.470   4.592
10859SOL    HW133476   6.948   4.555   4.540
10859SOL    HW233477   0.019   4.480   4.651
10860SOL     OW33478   6.902   3.493   3.935
10860SOL    HW133479   6.828   3.471   3.872
10860SOL    HW233480   6.867   3.496   4.029
10861SOL     OW33481   3.068   3.078   2.883
10861SOL    HW133482   3.060   2.979   2.885
10861SOL    HW233483   3.138   3.105   2.816
10862SOL     OW33484   2.469   0.702   5.499
10862SOL    HW133485   2.421   0.737   5.419
10862SOL    HW233486   2.418   0.727   5.582
10863SOL     OW33487   2.257   0.382   4.686
10863SOL    HW133488   2.259   0.480   4.667
10863SOL    HW233489   2.162   0.349   4.680
10864SOL     OW33490   2.580   6.539   1.052
10864SOL    HW133491   2.676   6.509   1.061
10864SOL    HW233492   2.570   6.630   1.090
10865SOL     OW33493   6.681   1.572   0.188
10865SOL    HW133494   6.658   1.666   0.163
10865SOL    HW233495   6.623   1.542   0.264
10866SOL     OW33496   5.733   5.105   0.141
10866SOL    HW133497   5.783   5.019   0.146
10866SOL    HW233498   5.764   5.166   0.214
10867SOL     OW33499   3.108   4.111   0.435
10867SOL    HW133500   3.106   4.171   0.514
10867SOL    HW233501   3.201   4.080   0.419
10868SOL     OW33502   5.093   1.854   3.799
10868SOL    HW133503   5.057   1.798   3.725
10868SOL    HW233504   5.190   1.872   3.783
10869NA      NA33505   6.536   2.588   5.516
10870NA      NA33506   4.392   4.608   5.269
10871NA      NA33507   1.851   3.140   1.621
10872NA      NA33508   5.017   3.893   5.360
10873NA      NA33509   4.020   2.213   4.997
10874NA      NA33510   3.735   4.854   1.798
10875NA      NA33511   6.682   5.329   5.950
10876NA      NA33512   3.363   3.458   4.719
10877NA      NA33513   4.743   6.056   6.972
10878NA      NA33514   3.812   6.411   5.303
10879NA      NA33515   6.391   5.175   2.812
10880NA      NA33516   2.601   0.531   3.701
10881NA      NA33517   3.867   5.447   1.634
10882NA      NA33518   3.914   3.388   2.162
   7.02275   7.02275   7.02275
